Membrane in water
40347
    1TMC1    C1    1   1.984   2.515  11.853 -0.1453 -0.8621 -0.4441
    1TMC1    C2    2   2.104   2.549  11.795 -0.3872 -0.3632 -0.9221
    1TMC1    C3    3   2.130   2.683  11.789 -0.1460  0.5576 -0.1992
    1TMC1    C4    4   1.909   2.598  11.930  0.0385 -0.5549  0.4119
    1TMC1    C5    5   1.944   2.730  11.924  0.4000  0.4666 -0.5177
    1TMC1    C6    6   2.058   2.769  11.854 -0.7792  0.2775 -0.1890
    1TMC1     C    7   1.932   2.380  11.823 -0.1216 -0.3069  0.0580
    1TMC1     O    8   1.831   2.349  11.881 -0.6227 -0.3507  0.3870
    1TMC1     H    9   2.180   2.479  11.761 -1.7428 -1.9279 -0.7160
    1TMC1    H1   10   1.821   2.566  11.985 -1.0042  1.3717 -0.1173
    1TMC1    H2   11   2.077   2.874  11.835  1.0359 -0.1298 -0.6148
    1TMC1    C7   12   1.855   2.818  11.979 -0.3741  0.7962 -0.3091
    1TMC1    C8   13   2.262   2.725  11.739  0.4593  0.2317  0.7241
    1TMC1    O1   14   1.731   2.806  11.956  0.5743  0.3571  0.6087
    1TMC1    O2   15   2.364   2.665  11.766 -0.1037  0.5363 -0.5214
    1TMC1    O3   16   1.927   2.933  12.015 -0.1263 -0.3648 -0.3317
    1TMC1    H3   17   2.024   2.919  12.018 -0.0229  1.0911  2.5851
    1TMC1    O5   18   2.247   2.819  11.655  0.2231  0.2524  0.0826
    1TMC1    H5   19   2.151   2.839  11.649  0.2294 -0.0584 -1.1512
    2MPD2     C   20   1.931   1.954  11.542 -0.6702  0.0534 -0.0051
    2MPD2    C1   21   1.844   1.996  11.638  0.4648 -0.7949 -0.3193
    2MPD2    C2   22   1.868   2.120  11.694  0.5415  0.2483 -0.4531
    2MPD2    C3   23   1.972   2.197  11.654 -0.6372  0.9690 -0.2233
    2MPD2    C4   24   2.055   2.158  11.557  0.3054  0.5663 -0.1066
    2MPD2    C5   25   2.030   2.041  11.500 -0.6381 -0.6471  0.3620
    2MPD2     H   26   1.798   2.148  11.772 -0.1982 -1.3738 -0.5347
    2MPD2    H1   27   2.136   2.218  11.517 -0.6531  1.7920 -0.2012
    2MPD2    H2   28   1.924   1.856  11.496 -1.1653 -0.3434  0.9183
    2MPD2    H3   29   2.091   2.008  11.417  1.0693  0.4326  1.1839
    2MPD2     N   30   2.000   2.323  11.722  0.3645  0.0531 -0.1141
    2MPD2    H5   31   2.085   2.366  11.687 -0.5425  3.0033  1.3113
    2MPD2    N1   32   1.742   1.918  11.689 -0.0242 -0.7698  0.7359
    2MPD2    H7   33   1.702   1.949  11.777  0.1229 -0.2993  0.6403
    3TMC1    C1   34   1.279   2.799  10.689 -0.7403  0.4393 -0.4037
    3TMC1    C2   35   1.328   2.674  10.703  0.0588 -0.4162  0.1194
    3TMC1    C3   36   1.449   2.654  10.648 -0.7237  0.0276  0.0216
    3TMC1    C4   37   1.345   2.895  10.627 -0.1422  0.1791  0.2247
    3TMC1    C5   38   1.459   2.868  10.571 -1.1163  0.0518  0.4238
    3TMC1    C6   39   1.520   2.748  10.578 -0.0857 -0.4345  0.2172
    3TMC1     C   40   1.160   2.825  10.762  0.0725 -0.4428  0.3552
    3TMC1     O   41   1.104   2.726  10.805 -0.2682 -0.4933  0.2621
    3TMC1     H   42   1.276   2.591  10.749 -1.0748  0.3802  0.2806
    3TMC1    H1   43   1.303   2.995  10.625  0.8157  0.5940  0.9212
    3TMC1    H2   44   1.613   2.722  10.528  0.2706  1.5876 -0.1942
    3TMC1    C7   45   1.537   2.982  10.534  0.5692  0.5406  0.0617
    3TMC1    C8   46   1.501   2.520  10.660 -0.2029 -0.1455 -0.3546
    3TMC1    O1   47   1.468   3.073  10.493 -0.3948  0.1450  0.0982
    3TMC1    O2   48   1.435   2.427  10.708  0.3067  0.2076 -0.8182
    3TMC1    O3   49   1.661   2.979  10.585  0.8399  0.0389 -0.4266
    3TMC1    H3   50   1.694   2.896  10.627  2.3028  1.3581  1.0291
    3TMC1    O5   51   1.631   2.538  10.675 -0.4443  0.7164  0.0028
    3TMC1    H5   52   1.665   2.629  10.665 -2.7144  1.7013  1.2026
    4MPD2     C   53   0.840   3.123  11.046  0.9036  0.4241  0.5547
    4MPD2    C1   54   0.955   3.195  11.030  0.6485  0.3396 -0.3861
    4MPD2    C2   55   1.058   3.135  10.954 -0.0588  0.6441 -0.9003
    4MPD2    C3   56   1.042   3.007  10.893  0.0291  0.8048  0.0947
    4MPD2    C4   57   0.920   2.939  10.913  0.4321 -0.0537 -0.4191
    4MPD2    C5   58   0.825   3.000  10.996 -0.7774  0.4140  0.1451
    4MPD2     H   59   1.154   3.183  10.942  0.5908 -0.9886 -2.1693
    4MPD2    H1   60   0.898   2.839  10.877 -0.8830  1.0428 -2.6778
    4MPD2    H2   61   0.765   3.164  11.113 -2.1125 -2.5802 -0.9836
    4MPD2    H3   62   0.736   2.946  11.027 -0.3065 -0.8895 -0.7720
    4MPD2     N   63   1.145   2.959  10.808 -0.4882 -0.4199  0.4600
    4MPD2    H5   64   1.228   3.017  10.800 -0.6455 -0.5203 -1.8010
    4MPD2    N1   65   0.971   3.331  11.075  0.0044  0.1550  0.0755
    4MPD2    H7   66   1.065   3.365  11.056  0.1384  0.6029  1.5542
    5TCq1    O1   67   2.366   0.337  10.191  0.3794 -0.6124 -0.3383
    5TCq1    C1   68   2.335   0.310  10.063 -0.1553  0.0375 -0.5057
    5TCq1    O2   69   2.306   0.395   9.978 -0.0574  0.4798 -0.7723
    5TCq1    C2   70   2.316   0.163  10.053  0.0308 -0.1945  0.8662
    5TCq1    C3   71   2.215   0.122   9.978 -0.0725  0.1301 -0.3363
    5TCq1    C4   72   2.159   4.735   9.997 -0.5329 -0.0064 -0.3356
    5TCq1    C5   73   2.224   4.645  10.084  0.1982  0.8702 -0.0541
    5TCq1    C6   74   2.337   4.686  10.151  0.0775  0.5799  0.3559
    5TCq1    C7   75   2.379   0.075  10.135  0.1251  0.0768  0.0617
    5TCq1    C8   76   2.401   4.600  10.247 -0.1655 -0.6264 -0.1787
    5TCq1    O4   77   2.334   4.516  10.303  0.1156 -0.0554 -0.5532
    5TCq1    C9   78   2.025   4.701   9.940 -0.2971 -0.4872 -0.8684
    5TCq1    O5   79   1.982   0.058   9.868  0.3632  0.3704  0.1772
    5TCq1    O6   80   1.968   4.596   9.975 -0.2006 -0.3772 -0.4425
    5TCq1    H1   81   2.371   0.254  10.243  1.6821  0.1332  0.7140
    5TCq1    H2   82   2.156   0.197   9.926  2.6076  0.7512 -2.4974
    5TCq1    H3   83   2.178   4.548  10.101 -1.5136  1.7473  0.2681
    5TCq1    H4   84   2.454   0.120  10.200 -1.2167  1.7227  0.4756
    6MPD2     C   85   2.756   4.602  10.351  0.2561  0.6112  0.2417
    6MPD2    C1   86   2.619   4.570  10.352 -0.4360 -0.4421  0.0480
    6MPD2    C2   87   2.584   4.474  10.451  0.5151  0.6021  0.1357
    6MPD2    C3   88   2.679   4.407  10.522  0.1739  0.3326  0.5160
    6MPD2    C4   89   2.811   4.442  10.524 -0.2125 -0.2643 -0.4464
    6MPD2    C5   90   2.846   4.537  10.435 -0.7487 -0.9784  0.1709
    6MPD2     H   91   2.479   4.447  10.456  0.5840  0.8980  2.9473
    6MPD2    H1   92   2.885   4.390  10.585  1.6988  2.4351 -0.4722
    6MPD2    H2   93   2.795   4.668  10.274 -1.7204  1.3633 -0.1209
    6MPD2    H3   94   2.947   4.577  10.430 -0.7264 -0.8213  1.9149
    6MPD2     N   95   2.620   4.316  10.616 -0.5018  0.1838  0.2782
    6MPD2    H5   96   2.520   4.306  10.605 -0.2734 -3.4809  1.3083
    6MPD2    N1   97   2.535   4.623  10.255 -0.2264  0.4237 -0.2297
    6MPD2    H7   98   2.577   4.690  10.191 -1.1845  1.7263  0.5102
    7TCq1    O1   99   4.328   0.281  13.700  0.0203 -0.2889  0.4601
    7TCq1    C1  100   4.288   0.309  13.577 -0.1446  0.1483  0.2031
    7TCq1    O2  101   4.178   0.349  13.540 -0.0883 -0.1832 -0.5291
    7TCq1    C2  102   4.389   0.249  13.488 -0.7366 -0.4206  0.2198
    7TCq1    C3  103   4.384   0.284  13.355  0.6345 -0.2465 -0.5250
    7TCq1    C4  104   4.452   0.206  13.263  0.0434 -0.2338 -0.6574
    7TCq1    C5  105   4.520   0.099  13.304  0.4488  0.5669 -0.4924
    7TCq1    C6  106   4.518   0.063  13.433  0.3523  0.3521 -0.4722
    7TCq1    C7  107   4.445   0.129  13.529  0.4719 -0.4862 -0.4016
    7TCq1    C8  108   4.546   4.663  13.459 -0.3181  0.0856  0.6753
    7TCq1    O4  109   4.493   4.615  13.563  0.4443  0.2386  0.5354
    7TCq1    C9  110   4.438   0.241  13.131  0.5675 -0.0816  0.0854
    7TCq1    O5  111   4.533   0.213  13.058 -0.6831 -0.3282  0.0407
    7TCq1    O6  112   4.328   0.287  13.091 -0.3312 -0.5222 -0.4493
    7TCq1    H1  113   4.426   0.272  13.699  0.1344  1.1849 -0.9701
    7TCq1    H2  114   4.314   0.359  13.319 -1.8563 -2.2647  0.0364
    7TCq1    H3  115   4.558   0.029  13.231 -2.4866 -0.0113 -1.4588
    7TCq1    H4  116   4.424   0.088  13.627  0.4529  1.3709  0.3635
    8MPD2     C  117   4.721   4.222  13.295 -0.4737 -0.3927  0.0933
    8MPD2    C1  118   4.615   4.247  13.376 -0.0766 -0.1255  0.2629
    8MPD2    C2  119   4.593   4.378  13.415 -0.0720  0.0678 -0.0821
    8MPD2    C3  120   4.678   4.477  13.375  0.4385  0.5174  0.5386
    8MPD2    C4  121   0.050   4.449  13.297  0.3610  0.1017  0.6536
    8MPD2    C5  122   0.070   4.323  13.258 -0.0615 -0.2480  0.4544
    8MPD2     H  123   4.517   4.402  13.489 -0.1979  0.1180 -0.2271
    8MPD2    H1  124   0.117   4.528  13.267 -0.5404  0.0304 -1.5926
    8MPD2    H2  125   0.010   4.123  13.262  2.3647  0.4235  0.0740
    8MPD2    H3  126   0.158   4.295  13.200  0.6544  1.0826  0.9058
    8MPD2     N  127   4.651   4.612  13.392 -0.3419 -0.6791  0.1920
    8MPD2    H5  128   4.715   4.677  13.346  0.2530 -1.5086 -0.1481
    8MPD2    N1  129   4.518   4.138  13.395 -0.6115 -0.2338  0.2597
    8MPD2    H7  130   4.538   4.057  13.337 -0.8104 -1.1173  1.4279
    9TMC1    C1  131   1.799   2.964  11.091 -0.1459  1.2476  0.0950
    9TMC1    C2  132   1.893   3.021  11.012  0.2740 -0.5252  0.5001
    9TMC1    C3  133   1.839   3.107  10.916  0.2763  0.5332  0.2311
    9TMC1    C4  134   1.665   2.976  11.071  0.3885  0.3602  0.5836
    9TMC1    C5  135   1.624   3.075  10.983  1.0691  0.3945  0.2168
    9TMC1    C6  136   1.711   3.149  10.915  0.3425  0.5772 -0.0412
    9TMC1     C  137   1.841   2.862  11.182  0.1328 -0.1546  0.4182
    9TMC1     O  138   1.958   2.825  11.187 -0.0109 -0.1675  0.6261
    9TMC1     H  139   1.996   2.988  11.005  0.3963  0.1366 -0.8136
    9TMC1    H1  140   1.589   2.913  11.114  1.8108 -0.6999  1.5570
    9TMC1    H2  141   1.683   3.229  10.848 -0.5520  0.5344  0.2801
    9TMC1    C7  142   1.504   3.026  10.920  0.2733  0.1169 -0.8306
    9TMC1    C8  143   1.930   3.178  10.825 -0.0435  0.2333 -0.0809
    9TMC1    O1  144   1.456   2.915  10.934 -0.1601 -0.2872  0.3727
    9TMC1    O2  145   1.904   3.300  10.802  1.1570 -0.0445  0.0704
    9TMC1    O3  146   1.421   3.134  10.917  0.1004  0.3457 -0.3780
    9TMC1    H3  147   1.450   3.228  10.917  1.2304 -0.0050 -0.0544
    9TMC1    O5  148   2.038   3.106  10.788 -0.1134  0.3154  0.0697
    9TMC1    H5  149   2.017   3.010  10.786 -0.5596  0.3917  0.9267
   10MPD2     C  150   1.840   2.643  11.392  0.2104  0.5129  0.0581
   10MPD2    C1  151   1.755   2.749  11.386  0.8639  0.1186 -0.0236
   10MPD2    C2  152   1.655   2.768  11.478  0.1668 -0.5981 -0.5565
   10MPD2    C3  153   1.651   2.680  11.586 -0.0280 -0.4271  0.0905
   10MPD2    C4  154   1.746   2.584  11.599 -0.0747 -0.2633 -0.5678
   10MPD2    C5  155   1.835   2.565  11.502  0.0407  0.3822 -0.1047
   10MPD2     H  156   1.576   2.840  11.460 -0.6120 -1.0317  1.1254
   10MPD2    H1  157   1.747   2.517  11.685 -0.7394  0.1181 -0.2552
   10MPD2    H2  158   1.919   2.620  11.321  0.0187 -0.8308  0.2642
   10MPD2    H3  159   1.896   2.476  11.493  1.6885  1.5796 -0.8250
   10MPD2     N  160   1.555   2.695  11.687  0.6861  0.1809  0.3495
   10MPD2    H5  161   1.563   2.637  11.770 -0.7561  0.4591  0.6875
   10MPD2    N1  162   1.752   2.840  11.278 -0.6481 -0.1779  1.0207
   10MPD2    H7  163   1.673   2.904  11.276 -0.4802  0.0720  2.4444
   11TCq1    O1  164   2.361   3.214  13.998 -0.1933 -0.0797 -0.1139
   11TCq1    C1  165   2.408   3.336  13.993 -0.0010 -0.3368 -0.5148
   11TCq1    O2  166   2.528   3.360  13.977  0.8962  0.6861  0.1646
   11TCq1    C2  167   2.338   3.395  14.100 -0.3831  0.1329  1.2499
   11TCq1    C3  168   2.404   3.420  14.215 -0.0590 -0.3419  0.5457
   11TCq1    C4  169   2.326   3.432  14.322 -1.0178 -0.1910 -0.4404
   11TCq1    C5  170   2.194   3.434  14.325  0.2912 -0.1104 -0.3421
   11TCq1    C6  171   2.124   3.416  14.210  0.3679  0.2913 -0.3358
   11TCq1    C7  172   2.198   3.399  14.097 -0.3881 -0.1442 -0.0826
   11TCq1    C8  173   1.973   3.407  14.208 -0.0864 -0.6331  0.4519
   11TCq1    O4  174   1.917   3.444  14.310 -0.7040  0.4130 -0.1719
   11TCq1    C9  175   2.396   3.424  14.449 -0.0474 -0.9244 -0.1544
   11TCq1    O5  176   2.325   3.396  14.545  0.5219 -0.1669  0.0367
   11TCq1    O6  177   2.523   3.439  14.456  0.1836  0.1024 -0.2665
   11TCq1    H1  178   2.278   3.203  14.049  1.3989 -0.8185  2.3193
   11TCq1    H2  179   2.511   3.407  14.223  0.3227  0.1949 -3.3214
   11TCq1    H3  180   2.147   3.451  14.421 -0.5404  0.4365 -0.8503
   11TCq1    H4  181   2.148   3.393  14.001  0.0740  1.9788 -0.4485
   12MPD2     C  182   1.678   3.348  14.160  0.5541 -0.4956 -0.6091
   12MPD2    C1  183   1.783   3.280  14.103 -0.1756 -0.2608  0.7986
   12MPD2    C2  184   1.753   3.167  14.035  0.6489  0.1711 -0.3146
   12MPD2    C3  185   1.630   3.118  14.021 -0.0369  0.1016 -0.3595
   12MPD2    C4  186   1.527   3.185  14.079  0.0278 -0.6786  0.0332
   12MPD2    C5  187   1.548   3.303  14.143  0.1127 -0.0077  0.1627
   12MPD2     H  188   1.834   3.128  13.974 -0.1365  0.4397 -1.5439
   12MPD2    H1  189   1.429   3.142  14.096 -0.4403  0.7156  0.8932
   12MPD2    H2  190   1.698   3.439  14.214 -0.7382 -0.0086 -0.9481
   12MPD2    H3  191   1.467   3.358  14.190  0.6009 -1.1953  2.3975
   12MPD2     N  192   1.593   2.998  13.964  0.5143  0.6819 -0.2659
   12MPD2    H5  193   1.493   2.983  13.964  0.9734 -2.3183 -0.5045
   12MPD2    N1  194   1.916   3.321  14.114  0.7554  0.0826  0.1355
   12MPD2    H7  195   1.986   3.282  14.051  0.1295 -0.8372 -0.0007
   13TCq1    O1  196   2.246   2.443  11.082  0.1565  0.2556  0.0174
   13TCq1    C1  197   2.205   2.470  10.955  0.1150 -0.5699 -0.5114
   13TCq1    O2  198   2.263   2.417  10.860  0.0444  0.4776 -0.3154
   13TCq1    C2  199   2.073   2.529  10.946 -0.0528  0.8375  1.1717
   13TCq1    C3  200   2.057   2.618  10.844  0.0611 -0.0074  0.8087
   13TCq1    C4  201   1.931   2.673  10.825 -0.5507 -0.7424 -0.0662
   13TCq1    C5  202   1.830   2.630  10.908  0.5828 -0.0279  0.7115
   13TCq1    C6  203   1.853   2.534  11.005 -0.0868  0.8474 -0.0049
   13TCq1    C7  204   1.976   2.484  11.035 -0.2482 -0.5694 -0.0483
   13TCq1    C8  205   1.743   2.508  11.096  0.2267  0.6141 -1.0935
   13TCq1    O4  206   1.647   2.577  11.082  0.2257  0.6154 -0.0603
   13TCq1    C9  207   1.897   2.777  10.734 -0.5012 -1.2615  0.7131
   13TCq1    O5  208   1.783   2.771  10.686 -0.5196  0.1023  0.0612
   13TCq1    O6  209   1.975   2.873  10.731  0.2100 -0.5808  0.7541
   13TCq1    H1  210   2.199   2.511  11.135  1.7621 -0.0111  1.7932
   13TCq1    H2  211   2.141   2.643  10.780  1.0766 -3.1289  0.9318
   13TCq1    H3  212   1.727   2.662  10.896  0.5213 -0.1958  0.7946
   13TCq1    H4  213   1.992   2.400  11.103  0.6263 -1.0268 -0.8302
   14MPD2     C  214   1.693   2.246  11.342 -0.2127 -0.3347  0.4441
   14MPD2    C1  215   1.663   2.366  11.278 -0.1000  0.2204  0.0534
   14MPD2    C2  216   1.543   2.434  11.315 -0.7087 -0.7761 -0.1281
   14MPD2    C3  217   1.473   2.381  11.419  0.2659 -1.1886 -0.5543
   14MPD2    C4  218   1.509   2.264  11.479  0.4813 -0.1456 -0.1682
   14MPD2    C5  219   1.616   2.201  11.441 -0.4987 -0.2329  0.3830
   14MPD2     H  220   1.513   2.533  11.281 -1.5863 -0.5101  1.4519
   14MPD2    H1  221   1.450   2.212  11.554  0.7141  0.5358  0.4823
   14MPD2    H2  222   1.793   2.206  11.337  0.0939  0.5631 -0.6224
   14MPD2    H3  223   1.630   2.112  11.501 -0.5592 -0.9020 -0.5943
   14MPD2     N  224   1.349   2.453  11.458 -0.8726 -0.0005  0.5606
   14MPD2    H5  225   1.332   2.540  11.410 -1.6741 -0.4124  0.0924
   14MPD2    N1  226   1.759   2.405  11.180  0.6130  0.3340  0.2133
   14MPD2    H7  227   1.840   2.346  11.169  0.8914  0.4561  1.5366
   15TCq1    O1  228   3.512   2.839   1.371  1.0860 -0.3868  0.0039
   15TCq1    C1  229   3.446   2.726   1.345 -0.1365  0.0345 -0.1974
   15TCq1    O2  230   3.359   2.707   1.258 -0.1138  0.6351 -0.0517
   15TCq1    C2  231   3.528   2.617   1.406  0.2204  0.3919 -0.2309
   15TCq1    C3  232   3.597   2.649   1.520 -0.5753  0.5643 -0.0737
   15TCq1    C4  233   3.708   2.566   1.538 -0.4912 -0.0672  0.8533
   15TCq1    C5  234   3.744   2.462   1.460 -0.3580 -0.6555 -0.6964
   15TCq1    C6  235   3.677   2.441   1.344 -0.8011  0.3397  0.0956
   15TCq1    C7  236   3.563   2.516   1.320  0.3565 -0.0263  0.7188
   15TCq1    C8  237   3.722   2.322   1.258 -1.2573 -0.2141 -0.3462
   15TCq1    O4  238   3.808   2.255   1.314 -0.2364 -0.3386  0.0576
   15TCq1    C9  239   3.797   2.611   1.640 -0.2914  0.1023 -0.2939
   15TCq1    O5  240   3.765   2.720   1.701 -0.0777  0.0670 -0.6942
   15TCq1    O6  241   3.904   2.549   1.654 -0.1077  0.1969  0.2750
   15TCq1    H1  242   3.595   2.821   1.419  1.5051  2.7380  0.4386
   15TCq1    H2  243   3.577   2.726   1.594  0.5058 -1.1623  2.0384
   15TCq1    H3  244   3.848   2.432   1.462 -0.5003 -1.2136 -1.6231
   15TCq1    H4  245   3.510   2.510   1.225  0.1129  0.0886  0.8492
   16MPD2     C  246   3.552   2.171   0.976  0.4611  0.1106  0.2587
   16MPD2    C1  247   3.648   2.179   1.073  0.4808  0.1848  0.0382
   16MPD2    C2  248   3.748   2.079   1.098 -0.3957  0.2957  0.2007
   16MPD2    C3  249   3.747   1.966   1.017 -0.0109  0.3786 -0.6069
   16MPD2    C4  250   3.658   1.954   0.911  0.6443  0.0438  0.0592
   16MPD2    C5  251   3.568   2.057   0.898  0.7453  0.0165 -0.5510
   16MPD2     H  252   3.807   2.074   1.189 -0.4657  1.5603  0.3149
   16MPD2    H1  253   3.661   1.869   0.844  1.2514 -1.2379  1.7058
   16MPD2    H2  254   3.479   2.247   0.952  0.6097  0.2324  0.1896
   16MPD2    H3  255   3.491   2.047   0.823 -1.0640 -2.1779  1.6142
   16MPD2     N  256   3.848   1.875   1.047 -0.2044 -0.1215  0.0429
   16MPD2    H5  257   3.911   1.901   1.123 -0.7946  1.2482  0.0537
   16MPD2    N1  258   3.638   2.292   1.156 -0.6142 -0.6160 -0.2004
   16MPD2    H7  259   3.559   2.352   1.132  0.1278 -0.2881 -1.8413
   17TMC1    C1  260   1.746   1.639  10.889  0.0858 -0.6689 -0.4005
   17TMC1    C2  261   1.775   1.531  10.974 -0.1000  0.1121 -0.5327
   17TMC1    C3  262   1.702   1.418  10.946 -0.3108  0.6672 -0.1619
   17TMC1    C4  263   1.660   1.629  10.781  0.0427  0.6725  0.1417
   17TMC1    C5  264   1.593   1.514  10.762  0.4323  0.2895  0.6694
   17TMC1    C6  265   1.610   1.404  10.843 -0.3463 -0.2351 -0.4568
   17TMC1     C  266   1.835   1.755  10.900 -0.2299 -0.3062 -0.2122
   17TMC1     O  267   1.940   1.734  10.956 -0.4639 -0.0121  0.1816
   17TMC1     H  268   1.853   1.541  11.048  0.8759 -1.3010 -1.3891
   17TMC1    H1  269   1.635   1.711  10.714  0.3512  0.1671 -0.5863
   17TMC1    H2  270   1.560   1.308  10.828  0.5906 -0.6271 -1.0878
   17TMC1    C7  271   1.485   1.509  10.682  0.3502  0.0489  0.4234
   17TMC1    C8  272   1.731   1.300  11.016  0.0545 -0.1676 -0.6683
   17TMC1    O1  273   1.415   1.601  10.646  0.4144 -0.3147 -0.0169
   17TMC1    O2  274   1.724   1.191  10.968 -0.8993  0.4201 -0.5503
   17TMC1    O3  275   1.497   1.395  10.617  0.1136 -0.1666 -0.3154
   17TMC1    H3  276   1.580   1.346  10.632  0.7271  1.1602  0.6811
   17TMC1    O5  277   1.690   1.325  11.143  0.0825 -0.4008  0.3653
   17TMC1    H5  278   1.701   1.418  11.171  2.4848 -0.0235 -1.9423
   18MPD2     C  279   1.800   2.091  10.763  0.4536  0.7900  0.2947
   18MPD2    C1  280   1.869   1.980  10.806 -0.2066  0.5111  0.2215
   18MPD2    C2  281   2.008   1.987  10.826 -0.4314 -0.2094  0.2904
   18MPD2    C3  282   2.070   2.107  10.799  0.0570 -0.1155 -0.0841
   18MPD2    C4  283   1.995   2.215  10.751 -0.7304 -0.2000  0.4548
   18MPD2    C5  284   1.857   2.210  10.742 -0.7378  0.3572 -1.0474
   18MPD2     H  285   2.064   1.899  10.854 -3.5199 -2.0340  0.8205
   18MPD2    H1  286   2.035   2.313  10.729 -0.5744 -0.6860 -1.4267
   18MPD2    H2  287   1.693   2.085  10.747  0.2056  1.7067  1.5423
   18MPD2    H3  288   1.807   2.296  10.699 -0.1057  0.8740 -0.7386
   18MPD2     N  289   2.210   2.127  10.806 -0.6916 -0.4975 -0.4545
   18MPD2    H5  290   2.242   2.219  10.779  1.0675 -1.5478 -1.8985
   18MPD2    N1  291   1.790   1.870  10.839 -0.4160  0.3757  0.3481
   18MPD2    H7  292   1.691   1.874  10.820 -0.2184 -0.3049 -0.8068
   19TMC2    C1  293   3.212   3.134  13.824  0.1994 -0.1803  0.2603
   19TMC2    C2  294   3.211   3.165  13.693 -1.3710 -0.4545 -0.9211
   19TMC2    C3  295   3.088   3.182  13.639 -0.5180  0.5803  0.1414
   19TMC2    C4  296   3.099   3.096  13.896  0.1390 -0.2811  0.5285
   19TMC2    C5  297   2.981   3.107  13.831  0.8397 -0.2644  0.7196
   19TMC2    C6  298   2.973   3.161  13.703 -0.0856 -0.3306 -0.0304
   19TMC2     C  299   3.338   3.066  13.862  0.1780  0.2254 -0.5053
   19TMC2     O  300   3.413   3.025  13.773 -0.1849  0.1243  0.0451
   19TMC2     H  301   3.303   3.188  13.642 -0.7717  1.2351  0.9370
   19TMC2    H1  302   3.114   3.037  13.985 -0.6377 -0.9359  0.2257
   19TMC2    H2  303   2.878   3.177  13.654  1.1577  0.1087 -2.2925
   19TMC2    C7  304   2.897   2.996  13.849  0.1629 -0.6953 -0.3454
   19TMC2    C8  305   3.074   3.246  13.505  1.2444 -0.4096  0.4186
   19TMC2    O1  306   2.940   2.900  13.909  0.5055  0.3843  0.5527
   19TMC2    O2  307   2.965   3.273  13.454  0.4171  0.2736  0.0153
   19TMC2    O5  308   3.185   3.222  13.437 -0.0620 -0.5449  0.1826
   19TMC2    H5  309   3.253   3.168  13.481  0.7971 -0.6124 -1.2139
   20MPD2     C  310   3.539   2.926  14.013  0.0418 -0.3678  0.2005
   20MPD2    C1  311   3.466   3.022  14.071  0.7194  0.0294  0.0502
   20MPD2    C2  312   3.494   3.075  14.191 -0.8038 -0.6445 -0.0171
   20MPD2    C3  313   3.605   3.026  14.262  0.1858  0.1302  0.0196
   20MPD2    C4  314   3.687   2.928  14.204  0.3175  0.2960  0.0044
   20MPD2    C5  315   3.650   2.878  14.084 -0.2310 -0.2170  0.1411
   20MPD2     H  316   3.420   3.136  14.242 -1.0386 -0.3595 -0.6936
   20MPD2    H1  317   3.772   2.885  14.256  0.2892  1.3890  0.9421
   20MPD2    H2  318   3.518   2.880  13.918  1.0318 -0.7066  0.1428
   20MPD2    H3  319   3.697   2.792  14.037 -1.7787 -0.3684 -1.1417
   20MPD2     N  320   3.629   3.066  14.393 -0.9594  0.2413  0.0062
   20MPD2    H5  321   3.705   3.017  14.439 -0.8616  0.2884 -0.1081
   20MPD2    N1  322   3.358   3.075  14.002 -0.2657  0.0217  0.2177
   20MPD2    H7  323   3.301   3.135  14.060 -0.7822 -3.1973  3.0121
   21TMC2    C1  324   0.566   3.085  14.925 -0.1576 -0.1971  0.5255
   21TMC2    C2  325   0.621   3.027  15.038 -0.1147 -0.3595  0.1506
   21TMC2    C3  326   0.593   3.087  15.152 -0.3805  0.3384  0.4101
   21TMC2    C4  327   0.498   3.200  14.922  0.7469  0.4767  0.2711
   21TMC2    C5  328   0.472   3.255  15.041  0.4019 -0.2985  0.2637
   21TMC2    C6  329   0.512   3.202  15.162  0.1602  0.4067  0.1832
   21TMC2     C  330   0.587   3.008  14.802 -0.1365  0.3498 -0.5161
   21TMC2     O  331   0.667   2.917  14.808 -0.1265  0.6008  0.2659
   21TMC2     H  332   0.666   2.928  15.035  1.5597  0.4056  0.0461
   21TMC2    H1  333   0.493   3.255  14.828  1.4362  0.4032  0.1919
   21TMC2    H2  334   0.482   3.248  15.255 -0.5973  1.9837 -0.8394
   21TMC2    C7  335   0.420   3.394  15.049 -0.6722 -0.0200  0.2622
   21TMC2    C8  336   0.638   3.012  15.272 -1.3128  0.2144  0.1570
   21TMC2    O1  337   0.445   3.444  15.156  0.1079 -0.4050 -0.4953
   21TMC2    O2  338   0.724   2.926  15.275  0.9087  0.3353  0.0627
   21TMC2    O5  339   0.539   3.024  15.370 -0.4561  0.7669 -0.2390
   21TMC2    H5  340   0.471   3.086  15.335  1.3970  1.6050 -2.4217
   22MPD2     C  341   0.511   2.936  14.308  0.1723  0.0771 -0.0991
   22MPD2    C1  342   0.628   2.919  14.382 -0.0590 -0.3524  0.0949
   22MPD2    C2  343   0.626   2.956  14.512  0.2935 -0.8561 -0.0507
   22MPD2    C3  344   0.507   3.002  14.571 -0.0386  0.6749 -0.1705
   22MPD2    C4  345   0.398   3.020  14.486  0.2855 -0.1834  0.1329
   22MPD2    C5  346   0.395   2.977  14.363  0.0697  0.1120  0.1376
   22MPD2     H  347   0.715   2.942  14.573 -0.8401  0.3634  1.9235
   22MPD2    H1  348   0.304   3.055  14.526  1.6776 -0.1659  3.4003
   22MPD2    H2  349   0.511   2.916  14.201 -0.2693  0.9670 -0.2653
   22MPD2    H3  350   0.302   2.990  14.310 -0.4239  1.0560  1.2435
   22MPD2     N  351   0.500   3.044  14.703  0.2760 -0.0235 -0.2626
   22MPD2    H5  352   0.423   3.107  14.724 -2.0156 -2.2231 -2.0054
   22MPD2    N1  353   0.753   2.869  14.334 -0.1141 -0.0508 -0.0386
   22MPD2    H7  354   0.831   2.866  14.399 -0.4318  1.4303  0.4069
   23TMC2    C1  355   2.130   4.730  14.862  0.1512 -0.2550  0.0830
   23TMC2    C2  356   2.240   0.074  14.851  0.3030 -0.0470  0.7644
   23TMC2    C3  357   2.227   0.212  14.855 -1.2733 -0.6579 -1.2888
   23TMC2    C4  358   2.004   0.049  14.861 -0.8529 -0.4360 -0.2884
   23TMC2    C5  359   1.985   0.183  14.853 -0.6010 -0.4916 -0.5676
   23TMC2    C6  360   2.099   0.270  14.847  0.1926 -0.1492  0.1228
   23TMC2     C  361   2.149   4.592  14.907  0.4332 -0.5542 -0.5855
   23TMC2     O  362   2.258   4.552  14.945 -0.3106 -0.0551  1.0616
   23TMC2     H  363   2.335   0.025  14.833  0.6277  1.6304 -2.0627
   23TMC2    H1  364   1.917   4.726  14.842  0.4089 -1.5508 -2.4707
   23TMC2    H2  365   2.086   0.377  14.857  1.5497 -0.1553  1.8318
   23TMC2    C7  366   1.859   0.242  14.804 -0.0711 -0.0827 -0.1772
   23TMC2    C8  367   2.328   0.287  14.777 -0.7112 -0.1065 -0.3347
   23TMC2    O1  368   1.863   0.358  14.761  0.5326  0.5848 -0.0586
   23TMC2    O2  369   2.307   0.388  14.715 -0.3354 -0.4814  0.0858
   23TMC2    O5  370   2.448   0.244  14.816  0.3186 -0.1157  0.0185
   23TMC2    H5  371   2.446   0.201  14.904 -0.2434 -0.0701  0.0240
   24MPD2     C  372   1.895   4.184  15.074  0.1640  0.6560  0.1769
   24MPD2    C1  373   2.004   4.256  15.133 -0.9043  0.2385  0.2590
   24MPD2    C2  374   2.049   4.365  15.074 -0.5029 -0.7610  0.3424
   24MPD2    C3  375   2.004   4.403  14.938  0.5064 -0.7347  0.0719
   24MPD2    C4  376   1.902   4.324  14.883  0.4188  0.4704  0.3815
   24MPD2    C5  377   1.849   4.215  14.946 -0.5305 -1.1602  0.0157
   24MPD2     H  378   2.120   4.432  15.122 -0.9325  1.6428 -2.2940
   24MPD2    H1  379   1.862   4.358  14.788 -0.3601 -0.0132  0.5411
   24MPD2    H2  380   1.838   4.107  15.125  1.1548  0.5151  1.0657
   24MPD2    H3  381   1.773   4.160  14.892 -1.0052  0.7563 -1.2650
   24MPD2     N  382   2.038   4.521  14.880  0.2683  0.4622  0.7264
   24MPD2    H5  383   1.977   4.552  14.804  1.1754  2.6095  0.8757
   24MPD2    N1  384   2.045   4.236  15.266  0.0181 -0.3482 -0.5931
   24MPD2    H7  385   2.110   4.296  15.315 -2.3539  0.9984  0.8819
   25TMC2    C1  386   0.727   1.833  12.259  0.2177  0.4718 -0.0400
   25TMC2    C2  387   0.680   1.961  12.301 -0.9857  0.6674 -0.0875
   25TMC2    C3  388   0.568   1.951  12.381 -0.1827 -0.4691 -0.2777
   25TMC2    C4  389   0.701   1.712  12.323  0.6215  0.2269 -1.1522
   25TMC2    C5  390   0.594   1.718  12.408 -0.3518 -0.3446 -0.3131
   25TMC2    C6  391   0.523   1.831  12.433 -0.0796 -0.9420 -0.0317
   25TMC2     C  392   0.782   1.840  12.123  0.5482 -0.4058  0.2482
   25TMC2     O  393   0.759   1.936  12.059  0.5194  0.2508  0.6751
   25TMC2     H  394   0.715   2.053  12.255 -1.7208  1.0058  0.0208
   25TMC2    H1  395   0.747   1.618  12.294 -0.4113 -0.2829 -1.1017
   25TMC2    H2  396   0.428   1.832  12.486 -0.3122  0.2611 -0.4691
   25TMC2    C7  397   0.577   1.596  12.491 -0.4125  0.1551  0.6639
   25TMC2    C8  398   0.502   2.072  12.427 -0.0891  0.1075 -0.3792
   25TMC2    O1  399   0.664   1.515  12.512 -0.0674  0.5141 -0.0997
   25TMC2    O2  400   0.473   2.105  12.539  0.0627 -0.3455 -0.1544
   25TMC2    O5  401   0.500   2.159  12.320  0.0943 -0.3313 -0.1117
   25TMC2    H5  402   0.522   2.112  12.237 -1.7630 -0.2162 -0.6614
   26MPD2     C  403   1.068   1.671  11.720  0.2051  0.4162  0.1759
   26MPD2    C1  404   1.065   1.565  11.817 -0.0787 -0.1145  0.0767
   26MPD2    C2  405   0.993   1.594  11.938 -0.7523  0.0523 -0.3988
   26MPD2    C3  406   0.945   1.717  11.970 -0.4888  0.1253  0.5874
   26MPD2    C4  407   0.945   1.809  11.869  0.0474  0.2399 -1.2704
   26MPD2    C5  408   1.000   1.783  11.752  0.9010  0.2703 -0.0708
   26MPD2     H  409   0.975   1.517  12.012  2.7234  0.3323  0.7798
   26MPD2    H1  410   0.891   1.903  11.879  1.1221  0.5214  1.8275
   26MPD2    H2  411   1.111   1.666  11.620  0.8369 -1.6905  0.5414
   26MPD2    H3  412   0.985   1.865  11.683  1.1764 -3.2313 -4.3554
   26MPD2     N  413   0.869   1.737  12.094  0.2718  0.7039  0.0065
   26MPD2    H5  414   0.869   1.665  12.165  2.1865  0.8414  0.1374
   26MPD2    N1  415   1.119   1.440  11.783  0.2058  0.5337 -0.2672
   26MPD2    H7  416   1.148   1.418  11.688  1.2396 -0.9361  0.3972
   27TMC2    C1  417   0.056   3.333  12.247 -0.4328 -0.1415  1.1418
   27TMC2    C2  418   0.071   3.413  12.135 -0.7658  0.1964  0.2786
   27TMC2    C3  419   0.165   3.515  12.138 -0.4323  0.2957  0.4953
   27TMC2    C4  420   0.134   3.344  12.359 -0.1273 -0.1348  0.3300
   27TMC2    C5  421   0.231   3.440  12.352  0.6943  0.3831 -0.8759
   27TMC2    C6  422   0.247   3.529  12.250  0.3038  0.6024 -0.4272
   27TMC2     C  423   4.671   3.266  12.258 -0.1417  0.2308 -0.1472
   27TMC2     O  424   4.618   3.225  12.153 -0.6287 -0.0234  0.3682
   27TMC2     H  425   0.004   3.397  12.051 -1.2333  0.0477  0.6746
   27TMC2    H1  426   0.110   3.286  12.448 -0.9276 -0.0805  0.1500
   27TMC2    H2  427   0.332   3.597  12.246  2.3413 -1.8651  0.9284
   27TMC2    C7  428   0.283   3.480  12.482 -0.2065  0.0228  1.0535
   27TMC2    C8  429   0.176   3.615  12.036  0.0958  0.0365 -0.7040
   27TMC2    O1  430   0.258   3.402  12.571  0.0016 -0.3153 -0.1270
   27TMC2    O2  431   0.281   3.663  11.996  0.3740 -0.0840  0.4121
   27TMC2    O5  432   0.052   3.663  12.002 -0.2744  0.2166  0.4983
   27TMC2    H5  433   4.714   3.614  12.039  0.4399  1.4437  3.5868
   28MPD2     C  434   4.264   3.107  12.533 -0.4645 -0.0835 -0.4730
   28MPD2    C1  435   4.339   3.192  12.616 -0.4738  0.0719 -0.1897
   28MPD2    C2  436   4.459   3.237  12.564  0.3634 -0.6042 -0.5444
   28MPD2    C3  437   4.500   3.212  12.434  0.1509  0.1387 -0.1444
   28MPD2    C4  438   4.423   3.133  12.353 -0.3005  0.0686  0.3325
   28MPD2    C5  439   4.300   3.085  12.399 -0.3427  0.6287  0.1703
   28MPD2     H  440   4.527   3.287  12.632 -1.2884  0.2312  0.4824
   28MPD2    H1  441   4.450   3.105  12.252  2.4689  1.4995  0.6864
   28MPD2    H2  442   4.171   3.071  12.575  0.2741  0.0725  1.3075
   28MPD2    H3  443   4.232   3.024  12.341  0.4345 -0.9683  0.9367
   28MPD2     N  444   4.622   3.271  12.390 -0.0051 -0.5975  0.0940
   28MPD2    H5  445   4.678   3.327  12.454 -0.8446 -0.3982  0.6498
   28MPD2    N1  446   4.286   3.228  12.739 -0.2834  0.1192 -0.2067
   28MPD2    H7  447   4.197   3.189  12.768 -0.9714  1.0360 -1.0354
   29TMC2    C1  448   4.738   1.600  14.357  0.0799 -0.5840  0.2019
   29TMC2    C2  449   0.125   1.627  14.317  0.6222  1.3554 -0.2982
   29TMC2    C3  450   0.189   1.724  14.387 -0.0304  0.1441 -0.3079
   29TMC2    C4  451   4.664   1.673  14.444 -0.6486 -0.5212 -0.0691
   29TMC2    C5  452   4.727   1.785  14.498  0.5192 -0.6473  0.4457
   29TMC2    C6  453   0.124   1.810  14.473 -0.4058  0.2286  0.1846
   29TMC2     C  454   4.673   1.477  14.316  0.5261 -0.2343 -0.3249
   29TMC2     O  455   0.003   1.378  14.330 -0.0184 -0.1361  0.1712
   29TMC2     H  456   0.175   1.561  14.248 -3.4720 -0.8423 -1.1494
   29TMC2    H1  457   4.564   1.647  14.478  0.5634 -1.9120  2.4186
   29TMC2    H2  458   0.174   1.893  14.524 -0.1493 -1.2530  2.3351
   29TMC2    C7  459   4.652   1.872  14.596  0.3157  0.0867  0.1739
   29TMC2    C8  460   0.336   1.717  14.388  0.4340  0.5653  0.3616
   29TMC2    O1  461   4.526   1.872  14.585 -0.2467 -0.5505  0.3495
   29TMC2    O2  462   0.386   1.615  14.351  0.1268  0.2351 -0.4237
   29TMC2    O5  463   0.385   1.840  14.365 -0.0603  0.2851  0.5716
   29TMC2    H5  464   0.324   1.915  14.380  2.1015  2.2186 -0.2773
   30MPD2     C  465   4.203   1.277  14.222  0.1571 -0.1544  0.8434
   30MPD2    C1  466   4.329   1.220  14.259 -0.2105  0.6473 -0.2111
   30MPD2    C2  467   4.446   1.291  14.260  0.3672 -0.0280 -0.1391
   30MPD2    C3  468   4.442   1.426  14.237 -0.1289 -0.6622  0.2712
   30MPD2    C4  469   4.323   1.481  14.196 -0.4831  0.3307 -0.2579
   30MPD2    C5  470   4.205   1.409  14.191 -0.1400  0.6750  0.2819
   30MPD2     H  471   4.529   1.241  14.307  0.9364  2.4504  1.4949
   30MPD2    H1  472   4.316   1.588  14.183  1.2181  0.4703 -0.0540
   30MPD2    H2  473   4.111   1.221  14.212  0.0290  0.4650 -1.3928
   30MPD2    H3  474   4.110   1.445  14.153  0.9164 -1.1293 -4.0981
   30MPD2     N  475   4.554   1.509  14.257 -0.2626  0.0244 -0.2340
   30MPD2    H5  476   4.536   1.607  14.238 -2.2889 -0.3397 -0.2390
   30MPD2    N1  477   4.335   1.083  14.297  0.5395  0.1397 -0.8875
   30MPD2    H7  478   4.427   1.042  14.291 -0.1904 -1.3313 -2.1022
   31TMC2    C1  479   2.513   0.137  15.415 -0.8452 -0.1867  0.0948
   31TMC2    C2  480   2.592   0.025  15.435  0.1698  0.7464  1.1116
   31TMC2    C3  481   2.563   4.689  15.544 -0.2919  0.1467  0.2264
   31TMC2    C4  482   2.407   0.170  15.490 -0.1233 -0.2589  0.7967
   31TMC2    C5  483   2.390   0.101  15.605  0.1845 -0.1800 -0.6565
   31TMC2    C6  484   2.462   4.727  15.633  0.1527 -0.4243  0.4088
   31TMC2     C  485   2.565   0.252  15.340  0.2954 -0.1548 -0.2710
   31TMC2     O  486   2.484   0.324  15.280  0.3795  0.1973 -0.4434
   31TMC2     H  487   2.669   4.732  15.365 -0.2226  1.0490  0.5390
   31TMC2    H1  488   2.354   0.262  15.469 -0.1958 -0.7939 -1.3330
   31TMC2    H2  489   2.430   4.681  15.725  0.7077 -1.1531  0.2406
   31TMC2    C7  490   2.328   0.181  15.711 -0.1051  0.2756  0.0791
   31TMC2    C8  491   2.602   4.543  15.548  0.4312 -0.0840 -0.3516
   31TMC2    O1  492   2.233   0.255  15.684 -0.0436  0.0216  0.6784
   31TMC2    O2  493   2.603   4.476  15.446  0.2902  0.2003 -0.0549
   31TMC2    O5  494   2.571   4.506  15.673  0.9798 -0.3726  0.0893
   31TMC2    H5  495   2.577   4.578  15.739 -0.4935 -0.9709  0.8773
   32MPD2     C  496   2.940   0.608  15.273  0.1302  0.4218  0.0604
   32MPD2    C1  497   2.817   0.600  15.216 -0.8277  0.6535 -0.5648
   32MPD2    C2  498   2.732   0.486  15.243 -0.0744 -0.8415 -0.4168
   32MPD2    C3  499   2.778   0.380  15.327  0.5288 -0.6107 -0.1447
   32MPD2    C4  500   2.910   0.384  15.366 -1.1288  0.0601 -0.4156
   32MPD2    C5  501   2.983   0.497  15.342 -0.2381  0.5561  0.1664
   32MPD2     H  502   2.635   0.472  15.197 -1.2318 -0.4586  1.8949
   32MPD2    H1  503   2.944   0.312  15.440  2.8221  1.3227 -1.0305
   32MPD2    H2  504   2.997   0.700  15.259 -1.6033  1.6313  0.9388
   32MPD2    H3  505   3.081   0.504  15.387  0.1467 -2.9915 -0.1768
   32MPD2     N  506   2.697   0.269  15.361  0.1228 -0.6257  0.2864
   32MPD2    H5  507   2.742   0.197  15.416  0.0697 -1.4068 -0.6845
   32MPD2    N1  508   2.773   0.701  15.133  0.0070  0.0357  0.2631
   32MPD2    H7  509   2.826   0.787  15.137 -0.2512  0.1975  0.2584
   33TMC2    C1  510   2.363   2.964  10.689  0.2060 -0.1728 -0.7221
   33TMC2    C2  511   2.247   2.941  10.621  0.4305 -0.3851  0.1134
   33TMC2    C3  512   2.210   3.040  10.544 -0.0817  1.2979 -0.4949
   33TMC2    C4  513   2.427   3.083  10.694 -0.1220  0.4809  0.6679
   33TMC2    C5  514   2.382   3.185  10.617  0.3777  0.1544  0.2455
   33TMC2    C6  515   2.269   3.163  10.541 -0.2136  0.1260  0.6693
   33TMC2     C  516   2.411   2.849  10.763 -0.2119 -0.0603  0.6931
   33TMC2     O  517   2.352   2.742  10.750  0.0737  0.4939 -0.0665
   33TMC2     H  518   2.196   2.847  10.602 -2.0107  0.7707  0.9835
   33TMC2    H1  519   2.513   3.097  10.758 -1.1245  0.3026  2.0484
   33TMC2    H2  520   2.228   3.240  10.477 -0.9157 -2.3911 -1.8961
   33TMC2    C7  521   2.481   3.277  10.572  0.0150  0.3343 -0.1032
   33TMC2    C8  522   2.116   3.019  10.442 -0.1875  0.1841 -0.2311
   33TMC2    O1  523   2.585   3.292  10.638 -0.0455 -0.8257 -0.6512
   33TMC2    O2  524   2.116   3.080  10.337  0.1930  0.5595 -0.6055
   33TMC2    O5  525   2.006   2.981  10.503 -0.9048  0.0333 -0.0321
   33TMC2    H5  526   2.014   2.943  10.593 -0.7007  1.6515  0.6310
   34MPD2     C  527   2.684   2.606  11.128 -0.7055 -0.1047 -0.1936
   34MPD2    C1  528   2.596   2.566  11.030  0.7456  0.5294 -0.8214
   34MPD2    C2  529   2.533   2.657  10.952 -0.6497  0.1127  0.0319
   34MPD2    C3  530   2.553   2.795  10.960 -0.0871  0.2048  0.9418
   34MPD2    C4  531   2.654   2.836  11.053 -0.1992  0.0493  0.2788
   34MPD2    C5  532   2.720   2.738  11.129  0.5271  0.2757  0.1189
   34MPD2     H  533   2.464   2.611  10.883 -0.0019 -1.1646  0.2321
   34MPD2    H1  534   2.687   2.939  11.057 -3.2259  1.0558 -0.1785
   34MPD2    H2  535   2.744   2.536  11.184  0.2225  0.2602 -0.7308
   34MPD2    H3  536   2.795   2.756  11.205  0.5363 -1.1659  0.4464
   34MPD2     N  537   2.493   2.885  10.868  0.0660 -0.2048  0.3188
   34MPD2    H5  538   2.521   2.982  10.881 -1.8627  0.5501 -1.2361
   34MPD2    N1  539   2.575   2.433  11.004 -0.6324  0.3856 -0.3165
   34MPD2    H7  540   2.494   2.416  10.946  1.2158  0.1148 -2.8277
   35TMC2    C1  541   3.614   3.496  11.813 -0.4789 -0.3108  0.1345
   35TMC2    C2  542   3.592   3.521  11.676  0.4947 -0.5519  0.3973
   35TMC2    C3  543   3.472   3.493  11.620 -0.4828  0.3741  1.0537
   35TMC2    C4  544   3.506   3.454  11.890  0.3364  0.5155 -0.3229
   35TMC2    C5  545   3.387   3.421  11.828 -0.6511 -0.4143 -0.9060
   35TMC2    C6  546   3.366   3.438  11.693  0.2809 -0.2131  0.8187
   35TMC2     C  547   3.722   3.569  11.879  0.2985 -0.5331  0.2764
   35TMC2     O  548   3.794   3.630  11.803  0.3000  0.0339  0.8711
   35TMC2     H  549   3.675   3.557  11.617 -0.1632 -0.0878 -0.2422
   35TMC2    H1  550   3.523   3.435  11.995 -2.6554  1.1164  0.2523
   35TMC2    H2  551   3.274   3.406  11.646  1.3132  0.8811 -1.9515
   35TMC2    C7  552   3.306   3.333  11.903 -0.3006  0.0404  0.4761
   35TMC2    C8  553   3.470   3.510  11.480 -0.4264  0.8443 -0.3467
   35TMC2    O1  554   3.345   3.276  12.005 -0.5790 -0.5918  0.6761
   35TMC2    O2  555   3.554   3.575  11.419  0.0434 -0.1043  0.5090
   35TMC2    O5  556   3.424   3.396  11.425  0.2546  0.1056 -0.1100
   35TMC2    H5  557   3.382   3.340  11.493  0.0872  0.8447  0.3911
   36MPD2     C  558   3.970   3.760  12.285 -0.7786  0.0578  0.0233
   36MPD2    C1  559   3.847   3.706  12.326  0.1172  0.1392  0.9828
   36MPD2    C2  560   3.760   3.653  12.234 -0.1668 -1.2374  0.2827
   36MPD2    C3  561   3.791   3.649  12.102  0.1903 -0.5631 -0.4157
   36MPD2    C4  562   3.910   3.700  12.057 -0.0509  0.7436  0.0163
   36MPD2    C5  563   3.998   3.749  12.151 -0.3809  0.0962 -0.1244
   36MPD2     H  564   3.671   3.601  12.267 -1.7448 -0.2820 -2.5025
   36MPD2    H1  565   3.945   3.704  11.955  1.3045  1.7503  0.5153
   36MPD2    H2  566   4.041   3.807  12.352  0.7828 -1.3790 -0.6312
   36MPD2    H3  567   4.092   3.796  12.124 -0.0016 -1.0860 -0.8330
   36MPD2     N  568   3.705   3.581  12.015  0.0560  0.1499 -0.1913
   36MPD2    H5  569   3.627   3.529  12.055  2.1478 -3.2954 -0.6080
   36MPD2    N1  570   3.810   3.702  12.461 -0.5470  0.2938  0.4673
   36MPD2    H7  571   3.745   3.630  12.490 -2.1287  1.1128 -1.0292
   37TMC2    C1  572   1.148   3.797  11.863  0.1092  0.0879  0.4171
   37TMC2    C2  573   1.121   3.792  11.729  0.1630  0.4022 -0.2564
   37TMC2    C3  574   1.221   3.763  11.645  0.1212 -0.6119  0.1902
   37TMC2    C4  575   1.276   3.782  11.907  0.1715 -0.0565 -0.3254
   37TMC2    C5  576   1.374   3.747  11.819  0.4269  0.0416 -0.3664
   37TMC2    C6  577   1.346   3.746  11.689 -0.4904  0.1249 -0.5694
   37TMC2     C  578   1.043   3.823  11.962 -0.1847 -0.6335 -0.0938
   37TMC2     O  579   0.938   3.863  11.913 -0.0781 -0.0386  0.3347
   37TMC2     H  580   1.021   3.767  11.697  0.2835 -1.0143  0.4738
   37TMC2    H1  581   1.297   3.786  12.013 -3.1104  0.2827  0.3086
   37TMC2    H2  582   1.416   3.706  11.617  0.7114 -0.5024  0.9488
   37TMC2    C7  583   1.508   3.745  11.872  0.9786 -0.1713  0.2304
   37TMC2    C8  584   1.188   3.695  11.522  0.2350 -0.2087 -0.1241
   37TMC2    O1  585   1.521   3.737  11.992 -0.4233  0.2035  0.1938
   37TMC2    O2  586   1.098   3.611  11.520  0.3578  0.2408 -0.1440
   37TMC2    O5  587   1.193   3.792  11.427  0.5375  0.1255  0.5137
   37TMC2    H5  588   1.214   3.873  11.478 -0.8297  0.9159 -0.1747
   38MPD2     C  589   0.825   3.857  12.434 -0.0710 -0.4283 -0.7568
   38MPD2    C1  590   0.954   3.806  12.446  0.4244  0.0914 -0.4233
   38MPD2    C2  591   1.026   3.784  12.332  0.1964  0.3046  0.3532
   38MPD2    C3  592   0.978   3.803  12.201 -0.7483 -0.5650  0.4107
   38MPD2    C4  593   0.839   3.832  12.192  0.7643  0.5145  0.3309
   38MPD2    C5  594   0.769   3.868  12.306  0.6772  1.5357  0.3618
   38MPD2     H  595   1.131   3.755  12.331  0.5060  1.4596 -0.1501
   38MPD2    H1  596   0.789   3.849  12.098  1.5798  2.0989  0.1757
   38MPD2    H2  597   0.763   3.879  12.520 -0.4082 -0.2268 -1.0485
   38MPD2    H3  598   0.663   3.886  12.291  0.6437  0.3291 -0.8531
   38MPD2     N  599   1.067   3.786  12.098  0.1480  0.2998  0.4969
   38MPD2    H5  600   1.158   3.747  12.120 -0.9665 -2.8299 -0.4143
   38MPD2    N1  601   1.019   3.775  12.569  0.1961  0.3086 -0.4346
   38MPD2    H7  602   1.108   3.727  12.561  0.9833  1.6385  0.3438
   39TMC2    C1  603   4.374   1.523   1.626 -0.1990 -0.1573 -0.9947
   39TMC2    C2  604   4.364   1.585   1.751 -0.1641 -0.5180 -0.9802
   39TMC2    C3  605   4.484   1.635   1.808 -0.4305 -0.7817  0.2716
   39TMC2    C4  606   4.492   1.523   1.552 -0.0731 -0.3829 -0.0111
   39TMC2    C5  607   4.602   1.554   1.623  0.2932 -0.0554  0.4658
   39TMC2    C6  608   4.601   1.605   1.747  0.4786  0.1292  0.3368
   39TMC2     C  609   4.259   1.475   1.563  0.2172 -0.1332 -0.6182
   39TMC2     O  610   4.155   1.531   1.594 -0.1872  0.3767  0.1524
   39TMC2     H  611   4.270   1.598   1.803 -1.1028 -1.5037 -2.4009
   39TMC2    H1  612   4.510   1.490   1.451 -0.5805 -1.6592  0.3075
   39TMC2    H2  613   4.697   1.635   1.787  0.4404 -0.2241  0.6980
   39TMC2    C7  614   4.722   1.490   1.572 -0.6766  1.0137  0.8142
   39TMC2    C8  615   4.479   1.690   1.943  0.1529  0.0602 -0.4012
   39TMC2    O1  616   4.721   1.437   1.462  0.0605  0.1537 -0.7265
   39TMC2    O2  617   4.392   1.653   2.016 -0.1238 -0.5021  0.4866
   39TMC2    O5  618   4.605   1.702   1.980 -0.3501  0.2766 -0.1410
   39TMC2    H5  619   4.653   1.764   1.921  1.1568 -1.3214 -0.5740
   40MPD2     C  620   4.215   1.191   1.338  0.1199  0.0315  0.4118
   40MPD2    C1  621   4.189   1.313   1.395  0.7720 -0.3755  0.1532
   40MPD2    C2  622   4.067   1.374   1.361  0.8625  0.0681 -0.1184
   40MPD2    C3  623   3.967   1.304   1.289 -0.0682 -0.0831  0.1948
   40MPD2    C4  624   4.001   1.180   1.241 -0.1952 -0.2898  0.2765
   40MPD2    C5  625   4.128   1.120   1.259  0.1758 -0.1559 -0.0450
   40MPD2     H  626   4.051   1.472   1.404  2.3289 -0.9453  2.7373
   40MPD2    H1  627   3.939   1.119   1.176 -0.4242  0.9096 -0.6214
   40MPD2    H2  628   4.308   1.138   1.354 -0.7822 -1.1891  1.6676
   40MPD2    H3  629   4.146   1.019   1.225  0.6008  0.7396 -2.4226
   40MPD2     N  630   3.846   1.353   1.239  0.1725 -0.0262 -0.9318
   40MPD2    H5  631   3.795   1.283   1.187  2.0313 -0.4908 -2.1140
   40MPD2    N1  632   4.285   1.374   1.477  0.2547 -0.1780 -0.0900
   40MPD2    H7  633   4.374   1.324   1.479 -2.5405 -5.0761  1.0142
   41TMC2    C1  634   2.651   4.127  14.249  0.3958 -0.2487 -0.0170
   41TMC2    C2  635   2.763   4.072  14.306  0.1827  0.4604  0.5428
   41TMC2    C3  636   2.873   4.075  14.229  0.3876 -0.4883 -0.3828
   41TMC2    C4  637   2.648   4.176  14.121  0.0368  0.3878 -0.4543
   41TMC2    C5  638   2.761   4.180  14.046 -0.3517 -0.1224 -0.5948
   41TMC2    C6  639   2.878   4.133  14.101  0.3265 -0.5510  0.2089
   41TMC2     C  640   2.531   4.127  14.328 -0.1702  0.1060 -0.3502
   41TMC2     O  641   2.432   4.130  14.264  0.0471  0.2803 -1.1255
   41TMC2     H  642   2.764   4.027  14.404  0.7765  0.3224  0.4723
   41TMC2    H1  643   2.557   4.222  14.083 -0.5621  0.3765  0.9551
   41TMC2    H2  644   2.976   4.129  14.056 -0.3299 -1.6798 -1.1448
   41TMC2    C7  645   2.748   4.225  13.916 -0.6585  0.4179 -0.3552
   41TMC2    C8  646   2.981   3.985  14.271 -0.0194 -0.0805 -0.2241
   41TMC2    O1  647   2.640   4.278  13.888  0.3707 -0.1628  0.4144
   41TMC2    O2  648   2.957   3.879  14.332  0.0942 -0.3443 -0.1783
   41TMC2    O5  649   3.106   4.033  14.236 -0.5008  0.1447  0.2151
   41TMC2    H5  650   3.108   4.120  14.191 -0.5893 -0.1093 -0.2725
   42MPD2     C  651   2.310   4.168  14.523  0.4334 -0.3408 -0.1654
   42MPD2    C1  652   2.444   4.195  14.540  0.5944  0.6767  0.2642
   42MPD2    C2  653   2.483   4.252  14.663  0.1937  0.0655 -0.6371
   42MPD2    C3  654   2.397   4.280  14.769 -0.3016 -0.4193 -0.6297
   42MPD2    C4  655   2.268   4.239  14.742 -0.2709  0.2629  0.6010
   42MPD2    C5  656   2.225   4.186  14.624  0.2324  0.2725  0.2386
   42MPD2     H  657   2.588   4.272  14.676 -0.4947  1.9752  2.0666
   42MPD2    H1  658   2.188   4.260  14.812 -1.1330 -0.8361 -0.0563
   42MPD2    H2  659   2.267   4.137  14.428 -0.7111 -3.6032  1.3959
   42MPD2    H3  660   2.118   4.176  14.612 -0.0680  0.6403  2.6368
   42MPD2     N  661   2.429   4.340  14.886  0.0048  0.0189 -0.1828
   42MPD2    H5  662   2.353   4.382  14.938  0.3359 -0.2690  0.5365
   42MPD2    N1  663   2.554   4.167  14.454 -0.4971  0.2708  0.3927
   42MPD2    H7  664   2.646   4.203  14.477 -1.6080  1.9006  2.2321
   43TMC2    C1  665   4.543   3.115   0.836  0.3840 -0.1862 -0.0034
   43TMC2    C2  666   4.409   3.115   0.842  0.2373 -0.7934  0.1078
   43TMC2    C3  667   4.351   3.113   0.969 -0.0111 -0.1243 -0.3069
   43TMC2    C4  668   4.618   3.095   0.945 -1.0671 -0.3410  0.2471
   43TMC2    C5  669   4.555   3.098   1.067  0.2125  0.6583 -0.7007
   43TMC2    C6  670   4.417   3.109   1.085  0.4090  0.1730 -0.3319
   43TMC2     C  671   4.597   3.101   0.700 -0.0118 -0.3043  1.1095
   43TMC2     O  672   4.528   3.133   0.608 -0.4338 -0.6111  0.1846
   43TMC2     H  673   4.345   3.119   0.755  0.2494  0.2485  0.1455
   43TMC2    H1  674   4.725   3.084   0.934 -1.0685  0.6486 -0.6740
   43TMC2    H2  675   4.369   3.109   1.182  2.3699  2.3848  0.6287
   43TMC2    C7  676   4.637   3.094   1.182  0.0208 -0.2646 -0.4217
   43TMC2    C8  677   4.206   3.129   0.964  0.1640  0.2936  0.2203
   43TMC2    O1  678   0.009   3.051   1.155 -0.4303  0.1126  0.0843
   43TMC2    O2  679   4.146   3.175   0.866 -0.6255 -0.1854  0.1995
   43TMC2    O5  680   4.140   3.078   1.068  0.1753  0.4548 -0.5350
   43TMC2    H5  681   4.189   3.040   1.144 -1.2588  1.9051  1.1149
   44MPD2     C  682   0.146   2.895   0.340 -0.2619 -0.3631 -0.5317
   44MPD2    C1  683   0.190   2.834   0.455 -0.2506  0.5427 -0.2331
   44MPD2    C2  684   0.132   2.877   0.576 -0.7166  0.1214  0.1105
   44MPD2    C3  685   0.031   2.974   0.572 -0.5452  0.2570 -0.3496
   44MPD2    C4  686   0.001   3.031   0.454  0.2888 -0.2026 -0.1087
   44MPD2    C5  687   0.051   2.994   0.328  0.0090 -0.3608  0.0333
   44MPD2     H  688   0.171   2.835   0.668 -0.0541  1.4602  0.4453
   44MPD2    H1  689   4.681   3.121   0.453  2.4734  1.2179 -0.8030
   44MPD2    H2  690   0.197   2.866   0.248 -1.4242 -0.2167 -1.2263
   44MPD2    H3  691   0.026   3.035   0.230  1.5328 -0.5260 -0.4323
   44MPD2     N  692   4.701   3.009   0.692  0.5616 -0.1513  0.3253
   44MPD2    H5  693   0.002   2.969   0.777 -2.0434 -1.8023  0.7543
   44MPD2    N1  694   0.287   2.734   0.465  0.1478 -0.0329 -0.3853
   44MPD2    H7  695   0.296   2.692   0.557 -2.2456 -0.1916 -0.2346
   45TMC2    C1  696   0.452   0.208  10.008 -0.4506 -0.3275 -0.0764
   45TMC2    C2  697   0.332   0.270   9.982  0.3285  0.2976  0.0111
   45TMC2    C3  698   0.336   0.416   9.983  0.0593 -0.0844  0.1708
   45TMC2    C4  699   0.569   0.277  10.025  0.1273  0.8978 -0.0668
   45TMC2    C5  700   0.570   0.418  10.025  0.3931  0.1403  0.3375
   45TMC2    C6  701   0.451   0.489  10.013 -0.2984  0.2418 -0.0066
   45TMC2     C  702   0.459   0.062  10.019 -0.4643  0.0555 -0.8667
   45TMC2     O  703   0.565   0.020  10.075  0.7116 -0.0292 -0.1921
   45TMC2     H  704   0.248   0.209   9.949  1.2762 -0.9295 -0.1179
   45TMC2    H1  705   0.659   0.227  10.060  0.2412  0.8262 -0.4609
   45TMC2    H2  706   0.448   0.597  10.022  0.9436  0.1590  1.4107
   45TMC2    C7  707   0.685   0.483  10.078  0.1305 -0.1671  0.0592
   45TMC2    C8  708   0.220   0.491   9.953 -0.3963 -0.2412 -0.2595
   45TMC2    O1  709   0.661   0.575  10.154  0.0319  0.4806  0.1055
   45TMC2    O2  710   0.208   0.612   9.977  0.5477 -0.2739  0.5751
   45TMC2    O5  711   0.177   0.428   9.839 -0.4056 -0.3275  0.0852
   45TMC2    H5  712   0.238   0.362   9.799 -0.1806 -1.8965  3.0638
   46MPD2     C  713   0.445   4.511   9.965 -0.1255  0.2949 -0.2267
   46MPD2    C1  714   0.338   4.597   9.940 -0.2463  0.6073  0.3482
   46MPD2    C2  715   0.217   4.542   9.898 -0.2828  0.4400 -0.4985
   46MPD2    C3  716   0.217   4.408   9.862  0.0448 -0.7265 -0.1351
   46MPD2    C4  717   0.335   4.331   9.866 -0.5004 -0.5303  0.4009
   46MPD2    C5  718   0.452   4.382   9.910 -0.0627  0.2640  0.7351
   46MPD2     H  719   0.133   4.610   9.896 -0.1983  0.5568 -0.1104
   46MPD2    H1  720   0.343   4.230   9.828  0.0150 -0.1787 -0.4138
   46MPD2    H2  721   0.537   4.548  10.008 -0.4585  1.5455 -0.5625
   46MPD2    H3  722   0.539   4.318   9.920 -0.3952  0.0231  2.0065
   46MPD2     N  723   0.093   4.358   9.817  0.2475  0.4431 -0.5675
   46MPD2    H5  724   0.015   4.423   9.818  0.5527  0.7974  0.3769
   46MPD2    N1  725   0.348   4.739   9.972 -0.4045 -0.2113  0.3510
   46MPD2    H7  726   0.273   0.051   9.927  0.1619 -1.5134 -2.1309
   47TMC2    C1  727   3.017   0.197   9.210 -0.4766 -0.2972  0.4264
   47TMC2    C2  728   3.031   0.071   9.160 -0.0387 -0.0916 -0.0797
   47TMC2    C3  729   2.937   0.029   9.069  0.6783  0.1831  0.0911
   47TMC2    C4  730   2.926   0.284   9.159  0.4699  0.6824 -0.3359
   47TMC2    C5  731   2.838   0.240   9.064  0.0164  0.4976  0.4046
   47TMC2    C6  732   2.848   0.116   9.010  0.6828  0.1697  0.5212
   47TMC2     C  733   3.115   0.248   9.300 -0.5746 -0.8243 -0.6634
   47TMC2     O  734   3.132   0.369   9.309  0.1202 -0.3568 -0.2887
   47TMC2     H  735   3.118   0.011   9.185  0.0693  0.0338 -0.1507
   47TMC2    H1  736   2.920   0.383   9.204  1.2827  0.0311  1.1985
   47TMC2    H2  737   2.777   0.078   8.937  0.6459  0.5695  0.3459
   47TMC2    C7  738   2.719   0.323   9.039  0.4499 -0.1771 -0.0120
   47TMC2    C8  739   2.973   4.656   8.982  0.1186  0.7094 -0.2399
   47TMC2    O1  740   2.698   0.406   9.125  0.3426 -0.0318 -0.3780
   47TMC2    O2  741   3.086   4.617   8.954 -0.2107  0.6274  0.1849
   47TMC2    O5  742   2.865   4.575   8.983 -0.1970  0.5674  0.0537
   47TMC2    H5  743   2.799   4.611   9.046 -0.0912 -1.1856  1.1725
   48MPD2     C  744   3.333   0.303   9.489 -0.5020  0.0319  0.1135
   48MPD2    C1  745   3.284   0.177   9.472  0.3353  0.4631  0.8177
   48MPD2    C2  746   3.345   0.073   9.540  0.4157  0.0636  0.6225
   48MPD2    C3  747   3.448   0.094   9.624  0.2292  0.3879 -1.4806
   48MPD2    C4  748   3.491   0.223   9.657 -0.2956  0.1094  0.5995
   48MPD2    C5  749   3.423   0.321   9.591 -0.0176  0.3874 -1.1578
   48MPD2     H  750   3.319   4.710   9.514  1.1248 -0.2999  1.3100
   48MPD2    H1  751   3.569   0.239   9.730  1.5995 -0.2362 -1.3474
   48MPD2    H2  752   3.298   0.395   9.443 -2.5202 -1.8546 -2.0618
   48MPD2    H3  753   3.452   0.422   9.615  2.0998 -0.8907  1.6752
   48MPD2     N  754   3.508   4.708   9.673  0.5717  0.3822 -0.0334
   48MPD2    H5  755   3.464   4.621   9.648 -1.7221  1.5036  0.0394
   48MPD2    N1  756   3.182   0.155   9.371 -0.4322 -0.1170  0.3750
   48MPD2    H7  757   3.161   0.059   9.349  1.8447 -0.5607  0.1547
   49TMC2    C1  758   0.871   1.901  10.295 -0.5034 -0.1658  0.2123
   49TMC2    C2  759   0.886   1.787  10.365 -0.7094  0.0393 -0.3547
   49TMC2    C3  760   0.804   1.682  10.351 -0.5038  0.0112  0.0210
   49TMC2    C4  761   0.766   1.920  10.222 -0.2298 -0.1538 -0.0065
   49TMC2    C5  762   0.674   1.818  10.212 -0.6861  0.2373 -0.5822
   49TMC2    C6  763   0.692   1.697  10.270  0.1161 -0.1648 -0.5529
   49TMC2     C  764   0.931   2.021  10.335 -1.1692  0.5552  0.1593
   49TMC2     O  765   0.933   2.117  10.255  0.0252  0.2239  0.4719
   49TMC2     H  766   0.977   1.777  10.423 -1.7672 -2.1725  0.9452
   49TMC2    H1  767   0.758   2.013  10.167  0.8124 -1.0579 -1.7177
   49TMC2    H2  768   0.613   1.622  10.269 -1.7955  1.8160  1.1312
   49TMC2    C7  769   0.551   1.842  10.150  0.4314  0.3128 -0.0592
   49TMC2    C8  770   0.828   1.566  10.431 -0.3964 -0.0398 -0.3493
   49TMC2    O1  771   0.458   1.770  10.181  0.2651 -0.2998  0.5062
   49TMC2    O2  772   0.938   1.555  10.487  0.1433  0.1871 -0.1551
   49TMC2    O5  773   0.755   1.471  10.384  0.2992 -0.2866  0.2762
   49TMC2    H5  774   0.672   1.506  10.345  0.5327 -0.5862 -0.4959
   50MPD2     C  775   1.080   2.236  10.468  0.6311 -0.0681  0.5108
   50MPD2    C1  776   1.050   2.116  10.528  0.8364 -0.2241 -0.6142
   50MPD2    C2  777   1.072   2.100  10.660 -0.1285 -1.0609 -0.4423
   50MPD2    C3  778   1.109   2.210  10.735  0.1383 -0.2024 -0.0325
   50MPD2    C4  779   1.145   2.334  10.675 -0.0143 -0.0997 -0.0243
   50MPD2    C5  780   1.123   2.343  10.538 -0.5831  0.0471  0.1954
   50MPD2     H  781   1.060   2.004  10.709  1.4352 -1.8539 -1.6471
   50MPD2    H1  782   1.178   2.419  10.733 -0.8950  0.9143 -1.0094
   50MPD2    H2  783   1.073   2.253  10.361 -1.8622  0.0962  0.6955
   50MPD2    H3  784   1.153   2.428  10.478 -0.0072 -0.1226  0.2406
   50MPD2     N  785   1.123   2.207  10.873 -0.3116 -0.1946 -0.7248
   50MPD2    H5  786   1.145   2.294  10.919  0.4397  0.2717 -1.9761
   50MPD2    N1  787   0.980   2.010  10.466 -0.2819  0.4263 -0.7418
   50MPD2    H7  788   0.955   1.929  10.521  1.1656  1.1138  0.9578
   51TMC2    C1  789   1.994   1.928   1.724 -0.4330 -0.2109 -0.2590
   51TMC2    C2  790   1.893   1.958   1.644 -0.2247  0.4263  0.2184
   51TMC2    C3  791   1.817   2.073   1.664 -0.5087 -0.2788 -0.1419
   51TMC2    C4  792   2.022   2.007   1.835  0.0344  0.1861  0.3255
   51TMC2    C5  793   1.951   2.118   1.857 -0.9226 -0.7021 -0.7097
   51TMC2    C6  794   1.848   2.150   1.770 -0.2648 -0.5923  0.8143
   51TMC2     C  795   2.066   1.811   1.687  0.7656 -0.3326  0.7242
   51TMC2     O  796   2.016   1.727   1.618  0.0787 -1.0943  0.0365
   51TMC2     H  797   1.855   1.885   1.573 -2.3464  1.7149  0.0410
   51TMC2    H1  798   2.108   1.988   1.899  1.2002  0.9528 -1.0239
   51TMC2    H2  799   1.798   2.244   1.786  1.2931  0.2935  0.4630
   51TMC2    C7  800   2.002   2.213   1.957 -0.2468 -0.4729  0.7293
   51TMC2    C8  801   1.716   2.097   1.567  0.6969 -0.4160 -0.4036
   51TMC2    O1  802   2.122   2.208   1.984  0.6334  0.3755  0.9065
   51TMC2    O2  803   1.733   2.075   1.446 -0.0797 -0.8255  0.4355
   51TMC2    O5  804   1.612   2.159   1.630  0.4333  0.4045  0.4213
   51TMC2    H5  805   1.606   2.132   1.725 -0.5464 -1.1271 -0.0811
   52MPD2     C  806   2.475   1.498   1.719  0.2742 -0.7497  0.8125
   52MPD2    C1  807   2.351   1.481   1.656 -0.0362 -0.5290 -0.0637
   52MPD2    C2  808   2.253   1.575   1.655 -0.7474  0.6650 -0.4107
   52MPD2    C3  809   2.285   1.696   1.716 -0.7138  0.0892  0.3213
   52MPD2    C4  810   2.406   1.720   1.771 -0.8062  0.5246  0.6071
   52MPD2    C5  811   2.501   1.619   1.774  0.4068 -0.9947  0.1785
   52MPD2     H  812   2.154   1.553   1.616 -1.3398  0.5095  1.1859
   52MPD2    H1  813   2.422   1.814   1.823  1.1069 -0.9344  2.6458
   52MPD2    H2  814   2.556   1.428   1.703 -1.5182 -2.8820  1.1564
   52MPD2    H3  815   2.602   1.636   1.809  0.1540 -0.3129  0.5656
   52MPD2     N  816   2.196   1.804   1.732 -0.8596  0.1992 -0.1510
   52MPD2    H5  817   2.230   1.894   1.764 -0.0846  0.2824 -1.2095
   52MPD2    N1  818   2.312   1.356   1.604 -0.3437 -0.2768 -0.2797
   52MPD2    H7  819   2.223   1.355   1.555  0.1494 -0.0173 -1.1670
   53TMC2    C1  820   2.171   3.634  12.196 -0.6125 -0.0347 -0.0195
   53TMC2    C2  821   2.306   3.623  12.211  0.3017 -0.0486  0.1933
   53TMC2    C3  822   2.348   3.626  12.342 -0.0264  0.1418  0.2013
   53TMC2    C4  823   2.079   3.626  12.297  0.5616  0.1312  0.5140
   53TMC2    C5  824   2.122   3.621  12.426  0.7736 -0.8643  0.3498
   53TMC2    C6  825   2.259   3.629  12.444 -0.2221  0.1672  0.2986
   53TMC2     C  826   2.123   3.661  12.063  0.1800 -0.2317 -0.0039
   53TMC2     O  827   2.222   3.680  11.986  0.2755 -0.3690 -0.0761
   53TMC2     H  828   2.374   3.614  12.127 -1.8489 -2.7164 -1.2645
   53TMC2    H1  829   1.972   3.638  12.280  0.3002  0.1415  2.1733
   53TMC2    H2  830   2.296   3.648  12.544  2.2309  3.3941 -1.2134
   53TMC2    C7  831   2.029   3.664  12.529 -0.5166  0.1709  0.9298
   53TMC2    C8  832   2.481   3.574  12.366  0.2950 -0.2869  0.3403
   53TMC2    O1  833   1.929   3.729  12.491  0.2232 -0.2909  0.0628
   53TMC2    O2  834   2.562   3.567  12.272  0.5654  0.0972 -0.0682
   53TMC2    O5  835   2.457   3.478  12.461 -0.0072 -0.9604  0.0395
   53TMC2    H5  836   2.371   3.488  12.507  0.1044  1.2916 -0.2180
   54MPD2     C  837   2.008   3.713  11.794 -0.1206  0.6072 -0.1008
   54MPD2    C1  838   1.938   3.702  11.913 -0.3967  0.7318 -0.0555
   54MPD2    C2  839   1.803   3.707  11.903  0.1977 -0.1747 -0.2205
   54MPD2    C3  840   1.736   3.745  11.788 -0.0431 -0.0335 -0.0127
   54MPD2    C4  841   1.810   3.766  11.677  0.6742  0.6026  0.2743
   54MPD2    C5  842   1.942   3.758  11.683 -0.1565 -0.0649  0.3442
   54MPD2     H  843   1.743   3.691  11.992  0.3449 -0.3192 -0.1459
   54MPD2    H1  844   1.771   3.799  11.582 -1.5512  1.0888  1.3484
   54MPD2    H2  845   2.115   3.698  11.783 -0.1482  0.3860 -0.0550
   54MPD2    H3  846   1.999   3.764  11.591 -0.9532  2.7842  0.0170
   54MPD2     N  847   1.601   3.755  11.772 -0.2281  0.1027  0.2414
   54MPD2    H5  848   1.568   3.773  11.678 -2.4514 -2.1016  0.5937
   54MPD2    N1  849   1.988   3.681  12.045  0.0268 -0.0781 -0.3434
   54MPD2    H7  850   1.920   3.647  12.111  0.5708  0.0134  0.2621
   55TMC2    C1  851   2.586   2.770  17.658 -0.3408  0.0089 -0.1041
   55TMC2    C2  852   2.556   2.703  17.543 -0.0215 -0.2442  0.1000
   55TMC2    C3  853   2.542   2.569  17.531  0.2325  0.3161  0.4599
   55TMC2    C4  854   2.598   2.691   0.015  0.0029 -0.2847 -0.0592
   55TMC2    C5  855   2.575   2.554   0.009  0.7367  0.1644  0.5494
   55TMC2    C6  856   2.550   2.488  17.642 -0.2263  0.0824  0.2935
   55TMC2     C  857   2.585   2.914  17.684 -0.0634  0.4092  0.3072
   55TMC2     O  858   2.597   2.951   0.046 -0.3987 -0.1362  0.4201
   55TMC2     H  859   2.549   2.759  17.450 -0.6810 -0.4392  0.0338
   55TMC2    H1  860   2.640   2.736   0.105  0.2754 -1.3922  0.3729
   55TMC2    H2  861   2.557   2.380  17.643  1.1222  0.1665 -0.0341
   55TMC2    C7  862   2.594   2.470   0.131 -0.4792 -0.3650 -0.2110
   55TMC2    C8  863   2.510   2.518  17.400 -0.7112  0.4845 -1.2158
   55TMC2    O1  864   2.588   2.346   0.120 -0.0938 -0.1318 -0.2601
   55TMC2    O2  865   2.535   2.577  17.299  0.2334 -0.5048 -0.5387
   55TMC2    O5  866   2.435   2.410  17.418 -0.5115 -0.0398 -0.5827
   55TMC2    H5  867   2.406   2.401  17.511 -0.5548  0.9061 -0.5006
   56MPD2     C  868   2.532   3.186  17.448 -0.4814 -0.0688 -1.0035
   56MPD2    C1  869   2.526   3.126  17.569  0.2650  0.8450  0.0581
   56MPD2    C2  870   2.490   3.193  17.682  0.6613  0.2544 -0.3262
   56MPD2    C3  871   2.455   3.329  17.669 -0.2014  0.2066 -0.5428
   56MPD2    C4  872   2.457   3.389  17.546  0.2180 -0.1653  0.2825
   56MPD2    C5  873   2.489   3.317  17.435  0.4676 -0.0301 -0.4228
   56MPD2     H  874   2.486   3.145   0.026  1.9265  1.0139  0.0969
   56MPD2    H1  875   2.422   3.491  17.531  0.2006  0.1463  2.3626
   56MPD2    H2  876   2.555   3.126  17.360 -0.1197 -0.2738 -0.7699
   56MPD2    H3  877   2.468   3.362  17.338 -0.1120  2.3318  0.8097
   56MPD2     N  878   2.424   3.391   0.036 -0.2516 -0.5299 -0.3246
   56MPD2    H5  879   2.426   3.337   0.122 -1.2463 -1.9456 -1.1938
   56MPD2    N1  880   2.564   2.987  17.574  0.4370  0.7437  0.1642
   56MPD2    H7  881   2.553   2.942  17.484  2.3983 -0.6309  0.6207
   57TMC2    C1  882   1.713   2.810  13.468 -0.7045 -0.9440  0.6830
   57TMC2    C2  883   1.775   2.925  13.494  0.5262 -0.5578  0.3396
   57TMC2    C3  884   1.898   2.921  13.554 -0.3260 -0.5662 -0.5952
   57TMC2    C4  885   1.785   2.688  13.475  0.6660 -0.0092  0.6900
   57TMC2    C5  886   1.914   2.688  13.517 -0.2470 -0.7171  0.1346
   57TMC2    C6  887   1.969   2.805  13.570 -0.6153 -0.3371 -0.2648
   57TMC2     C  888   1.577   2.805  13.503  0.4992 -0.0235  0.7022
   57TMC2     O  889   1.529   2.910  13.545 -0.7257  0.1852 -0.7845
   57TMC2     H  890   1.723   3.019  13.481 -1.1971 -1.5169  0.2854
   57TMC2    H1  891   1.739   2.593  13.451  1.3122 -0.1740  0.0793
   57TMC2    H2  892   2.059   2.812  13.631 -0.4065  3.8422 -1.0355
   57TMC2    C7  893   2.008   2.578  13.507  0.0154 -0.6757  0.5452
   57TMC2    C8  894   1.958   3.028  13.623 -0.4419  0.1309 -0.5775
   57TMC2    O1  895   2.122   2.588  13.561 -0.3585 -0.6658  0.4625
   57TMC2    O2  896   2.052   3.013  13.698 -0.6423 -0.1204 -0.1444
   57TMC2    O5  897   1.876   3.137  13.611 -0.3075 -0.1381 -0.6289
   57TMC2    H5  898   1.919   3.213  13.656 -3.8899  1.8396 -0.4616
   58MPD2     C  899   1.112   2.585  13.564  0.8351  0.0438  0.3829
   58MPD2    C1  900   1.163   2.709  13.606  0.4444 -0.2197 -0.2431
   58MPD2    C2  901   1.292   2.747  13.575 -0.6891  0.3094  0.2571
   58MPD2    C3  902   1.376   2.661  13.502  0.8984 -0.0916 -0.3881
   58MPD2    C4  903   1.326   2.542  13.464 -0.3611  0.1922  0.1933
   58MPD2    C5  904   1.197   2.502  13.494  0.4150 -0.2408 -0.7228
   58MPD2     H  905   1.309   2.852  13.594  0.1786  0.2941 -0.4364
   58MPD2    H1  906   1.396   2.477  13.414 -2.6499 -0.1794 -2.5283
   58MPD2    H2  907   1.025   2.536  13.606  0.6951 -0.4343 -0.4763
   58MPD2    H3  908   1.173   2.398  13.477  1.2616 -0.6068  0.2456
   58MPD2     N  909   1.514   2.692  13.470  0.0082  0.2712  0.1100
   58MPD2    H5  910   1.562   2.623  13.414 -0.7527 -0.2018  0.0350
   58MPD2    N1  911   1.084   2.798  13.673 -0.8383 -0.5226  0.0699
   58MPD2    H7  912   1.117   2.892  13.692 -0.9426 -0.7356  1.2805
   59TMC2    C1  913   4.021   2.765  12.984  0.2714 -0.5862  0.1820
   59TMC2    C2  914   4.003   2.682  13.101  0.8054  0.7000  0.1989
   59TMC2    C3  915   3.868   2.642  13.119  0.1722 -0.1795 -0.2835
   59TMC2    C4  916   3.925   2.772  12.885 -0.0763 -0.4737 -0.6280
   59TMC2    C5  917   3.803   2.723  12.914 -0.0611  0.3538  0.0413
   59TMC2    C6  918   3.766   2.665  13.029 -0.3420  0.2877 -0.4362
   59TMC2     C  919   4.138   2.848  12.966  0.1509  0.0024 -0.1771
   59TMC2     O  920   4.142   2.915  12.863  0.4569 -0.2075 -0.5190
   59TMC2     H  921   4.075   2.669  13.180 -1.8251  1.6367  2.7654
   59TMC2    H1  922   3.951   2.813  12.787  0.8257  0.0223 -0.1789
   59TMC2    H2  923   3.664   2.650  13.063 -1.0420  2.1934 -1.6902
   59TMC2    C7  924   3.696   2.786  12.842 -0.6241  0.5971  0.4868
   59TMC2    C8  925   3.828   2.617  13.250 -0.0965  0.2209  0.1608
   59TMC2    O1  926   3.591   2.728  12.850  0.0232 -0.2227  0.5353
   59TMC2    O2  927   3.738   2.540  13.283 -1.0060  0.5942 -0.2497
   59TMC2    O5  928   3.884   2.713  13.321 -0.0461  0.1517  0.4123
   59TMC2    H5  929   3.945   2.768  13.266  1.2661 -1.8689 -0.1426
   60MPD2     C  930   4.418   2.950  12.951  0.4791  0.0204 -0.4094
   60MPD2    C1  931   4.364   2.882  13.061  0.0650 -0.4530  0.4376
   60MPD2    C2  932   4.431   2.875  13.182  0.3484 -0.1825  0.8142
   60MPD2    C3  933   4.553   2.935  13.197 -0.0456  0.1169  0.0662
   60MPD2    C4  934   4.616   2.983  13.086  0.2280  0.4511  0.0925
   60MPD2    C5  935   4.551   2.989  12.965 -0.4547 -0.2841  0.1172
   60MPD2     H  936   4.395   2.819  13.268  4.6448 -2.1289  1.3310
   60MPD2    H1  937   4.720   3.013  13.080 -0.5263  2.9017 -0.8147
   60MPD2    H2  938   4.380   2.966  12.851  1.2136 -3.8069 -1.3128
   60MPD2    H3  939   4.608   3.022  12.880  1.1847 -1.5324  0.7253
   60MPD2     N  940   4.605   2.952  13.328 -0.1494  0.9481  0.4614
   60MPD2    H5  941   4.693   3.003  13.335 -0.3753  1.0011  2.8254
   60MPD2    N1  942   4.235   2.828  13.063  0.7862 -0.4419 -0.1147
   60MPD2    H7  943   4.216   2.774  13.147 -1.9858  0.7274  0.0283
   61TMC2    C1  944   3.095   0.642  16.062 -0.7091  0.2232 -0.8325
   61TMC2    C2  945   3.020   0.659  16.175 -0.0671  0.4715  1.0451
   61TMC2    C3  946   3.005   0.794  16.215 -0.0648 -0.2013  0.4319
   61TMC2    C4  947   3.133   0.743  15.980  0.3655 -0.0063  0.4649
   61TMC2    C5  948   3.087   0.863  16.006 -0.3078 -0.3892 -1.0960
   61TMC2    C6  949   3.035   0.894  16.126 -0.2990 -0.3399 -0.2310
   61TMC2     C  950   3.119   0.502  16.019  0.8012  0.2425  0.2874
   61TMC2     O  951   3.118   0.416  16.105 -0.3080 -0.2501  0.1243
   61TMC2     H  952   2.987   0.570  16.227  1.1384 -0.1977  0.6786
   61TMC2    H1  953   3.198   0.724  15.895 -1.0436  1.2314 -0.8823
   61TMC2    H2  954   3.035   0.995  16.166  0.8941 -1.3394  2.2713
   61TMC2    C7  955   3.149   0.965  15.937 -0.8787  0.0505  0.6334
   61TMC2    C8  956   2.893   0.830  16.300  0.1616 -0.2731 -0.4079
   61TMC2    O1  957   3.272   0.956  15.911  0.3989 -0.1623  0.1595
   61TMC2    O2  958   2.835   0.940  16.285 -0.1828 -0.4271  0.2003
   61TMC2    O5  959   2.880   0.741  16.401  0.4672  0.3182  0.3562
   61TMC2    H5  960   2.957   0.680  16.406  2.4508  2.6243 -2.1160
   62MPD2     C  961   3.145   0.257  15.860 -0.7080  0.4059  0.2336
   62MPD2    C1  962   3.163   0.379  15.806  0.1046  0.5835 -0.1194
   62MPD2    C2  963   3.213   0.397  15.681 -0.1062  0.0937 -0.4450
   62MPD2    C3  964   3.252   0.283  15.614  0.3133 -0.5923 -0.5728
   62MPD2    C4  965   3.227   0.158  15.672 -0.0268 -0.1989 -0.2338
   62MPD2    C5  966   3.168   0.138  15.794 -0.1222 -0.1806  0.2612
   62MPD2     H  967   3.216   0.498  15.643 -1.1446  0.4216  0.3131
   62MPD2    H1  968   3.247   0.061  15.629 -0.1688 -0.3159 -0.0367
   62MPD2    H2  969   3.115   0.242  15.963 -1.8209  0.6247 -0.0623
   62MPD2    H3  970   3.144   0.046  15.846  2.5302 -0.8803  0.2592
   62MPD2     N  971   3.318   0.294  15.490 -0.2176 -0.5057  0.0731
   62MPD2    H5  972   3.330   0.208  15.437  0.0722 -0.9107  0.7898
   62MPD2    N1  973   3.136   0.498  15.882 -0.1612  0.1818 -0.3801
   62MPD2    H7  974   3.130   0.590  15.838  0.4423  0.0038 -0.8299
   63TMC2    C1  975   3.110   4.327  10.372 -0.8045  0.0947  0.0786
   63TMC2    C2  976   3.200   4.337  10.478  0.0167  0.8311 -0.2780
   63TMC2    C3  977   3.276   4.454  10.482  0.4787  0.0719 -0.0021
   63TMC2    C4  978   3.107   4.417  10.272 -0.4606  0.8545 -0.3107
   63TMC2    C5  979   3.192   4.527  10.277 -1.0929 -0.0232 -0.4073
   63TMC2    C6  980   3.267   4.551  10.388 -0.2368 -0.2261  1.0238
   63TMC2     C  981   3.028   4.207  10.364 -0.1444  0.0895 -0.0383
   63TMC2     O  982   2.971   4.191  10.256  0.5024  0.1039 -0.0400
   63TMC2     H  983   3.222   4.260  10.551 -0.1868  0.0250 -1.0594
   63TMC2    H1  984   3.037   4.399  10.192 -0.8648 -2.2975  0.7472
   63TMC2    H2  985   3.301   4.651  10.410  1.4653 -0.3528 -1.0418
   63TMC2    C7  986   3.185   4.623  10.174 -0.9441  0.4143  0.8662
   63TMC2    C8  987   3.404   4.447  10.550  0.4740  0.1129 -0.0897
   63TMC2    O1  988   3.098   4.609  10.090 -0.1508 -0.0717 -0.1333
   63TMC2    O2  989   3.500   4.507  10.499  0.2844  0.2038 -0.2121
   63TMC2    O5  990   3.379   4.397  10.671 -0.0236  0.2992 -1.2754
   63TMC2    H5  991   3.288   4.381  10.704  1.3359 -1.0220  1.8314
   64MPD2     C  992   2.793   3.782  10.550  0.8711  0.1163 -0.7018
   64MPD2    C1  993   2.865   3.843  10.647 -0.3231  0.2393  0.6457
   64MPD2    C2  994   2.943   3.957  10.614  0.6554  0.0790 -0.2473
   64MPD2    C3  995   2.951   4.004  10.483 -0.3119 -0.1851  0.2681
   64MPD2    C4  996   2.877   3.939  10.383 -0.0730 -0.2031 -0.2136
   64MPD2    C5  997   2.802   3.834  10.424  0.5299  0.3369  0.0111
   64MPD2     H  998   2.990   4.017  10.692  0.1572 -0.5007  0.4981
   64MPD2    H1  999   2.861   3.976  10.283 -1.4613  0.7107  0.3517
   64MPD2    H2 1000   2.739   3.689  10.556  1.0682  0.0727  0.4687
   64MPD2    H3 1001   2.737   3.784  10.354 -0.0899  0.1724  0.7026
   64MPD2     N 1002   3.032   4.121  10.475 -0.0438  0.4898  0.3752
   64MPD2    H5 1003   3.078   4.153  10.560 -2.0227  2.0134  0.8732
   64MPD2    N1 1004   2.874   3.799  10.780  0.1409  0.4416  0.3062
   64MPD2    H7 1005   2.928   3.856  10.844  0.9925 -0.3733  0.3302
   65TMC2    C1 1006   4.024   0.103  15.631  0.5281  0.2566  0.9666
   65TMC2    C2 1007   4.074   0.050  15.512 -0.2016  0.1417  0.2738
   65TMC2    C3 1008   4.129   0.148  15.431 -0.5412  0.6551  0.9381
   65TMC2    C4 1009   4.029   0.238  15.668 -0.9484 -0.5410  0.6217
   65TMC2    C5 1010   4.076   0.327  15.574 -0.3397 -0.3624 -0.2913
   65TMC2    C6 1011   4.140   0.282  15.461  0.1786  0.1666  0.2428
   65TMC2     C 1012   3.979   0.016  15.737  0.5050 -0.5051  0.5869
   65TMC2     O 1013   3.946   0.071  15.842  0.0411  0.1795 -0.5701
   65TMC2     H 1014   4.091   4.685  15.487 -1.1067 -0.0738  0.5685
   65TMC2    H1 1015   3.976   0.279  15.754  1.9854 -0.6075  2.4658
   65TMC2    H2 1016   4.192   0.348  15.392  2.1473  1.8289  3.2763
   65TMC2    C7 1017   4.101   0.466  15.611  0.8345  0.7749 -0.0461
   65TMC2    C8 1018   4.175   0.103  15.301 -0.6499  0.2973  0.1876
   65TMC2    O1 1019   4.191   0.526  15.553 -0.6105 -0.1748 -0.0145
   65TMC2    O2 1020   4.216   4.728  15.275  0.3916 -0.0432 -0.3052
   65TMC2    O5 1021   4.103   0.172  15.199 -0.3003  0.0130 -0.7249
   65TMC2    H5 1022   4.040   0.240  15.228 -1.8849 -2.1931  1.0459
   66MPD2     C 1023   3.892   4.538  15.914 -0.3072  0.0568 -0.0555
   66MPD2    C1 1024   3.899   4.529  15.778 -0.2896  0.2784  0.5967
   66MPD2    C2 1025   3.880   4.409  15.721 -0.8569 -0.5614 -0.3343
   66MPD2    C3 1026   3.830   4.304  15.796  0.4907  0.4766 -0.5465
   66MPD2    C4 1027   3.815   4.318  15.933 -0.3671 -0.4439 -0.4394
   66MPD2    C5 1028   3.844   4.435  15.992 -0.3142 -0.5646  0.0451
   66MPD2     H 1029   3.906   4.385  15.618 -3.8780 -0.5751 -1.0899
   66MPD2    H1 1030   3.764   4.234  15.981 -2.4673 -0.6250 -2.9988
   66MPD2    H2 1031   3.915   4.626  15.974 -2.0255  0.9326 -0.6688
   66MPD2    H3 1032   3.825   4.449  16.097  3.2913  0.8074  0.5388
   66MPD2     N 1033   3.802   4.181  15.739  0.1753 -0.0523  0.0072
   66MPD2    H5 1034   3.753   4.116  15.799 -1.5268 -0.1179 -1.4763
   66MPD2    N1 1035   3.943   4.633  15.690 -0.1806 -0.2818 -0.1548
   66MPD2    H7 1036   3.957   4.609  15.592  1.7532  0.2361 -0.0131
   67TMC2    C1 1037   4.055   3.678  14.537 -0.1169  0.5960 -0.3237
   67TMC2    C2 1038   3.961   3.778  14.563 -0.1339  0.3090  0.2890
   67TMC2    C3 1039   3.964   3.839  14.683 -0.4603  0.1449  0.2848
   67TMC2    C4 1040   4.154   3.645  14.626  0.1726 -0.3300 -0.2742
   67TMC2    C5 1041   4.155   3.714  14.744 -0.2906 -0.3448 -0.3444
   67TMC2    C6 1042   4.068   3.816  14.774  0.7497  0.0600  0.8671
   67TMC2     C 1043   4.071   3.621  14.405 -0.2099  0.3178 -0.3782
   67TMC2     O 1044   4.182   3.575  14.380 -0.2493 -0.3993  0.0662
   67TMC2     H 1045   3.899   3.819  14.484 -0.0392  2.3113  1.2696
   67TMC2    H1 1046   4.247   3.599  14.593  1.3380 -0.2856  2.9288
   67TMC2    H2 1047   4.056   3.877  14.863 -1.0212 -0.3239  0.8770
   67TMC2    C7 1048   4.282   3.706  14.814 -0.2608  0.1021 -0.0434
   67TMC2    C8 1049   3.849   3.931  14.720  0.7337  0.2019  0.2917
   67TMC2    O1 1050   4.369   3.626  14.783  0.1360 -0.2444 -0.0046
   67TMC2    O2 1051   3.850   3.992  14.822 -0.2751  0.2257  0.3729
   67TMC2    O5 1052   3.743   3.898  14.641 -0.2560  0.1561  0.2510
   67TMC2    H5 1053   3.755   3.818  14.585 -0.6593  0.7848 -0.7339
   68MPD2     C 1054   4.042   3.576  14.116 -0.1183 -0.0403 -0.0387
   68MPD2    C1 1055   3.938   3.609  14.202  0.2601 -0.0539  0.0853
   68MPD2    C2 1056   3.815   3.633  14.145  0.7959 -0.0877  0.0557
   68MPD2    C3 1057   3.808   3.633  14.006  0.2804  0.6517  0.4164
   68MPD2    C4 1058   3.911   3.586  13.928  0.0105  0.5367  0.4647
   68MPD2    C5 1059   4.028   3.558  13.985 -0.2905  0.0688 -0.3342
   68MPD2     H 1060   3.742   3.679  14.211  2.0701  0.7566  0.8682
   68MPD2    H1 1061   3.902   3.579  13.821 -3.6316 -4.2189  1.0765
   68MPD2    H2 1062   4.145   3.559  14.144 -0.2939 -0.1633  0.5300
   68MPD2    H3 1063   4.102   3.516  13.917 -0.2270 -1.6509  0.7940
   68MPD2     N 1064   3.689   3.673  13.933 -0.0526  0.6371  0.1780
   68MPD2    H5 1065   3.686   3.674  13.832  2.9632 -0.4749  0.0693
   68MPD2    N1 1066   3.953   3.621  14.339  0.1759 -0.4813 -0.1685
   68MPD2    H7 1067   3.867   3.651  14.385 -0.0289 -2.0129  0.4351
   69TMC2    C1 1068   1.683   4.312  12.680  0.1615 -0.4845  0.9065
   69TMC2    C2 1069   1.637   4.428  12.632  0.0859 -0.2350 -0.1626
   69TMC2    C3 1070   1.639   4.460  12.501 -0.4533  0.2687 -0.4363
   69TMC2    C4 1071   1.724   4.219  12.591  0.6817  0.0582 -0.4542
   69TMC2    C5 1072   1.709   4.247  12.452 -0.6207 -0.1676  0.2751
   69TMC2    C6 1073   1.660   4.366  12.409 -0.6655 -0.1132 -0.4778
   69TMC2     C 1074   1.663   4.293  12.824 -0.3009  0.7131 -0.1864
   69TMC2     O 1075   1.594   4.376  12.885 -0.0217  0.2926  0.3027
   69TMC2     H 1076   1.606   4.505  12.701  0.4135 -0.9357  0.7619
   69TMC2    H1 1077   1.780   4.131  12.621  3.0855  1.6849 -0.2111
   69TMC2    H2 1078   1.682   4.406  12.311  0.5360 -0.6606 -0.4362
   69TMC2    C7 1079   1.767   4.159  12.360 -0.1921  0.1881 -0.0699
   69TMC2    C8 1080   1.662   4.595  12.462 -0.5017  0.2557 -0.1794
   69TMC2    O1 1081   1.866   4.093  12.398  0.5767 -0.6316 -0.1802
   69TMC2    O2 1082   1.694   4.676  12.547 -0.6770  0.4293 -0.5212
   69TMC2    O5 1083   1.559   4.613  12.378  0.1255  0.1015 -0.1623
   69TMC2    H5 1084   1.530   4.542  12.317  0.2223  1.0727 -1.3190
   70MPD2     C 1085   1.802   4.045  13.054  0.1425 -0.0770  0.3508
   70MPD2    C1 1086   1.720   4.145  13.010  0.1911  0.1099 -0.7747
   70MPD2    C2 1087   1.608   4.178  13.087  0.3644  0.4332  0.7710
   70MPD2    C3 1088   1.588   4.119  13.208 -0.1608 -0.3916 -0.3979
   70MPD2    C4 1089   1.677   4.023  13.254  0.0104  0.2107 -0.9785
   70MPD2    C5 1090   1.781   3.979  13.170  0.0515  0.0934  0.0515
   70MPD2     H 1091   1.537   4.251  13.051  0.5396 -0.2476 -0.9636
   70MPD2    H1 1092   1.674   3.978  13.353 -2.9693  1.8642 -0.3408
   70MPD2    H2 1093   1.874   4.010  12.980 -0.7461  0.2810 -0.6778
   70MPD2    H3 1094   1.848   3.905  13.212 -2.0596 -0.1607  3.0276
   70MPD2     N 1095   1.481   4.156  13.296 -0.6312  0.0006  0.5791
   70MPD2    H5 1096   1.486   4.124  13.392 -0.2760 -1.6792  0.0029
   70MPD2    N1 1097   1.734   4.191  12.876  0.8477 -0.2664  0.4807
   70MPD2    H7 1098   1.798   4.135  12.821  1.6493  0.7386  0.3913
   71TMC2    C1 1099   3.366   1.008   1.630 -0.6182  0.1305  0.5690
   71TMC2    C2 1100   3.460   1.014   1.728  0.4989 -0.7484  0.0101
   71TMC2    C3 1101   3.468   1.118   1.815  0.3970 -0.4969  0.0948
   71TMC2    C4 1102   3.278   1.108   1.607  0.2559 -0.7021 -0.1256
   71TMC2    C5 1103   3.279   1.204   1.706  0.2222 -0.5031 -0.5198
   71TMC2    C6 1104   3.369   1.215   1.816 -0.0311  0.0552  0.9026
   71TMC2     C 1105   3.390   0.911   1.523 -0.7605 -0.4564  0.2219
   71TMC2     O 1106   3.491   0.835   1.537  0.4437 -0.3891  0.2909
   71TMC2     H 1107   3.537   0.938   1.732  1.9466  0.7366  0.7618
   71TMC2    H1 1108   3.209   1.121   1.524 -0.7765 -1.5601  0.6095
   71TMC2    H2 1109   3.380   1.296   1.887 -1.2592  1.4641 -0.5349
   71TMC2    C7 1110   3.185   1.318   1.699  0.4847 -0.8009 -0.5042
   71TMC2    C8 1111   3.584   1.107   1.912  0.6365  0.2855 -0.2006
   71TMC2    O1 1112   3.226   1.404   1.768  0.0319 -0.1632 -0.1670
   71TMC2    O2 1113   3.652   1.005   1.923  0.1803 -0.3928  0.1426
   71TMC2    O5 1114   3.560   1.196   2.009 -0.2371  0.6315 -0.0431
   71TMC2    H5 1115   3.525   1.287   1.991 -0.8289  0.6656  1.2951
   72MPD2     C 1116   3.319   0.760   1.028 -0.0037 -0.5757  0.3361
   72MPD2    C1 1117   3.433   0.752   1.107 -0.1119 -0.4674  0.2779
   72MPD2    C2 1118   3.424   0.797   1.238  0.4181  0.3962 -0.5263
   72MPD2    C3 1119   3.306   0.855   1.284  0.5304  0.0711 -0.3804
   72MPD2    C4 1120   3.192   0.855   1.202  0.7099 -0.5274 -0.1845
   72MPD2    C5 1121   3.197   0.804   1.079 -0.3571  0.0773 -0.3227
   72MPD2     H 1122   3.508   0.794   1.306 -1.0942  0.5046  1.3697
   72MPD2    H1 1123   3.098   0.898   1.236  0.2064 -0.6020 -1.4833
   72MPD2    H2 1124   3.326   0.734   0.923 -0.9326 -0.1993  0.1849
   72MPD2    H3 1125   3.108   0.791   1.018 -1.7824  2.0913  1.3747
   72MPD2     N 1126   3.293   0.909   1.419 -0.1487  0.2681  0.1611
   72MPD2    H5 1127   3.204   0.953   1.438  0.4116  1.3548  0.3081
   72MPD2    N1 1128   3.560   0.703   1.058  0.0829 -0.3592 -0.0755
   72MPD2    H7 1129   3.648   0.713   1.107 -0.2037  1.7143  0.0316
   73TMC2    C1 1130   3.236   2.511  14.295  0.0996 -0.2050 -0.8960
   73TMC2    C2 1131   3.175   2.628  14.277 -0.1090 -0.0321 -0.0553
   73TMC2    C3 1132   3.242   2.740  14.302  0.2366 -0.0227 -0.0546
   73TMC2    C4 1133   3.365   2.508  14.349 -0.4882  0.1397  0.0510
   73TMC2    C5 1134   3.426   2.624  14.387 -0.5006 -0.0999  0.0926
   73TMC2    C6 1135   3.361   2.741  14.358  0.7903 -0.4330 -0.0713
   73TMC2     C 1136   3.241   2.435  14.173 -0.1504  0.9836 -0.5310
   73TMC2     O 1137   3.357   2.406  14.142 -0.3043  0.2835 -0.9963
   73TMC2     H 1138   3.076   2.629  14.234  0.3624  0.9004 -1.1148
   73TMC2    H1 1139   3.405   2.412  14.379 -1.3107 -0.4395 -0.7206
   73TMC2    H2 1140   3.412   2.837  14.361  0.5247 -0.3077  0.4780
   73TMC2    C7 1141   3.569   2.629  14.345  0.0305 -0.4264 -0.0922
   73TMC2    C8 1142   3.164   2.859  14.318  0.5255  0.0298 -0.0133
   73TMC2    O1 1143   3.665   2.675  14.407 -0.7847 -0.3659 -0.0632
   73TMC2    O2 1144   3.187   2.951  14.395 -0.2234 -0.6649 -0.1116
   73TMC2    O5 1145   3.098   2.869  14.205 -0.3429 -0.4898 -0.3301
   73TMC2    H5 1146   3.116   2.803  14.135 -0.6272 -0.4129 -0.4710
   74MPD2     C 1147   3.102   2.122  13.787  0.0268  0.7956  0.1153
   74MPD2    C1 1148   3.215   2.197  13.810 -0.0154 -0.5572 -0.3721
   74MPD2    C2 1149   3.225   2.280  13.918 -0.4668  0.4780 -0.0280
   74MPD2    C3 1150   3.117   2.303  14.004 -0.9560 -0.5685  0.5182
   74MPD2    C4 1151   3.006   2.229  13.984 -0.0303  0.3679  0.4100
   74MPD2    C5 1152   3.001   2.136  13.882  0.0440 -0.7095  0.9600
   74MPD2     H 1153   3.321   2.328  13.931  0.1544 -1.0764  1.1382
   74MPD2    H1 1154   2.916   2.232  14.045 -0.7304  1.8713 -0.6782
   74MPD2    H2 1155   3.095   2.057  13.701  0.6437  0.3105  0.4305
   74MPD2    H3 1156   2.920   2.066  13.867  0.8148 -1.2524 -0.6730
   74MPD2     N 1157   3.122   2.389  14.126  0.1863 -0.1772  0.3666
   74MPD2    H5 1158   3.030   2.406  14.164 -0.5081 -0.0115 -1.3875
   74MPD2    N1 1159   3.324   2.181  13.718 -0.0137 -0.0317 -0.1749
   74MPD2    H7 1160   3.307   2.119  13.640 -1.3957 -0.1199  0.2043
   75TMC2    C1 1161   3.478   3.777  13.898  0.0726  0.6994 -0.1909
   75TMC2    C2 1162   3.402   3.888  13.946  0.1052 -0.0099 -0.5494
   75TMC2    C3 1163   3.296   3.937  13.877 -0.5358 -0.2906 -0.6559
   75TMC2    C4 1164   3.452   3.721  13.776  0.1573  0.3111 -0.4811
   75TMC2    C5 1165   3.340   3.770  13.711 -0.0059 -0.4596  0.6160
   75TMC2    C6 1166   3.258   3.867  13.761  0.1618 -0.2555 -0.4520
   75TMC2     C 1167   3.594   3.745  13.986 -0.1905 -0.4645 -0.2773
   75TMC2     O 1168   3.581   3.789  14.102 -0.1539 -0.0966  0.0982
   75TMC2     H 1169   3.433   3.939  14.037  1.2868 -0.6343 -0.5854
   75TMC2    H1 1170   3.517   3.648  13.729 -0.9431 -1.3108  0.4972
   75TMC2    H2 1171   3.174   3.911  13.709  0.2167  0.8298  0.3610
   75TMC2    C7 1172   3.308   3.721  13.585  0.5257 -0.4825  0.9074
   75TMC2    C8 1173   3.222   4.054  13.916 -0.5233 -0.1494 -0.5822
   75TMC2    O1 1174   3.358   3.614  13.557 -0.2574 -0.7906 -0.2059
   75TMC2    O2 1175   3.104   4.057  13.889 -0.4863  0.2840  0.2990
   75TMC2    O5 1176   3.297   4.121  14.001  0.8624  0.0907  0.4866
   75TMC2    H5 1177   3.388   4.093  13.979  0.4074 -0.5601 -0.5667
   76TMC2    C1 1178   3.088   3.478  12.574  0.0891  0.2397 -0.3947
   76TMC2    C2 1179   3.074   3.354  12.513  0.2842 -0.9634  0.1276
   76TMC2    C3 1180   3.118   3.245  12.586 -0.2690 -0.1159  0.0048
   76TMC2    C4 1181   3.175   3.497  12.685  0.2705  0.2498  0.4941
   76TMC2    C5 1182   3.210   3.382  12.753 -0.2448 -0.1838 -0.4431
   76TMC2    C6 1183   3.174   3.255  12.708 -0.0087 -0.1292  0.6865
   76TMC2     C 1184   3.007   3.579  12.505 -0.0115 -1.0098 -0.0830
   76TMC2     O 1185   2.953   3.551  12.398  0.8409  0.5602  0.0461
   76TMC2     H 1186   3.015   3.341  12.423  1.0204 -1.2080 -0.3211
   76TMC2    H1 1187   3.206   3.597  12.714 -1.3156  0.8629  0.0601
   76TMC2    H2 1188   3.206   3.163  12.756 -1.7882  0.0142  2.1674
   76TMC2    C7 1189   3.280   3.384  12.880 -0.9191 -0.3423 -0.3131
   76TMC2    C8 1190   3.066   3.114  12.547  0.1726 -0.0317  0.0519
   76TMC2    O1 1191   3.317   3.278  12.930  0.3421  0.1475  0.1409
   76TMC2    O2 1192   3.065   3.031  12.634 -1.2323  0.1503  0.3528
   76TMC2    O5 1193   3.154   3.100  12.443  0.5523  0.3588 -0.0146
   76TMC2    H5 1194   3.159   3.164  12.368 -0.8470  0.2665 -0.1866
   77MPD2     C 1195   2.732   4.022  12.515  0.2669  0.3317  0.4949
   77MPD2    C1 1196   2.750   3.934  12.411  0.1937  0.0207  0.5015
   77MPD2    C2 1197   2.831   3.826  12.430  0.0061 -0.9620 -0.3582
   77MPD2    C3 1198   2.900   3.798  12.547 -0.3991 -0.0896 -0.2678
   77MPD2    C4 1199   2.888   3.893  12.647  0.5342  0.3306 -0.0430
   77MPD2    C5 1200   2.803   4.004  12.628  0.0850 -0.2253 -0.0509
   77MPD2     H 1201   2.828   3.752  12.351 -0.9380 -1.8978  0.5461
   77MPD2    H1 1202   2.926   3.880  12.747 -2.6066  1.0460  1.2099
   77MPD2    H2 1203   2.667   4.109  12.516  0.9484  0.8860 -1.5302
   77MPD2    H3 1204   2.792   4.083  12.701 -1.2301 -1.0593  0.6592
   77MPD2     N 1205   2.988   3.693  12.581 -0.1185 -0.8240  0.0313
   77MPD2    H5 1206   3.027   3.693  12.675  2.7833 -1.1226 -1.1592
   77MPD2    N1 1207   2.672   3.948  12.300 -0.0464  0.2333 -0.1832
   77MPD2    H7 1208   2.593   4.011  12.312  1.4308  2.0545 -0.1113
   78TMC2    C1 1209   3.918   1.075   1.574 -0.6317  0.0794 -0.1920
   78TMC2    C2 1210   3.835   1.188   1.589 -0.3493 -0.2194  0.7573
   78TMC2    C3 1211   3.896   1.292   1.652 -0.0690 -0.5280 -0.4905
   78TMC2    C4 1212   4.036   1.064   1.637 -0.5625 -0.1483  0.0439
   78TMC2    C5 1213   4.089   1.172   1.702  0.0033  0.2329 -0.1868
   78TMC2    C6 1214   4.027   1.292   1.699 -0.3058  0.4719 -0.4454
   78TMC2     C 1215   3.870   0.962   1.500 -0.1851  0.6989 -0.4365
   78TMC2     O 1216   3.756   0.971   1.454  0.4454  0.2897  0.4767
   78TMC2     H 1217   3.741   1.209   1.539 -0.2978 -1.5480  0.1007
   78TMC2    H1 1218   4.081   0.967   1.652  1.2526  0.6993  0.0010
   78TMC2    H2 1219   4.082   1.371   1.747  2.3764 -0.4881 -1.9396
   78TMC2    C7 1220   4.232   1.163   1.715 -0.1476 -0.7358  0.6558
   78TMC2    C8 1221   3.820   1.418   1.649  0.5052 -0.2485  0.1855
   78TMC2    O1 1222   4.281   1.101   1.623  0.0436  0.7604  0.3286
   78TMC2    O2 1223   3.699   1.407   1.625  0.4500 -0.1521  0.1142
   78TMC2    O5 1224   3.898   1.528   1.642 -0.0936  0.0704 -0.2614
   78TMC2    H5 1225   3.995   1.511   1.640 -0.3480 -1.5523  0.8684
   79MPD1     C 1226   3.935   0.569   1.195  0.5391 -0.2007  0.1660
   79MPD1    C1 1227   3.825   0.608   1.276  0.5845  0.6566 -0.4235
   79MPD1    C2 1228   3.840   0.716   1.353  0.0788 -0.0732 -0.6447
   79MPD1    C3 1229   3.960   0.785   1.355  0.3123 -0.1269  0.0691
   79MPD1    C4 1230   4.064   0.745   1.274  0.5197  0.2233 -0.4257
   79MPD1    C5 1231   4.052   0.635   1.203 -0.0084 -0.4750  1.1012
   79MPD1     H 1232   3.750   0.747   1.403  0.1933 -0.6669 -0.0771
   79MPD1    H1 1233   4.152   0.807   1.262 -1.2615  2.8423 -0.1398
   79MPD1    H2 1234   3.927   0.492   1.119  1.7938  0.8660 -1.0285
   79MPD1    H3 1235   4.135   0.600   1.142  0.0182  0.6199  0.5149
   79MPD1     N 1236   3.978   0.888   1.444 -0.0220  0.5207  0.7160
   79MPD1    H5 1237   4.070   0.931   1.447  0.0383  0.5197 -1.4040
   79MPD1    N1 1238   3.699   0.540   1.266  0.2740  0.4805  0.6028
   79MPD1    H6 1239   3.636   0.544   1.346 -2.0510 -0.9002 -1.1763
   79MPD1    H7 1240   3.705   0.442   1.239  1.6890  0.8066 -0.2819
   80TMC2    C1 1241   1.668   3.418  12.045 -0.1500 -0.5415 -0.1539
   80TMC2    C2 1242   1.729   3.421  11.920 -0.1573  0.1220  0.1308
   80TMC2    C3 1243   1.654   3.415  11.802  0.3775  0.1616  0.3781
   80TMC2    C4 1244   1.536   3.402  12.047 -0.0644  0.0024  0.2234
   80TMC2    C5 1245   1.465   3.399  11.928 -0.2578 -0.8961  0.2664
   80TMC2    C6 1246   1.520   3.400  11.806  0.1894 -0.8101  0.0221
   80TMC2     C 1247   1.747   3.430  12.164  0.6032 -0.7222  0.0615
   80TMC2     O 1248   1.869   3.416  12.147  0.3425  0.0343 -0.2273
   80TMC2     H 1249   1.836   3.437  11.907  0.1955 -2.5516 -0.3386
   80TMC2    H1 1250   1.484   3.393  12.141  0.0052 -0.8263  0.1816
   80TMC2    H2 1251   1.467   3.383  11.713 -1.9800  0.2755  1.0825
   80TMC2    C7 1252   1.327   3.371  11.937  0.2642 -0.8818  0.5589
   80TMC2    C8 1253   1.725   3.412  11.671 -0.0868  0.3548  0.0956
   80TMC2    O1 1254   1.255   3.428  11.855 -0.5454 -0.2256 -0.2426
   80TMC2    O2 1255   1.687   3.479  11.574  0.3088 -0.2274  0.4626
   80TMC2    O5 1256   1.826   3.317  11.673 -0.3427 -0.2420  0.1747
   80TMC2    H5 1257   1.839   3.262  11.753  1.8608  0.5101  0.3387
   81MPD2     C 1258   1.817   3.433  12.448 -0.2369 -0.6690 -0.0967
   81MPD2    C1 1259   1.702   3.490  12.397 -0.0694  0.0197  0.6341
   81MPD2    C2 1260   1.597   3.528  12.487  0.6572  0.7592  0.1000
   81MPD2    C3 1261   1.601   3.497  12.620  0.5444  0.6457 -0.1054
   81MPD2    C4 1262   1.710   3.431  12.672  0.0077  0.0836  0.5748
   81MPD2    C5 1263   1.814   3.400  12.586 -0.0140  0.1933  0.5945
   81MPD2     H 1264   1.507   3.563  12.438  0.6459  1.7973  0.8693
   81MPD2    H1 1265   1.722   3.394  12.773  5.0247  0.5458  0.1390
   81MPD2    H2 1266   1.903   3.405  12.389  1.6737 -0.6570  2.6632
   81MPD2    H3 1267   1.895   3.340  12.624 -0.2574  0.3368  1.3334
   81MPD2     N 1268   1.500   3.543  12.711  0.1744 -0.5231  0.4071
   81MPD2    H5 1269   1.510   3.521  12.810  2.2048  2.5766  0.8992
   81MPD2    N1 1270   1.676   3.489  12.259  0.3713 -0.4581 -0.0909
   81MPD2    H7 1271   1.583   3.511  12.225 -0.4769 -1.4540  1.5775
   82TMC2    C1 1272   0.082   2.363  11.400  0.5589 -0.2136  0.3205
   82TMC2    C2 1273   0.194   2.299  11.450 -0.2523 -0.4814 -0.4090
   82TMC2    C3 1274   0.187   2.181  11.515  0.0458  0.1577  0.4497
   82TMC2    C4 1275   4.699   2.309  11.430  0.3440  0.2142 -0.1569
   82TMC2    C5 1276   4.692   2.180  11.489 -0.3248  0.0510 -0.2742
   82TMC2    C6 1277   0.069   2.123  11.530 -0.3715 -0.6937  0.2599
   82TMC2     C 1278   0.082   2.501  11.353 -0.3263 -0.5495  0.0122
   82TMC2     O 1279   4.702   2.541  11.343  0.0902 -0.7384 -0.9528
   82TMC2     H 1280   0.294   2.338  11.431 -0.1480 -0.4404  0.2259
   82TMC2    H1 1281   4.603   2.352  11.401  1.3091  1.3032 -1.6921
   82TMC2    H2 1282   0.067   2.020  11.565  0.6694 -0.6676  0.3963
   82TMC2    C7 1283   4.571   2.106  11.501 -0.4581 -0.0769 -0.6783
   82TMC2    C8 1284   0.301   2.106  11.557  0.7397  0.2642 -0.0693
   82TMC2    O1 1285   4.573   2.021  11.588  0.0747 -0.0619 -0.4335
   82TMC2    O2 1286   0.303   1.984  11.570  0.6252 -0.1915  0.1726
   82TMC2    O5 1287   0.383   2.181  11.633  0.8831 -0.0678 -0.1729
   82TMC2    H5 1288   0.369   2.278  11.642  0.0609 -0.2135  0.1060
   83MPD2     C 1289   0.265   2.960  11.247 -0.5328  0.2115  0.2573
   83MPD2    C1 1290   0.138   2.921  11.274  0.4182 -0.2259  0.6272
   83MPD2    C2 1291   0.114   2.792  11.302  0.4437 -0.2436  0.7135
   83MPD2    C3 1292   0.217   2.703  11.317 -0.3191  0.0881  0.2018
   83MPD2    C4 1293   0.347   2.743  11.315 -0.1315 -0.0973  0.6650
   83MPD2    C5 1294   0.372   2.873  11.271 -0.5426  0.3353 -0.0547
   83MPD2     H 1295   0.010   2.763  11.303  0.4309 -0.3175 -1.6818
   83MPD2    H1 1296   0.428   2.673  11.331 -0.8120 -0.9289  0.4657
   83MPD2    H2 1297   0.288   3.060  11.211 -1.0056  0.1882 -0.1026
   83MPD2    H3 1298   0.471   2.903  11.242 -0.3004  0.4173  0.8441
   83MPD2     N 1299   0.201   2.568  11.347  0.0140  0.5449  0.8021
   83MPD2    H5 1300   0.285   2.515  11.364  0.4759  0.4861 -1.7065
   83MPD2    N1 1301   0.038   3.018  11.260  0.1254  0.5292 -0.5089
   83MPD2    H7 1302   0.074   3.111  11.243  1.1091  0.1718 -0.4048
   84TMC2    C1 1303   1.086   2.269  11.270 -0.2188 -0.3581 -0.1303
   84TMC2    C2 1304   1.145   2.182  11.361  0.8114 -0.3768  0.0110
   84TMC2    C3 1305   1.194   2.062  11.307 -0.4774 -0.4060 -0.4796
   84TMC2    C4 1306   1.089   2.247  11.140  0.4328  0.1748 -0.3060
   84TMC2    C5 1307   1.155   2.136  11.099 -0.3341  0.0131  0.2736
   84TMC2    C6 1308   1.221   2.051  11.178 -0.0332  0.4494  0.8562
   84TMC2     C 1309   0.985   2.362  11.327 -0.2526 -0.1128 -0.0325
   84TMC2     O 1310   0.921   2.329  11.429 -0.1540  0.0364 -0.4468
   84TMC2     H 1311   1.130   2.195  11.467 -0.8314 -1.2949 -0.1115
   84TMC2    H1 1312   1.023   2.306  11.078  0.0722  1.1079  0.9622
   84TMC2    H2 1313   1.267   1.960  11.143 -2.0023  0.7907 -2.5888
   84TMC2    C7 1314   1.127   2.100  10.957  0.6327 -0.2467  0.3798
   84TMC2    C8 1315   1.259   1.972  11.398 -0.1916 -0.2506 -0.3571
   84TMC2    O1 1316   1.140   1.980  10.929  0.3127  0.2222  0.4829
   84TMC2    O2 1317   1.204   1.946  11.503 -0.5595 -0.2977 -0.4382
   84TMC2    O5 1318   1.391   2.008  11.389 -0.2916  0.3198  0.0156
   84TMC2    H5 1319   1.420   2.038  11.300 -0.1366 -2.1681 -0.7708
   85TMC2    C1 1320   1.362   0.955  15.892 -0.5270 -0.0876 -0.0931
   85TMC2    C2 1321   1.446   0.957  15.780 -0.0545 -0.1867 -0.2303
   85TMC2    C3 1322   1.435   1.055  15.684 -0.0308  0.4770  0.5460
   85TMC2    C4 1323   1.270   1.046  15.909 -0.0227 -0.3636 -0.1079
   85TMC2    C5 1324   1.253   1.142  15.811 -0.1557 -0.8313 -0.0678
   85TMC2    C6 1325   1.337   1.146  15.704 -0.1701 -0.4427  0.5565
   85TMC2     C 1326   1.400   0.875  15.997  0.1190  0.3577  0.2823
   85TMC2     O 1327   1.522   0.866  16.018  0.4317  0.5731 -0.7776
   85TMC2     H 1328   1.517   0.877  15.762 -0.4821 -0.0925 -2.3448
   85TMC2    H1 1329   1.221   1.044  16.005  2.7597  0.5114  1.3365
   85TMC2    H2 1330   1.312   1.217  15.626  1.4018 -1.1824 -0.6224
   85TMC2    C7 1331   1.184   1.259  15.839 -0.4765  0.0649  0.6147
   85TMC2    C8 1332   1.530   1.070  15.575 -0.3560 -0.0476 -0.1857
   85TMC2    O1 1333   1.218   1.364  15.790 -0.0700 -0.0679  0.5297
   85TMC2    O2 1334   1.529   1.170  15.505 -0.3454 -0.5638  0.2513
   85TMC2    O5 1335   1.572   0.955  15.525 -0.8799  0.5728  0.3774
   85TMC2    H5 1336   1.530   0.882  15.574  0.5769 -0.2428  0.4291
   86MPD2     C 1337   1.284   0.584  16.408  0.0240  0.3763  0.4171
   86MPD2    C1 1338   1.173   0.569  16.317 -0.4225  0.3396 -0.0391
   86MPD2    C2 1339   1.183   0.648  16.201 -0.4119 -0.2316  0.2082
   86MPD2    C3 1340   1.293   0.732  16.172 -0.0283 -0.0729  0.3466
   86MPD2    C4 1341   1.390   0.746  16.268  0.1682 -0.4966 -0.1921
   86MPD2    C5 1342   1.388   0.671  16.383 -0.1590 -0.1019 -0.3605
   86MPD2     H 1343   1.100   0.637  16.133 -0.4164 -0.0458  0.1829
   86MPD2    H1 1344   1.464   0.823  16.249 -0.5443  0.2344  0.0255
   86MPD2    H2 1345   1.297   0.521  16.495 -2.0849 -1.8270 -0.8404
   86MPD2    H3 1346   1.471   0.677  16.452  0.3127  0.6657 -0.9975
   86MPD2     N 1347   1.293   0.808  16.052 -0.3177 -0.2769  0.2737
   86MPD2    H5 1348   1.214   0.804  15.989  0.7306  2.8767 -1.2452
   86MPD2    N1 1349   1.063   0.480  16.335 -0.1929 -0.5867 -0.4379
   86MPD2    H7 1350   0.995   0.465  16.262 -0.1376 -0.2122 -0.5703
   87TMC2    C1 1351   4.591   3.915   1.309 -0.2697 -0.6737 -0.1881
   87TMC2    C2 1352   4.652   3.926   1.429 -0.2837 -0.0602 -1.0149
   87TMC2    C3 1353   4.586   4.008   1.519 -0.1987  0.5030 -0.0694
   87TMC2    C4 1354   4.475   3.978   1.261 -0.1036 -1.0748  0.2012
   87TMC2    C5 1355   4.422   4.055   1.355  0.0485  1.1355 -0.6539
   87TMC2    C6 1356   4.472   4.079   1.480  0.6176 -0.0567  0.4905
   87TMC2     C 1357   4.659   3.851   1.196  0.2541 -0.5312 -0.2425
   87TMC2     O 1358   4.590   3.790   1.115 -0.1346  0.8552  0.1033
   87TMC2     H 1359   4.739   3.869   1.462  0.2594  0.2259 -1.9463
   87TMC2    H1 1360   4.443   3.980   1.158 -0.2074  2.2861  0.3064
   87TMC2    H2 1361   4.432   4.146   1.555 -0.4490 -1.3298  1.0592
   87TMC2    C7 1362   4.315   4.144   1.324  1.2247 -0.2182 -0.4585
   87TMC2    C8 1363   4.655   4.048   1.646 -0.6981 -0.2522  0.0982
   87TMC2    O1 1364   4.311   4.249   1.393 -0.3837 -0.1597  0.3824
   87TMC2    O2 1365   0.022   3.988   1.675 -0.1446  0.5833  0.1306
   87TMC2    O5 1366   4.572   4.096   1.740  0.1737  0.0622 -0.1105
   87TMC2    H5 1367   4.481   4.120   1.712  0.6432 -0.1727 -1.8366
   88MPD2     C 1368   4.034   4.053   1.103 -0.3803  0.2854  0.3197
   88MPD2    C1 1369   4.113   4.137   1.175 -0.3230  0.4888 -0.1732
   88MPD2    C2 1370   4.077   4.270   1.199 -0.0885 -0.2495 -0.0773
   88MPD2    C3 1371   3.957   4.320   1.143  0.0958 -0.5059  0.6796
   88MPD2    C4 1372   3.878   4.230   1.072 -0.5532 -0.4300 -0.1018
   88MPD2    C5 1373   3.928   4.105   1.037 -0.0340 -0.1956  0.5409
   88MPD2     H 1374   4.145   4.328   1.261 -0.5769  0.3826 -0.1381
   88MPD2    H1 1375   3.785   4.257   1.022 -1.9467 -2.4016  1.4326
   88MPD2    H2 1376   4.064   3.949   1.102 -0.5383  0.2311  0.9474
   88MPD2    H3 1377   3.861   4.042   0.979  0.8523 -0.4427 -0.2272
   88MPD2     N 1378   3.915   4.456   1.158  0.2305 -0.4485  0.1710
   88MPD2    H5 1379   3.831   4.493   1.115  1.4649  1.6292 -0.4762
   88MPD2    N1 1380   4.229   4.082   1.239 -0.0370  0.2586 -0.0193
   88MPD2    H7 1381   4.255   3.986   1.218 -0.9462 -0.5869  2.7236
   89TMC2    C1 1382   0.639   1.233   2.028  0.5551 -0.2864  0.1857
   89TMC2    C2 1383   0.571   1.228   2.143  0.5923 -0.2478 -0.2159
   89TMC2    C3 1384   0.640   1.207   2.254  0.3977  0.1880  0.4515
   89TMC2    C4 1385   0.772   1.222   2.029  0.8818 -0.3027 -0.0977
   89TMC2    C5 1386   0.836   1.212   2.150 -0.0514  0.1222 -0.1742
   89TMC2    C6 1387   0.775   1.191   2.270 -0.7767 -0.5705  0.3043
   89TMC2     C 1388   0.572   1.218   1.902  0.5036 -0.2256 -0.7725
   89TMC2     O 1389   0.642   1.157   1.822  0.3533 -0.6511  0.2731
   89TMC2     H 1390   0.463   1.235   2.145  0.6677  1.2365 -2.2079
   89TMC2    H1 1391   0.821   1.192   1.937  3.1193 -0.4562  1.1540
   89TMC2    H2 1392   0.825   1.169   2.364  0.6868 -0.2244 -0.3953
   89TMC2    C7 1393   0.980   1.207   2.133  0.4494 -0.1398 -0.3197
   89TMC2    C8 1394   0.561   1.239   2.369  0.3389 -0.3420  0.8048
   89TMC2    O1 1395   1.042   1.119   2.196 -0.6436  0.2008 -0.3809
   89TMC2    O2 1396   0.436   1.247   2.357  0.8501  0.4222  0.0040
   89TMC2    O5 1397   0.634   1.330   2.439  0.4081 -0.0916  0.5762
   89TMC2    H5 1398   0.724   1.297   2.461  0.1118  0.1707  2.1677
   90MPD2     C 1399   0.250   1.365   1.521  0.3729  0.3556  0.1903
   90MPD2    C1 1400   0.194   1.402   1.646 -0.1733 -0.1416 -0.1072
   90MPD2    C2 1401   0.263   1.383   1.761  0.5158 -0.0257 -0.2479
   90MPD2    C3 1402   0.386   1.317   1.761 -0.4657 -0.2567  0.0810
   90MPD2    C4 1403   0.435   1.277   1.641  0.3170  0.3431 -0.2972
   90MPD2    C5 1404   0.368   1.298   1.524  0.5516 -0.1181 -0.4404
   90MPD2     H 1405   0.236   1.429   1.855  0.4437  0.0833 -0.3212
   90MPD2    H1 1406   0.526   1.220   1.631 -0.6274 -0.7823 -2.4120
   90MPD2    H2 1407   0.200   1.374   1.426 -0.0194 -0.4920  0.3167
   90MPD2    H3 1408   0.406   1.270   1.427 -0.6086  2.0348 -1.5135
   90MPD2     N 1409   0.456   1.299   1.883  0.0894 -0.7290 -0.0493
   90MPD2    H5 1410   0.434   1.372   1.951 -2.9263  0.5002 -2.3549
   90MPD2    N1 1411   0.075   1.469   1.672 -0.0049 -0.2595  0.0001
   90MPD2    H7 1412   0.053   1.508   1.763 -0.6352 -3.7030  1.3085
   91TMC2    C1 1413   1.103   1.989  16.506  0.1046  0.7071  0.5835
   91TMC2    C2 1414   1.127   2.033  16.641 -0.2827  0.3981 -0.1304
   91TMC2    C3 1415   1.025   2.016  16.730 -0.0285 -0.3381 -0.5599
   91TMC2    C4 1416   0.982   1.936  16.463  0.3208 -0.0699 -0.2794
   91TMC2    C5 1417   0.888   1.925  16.562  0.2067  0.2610  0.0148
   91TMC2    C6 1418   0.909   1.963  16.695 -0.3108 -0.7409 -0.5419
   91TMC2     C 1419   1.200   2.023  16.403  0.1494 -0.4359 -0.1035
   91TMC2     O 1420   1.165   2.017  16.285  0.5354 -0.0954 -0.0185
   91TMC2     H 1421   1.220   2.073  16.681  1.1344 -2.4343 -0.6494
   91TMC2    H1 1422   0.971   1.917  16.357  0.0710  0.6477 -0.3805
   91TMC2    H2 1423   0.841   1.929  16.773  1.1073  0.9525  1.4540
   91TMC2    C7 1424   0.764   1.842  16.537  0.8335  0.3507  0.4879
   91TMC2    C8 1425   1.057   2.036  16.871 -0.8590 -0.0091 -0.1064
   91TMC2    O1 1426   0.687   1.830  16.629 -0.1771 -0.7512 -0.0590
   91TMC2    O2 1427   1.155   1.997  16.929 -0.0617  0.2105 -0.0427
   91TMC2    O5 1428   0.966   2.121  16.928 -0.2043 -0.1301  0.1993
   91TMC2    H5 1429   0.906   2.157  16.858  0.8815  0.9466 -0.1694
   92MPD2     C 1430   1.426   2.119  16.246 -0.7439 -0.2774  0.1722
   92MPD2    C1 1431   1.437   2.088  16.380 -0.5642 -0.4900 -0.5074
   92MPD2    C2 1432   1.569   2.078  16.433  0.0268 -0.2076 -0.2884
   92MPD2    C3 1433   1.681   2.101  16.365 -0.0686 -0.5823 -0.1660
   92MPD2    C4 1434   1.669   2.157  16.241  0.0828  0.4855 -0.5542
   92MPD2    C5 1435   1.539   2.162  16.182  0.0542 -0.1421  1.0443
   92MPD2     H 1436   1.575   2.037  16.533  0.8602 -0.4812 -0.4553
   92MPD2    H1 1437   1.752   2.191  16.180  0.5153  2.0769  0.9233
   92MPD2    H2 1438   1.332   2.123  16.193 -0.3595  0.7271 -0.4257
   92MPD2    H3 1439   1.532   2.198  16.080 -0.5768 -1.8436  0.4895
   92MPD2     N 1440   1.812   2.083  16.428 -0.1181  0.6630  0.4358
   92MPD2    H5 1441   1.808   2.065  16.528  2.0627 -0.8651  0.2387
   92MPD2    N1 1442   1.326   2.045  16.457  0.5034  0.1241 -0.0522
   92MPD2    H7 1443   1.340   2.027  16.556  0.6539 -4.5135 -0.9405
   93TMC2    C1 1444   3.710   1.558  14.067 -0.7668  0.1703 -0.4146
   93TMC2    C2 1445   3.650   1.673  14.017  0.4115 -0.0458  0.2105
   93TMC2    C3 1446   3.726   1.750  13.930 -0.4837  0.2337 -0.1583
   93TMC2    C4 1447   3.826   1.517  14.014 -0.3774 -0.6458 -0.3321
   93TMC2    C5 1448   3.896   1.598  13.929 -0.1302 -0.0744 -0.1354
   93TMC2    C6 1449   3.849   1.723  13.889 -0.8878 -0.1152  0.2567
   93TMC2     C 1450   3.600   1.462  14.094  0.2485 -0.0738  0.3920
   93TMC2     O 1451   3.486   1.502  14.096 -0.3051  0.3318  0.4504
   93TMC2     H 1452   3.552   1.709  14.046  0.5433 -0.5573  1.2608
   93TMC2    H1 1453   3.865   1.418  14.038 -0.4752 -1.0167 -1.7149
   93TMC2    H2 1454   3.903   1.783  13.817 -1.8990 -0.8627 -1.1105
   93TMC2    C7 1455   4.030   1.554  13.887  0.2602 -0.0610  0.1386
   93TMC2    C8 1456   3.672   1.884  13.902 -0.2235 -0.5599  0.4122
   93TMC2    O1 1457   4.056   1.435  13.905  0.8179 -0.2794  0.5602
   93TMC2    O2 1458   3.545   1.893  13.913  0.6083 -0.4452  0.6713
   93TMC2    O5 1459   3.770   1.979  13.914  0.1570  0.7324  0.1439
   93TMC2    H5 1460   3.861   1.942  13.916 -1.9842 -4.7294 -3.3004
   94MPD2     C 1461   3.609   1.162  14.308  0.1949  0.7531 -0.3120
   94MPD2    C1 1462   3.568   1.246  14.202 -0.5770  0.2401 -0.0432
   94MPD2    C2 1463   3.451   1.227  14.131  0.1612  0.4525 -0.4999
   94MPD2    C3 1464   3.348   1.146  14.175 -0.3445 -0.1364  0.4127
   94MPD2    C4 1465   3.383   1.057  14.276 -0.4385 -0.0121  0.0050
   94MPD2    C5 1466   3.507   1.072  14.336  0.0134  0.5575 -0.1608
   94MPD2     H 1467   3.439   1.279  14.037 -1.0801 -0.6750 -0.9670
   94MPD2    H1 1468   3.315   0.978  14.306 -0.6646 -0.5561 -1.9959
   94MPD2    H2 1469   3.704   1.176  14.358  0.1921 -1.3626  0.2936
   94MPD2    H3 1470   3.537   0.998  14.409  1.1850  0.8947 -0.3070
   94MPD2     N 1471   3.231   1.151  14.097  0.6240  0.7589  0.3058
   94MPD2    H5 1472   3.231   1.213  14.016  1.4026  1.2020  0.6476
   94MPD2    N1 1473   3.648   1.359  14.163 -0.5891 -0.8827  0.1830
   94MPD2    H7 1474   3.740   1.373  14.204  0.1706 -1.9908 -1.1539
   95TMC2    C1 1475   3.216   3.936  16.345  0.3294  0.2499  0.5885
   95TMC2    C2 1476   3.231   3.854  16.457 -0.0105  0.4759  0.4218
   95TMC2    C3 1477   3.276   3.915  16.576 -0.2687 -0.3010 -0.5031
   95TMC2    C4 1478   3.235   4.071  16.363  0.0770 -0.2113  0.4650
   95TMC2    C5 1479   3.282   4.123  16.482  0.1287  0.1273  0.0109
   95TMC2    C6 1480   3.312   4.046  16.590  0.5035 -0.1215 -0.2704
   95TMC2     C 1481   3.221   3.891  16.204  0.0929 -0.7596  0.4794
   95TMC2     O 1482   3.241   3.979  16.121  0.1887 -0.2856  0.3094
   95TMC2     H 1483   3.205   3.750  16.468  0.8001  0.2666  0.3292
   95TMC2    H1 1484   3.210   4.139  16.281 -1.0339  0.2542  1.1888
   95TMC2    H2 1485   3.331   4.101  16.681 -2.1935  1.0123 -0.3818
   95TMC2    C7 1486   3.328   4.260  16.481 -0.6557  0.9884  0.2501
   95TMC2    C8 1487   3.277   3.841  16.703 -0.1868 -0.5823 -0.1998
   95TMC2    O1 1488   3.268   4.337  16.406  0.2013  0.2895  0.0824
   95TMC2    O2 1489   3.216   3.734  16.716  0.2120  0.1239 -0.4546
   95TMC2    O5 1490   3.395   3.863  16.757 -0.0665  0.1895 -0.6203
   95TMC2    H5 1491   3.448   3.937  16.721  0.1397  0.9014  1.1543
   96MPD2     C 1492   3.287   3.560  15.821 -0.3409 -0.0291  0.3820
   96MPD2    C1 1493   3.323   3.690  15.838  0.1070  0.5246 -0.3560
   96MPD2    C2 1494   3.306   3.747  15.960 -0.3951  0.4556 -0.1968
   96MPD2    C3 1495   3.246   3.682  16.073 -0.0154 -0.1926 -0.0272
   96MPD2    C4 1496   3.232   3.545  16.058  0.1365 -0.4922  0.0694
   96MPD2    C5 1497   3.248   3.486  15.934  0.5973  0.3348  0.2595
   96MPD2     H 1498   3.342   3.846  15.986  2.8648 -0.0129 -2.8804
   96MPD2    H1 1499   3.187   3.485  16.136  1.2687  2.0894  2.6925
   96MPD2    H2 1500   3.301   3.510  15.727 -1.7310  1.7723 -0.7872
   96MPD2    H3 1501   3.223   3.381  15.927  1.6359  0.1909 -1.2607
   96MPD2     N 1502   3.208   3.753  16.189  0.3961 -0.0214 -0.0883
   96MPD2    H5 1503   3.183   3.695  16.269 -2.3433 -1.9373 -2.3697
   96MPD2    N1 1504   3.390   3.758  15.736  0.2376  0.0260 -0.0880
   96MPD2    H7 1505   3.423   3.706  15.655  2.3934 -2.0940  2.1771
   97TMC2    C1 1506   1.524   1.493   0.314 -0.2119  0.5450  0.9031
   97TMC2    C2 1507   1.469   1.467   0.195 -0.5083  0.3856  1.0160
   97TMC2    C3 1508   1.374   1.549   0.145  0.7859 -0.4755  0.5767
   97TMC2    C4 1509   1.489   1.609   0.390  0.4907 -0.6700  0.2415
   97TMC2    C5 1510   1.390   1.693   0.336  0.5265 -0.4366 -0.0966
   97TMC2    C6 1511   1.328   1.659   0.216  0.4131 -0.2399 -0.7085
   97TMC2     C 1512   1.597   1.382   0.377  0.6569 -0.3713  0.4780
   97TMC2     O 1513   1.656   1.302   0.306 -0.1834  0.9299  0.1735
   97TMC2     H 1514   1.480   1.376   0.136 -1.0774  1.1435 -0.2684
   97TMC2    H1 1515   1.551   1.639   0.474 -2.6228 -0.0544  2.3421
   97TMC2    H2 1516   1.247   1.715   0.171 -2.2417 -0.9819  3.1355
   97TMC2    C7 1517   1.417   1.841   0.342 -0.2774  0.6174 -0.1248
   97TMC2    C8 1518   1.302   1.522   0.026 -0.1950 -1.2320 -1.1082
   97TMC2    O1 1519   1.507   1.878   0.423 -0.5274  0.2299 -0.3052
   97TMC2    O2 1520   1.183   1.546   0.011  0.0756 -0.1352  0.7852
   97TMC2    O5 1521   1.386   1.459  17.691 -0.2326  0.3103 -0.0445
   97TMC2    H5 1522   1.481   1.476  17.710 -0.8249  0.8854  2.4232
   98MPD2     C 1523   1.691   1.083   0.788  0.4650 -0.4258  0.5184
   98MPD2    C1 1524   1.575   1.154   0.799  0.5101  1.0254 -0.6024
   98MPD2    C2 1525   1.526   1.241   0.704  0.4235  0.0949  0.3186
   98MPD2    C3 1526   1.595   1.256   0.587 -0.0010 -0.3608  0.2938
   98MPD2    C4 1527   1.698   1.165   0.561  1.0658 -0.0464  1.2013
   98MPD2    C5 1528   1.742   1.079   0.661 -0.0325 -0.3313 -0.0941
   98MPD2     H 1529   1.438   1.301   0.722 -0.2380 -0.5419 -0.7363
   98MPD2    H1 1530   1.762   1.161   0.474  1.2608  2.0369  1.2640
   98MPD2    H2 1531   1.722   1.008   0.861 -1.7752 -0.7980  1.0868
   98MPD2    H3 1532   1.823   1.011   0.637  2.1563  2.3081 -0.2219
   98MPD2     N 1533   1.562   1.366   0.509  0.1150  0.3333 -0.2302
   98MPD2    H5 1534   1.494   1.431   0.545 -0.3817 -0.6563  0.6296
   98MPD2    N1 1535   1.513   1.154   0.924  0.0443 -0.6028  0.4630
   98MPD2    H7 1536   1.562   1.101   0.996  0.9492  0.7971  0.8858
   99TMC2    C1 1537   4.416   3.359   1.935  0.3664 -0.5363 -0.3041
   99TMC2    C2 1538   4.430   3.346   2.072  0.4338  0.1318 -0.4535
   99TMC2    C3 1539   4.365   3.442   2.140  0.0490  0.3436 -0.0404
   99TMC2    C4 1540   4.330   3.453   1.884 -0.4966  0.0299 -0.2016
   99TMC2    C5 1541   4.264   3.537   1.961 -0.2257  0.4020 -0.0466
   99TMC2    C6 1542   4.276   3.535   2.096  0.0867 -0.5543 -0.3064
   99TMC2     C 1543   4.538   3.317   1.869 -0.2937  0.4541 -0.1679
   99TMC2     O 1544   4.640   3.282   1.928  0.0968 -0.2501  0.0013
   99TMC2     H 1545   4.506   3.285   2.119 -0.7517  0.9568  2.5459
   99TMC2    H1 1546   4.335   3.465   1.776  0.4799  1.0536 -0.0400
   99TMC2    H2 1547   4.237   3.605   2.169 -2.8347 -1.2006 -1.2293
   99TMC2    C7 1548   4.132   3.584   1.925 -0.0452  0.5366  0.2240
   99TMC2    C8 1549   4.394   3.445   2.281  0.2043  0.3839 -0.3866
   99TMC2    O1 1550   4.079   3.666   1.998 -0.1589  0.1157 -0.3872
   99TMC2    O2 1551   4.506   3.435   2.324  0.1873  0.1614  0.0707
   99TMC2    O5 1552   4.282   3.448   2.350 -0.3045 -0.4771  0.1066
   99TMC2    H5 1553   4.200   3.425   2.301  0.0512 -2.4883  0.4224
  100MPD2     C 1554   4.739   3.221   1.662  0.0060 -0.7197  0.3405
  100MPD2    C1 1555   4.606   3.239   1.639  1.2733  0.2057  0.1349
  100MPD2    C2 1556   4.561   3.229   1.508  0.5568 -0.4444  0.0603
  100MPD2    C3 1557   4.643   3.179   1.414  0.2856  0.4433  0.1215
  100MPD2    C4 1558   0.034   3.154   1.441 -0.4799  0.3090 -0.4671
  100MPD2    C5 1559   0.079   3.191   1.562 -0.1688  0.1273  0.6556
  100MPD2     H 1560   4.466   3.266   1.474  0.0295 -1.5773  0.2926
  100MPD2    H1 1561   0.112   3.130   1.369 -0.7474 -2.5287  0.1874
  100MPD2    H2 1562   0.043   3.237   1.761 -1.1919 -1.1888  0.9412
  100MPD2    H3 1563   0.186   3.177   1.576 -0.2344 -0.7453  0.2567
  100MPD2     N 1564   4.579   3.159   1.291  0.2857 -0.1221  0.1991
  100MPD2    H5 1565   4.492   3.207   1.273  1.6995  1.7141 -1.7496
  100MPD2    N1 1566   4.512   3.289   1.734 -0.0012  0.1050 -0.4250
  100MPD2    H7 1567   4.418   3.322   1.712 -0.8007  0.1282  2.9847
  101TMC2    C1 1568   0.513   3.782  13.569 -0.4262  0.1040 -0.1180
  101TMC2    C2 1569   0.461   3.864  13.661 -0.1943 -0.7156 -0.5543
  101TMC2    C3 1570   0.498   3.990  13.647  0.4423 -0.0037 -0.4895
  101TMC2    C4 1571   0.583   3.820  13.459  0.4121 -0.2604  0.3814
  101TMC2    C5 1572   0.613   3.956  13.445 -0.4233 -0.4468  0.8149
  101TMC2    C6 1573   0.576   4.040  13.547  0.6010 -0.3514 -0.2049
  101TMC2     C 1574   0.475   3.638  13.591  0.0031  0.5521 -0.1194
  101TMC2     O 1575   0.385   3.612  13.663 -0.6295 -0.4061  0.0398
  101TMC2     H 1576   0.412   3.819  13.747 -0.8081  0.3683 -0.3460
  101TMC2    H1 1577   0.616   3.756  13.378  1.3455  1.0180 -0.2499
  101TMC2    H2 1578   0.601   4.145  13.536  0.1303 -0.4127 -1.8371
  101TMC2    C7 1579   0.717   3.998  13.355 -0.0738  0.1784  0.5492
  101TMC2    C8 1580   0.487   4.080  13.763  0.1037 -0.2790 -0.1281
  101TMC2    O1 1581   0.790   3.905  13.319 -0.4786  1.1444 -0.1832
  101TMC2    O2 1582   0.589   4.134  13.803 -0.0427  0.4941 -0.2680
  101TMC2    O5 1583   0.380   4.051  13.834 -0.2453  0.1249  0.4478
  101TMC2    H5 1584   0.302   4.007  13.793  0.8219 -1.2631 -0.0734
  102MPD2     C 1585   0.599   3.352  13.400  0.5707  0.1418 -0.1037
  102MPD2    C1 1586   0.526   3.419  13.496 -0.1548 -0.8821  0.1935
  102MPD2    C2 1587   0.426   3.352  13.558 -0.0466  0.0614 -0.0515
  102MPD2    C3 1588   0.398   3.219  13.540 -0.0483 -0.0545  0.3234
  102MPD2    C4 1589   0.478   3.150  13.452 -0.4801 -0.3624  0.0666
  102MPD2    C5 1590   0.583   3.214  13.382  0.3637  0.0986  0.8844
  102MPD2     H 1591   0.354   3.402  13.623  0.3507 -1.8925  1.9155
  102MPD2    H1 1592   0.463   3.044  13.435  1.5924 -0.4743 -1.0968
  102MPD2    H2 1593   0.682   3.384  13.338  2.2249  0.3239  2.2243
  102MPD2    H3 1594   0.637   3.150  13.314  0.5120 -0.9147  1.9554
  102MPD2     N 1595   0.280   3.157  13.597  0.2096 -0.6711  0.3796
  102MPD2    H5 1596   0.217   3.221  13.645  2.6978  1.3816  0.9285
  102MPD2    N1 1597   0.548   3.556  13.514 -0.6221 -0.1736  0.3372
  102MPD2    H7 1598   0.622   3.596  13.457 -1.4164  0.1314 -0.4644
  103TMC2    C1 1599   3.468   4.081  13.212  0.1742  0.1945  0.4222
  103TMC2    C2 1600   3.491   4.190  13.136  0.6401 -0.4637 -0.2276
  103TMC2    C3 1601   3.452   4.309  13.183  0.4158  0.0161 -0.1488
  103TMC2    C4 1602   3.402   4.088  13.330 -1.0241  0.3189 -0.0080
  103TMC2    C5 1603   3.353   4.210  13.363 -0.1696  0.3053  0.1037
  103TMC2    C6 1604   3.383   4.324  13.299 -1.1819 -0.4298  0.8630
  103TMC2     C 1605   3.467   3.956  13.142  0.0295 -0.5686  0.1343
  103TMC2     O 1606   3.467   3.954  13.017 -0.1491  0.1409 -0.3795
  103TMC2     H 1607   3.546   4.193  13.042  0.4729  1.0329 -0.2769
  103TMC2    H1 1608   3.378   4.001  13.390  0.8458 -0.3152 -0.1829
  103TMC2    H2 1609   3.350   4.415  13.348 -1.6696 -0.5121  0.6869
  103TMC2    C7 1610   3.247   4.212  13.468  0.1948  0.1796 -0.2661
  103TMC2    C8 1611   3.494   4.427  13.114  0.4570 -0.4557 -0.4912
  103TMC2    O1 1612   3.242   4.109  13.536 -0.1794 -0.8030 -0.6015
  103TMC2    O2 1613   3.459   4.435  12.995 -0.2844  0.0381  0.4591
  103TMC2    O5 1614   3.477   4.535  13.177  0.3365 -0.5228 -0.0172
  103TMC2    H5 1615   3.505   4.525  13.271  2.1886  1.1900 -0.3641
  104MPD2     C 1616   3.519   3.621  13.276 -0.0737 -0.1216 -0.0718
  104MPD2    C1 1617   3.465   3.719  13.190 -1.0313 -0.1323 -0.9702
  104MPD2    C2 1618   3.405   3.674  13.074 -0.4300 -0.4673  0.5641
  104MPD2    C3 1619   3.381   3.537  13.049  0.2093 -0.5294  0.1092
  104MPD2    C4 1620   3.456   3.449  13.126  0.4084 -0.4086  0.9529
  104MPD2    C5 1621   3.522   3.494  13.242 -0.1148  0.4778 -0.2809
  104MPD2     H 1622   3.371   3.741  12.996  2.3205  0.5555  0.2766
  104MPD2    H1 1623   3.449   3.341  13.119 -0.9918 -0.1960 -1.0526
  104MPD2    H2 1624   3.578   3.654  13.361 -0.7676 -0.2030  0.4380
  104MPD2    H3 1625   3.569   3.418  13.304 -0.9135 -0.0522 -0.3293
  104MPD2     N 1626   3.306   3.512  12.929  0.6149 -0.0324 -0.7923
  104MPD2    H5 1627   3.259   3.595  12.894 -1.2529 -0.6509  0.2283
  104MPD2    N1 1628   3.482   3.855  13.224 -0.4096 -0.0293 -0.1487
  104MPD2    H7 1629   3.525   3.875  13.313 -1.0179  0.4205  0.0434
  105TMC2    C1 1630   0.209   3.788   0.286 -0.3219  0.0094  0.7300
  105TMC2    C2 1631   0.072   3.786   0.270  0.1362  0.8685 -0.6713
  105TMC2    C3 1632   4.731   3.778   0.383  1.3339 -1.0121  0.3252
  105TMC2    C4 1633   0.261   3.767   0.407 -0.0780  0.5401  0.1639
  105TMC2    C5 1634   0.184   3.760   0.516 -0.4063 -0.2215  0.6493
  105TMC2    C6 1635   0.047   3.756   0.504  0.3936 -0.1456  0.0715
  105TMC2     C 1636   0.290   3.729   0.186  0.1011 -1.3927  0.1447
  105TMC2     O 1637   0.399   3.685   0.214 -0.0263  0.1041 -0.1755
  105TMC2     H 1638   0.032   3.794   0.170  0.7848  0.4789 -0.9568
  105TMC2    H1 1639   0.369   3.765   0.422 -0.1156 -0.4186  0.3138
  105TMC2    H2 1640   4.718   3.754   0.588 -0.7099  0.8735 -0.8046
  105TMC2    C7 1641   0.250   3.727   0.639 -0.2485  1.0862  0.2576
  105TMC2    C8 1642   4.589   3.774   0.380  0.0171 -0.3700  0.5550
  105TMC2    O1 1643   0.351   3.654   0.635  0.4233  0.0707 -0.8569
  105TMC2    O2 1644   4.545   3.668   0.427 -0.1882 -0.4554 -0.6288
  105TMC2    O5 1645   4.554   3.823   0.260 -0.4251 -0.2357  0.0382
  105TMC2    H5 1646   4.595   3.910   0.241 -0.2255 -0.0891  1.1391
  106MPD2     C 1647   0.359   3.582  17.454 -0.9864 -0.9530  0.0414
  106MPD2    C1 1648   0.293   3.703  17.457  0.1033  0.3135 -0.5321
  106MPD2    C2 1649   0.263   3.760  17.578  0.2563  0.3911 -0.1592
  106MPD2    C3 1650   0.301   3.703  17.694  0.4856  0.7016 -0.6158
  106MPD2    C4 1651   0.385   3.594  17.691  0.1299 -0.0779 -0.6443
  106MPD2    C5 1652   0.393   3.524  17.576 -0.2861 -0.7419  0.5973
  106MPD2     H 1653   0.212   3.855  17.584 -2.8683 -1.2901 -0.4006
  106MPD2    H1 1654   0.430   3.554   0.028  1.8592  2.2185 -0.5002
  106MPD2    H2 1655   0.376   3.525  17.363  1.4700 -2.2759  1.3259
  106MPD2    H3 1656   0.457   3.437  17.566  0.4807 -0.2619  1.2627
  106MPD2     N 1657   0.252   3.765   0.058  0.0894  0.4754  0.1480
  106MPD2    H5 1658   0.191   3.843   0.034  0.9104  1.1769  0.3098
  106MPD2    N1 1659   0.245   3.763  17.336 -0.2704 -0.0317  0.7261
  106MPD2    H7 1660   0.201   3.852  17.356 -0.6520  0.0779 -0.5729
  107TMC2    C1 1661   0.371   2.821  11.909  0.5906 -0.3135 -0.4341
  107TMC2    C2 1662   0.294   2.713  11.899 -0.6353  0.3661  0.3212
  107TMC2    C3 1663   0.317   2.635  11.787  0.4494 -0.1297 -0.5509
  107TMC2    C4 1664   0.469   2.848  11.814  0.1454  0.3799 -0.1593
  107TMC2    C5 1665   0.492   2.765  11.711  0.1418  0.2866  0.4830
  107TMC2    C6 1666   0.409   2.652  11.692  0.9798  0.0255 -1.3861
  107TMC2     C 1667   0.369   2.907  12.028 -0.3368  0.1433  0.2691
  107TMC2     O 1668   0.474   2.945  12.078 -0.3448  0.4402 -0.0359
  107TMC2     H 1669   0.239   2.678  11.986  0.4545 -0.1264  0.8155
  107TMC2    H1 1670   0.534   2.934  11.825  0.2311  0.4441 -1.1953
  107TMC2    H2 1671   0.423   2.590  11.604  2.2717  0.4885 -1.5166
  107TMC2    C7 1672   0.573   2.806  11.599 -0.8111 -0.4810 -0.1949
  107TMC2    C8 1673   0.241   2.521  11.767 -0.7600 -0.1982  0.3055
  107TMC2    O1 1674   0.571   2.928  11.588 -0.0357 -0.6212  0.0937
  107TMC2    O2 1675   0.275   2.426  11.694  0.0732 -0.7296 -0.7741
  107TMC2    O5 1676   0.115   2.531  11.815 -0.0496 -0.5714  0.2474
  107TMC2    H5 1677   0.088   2.617  11.854  0.7766  0.1119 -0.6838
  108MPD2     C 1678   0.289   3.034  12.299  0.0273 -0.0679  0.2061
  108MPD2    C1 1679   0.217   2.935  12.222 -0.1483 -0.4982 -1.0888
  108MPD2    C2 1680   0.102   2.878  12.273 -0.1959 -0.5276 -0.1873
  108MPD2    C3 1681   0.074   2.906  12.407 -0.7510  0.0566  0.7927
  108MPD2    C4 1682   0.156   2.994  12.480  0.2980 -0.0709  0.0126
  108MPD2    C5 1683   0.260   3.059  12.426 -0.2270  0.5912 -0.3853
  108MPD2     H 1684   0.039   2.806  12.222 -1.6454  0.8710 -0.3849
  108MPD2    H1 1685   0.131   3.014  12.583  1.7339 -0.2630  0.3973
  108MPD2    H2 1686   0.371   3.085  12.249 -0.6316  0.2190 -0.5808
  108MPD2    H3 1687   0.326   3.128  12.477 -0.1833 -0.6458  1.2734
  108MPD2     N 1688   4.702   2.862  12.476 -0.2960  0.0102  0.1698
  108MPD2    H5 1689   4.690   2.893  12.572 -0.7213 -2.2413  0.8610
  108MPD2    N1 1690   0.249   2.899  12.087  0.1486 -0.7795 -0.1449
  108MPD2    H7 1691   0.170   2.860  12.036  0.1595 -0.3787 -0.4700
  109TMC2    C1 1692   1.029   0.707   2.246  0.1370  0.2364 -0.6375
  109TMC2    C2 1693   1.097   0.604   2.308 -0.2833 -0.4253 -0.2022
  109TMC2    C3 1694   1.219   0.575   2.253  0.0022 -0.3937 -0.1448
  109TMC2    C4 1695   1.090   0.776   2.139 -0.4595 -0.3266  0.5190
  109TMC2    C5 1696   1.214   0.751   2.097 -0.1887  0.2682 -0.2450
  109TMC2    C6 1697   1.286   0.643   2.155 -0.2938  1.1378 -0.1751
  109TMC2     C 1698   0.893   0.734   2.293 -0.2827 -0.1101 -0.6046
  109TMC2     O 1699   0.868   0.717   2.409 -0.1530 -0.4542  0.2565
  109TMC2     H 1700   1.049   0.538   2.379 -1.5116  1.7667  1.0023
  109TMC2    H1 1701   1.047   0.866   2.096 -1.8632 -1.7487 -1.0592
  109TMC2    H2 1702   1.377   0.604   2.112 -0.9200  0.0510 -0.5072
  109TMC2    C7 1703   1.252   0.809   1.969 -0.3354  0.3097 -0.0182
  109TMC2    C8 1704   1.260   0.439   2.279  0.5814  0.7002  0.2910
  109TMC2    O1 1705   1.165   0.854   1.897 -0.5251 -0.6638 -0.0773
  109TMC2    O2 1706   1.326   0.371   2.200  0.2474 -0.0936 -0.7221
  109TMC2    O5 1707   1.250   0.412   2.411 -0.4350 -0.0779 -0.4064
  109TMC2    H5 1708   1.240   0.493   2.465  0.2632 -0.8323  0.8463
  110MPD2     C 1709   0.425   0.907   2.207  0.0414 -0.8610 -0.2220
  110MPD2    C1 1710   0.484   0.879   2.086 -0.2424 -0.1769  0.3401
  110MPD2    C2 1711   0.609   0.825   2.083  0.1052 -0.5681  0.0952
  110MPD2    C3 1712   0.680   0.820   2.203 -0.2886  0.0958 -0.2947
  110MPD2    C4 1713   0.620   0.850   2.326  0.4165 -0.2143  0.1122
  110MPD2    C5 1714   0.493   0.884   2.333  0.5040 -0.7026 -0.2750
  110MPD2     H 1715   0.661   0.824   1.988  2.8137 -2.1540  1.5756
  110MPD2    H1 1716   0.673   0.856   2.421  1.4671 -3.2458 -0.2852
  110MPD2    H2 1717   0.323   0.943   2.213  0.2326 -0.3820  0.1330
  110MPD2    H3 1718   0.438   0.883   2.427  0.8979 -0.3384 -0.0411
  110MPD2     N 1719   0.815   0.793   2.190 -0.4671  0.6237  0.1296
  110MPD2    H5 1720   0.853   0.801   2.097 -1.6530  3.7726 -0.0547
  110MPD2    N1 1721   0.405   0.904   1.969  0.4593  0.3313 -0.2751
  110MPD2    H7 1722   0.311   0.938   1.985  1.0618  1.5293  0.6817
  111TMC2    C1 1723   0.941   4.666  12.123 -0.6469  1.0417 -1.1383
  111TMC2    C2 1724   0.981   0.048  12.154  0.3383  0.1063 -0.3924
  111TMC2    C3 1725   1.068   0.068  12.254  0.0140 -1.1223 -0.0928
  111TMC2    C4 1726   1.011   4.550  12.168 -0.4611 -0.6154 -0.1541
  111TMC2    C5 1727   1.113   4.581  12.256 -0.4759  0.2446  0.1925
  111TMC2    C6 1728   1.141   4.707  12.305  0.8523 -0.1289  0.0766
  111TMC2     C 1729   0.834   4.651  12.020 -0.4082 -0.5818 -1.0173
  111TMC2     O 1730   0.825   0.002  11.940  0.1255  0.2303  0.9325
  111TMC2     H 1731   0.926   0.137  12.123 -1.0262 -0.4614  0.4395
  111TMC2    H1 1732   0.969   4.451  12.159 -1.5754 -0.2296  0.8049
  111TMC2    H2 1733   1.203   4.716  12.393 -0.9129 -0.5500  1.3381
  111TMC2    C7 1734   1.189   4.475  12.315 -0.3663 -0.1543 -0.4499
  111TMC2    C8 1735   1.072   0.203  12.312 -0.4043  0.7281 -0.5315
  111TMC2    O1 1736   1.229   4.502  12.425  0.6300 -0.0388 -0.2357
  111TMC2    O2 1737   0.988   0.288  12.290 -0.2094 -0.3639  0.3722
  111TMC2    O5 1738   1.136   0.193  12.433  0.5032  0.2364 -0.1193
  111TMC2    H5 1739   1.216   0.137  12.431  0.9487  0.8807 -0.2707
  112MPD2     C 1740   0.389   4.460  11.852 -0.0640 -1.3666  0.0999
  112MPD2    C1 1741   0.471   4.555  11.799  0.8874 -0.7432 -0.7718
  112MPD2    C2 1742   0.595   4.586  11.861  0.0316 -0.7168 -0.2118
  112MPD2    C3 1743   0.629   4.513  11.972 -0.6689  0.4843  0.2768
  112MPD2    C4 1744   0.551   4.415  12.019  0.1348  0.2790 -0.3114
  112MPD2    C5 1745   0.431   4.390  11.959  0.6979  0.9779 -0.4445
  112MPD2     H 1746   0.657   4.658  11.810 -1.2603  1.0954  0.8006
  112MPD2    H1 1747   0.575   4.352  12.103 -2.1766  1.8036  1.4786
  112MPD2    H2 1748   0.299   4.429  11.800  0.6705 -0.3939 -1.7694
  112MPD2    H3 1749   0.368   4.315  12.006  1.4709  0.1688 -0.6933
  112MPD2     N 1750   0.747   4.548  12.047 -0.3804 -0.1182  0.1022
  112MPD2    H5 1751   0.770   4.483  12.122 -0.8486 -0.7969 -0.3377
  112MPD2    N1 1752   0.456   4.629  11.678 -0.2503 -0.5200 -0.5278
  112MPD2    H7 1753   0.537   4.684  11.650  0.4997 -1.2966  0.1428
  113TMC2    C1 1754   3.321   3.453   0.534  0.3308  0.1457 -0.9117
  113TMC2    C2 1755   3.256   3.560   0.483 -0.6455 -0.4556 -0.1131
  113TMC2    C3 1756   3.172   3.537   0.375 -0.1366 -0.7989 -0.1656
  113TMC2    C4 1757   3.280   3.326   0.514 -0.7270 -0.5289  0.4261
  113TMC2    C5 1758   3.177   3.307   0.418  0.0046  0.9763 -0.1935
  113TMC2    C6 1759   3.127   3.409   0.338 -0.0005  1.3094 -0.3561
  113TMC2     C 1760   3.421   3.484   0.631  0.2130  0.1915  0.0782
  113TMC2     O 1761   3.446   3.598   0.663 -0.6191 -0.2337  0.7320
  113TMC2     H 1762   3.290   3.659   0.511 -0.3697 -0.2461 -1.1880
  113TMC2    H1 1763   3.325   3.238   0.557 -1.2273 -1.6407 -1.2923
  113TMC2    H2 1764   3.039   3.389   0.278 -0.1633  2.5791 -0.5372
  113TMC2    C7 1765   3.116   3.173   0.409  1.1566 -0.3876 -0.4199
  113TMC2    C8 1766   3.101   3.658   0.332  0.4683  0.5316  0.6556
  113TMC2    O1 1767   3.036   3.154   0.319 -0.3909  0.2207  0.0800
  113TMC2    O2 1768   3.075   3.742   0.414 -0.0744 -0.3782 -0.0371
  113TMC2    O5 1769   3.019   3.612   0.234  0.6348 -0.4405  0.1122
  113TMC2    H5 1770   3.069   3.556   0.171 -0.4830  0.0397 -1.2073
  114MPD2     C 1771   3.801   3.368   0.960  0.2354 -0.9534 -0.0031
  114MPD2    C1 1772   3.732   3.486   0.946 -0.1381 -0.7245 -0.6725
  114MPD2    C2 1773   3.648   3.494   0.842 -0.7634  0.0757  0.6544
  114MPD2    C3 1774   3.611   3.388   0.760 -0.1123 -0.0926  0.0597
  114MPD2    C4 1775   3.680   3.268   0.785 -0.4234 -0.5625  0.3165
  114MPD2    C5 1776   3.772   3.262   0.883  0.5119  0.0295 -0.4418
  114MPD2     H 1777   3.592   3.587   0.836 -0.7292 -0.0244 -1.2879
  114MPD2    H1 1778   3.659   3.175   0.734 -1.3516 -0.4890  0.5608
  114MPD2    H2 1779   3.872   3.355   1.041 -0.4287  1.8315  1.0236
  114MPD2    H3 1780   3.823   3.168   0.901 -2.0366 -0.7672  2.6080
  114MPD2     N 1781   3.517   3.384   0.660  0.0374 -0.7655 -0.8800
  114MPD2    H5 1782   3.511   3.299   0.605 -0.7731 -1.4702  0.3192
  114MPD2    N1 1783   3.757   3.599   1.032  0.4913 -0.1055 -1.5278
  114MPD2    H7 1784   3.709   3.685   1.011 -0.0099 -0.5428 -2.2043
  115TMC2    C1 1785   4.384   1.087   0.203 -0.2882  0.4449  0.3364
  115TMC2    C2 1786   4.503   1.054   0.256 -0.5065  0.6934  0.2656
  115TMC2    C3 1787   4.594   1.151   0.273  0.5772 -0.0637 -0.0586
  115TMC2    C4 1788   4.353   1.215   0.157 -0.6379  0.7555  0.0586
  115TMC2    C5 1789   4.447   1.311   0.181 -0.6186 -0.0619  0.4031
  115TMC2    C6 1790   4.571   1.280   0.237  0.3774 -0.1234 -0.1808
  115TMC2     C 1791   4.290   0.979   0.179  0.2058 -0.0790  0.1637
  115TMC2     O 1792   4.335   0.867   0.170 -0.6410  0.8280 -0.1732
  115TMC2     H 1793   4.521   0.950   0.283  1.9317  1.2451  0.7477
  115TMC2    H1 1794   4.256   1.241   0.114 -2.0232 -0.0218  2.6990
  115TMC2    H2 1795   4.643   1.360   0.250 -0.1800  0.0377  1.7998
  115TMC2    C7 1796   4.417   1.453   0.168 -0.8125  0.1693  0.1424
  115TMC2    C8 1797   4.731   1.121   0.314  0.4352  0.3341 -0.9180
  115TMC2    O1 1798   4.506   1.536   0.173 -0.4330  0.8718 -0.1127
  115TMC2    O2 1799   0.044   1.184   0.406 -0.1427  0.1622  0.6909
  115TMC2    O5 1800   0.041   1.030   0.234  0.0568  0.2795  0.0818
  115TMC2    H5 1801   4.716   0.992   0.171  1.9932 -2.3771 -0.2756
  116MPD2     C 1802   3.826   0.806   0.072 -0.5271  0.8626  0.2712
  116MPD2    C1 1803   3.950   0.770   0.036  0.0560 -0.3608 -0.4063
  116MPD2    C2 1804   4.062   0.837   0.069 -0.0587  0.4231 -0.0964
  116MPD2    C3 1805   4.050   0.951   0.153 -0.6345 -0.2121 -0.4147
  116MPD2    C4 1806   3.926   0.987   0.203 -0.1847 -0.1546  0.5674
  116MPD2    C5 1807   3.815   0.909   0.163 -0.3569  0.4043  0.1859
  116MPD2     H 1808   4.158   0.802   0.035 -0.2058 -1.6581  1.6685
  116MPD2    H1 1809   3.898   1.069   0.268  3.4936 -1.0965  3.3693
  116MPD2    H2 1810   3.738   0.751   0.044 -0.1625 -0.0464  0.9250
  116MPD2    H3 1811   3.722   0.934   0.213 -0.3262 -2.5563  1.7451
  116MPD2     N 1812   4.162   1.025   0.191  0.0393  0.1015 -0.7943
  116MPD2    H5 1813   4.141   1.120   0.222 -2.3522 -0.4453 -0.7328
  116MPD2    N1 1814   3.957   0.660  17.704 -0.3760  0.4456 -0.0769
  116MPD2    H7 1815   3.866   0.627  17.675  0.7198 -0.8613 -2.0652
  117TMC2    C1 1816   2.455   2.190  13.886 -0.4397  0.4146  0.3834
  117TMC2    C2 1817   2.517   2.120  13.989  0.6109 -0.5146  0.5363
  117TMC2    C3 1818   2.608   2.193  14.055  0.2455  0.3506 -0.1485
  117TMC2    C4 1819   2.479   2.316  13.842  0.6873 -0.1574 -0.4897
  117TMC2    C5 1820   2.588   2.375  13.908  1.3232  0.0133  0.0755
  117TMC2    C6 1821   2.644   2.322  14.016 -0.3029 -0.3208  0.5774
  117TMC2     C 1822   2.338   2.120  13.828  0.4727 -0.2578 -0.5132
  117TMC2     O 1823   2.344   1.996  13.825 -0.0676 -0.0565  0.6712
  117TMC2     H 1824   2.478   2.031  14.036  1.8296 -0.6140  1.3654
  117TMC2    H1 1825   2.456   2.336  13.738  0.1684  0.1120 -0.3214
  117TMC2    H2 1826   2.725   2.379  14.059 -1.0876  1.3151 -0.1463
  117TMC2    C7 1827   2.624   2.516  13.879  0.2139 -0.1193  0.0822
  117TMC2    C8 1828   2.671   2.145  14.174 -0.2997 -0.1984 -0.2668
  117TMC2    O1 1829   2.740   2.547  13.902  0.1304  0.2660 -0.4826
  117TMC2    O2 1830   2.674   2.025  14.197  0.2445 -0.3759  0.3315
  117TMC2    O5 1831   2.625   2.228  14.265  0.2997  0.6571 -0.1736
  117TMC2    H5 1832   2.616   2.318  14.229 -0.6015  0.2026 -1.0767
  118MPD2     C 1833   2.415   2.805  13.808 -0.0623 -0.0170 -0.1094
  118MPD2    C1 1834   2.529   2.738  13.836 -0.4643 -0.9361 -0.1209
  118MPD2    C2 1835   2.650   2.810  13.844  0.2261 -0.2645 -0.1585
  118MPD2    C3 1836   2.653   2.942  13.820  0.7547  0.2012  0.2656
  118MPD2    C4 1837   2.542   3.010  13.786 -0.1909  0.3566  0.3895
  118MPD2    C5 1838   2.428   2.942  13.782 -0.0798 -0.0429 -0.7664
  118MPD2     H 1839   2.751   2.772  13.852 -0.9088 -2.0862  4.9657
  118MPD2    H1 1840   2.540   3.115  13.761 -0.3975 -0.1277 -1.6487
  118MPD2    H2 1841   2.320   2.755  13.795 -0.2547  0.3664 -0.1726
  118MPD2    H3 1842   2.336   2.988  13.748  0.6934  1.4183 -0.8780
  118MPD2     N 1843   2.767   3.029  13.821  0.4652 -0.9175  0.0964
  118MPD2    H5 1844   2.758   3.127  13.797  0.7692 -0.7212  0.7619
  118MPD2    N1 1845   2.519   2.597  13.854 -0.7126  0.4716  0.1830
  118MPD2    H7 1846   2.427   2.555  13.842 -0.2599 -0.6663  0.7115
  119TMC2    C1 1847   0.762   2.649  13.327  0.4626 -0.0045  0.9366
  119TMC2    C2 1848   0.859   2.591  13.256 -0.4276 -0.3273  0.0208
  119TMC2    C3 1849   0.896   2.459  13.285 -0.0362  0.1348 -0.5295
  119TMC2    C4 1850   0.731   2.597  13.452 -0.0926  0.6626 -0.5502
  119TMC2    C5 1851   0.788   2.474  13.487  0.3402 -0.1815  0.1281
  119TMC2    C6 1852   0.866   2.400  13.405  0.4429 -0.5229 -0.0717
  119TMC2     C 1853   0.750   2.796  13.327  0.3165 -0.0604  0.4259
  119TMC2     O 1854   0.670   2.850  13.399 -0.9407  0.4303  0.3386
  119TMC2     H 1855   0.879   2.624  13.155  1.2809 -0.7125  0.2323
  119TMC2    H1 1856   0.654   2.645  13.511 -0.9732 -3.6057  1.7630
  119TMC2    H2 1857   0.929   2.327  13.454  0.6367 -0.1605  0.2140
  119TMC2    C7 1858   0.701   2.400  13.583  0.1000  0.1820  0.9393
  119TMC2    C8 1859   1.005   2.403  13.211 -0.0315  0.1209 -0.4530
  119TMC2    O1 1860   0.684   2.282  13.559 -0.2281  0.1611 -0.0097
  119TMC2    O2 1861   1.088   2.471  13.151 -0.2393 -0.0535  0.0220
  119TMC2    O5 1862   0.991   2.268  13.221 -0.2490 -0.1531  0.4044
  119TMC2    H5 1863   0.904   2.240  13.255 -0.6447  1.3083  0.5791
  120MPD2     C 1864   1.037   3.219  13.328 -0.3354  0.0953 -0.6360
  120MPD2    C1 1865   0.950   3.182  13.427  0.2979  0.3986 -0.7402
  120MPD2    C2 1866   0.876   3.066  13.400 -0.2061  0.0409 -0.4362
  120MPD2    C3 1867   0.905   2.982  13.293 -0.2921  0.0486 -0.0757
  120MPD2    C4 1868   1.006   3.016  13.206  0.2943  0.4935  0.2517
  120MPD2    C5 1869   1.068   3.135  13.226  0.1393  0.1912  0.2394
  120MPD2     H 1870   0.802   3.035  13.472  0.3451  2.8991  1.3630
  120MPD2    H1 1871   1.037   2.960  13.118  0.0990  2.8597 -1.3267
  120MPD2    H2 1872   1.091   3.313  13.340 -0.8330  0.5396 -1.9302
  120MPD2    H3 1873   1.140   3.162  13.150 -0.3940 -0.8208 -0.6313
  120MPD2     N 1874   0.853   2.853  13.269 -0.5004  0.3346 -0.7800
  120MPD2    H5 1875   0.916   2.796  13.212  0.3888  1.1862 -0.6429
  120MPD2    N1 1876   0.929   3.274  13.536 -0.1829  0.0688  0.1465
  120MPD2    H7 1877   0.984   3.358  13.535  0.9236 -0.6702 -0.5618
  121TMC2    C1 1878   2.845   0.280  14.618 -0.2789 -0.7793 -0.1908
  121TMC2    C2 1879   2.958   0.219  14.669  0.0994 -0.1374 -0.3441
  121TMC2    C3 1880   2.945   0.086  14.703  1.0036  0.1814 -0.8286
  121TMC2    C4 1881   2.730   0.218  14.597  0.1276 -0.3185  0.0804
  121TMC2    C5 1882   2.727   0.082  14.621  0.1209  0.5563 -0.3392
  121TMC2    C6 1883   2.833   0.016  14.677 -0.0968 -0.3561 -0.5362
  121TMC2     C 1884   2.871   0.400  14.538  0.2571 -0.0612  0.8144
  121TMC2     O 1885   2.877   0.505  14.602  0.3369 -0.0633 -0.2423
  121TMC2     H 1886   3.050   0.275  14.685 -1.1251  2.2780 -1.6828
  121TMC2    H1 1887   2.642   0.279  14.578 -0.3488 -1.1058 -0.2388
  121TMC2    H2 1888   2.821   4.648  14.690 -1.4215  0.0835  1.8929
  121TMC2    C7 1889   2.606   0.012  14.594  0.4607 -0.5288  0.2435
  121TMC2    C8 1890   3.048   0.016  14.767  0.6802 -0.5360  0.4282
  121TMC2    O1 1891   2.592   4.665  14.680  0.4282  0.0022  0.6252
  121TMC2    O2 1892   3.022   4.645  14.817  0.0774 -0.7003  0.2691
  121TMC2    O5 1893   3.168   0.063  14.730 -0.0131  0.6529 -0.1688
  121TMC2    H5 1894   3.157   0.137  14.667  2.8680  0.4823 -0.8758
  122MPD2     C 1895   2.873   0.604  14.322  0.0321  0.2655 -0.2095
  122MPD2    C1 1896   2.882   0.465  14.301  0.4286 -0.5190 -0.1872
  122MPD2    C2 1897   2.888   0.424  14.175  0.0068  0.3021 -0.0277
  122MPD2    C3 1898   2.882   0.520  14.074  0.4002  0.1236 -0.1993
  122MPD2    C4 1899   2.870   0.651  14.091  0.4014  0.4296 -0.0006
  122MPD2    C5 1900   2.867   0.693  14.221 -0.8616  0.0406 -0.9017
  122MPD2     H 1901   2.892   0.316  14.160  0.2682  0.2664  0.3008
  122MPD2    H1 1902   2.859   0.716  14.005 -0.6563  0.0104 -0.1874
  122MPD2    H2 1903   2.880   0.652  14.420 -1.9759  0.9452 -0.3958
  122MPD2    H3 1904   2.842   0.797  14.242 -2.4574 -0.9637  2.0836
  122MPD2     N 1905   2.879   0.474  13.940  0.0484 -0.0838  0.2086
  122MPD2    H5 1906   2.866   0.550  13.874  0.7082 -1.3581 -1.4175
  122MPD2    N1 1907   2.877   0.369  14.405  0.0522 -0.0765  0.3750
  122MPD2    H7 1908   2.887   0.271  14.385  1.8122  0.4898 -1.5226
  123TMC2    C1 1909   1.660   3.378  10.522  0.0972  0.0664 -0.5718
  123TMC2    C2 1910   1.780   3.428  10.569  0.6803  0.2944 -0.2845
  123TMC2    C3 1911   1.894   3.391  10.502  0.0065  0.2298 -0.5742
  123TMC2    C4 1912   1.649   3.286  10.424 -0.0890  0.4503 -0.6964
  123TMC2    C5 1913   1.766   3.239  10.371 -0.5617 -0.1839  0.1432
  123TMC2    C6 1914   1.888   3.298  10.404 -0.4043  0.2628 -1.0537
  123TMC2     C 1915   1.543   3.411  10.607 -0.0404  0.1186  0.1793
  123TMC2     O 1916   1.559   3.509  10.681  0.0229  0.4066 -0.1042
  123TMC2     H 1917   1.787   3.502  10.648  0.4331 -0.1496  0.1483
  123TMC2    H1 1918   1.551   3.260  10.387 -0.0656  2.0343 -1.9062
  123TMC2    H2 1919   1.982   3.274  10.354 -1.2584 -1.1110 -2.0064
  123TMC2    C7 1920   1.750   3.149  10.257  0.2660  0.1782  0.4007
  123TMC2    C8 1921   2.027   3.449  10.529  0.7318  0.0174 -0.5170
  123TMC2    O1 1922   1.636   3.153  10.209  0.5413 -0.4351  0.0384
  123TMC2    O2 1923   2.111   3.462  10.443 -0.1443  0.1470  0.4687
  123TMC2    O5 1924   2.039   3.457  10.664 -0.1310 -0.2303  0.1430
  123TMC2    H5 1925   1.963   3.428  10.718  0.8385  0.0185  1.6475
  124MPD2     C 1926   1.052   3.393  10.720  0.4194  0.2032 -0.0127
  124MPD2    C1 1927   1.081   3.286  10.639  0.3820 -0.0547  0.1058
  124MPD2    C2 1928   1.211   3.272  10.596  0.0680  0.5261  0.0732
  124MPD2    C3 1929   1.306   3.363  10.643  0.2732  0.1381 -0.3621
  124MPD2    C4 1930   1.277   3.465  10.722  0.8748 -0.1896  0.5352
  124MPD2    C5 1931   1.147   3.490  10.753  0.3928 -0.1490  0.3506
  124MPD2     H 1932   1.247   3.195  10.529  0.8552  0.1729  0.9040
  124MPD2    H1 1933   1.356   3.533  10.755 -0.2107  1.8693 -1.1543
  124MPD2    H2 1934   0.949   3.419  10.739  0.4984  0.4220  0.1116
  124MPD2    H3 1935   1.119   3.570  10.820  0.6366 -0.2247  0.5418
  124MPD2     N 1936   1.436   3.332  10.592 -0.0627  0.2734  0.0352
  124MPD2    H5 1937   1.440   3.255  10.526 -0.0968 -1.1655  1.6973
  124MPD2    N1 1938   0.976   3.203  10.591  0.4963 -0.2723  1.0337
  124MPD2    H7 1939   0.880   3.236  10.601  0.6361  1.1832 -2.4858
  125TMC2    C1 1940   2.053   0.769   9.277  0.6545  0.1283 -0.0849
  125TMC2    C2 1941   1.979   0.884   9.250 -0.1349 -1.2111  0.2552
  125TMC2    C3 1942   1.986   0.937   9.123 -0.7318  0.6863 -0.6794
  125TMC2    C4 1943   2.139   0.717   9.187  0.4352  0.4335  0.1927
  125TMC2    C5 1944   2.144   0.779   9.062  0.0910 -0.3416 -0.1339
  125TMC2    C6 1945   2.072   0.889   9.029 -0.2001  0.1477  0.0937
  125TMC2     C 1946   2.058   0.708   9.413 -0.0652  0.0895 -0.3710
  125TMC2     O 1947   2.110   0.598   9.426 -0.2377 -0.1344  0.1163
  125TMC2     H 1948   1.891   0.902   9.311 -1.7695  2.7400 -3.2995
  125TMC2    H1 1949   2.175   0.616   9.201 -1.7174 -0.3225  0.2887
  125TMC2    H2 1950   2.093   0.946   8.939  0.1632 -0.2301 -0.0603
  125TMC2    C7 1951   2.192   0.713   8.954  0.3668  0.4916  0.0779
  125TMC2    C8 1952   1.911   1.057   9.094  0.5029 -0.0200  0.2090
  125TMC2    O1 1953   2.146   0.736   8.842 -0.1416 -0.6796 -0.0304
  125TMC2    O2 1954   1.917   1.102   8.981  0.3033  0.3473 -0.2183
  125TMC2    O5 1955   1.891   1.130   9.206  0.8845 -0.2586 -0.2278
  125TMC2    H5 1956   1.913   1.087   9.292  0.9249  0.3391  0.0635
  126MPD1     C 1957   2.068   0.778   9.921  0.1594  0.4482  0.8251
  126MPD1    C1 1958   2.038   0.898   9.870  0.0651  0.0464  0.0619
  126MPD1    C2 1959   2.028   0.903   9.732 -0.6236 -0.0251 -0.1948
  126MPD1    C3 1960   2.043   0.792   9.649  0.1877  0.3743  0.1047
  126MPD1    C4 1961   2.067   0.672   9.704  0.0644 -0.3415 -0.1260
  126MPD1    C5 1962   2.077   0.666   9.838 -0.2933  0.3111  0.3312
  126MPD1     H 1963   2.001   0.999   9.690 -0.7984  0.6584  1.4530
  126MPD1    H1 1964   2.076   0.581   9.646  0.1970 -0.9951  0.9073
  126MPD1    H2 1965   2.082   0.762  10.027 -0.3886  0.4558  0.8953
  126MPD1    H3 1966   2.099   0.566   9.875 -0.8653  0.1268  0.1716
  126MPD1     N 1967   2.044   0.811   9.507  0.6096  0.3986  0.2261
  126MPD1    H5 1968   2.037   0.910   9.485 -2.3886  0.1901  0.2985
  126MPD1    N1 1969   2.043   1.012   9.948 -0.5798  0.7081 -0.1396
  126MPD1    H6 1970   1.988   1.088   9.909  2.1006  2.4282 -0.5767
  126MPD1    H7 1971   1.998   1.006  10.039  1.2294  0.2768  0.7389
  127TMC2    C1 1972   3.251   3.702  10.176 -0.1311 -0.2952  0.5655
  127TMC2    C2 1973   3.259   3.737  10.305  0.2492 -0.4073 -0.6002
  127TMC2    C3 1974   3.186   3.670  10.392  0.3946  0.3176 -0.7919
  127TMC2    C4 1975   3.173   3.599  10.136 -0.2737  0.0873 -0.7926
  127TMC2    C5 1976   3.090   3.538  10.230 -0.2514 -0.3080  0.6997
  127TMC2    C6 1977   3.097   3.574  10.362 -0.3022 -0.1003  0.2025
  127TMC2     C 1978   3.322   3.786  10.081 -0.8059 -0.5714  0.2513
  127TMC2     O 1979   3.408   3.860  10.128  0.2120 -0.0310 -0.2532
  127TMC2     H 1980   3.311   3.824  10.344  0.0771 -0.6609  0.2104
  127TMC2    H1 1981   3.167   3.573  10.031 -0.7569 -0.2202 -0.6865
  127TMC2    H2 1982   3.034   3.528  10.438  0.0742 -1.0736 -0.0669
  127TMC2    C7 1983   2.958   3.517  10.179 -0.6273 -0.6611 -0.5809
  127TMC2    C8 1984   3.209   3.690  10.528 -0.1180 -0.0608  0.4124
  127TMC2    O1 1985   2.936   3.552  10.062  0.5645 -0.0594  0.4717
  127TMC2    O2 1986   3.118   3.664  10.611  0.1530  0.1982 -0.1731
  127TMC2    O5 1987   3.329   3.630  10.539  0.2973  0.2375  0.1975
  127TMC2    H5 1988   3.378   3.636  10.454  1.2301 -1.7319  0.5920
  128MPD2     C 1989   3.284   3.832   9.725  0.0003 -0.1899 -0.4319
  128MPD2    C1 1990   3.331   3.854   9.850  0.2590  0.0324  0.8238
  128MPD2    C2 1991   3.418   3.963   9.859  0.1398  0.3558  0.4842
  128MPD2    C3 1992   3.473   4.025   9.750 -0.7842 -0.1699 -0.3310
  128MPD2    C4 1993   3.430   3.996   9.625 -0.5209  0.4188  0.2602
  128MPD2    C5 1994   3.332   3.899   9.618 -0.6661 -0.5774 -0.6218
  128MPD2     H 1995   3.443   4.004   9.956 -0.6945  0.5691  0.6075
  128MPD2    H1 1996   3.485   4.036   9.541  1.2848 -0.7234  0.8937
  128MPD2    H2 1997   3.208   3.758   9.704  0.1919 -0.2119 -1.0394
  128MPD2    H3 1998   3.308   3.864   9.518  3.4063 -1.1847 -1.3971
  128MPD2     N 1999   3.561   4.134   9.775  0.2457 -0.2575 -0.6159
  128MPD2    H5 2000   3.600   4.138   9.869 -0.3143 -1.3011 -0.3403
  128MPD2    N1 2001   3.277   3.781   9.956  0.3040  0.0289 -0.2932
  128MPD2    H7 2002   3.195   3.725   9.934  0.7826 -1.6010  1.9906
  129TMC2    C1 2003   1.439   0.458   1.799 -0.2033 -0.0194 -0.2428
  129TMC2    C2 2004   1.394   0.546   1.711  0.2891  0.5110 -0.1270
  129TMC2    C3 2005   1.265   0.547   1.680  0.5768  0.2525 -0.1640
  129TMC2    C4 2006   1.354   0.386   1.875 -0.1977  0.0067  0.1769
  129TMC2    C5 2007   1.220   0.395   1.852  0.1511 -0.4813 -0.1839
  129TMC2    C6 2008   1.171   0.475   1.749 -0.3742  0.1377 -0.4014
  129TMC2     C 2009   1.573   0.445   1.854 -0.6320 -0.0535  0.2508
  129TMC2     O 2010   1.591   0.361   1.941 -0.0255 -0.4699  0.1759
  129TMC2     H 2011   1.456   0.609   1.650  2.8250 -0.8334  1.0372
  129TMC2    H1 2012   1.389   0.310   1.944  0.1623  0.4276  0.4621
  129TMC2    H2 2013   1.065   0.466   1.727  0.0901 -1.6861 -1.9103
  129TMC2    C7 2014   1.139   0.284   1.895  0.2357 -0.2945  0.3575
  129TMC2    C8 2015   1.220   0.645   1.586 -0.0413  0.2025  0.1453
  129TMC2    O1 2016   1.035   0.254   1.834  0.3411 -0.4610  0.0721
  129TMC2    O2 2017   1.299   0.708   1.519  0.1627  0.0051 -0.4658
  129TMC2    O5 2018   1.090   0.678   1.606 -0.4951  0.2114  0.3142
  129TMC2    H5 2019   1.038   0.617   1.663 -0.4217 -0.5939 -0.4731
  130MPD2     C 2020   1.849   0.490   1.921  0.0168  0.1308 -0.3622
  130MPD2    C1 2021   1.790   0.558   1.818 -0.5443 -0.3313 -0.0649
  130MPD2    C2 2022   1.861   0.647   1.739 -0.3898 -0.5744 -0.0013
  130MPD2    C3 2023   2.003   0.659   1.746 -0.3260 -0.1164 -0.2318
  130MPD2    C4 2024   2.066   0.586   1.846  0.4228 -0.2029 -0.9637
  130MPD2    C5 2025   1.985   0.506   1.930 -0.5655  0.3603  0.0250
  130MPD2     H 2026   1.804   0.698   1.662  1.5668 -0.8481 -1.6211
  130MPD2    H1 2027   2.173   0.588   1.864  0.5737  0.4387 -1.9425
  130MPD2    H2 2028   1.803   0.410   1.978  1.2682 -0.3518 -0.0206
  130MPD2    H3 2029   2.045   0.439   1.990  0.7862  0.9588 -0.6829
  130MPD2     N 2030   2.065   0.752   1.655  0.7395  0.0168 -0.2883
  130MPD2    H5 2031   2.016   0.790   1.575  0.3145  0.8338  0.3584
  130MPD2    N1 2032   1.654   0.530   1.788  0.0139  0.2953 -0.0599
  130MPD2    H7 2033   1.611   0.568   1.703 -1.0056 -3.2551 -1.1625
  131TMC2    C1 2034   1.476   3.020   9.750  0.4206 -0.9690 -0.1864
  131TMC2    C2 2035   1.462   2.991   9.614  1.1132 -0.7416 -0.7738
  131TMC2    C3 2036   1.585   3.006   9.546 -0.0334 -0.4186 -0.0220
  131TMC2    C4 2037   1.589   3.076   9.805 -0.0043  0.2208  0.5898
  131TMC2    C5 2038   1.689   3.108   9.723  0.9837  0.1108  1.1838
  131TMC2    C6 2039   1.699   3.070   9.594 -0.2031  0.1031  0.2624
  131TMC2     C 2040   1.352   3.019   9.830  0.7234  0.0108 -0.2395
  131TMC2     O 2041   1.347   3.069   9.939  0.8907  0.2969 -0.4409
  131TMC2     H 2042   1.376   2.940   9.572  0.5800 -0.1944 -0.3409
  131TMC2    H1 2043   1.598   3.105   9.909  0.1131 -3.9939  1.7690
  131TMC2    H2 2044   1.791   3.086   9.540  1.2051 -2.4622  1.9106
  131TMC2    C7 2045   1.817   3.153   9.789  0.3765  0.5969 -0.4435
  131TMC2    C8 2046   1.571   2.986   9.406  0.2109  0.4967  0.4131
  131TMC2    O1 2047   1.918   3.114   9.733 -0.4700 -0.2797 -0.0444
  131TMC2    O2 2048   1.464   2.976   9.349  0.0134 -0.5429 -0.6543
  131TMC2    O5 2049   1.692   2.951   9.354  0.4997  0.0588 -0.2764
  131TMC2    H5 2050   1.758   2.921   9.419 -1.2812  1.2946  2.1009
  132MPD2     C 2051   1.029   2.880   9.703 -0.0949  0.6214 -0.1002
  132MPD2    C1 2052   1.115   2.932   9.795  0.1287 -0.0094  0.0173
  132MPD2    C2 2053   1.077   2.938   9.928  0.4928  0.4223  0.0836
  132MPD2    C3 2054   0.951   2.893   9.965  0.5778  0.6981  0.2778
  132MPD2    C4 2055   0.868   2.838   9.875  0.2250 -0.5523  0.1749
  132MPD2    C5 2056   0.910   2.831   9.748 -0.6017 -0.2107 -0.0718
  132MPD2     H 2057   1.145   2.979  10.002  0.1663  1.3125 -0.0990
  132MPD2    H1 2058   0.763   2.814   9.894 -0.0473  0.9105  0.4884
  132MPD2    H2 2059   1.055   2.874   9.598  1.1042  1.2691  0.1687
  132MPD2    H3 2060   0.844   2.791   9.672 -0.9460  3.0741 -1.4974
  132MPD2     N 2061   0.917   2.896  10.103 -0.1627 -0.0523  0.0054
  132MPD2    H5 2062   0.988   2.895  10.175 -1.4983  3.1248  1.3557
  132MPD2    N1 2063   1.239   2.978   9.750  0.4927 -0.3025  0.1561
  132MPD2    H7 2064   1.254   2.978   9.650  0.9748  0.9892  0.2389
  133TMC2    C1 2065   4.587   3.260   9.617 -0.2058  0.1229  0.5243
  133TMC2    C2 2066   4.501   3.157   9.624  0.0521  0.1089 -0.2775
  133TMC2    C3 2067   4.546   3.034   9.670  0.7812  0.1427  0.7969
  133TMC2    C4 2068   4.718   3.243   9.655  0.0455  0.0718  0.7362
  133TMC2    C5 2069   0.017   3.117   9.701  0.0583 -0.2050 -0.0545
  133TMC2    C6 2070   4.670   3.015   9.713  0.7073  0.2484 -0.6235
  133TMC2     C 2071   4.538   3.397   9.580 -0.0004 -0.1506 -0.5430
  133TMC2     O 2072   4.617   3.484   9.601 -0.5484 -0.0518 -0.3552
  133TMC2     H 2073   4.409   3.170   9.568 -1.3517 -0.5689  1.8197
  133TMC2    H1 2074   0.041   3.332   9.656  1.5144 -0.9542  0.7951
  133TMC2    H2 2075   4.695   2.911   9.730  0.1233  0.0570 -0.9342
  133TMC2    C7 2076   0.144   3.088   9.762 -0.5525 -0.3703 -0.5907
  133TMC2    C8 2077   4.466   2.914   9.629 -0.4165 -0.3561  0.3122
  133TMC2    O1 2078   0.150   2.983   9.821  0.2757 -0.5354 -0.0445
  133TMC2    O2 2079   4.397   2.911   9.528 -0.6739  0.0806 -0.6136
  133TMC2    O5 2080   4.475   2.817   9.724 -0.1928  0.5216  0.2673
  133TMC2    H5 2081   4.504   2.846   9.813 -0.0387  2.7284 -0.5052
  134MPD2     C 2082   4.204   3.532   9.483  0.0862  0.2814 -0.6512
  134MPD2    C1 2083   4.336   3.530   9.523  0.1398 -0.2221 -0.4345
  134MPD2    C2 2084   4.393   3.659   9.540 -0.5273  0.0572  0.1409
  134MPD2    C3 2085   4.314   3.773   9.530 -0.3050  0.6936  0.0594
  134MPD2    C4 2086   4.185   3.768   9.496  0.1982 -0.2704 -0.7503
  134MPD2    C5 2087   4.126   3.649   9.472 -0.8092  0.0546  0.3040
  134MPD2     H 2088   4.496   3.669   9.572 -0.2596 -1.3564 -0.2940
  134MPD2    H1 2089   4.127   3.859   9.491 -2.4838 -1.8739  1.0883
  134MPD2    H2 2090   4.151   3.440   9.461 -0.3935 -0.3122  2.8226
  134MPD2    H3 2091   4.020   3.636   9.455 -0.3373 -1.4088 -1.5958
  134MPD2     N 2092   4.362   3.902   9.562 -0.0285 -0.0763  0.2416
  134MPD2    H5 2093   4.291   3.974   9.569 -1.0082 -0.9533 -0.6360
  134MPD2    N1 2094   4.407   3.408   9.541  0.2284 -0.3351  0.4364
  134MPD2    H7 2095   4.355   3.322   9.525 -2.4271  1.2283  0.7474
  135TMC2    C1 2096   2.371   0.882   9.659  0.1580  0.4359 -0.0146
  135TMC2    C2 2097   2.355   0.931   9.784 -0.1695 -0.6189  0.3526
  135TMC2    C3 2098   2.387   0.860   9.898 -0.6437 -0.0061 -0.0026
  135TMC2    C4 2099   2.429   0.753   9.648 -0.2688 -0.6211 -0.3045
  135TMC2    C5 2100   2.463   0.688   9.758  0.2708 -0.2988 -0.0052
  135TMC2    C6 2101   2.447   0.740   9.884  0.2190  0.2420 -0.2000
  135TMC2     C 2102   2.323   0.958   9.545  0.2864 -1.1689 -0.7144
  135TMC2     O 2103   2.246   1.052   9.559 -0.0121 -0.4601 -0.4149
  135TMC2     H 2104   2.313   1.030   9.798  1.4545 -0.1221  1.6868
  135TMC2    H1 2105   2.440   0.704   9.551  2.4654 -2.2487  0.8249
  135TMC2    H2 2106   2.457   0.676   9.971 -2.3364  0.2728  0.1172
  135TMC2    C7 2107   2.518   0.558   9.741 -0.2644  0.2604 -0.5697
  135TMC2    C8 2108   2.404   0.918  10.029 -0.3567 -0.5146  0.4472
  135TMC2    O1 2109   2.488   0.490   9.645  0.2690  0.3201  0.0349
  135TMC2    O2 2110   2.490   0.887  10.109  0.1125  0.4911 -0.6028
  135TMC2    O5 2111   2.307   1.011  10.051 -0.1365 -0.2956 -0.0622
  135TMC2    H5 2112   2.224   1.020   9.998 -0.7745  0.8921  1.1417
  136MPD2     C 2113   2.280   1.089   9.274  0.2343 -0.0051  0.0035
  136MPD2    C1 2114   2.361   0.983   9.299  0.3287  1.0640  0.0901
  136MPD2    C2 2115   2.438   0.938   9.192  0.0356 -0.7113  1.2258
  136MPD2    C3 2116   2.421   0.982   9.063  0.1808  0.4288 -0.2756
  136MPD2    C4 2117   2.331   1.081   9.037  0.6615  0.0222  0.2997
  136MPD2    C5 2118   2.274   1.146   9.146 -0.1787  0.1674 -0.0650
  136MPD2     H 2119   2.495   0.850   9.219 -0.5427 -0.7008  2.4511
  136MPD2    H1 2120   2.303   1.121   8.940 -0.1896 -3.1417 -0.7515
  136MPD2    H2 2121   2.219   1.131   9.354  2.6964  2.5769  0.5056
  136MPD2    H3 2122   2.196   1.219   9.128 -0.8177 -0.4640  0.1593
  136MPD2     N 2123   2.482   0.902   8.962  0.6048  0.5482 -0.2049
  136MPD2    H5 2124   2.447   0.931   8.871  0.7109  0.6378 -0.2171
  136MPD2    N1 2125   2.387   0.927   9.429 -0.3823  0.2848  0.4991
  136MPD2    H7 2126   2.452   0.849   9.432 -0.8142 -0.0077  2.2258
  137TMC2    C1 2127   1.334   0.081  10.271 -0.0773 -0.2358  0.6344
  137TMC2    C2 2128   1.270   0.166  10.353  1.2262 -0.8837  0.1615
  137TMC2    C3 2129   1.181   0.117  10.444 -0.0117  0.0306  0.9049
  137TMC2    C4 2130   1.305   4.685  10.273  0.3465 -0.0796 -0.0585
  137TMC2    C5 2131   1.205   4.639  10.352 -0.8022  0.3917 -0.3590
  137TMC2    C6 2132   1.144   4.723  10.452 -0.1880  0.5062  0.0937
  137TMC2     C 2133   1.424   0.124  10.166  0.9282  0.0023 -0.3618
  137TMC2     O 2134   1.461   0.041  10.081 -0.3895  0.0226  0.1988
  137TMC2     H 2135   1.261   0.270  10.324 -2.5984 -0.9403  1.1618
  137TMC2    H1 2136   1.344   4.624  10.193 -0.2790  0.7737 -1.0196
  137TMC2    H2 2137   1.066   4.687  10.519  1.1544 -3.0413 -0.2275
  137TMC2    C7 2138   1.161   4.499  10.345 -0.0415  0.7566  0.5323
  137TMC2    C8 2139   1.118   0.210  10.534  0.4111  0.2012  0.5169
  137TMC2    O1 2140   1.053   4.469  10.389 -0.3513  0.2757 -0.4207
  137TMC2    O2 2141   1.010   0.208  10.594 -0.2198  1.1690 -0.1009
  137TMC2    O5 2142   1.231   0.268  10.579  0.1833 -0.1218  0.1084
  137TMC2    H5 2143   1.305   0.273  10.516  0.4414 -0.0721  0.4124
  138MPD2     C 2144   1.573   0.456  10.125  0.4568 -0.7276 -0.2525
  138MPD2    C1 2145   1.531   0.333  10.084  0.1416 -0.1535 -0.7969
  138MPD2    C2 2146   1.560   0.288   9.951 -0.5864 -0.2773 -0.5987
  138MPD2    C3 2147   1.633   0.363   9.860  0.0850 -0.6214 -0.1620
  138MPD2    C4 2148   1.667   0.488   9.907  0.1204  0.3895 -0.2611
  138MPD2    C5 2149   1.632   0.533  10.034 -0.1037 -0.3299 -0.3419
  138MPD2     H 2150   1.517   0.193   9.922 -0.4916 -1.3428  2.7686
  138MPD2    H1 2151   1.725   0.552   9.841 -0.5597  1.0085 -0.2570
  138MPD2    H2 2152   1.548   0.488  10.225 -0.1311  0.9029 -0.9244
  138MPD2    H3 2153   1.657   0.632  10.068 -0.9801  0.4325 -1.9451
  138MPD2     N 2154   1.677   0.303   9.740  0.2778  0.6284  0.0761
  138MPD2    H5 2155   1.668   0.203   9.724  0.2999  0.4525  1.1645
  138MPD2    N1 2156   1.460   0.254  10.176 -0.1794  0.0461  0.6617
  138MPD2    H7 2157   1.445   0.295  10.268  0.4496 -2.4992  1.8965
  139TMC2    C1 2158   2.323   2.756  13.407  0.1468  0.0254  0.4675
  139TMC2    C2 2159   2.239   2.703  13.312 -0.9115  0.1591  0.0658
  139TMC2    C3 2160   2.154   2.791  13.250 -0.0902 -0.9666 -0.3285
  139TMC2    C4 2161   2.322   2.890  13.424 -0.3592 -0.0469  0.0988
  139TMC2    C5 2162   2.241   2.975  13.360  0.5923 -0.4587 -0.9121
  139TMC2    C6 2163   2.152   2.926  13.276 -0.4621 -1.2192  0.4792
  139TMC2     C 2164   2.437   2.679  13.440  0.6695 -0.1289 -0.0235
  139TMC2     O 2165   2.430   2.560  13.445  0.7982 -0.4798  0.4178
  139TMC2     H 2166   2.232   2.595  13.305  2.3887 -0.1196  0.9757
  139TMC2    H1 2167   2.383   2.936  13.501 -0.1009  1.3090 -0.9110
  139TMC2    H2 2168   2.072   2.984  13.233  2.8550  2.0574 -1.3188
  139TMC2    C7 2169   2.221   3.106  13.410 -0.1961  0.5664  0.1090
  139TMC2    C8 2170   2.063   2.735  13.153 -0.1372  0.4601  0.1250
  139TMC2    O1 2171   2.134   3.178  13.360  0.1407  0.2696 -0.9255
  139TMC2    O2 2172   1.950   2.692  13.178  0.6103 -0.0357 -0.0274
  139TMC2    O5 2173   2.153   2.663  13.075 -0.0430  0.2723  0.1635
  139TMC2    H5 2174   2.234   2.719  13.077  0.8564 -1.0011 -1.1190
  140MPD2     C 2175   2.781   2.806  13.490  0.2775 -0.0740 -0.2468
  140MPD2    C1 2176   2.680   2.715  13.472 -0.5440 -0.6935  0.1337
  140MPD2    C2 2177   2.716   2.580  13.449 -0.0504 -0.5537 -0.5607
  140MPD2    C3 2178   2.853   2.543  13.432 -0.4305 -0.1978 -0.1243
  140MPD2    C4 2179   2.947   2.639  13.454 -0.0901  0.7915 -0.0274
  140MPD2    C5 2180   2.917   2.772  13.486 -0.2553 -0.3808  0.1110
  140MPD2     H 2181   2.638   2.505  13.439 -0.4505 -0.4032  1.4357
  140MPD2    H1 2182   3.054   2.623  13.446 -0.1217  1.3865 -1.6465
  140MPD2    H2 2183   2.750   2.905  13.519 -0.2128 -0.0691 -0.7687
  140MPD2    H3 2184   2.986   2.853  13.504  1.3882 -1.5921 -0.6743
  140MPD2     N 2185   2.880   2.416  13.374  0.0810  0.1790  0.1518
  140MPD2    H5 2186   2.802   2.353  13.362  1.1864 -1.3961  1.2133
  140MPD2    N1 2187   2.548   2.761  13.467 -0.3192  0.2331 -0.4678
  140MPD2    H7 2188   2.529   2.861  13.459  0.4103  0.5651  1.8858
  141TMC2    C1 2189   2.559   4.420  15.065  0.0184 -0.0350  0.4616
  141TMC2    C2 2190   2.461   4.395  15.157  0.5176 -0.1924  0.3214
  141TMC2    C3 2191   2.406   4.506  15.219  0.0828 -0.4302  0.1449
  141TMC2    C4 2192   2.614   4.544  15.034  0.5749 -0.0372  0.0578
  141TMC2    C5 2193   2.557   4.644  15.101  0.4409 -0.2801  0.3506
  141TMC2    C6 2194   2.449   4.630  15.186 -0.1669 -0.6663  0.2078
  141TMC2     C 2195   2.557   4.341  14.944 -0.0096 -0.5255  0.5605
  141TMC2     O 2196   2.666   4.314  14.891 -0.0775 -0.5370  0.0500
  141TMC2     H 2197   2.403   4.304  15.160  1.2496 -0.6399  0.6419
  141TMC2    H1 2198   2.696   4.553  14.963  2.6141  1.5180  2.6057
  141TMC2    H2 2199   2.409   4.722  15.228 -2.2333 -0.8305 -1.3695
  141TMC2    C7 2200   2.587   0.041  15.059 -0.7411 -0.0658  0.1354
  141TMC2    C8 2201   2.302   4.501  15.319 -0.7658  0.4539 -0.1487
  141TMC2    O1 2202   2.489   0.114  15.061 -0.0956 -0.1477  0.5488
  141TMC2    O2 2203   2.226   4.599  15.329  0.0852  0.0086  0.2811
  141TMC2    O5 2204   2.279   4.380  15.364 -0.1679  0.2451 -0.2411
  141TMC2    H5 2205   2.356   4.319  15.370 -2.9994 -3.2156  1.2598
  142TMC2    C1 2206   1.159   2.620  10.030 -0.2884  0.0907 -0.2740
  142TMC2    C2 2207   1.153   2.604   9.890 -0.1191  0.0596  0.5387
  142TMC2    C3 2208   1.263   2.623   9.814 -0.4402  0.3662 -0.0325
  142TMC2    C4 2209   1.283   2.645  10.089  0.0095 -0.5550  0.1763
  142TMC2    C5 2210   1.389   2.670  10.008  0.1915  0.3071 -0.1221
  142TMC2    C6 2211   1.383   2.662   9.872 -0.0874  0.1936  0.1634
  142TMC2     C 2212   1.043   2.573  10.101 -0.4994  0.1912  0.7782
  142TMC2     O 2213   0.949   2.527  10.038  0.5167 -0.2652  0.5355
  142TMC2     H 2214   1.067   2.560   9.841  0.4996 -0.1199 -0.3877
  142TMC2    H1 2215   1.301   2.659  10.195  2.1295 -1.4474 -0.0637
  142TMC2    H2 2216   1.467   2.682   9.807 -0.3107 -3.9556 -1.3206
  142TMC2    C7 2217   1.509   2.728  10.065 -0.0412  0.3621  0.6991
  142TMC2    C8 2218   1.260   2.624   9.667  0.6027  0.0302  0.0847
  142TMC2    O1 2219   1.509   2.768  10.181 -0.8498  0.1449  0.0025
  142TMC2    O2 2220   1.310   2.709   9.593  1.3098  0.1190 -0.0400
  142TMC2    O5 2221   1.240   2.504   9.621 -1.0439  0.2385  0.1505
  142TMC2    H5 2222   1.215   2.443   9.694 -0.6143 -0.5175 -0.3374
  143MPD2     C 2223   0.810   2.504  10.548  0.3301 -0.2519  0.2178
  143MPD2    C1 2224   0.797   2.429  10.433  0.1448 -0.0661 -0.3703
  143MPD2    C2 2225   0.874   2.470  10.322 -0.6375 -0.7587 -0.2148
  143MPD2    C3 2226   0.960   2.579  10.331  1.0063  0.1099  0.3356
  143MPD2    C4 2227   0.969   2.653  10.448  0.0061  0.3821  0.0473
  143MPD2    C5 2228   0.892   2.611  10.553 -0.5748 -0.6584 -0.6251
  143MPD2     H 2229   0.864   2.412  10.231  1.1638 -0.5121 -0.5568
  143MPD2    H1 2230   1.028   2.744  10.457 -0.6794  0.9456 -1.2459
  143MPD2    H2 2231   0.745   2.490  10.634 -0.7005  1.0410 -0.3589
  143MPD2    H3 2232   0.888   2.666  10.647 -2.1940 -2.4562  0.3600
  143MPD2     N 2233   1.049   2.614  10.229 -0.0236 -0.3218 -0.2129
  143MPD2    H5 2234   1.115   2.689  10.248 -0.2997 -0.0124 -0.4868
  143MPD2    N1 2235   0.698   2.325  10.431  0.4384  0.2833  0.4413
  143MPD2    H7 2236   0.654   2.305  10.520 -1.7183 -0.9803 -0.9197
  144TMC2    C1 2237   3.859   2.176   0.710  0.1847 -0.1582 -0.7157
  144TMC2    C2 2238   3.947   2.071   0.675 -0.5246 -0.3968 -0.2725
  144TMC2    C3 2239   4.070   2.066   0.720 -0.3218 -1.0121 -0.3363
  144TMC2    C4 2240   3.893   2.269   0.798  0.2326 -0.1717 -0.3373
  144TMC2    C5 2241   4.024   2.267   0.840 -0.2326  0.1320  0.0100
  144TMC2    C6 2242   4.112   2.168   0.803 -0.1385 -0.6667  1.1014
  144TMC2     C 2243   3.741   2.191   0.629 -0.3584  0.4365  0.0984
  144TMC2     O 2244   3.719   2.106   0.543 -0.2185 -0.6982 -0.1961
  144TMC2     H 2245   3.906   1.994   0.611 -2.0397  0.4937 -0.3733
  144TMC2    H1 2246   3.819   2.315   0.861 -1.4600 -1.2480 -1.5399
  144TMC2    H2 2247   4.212   2.160   0.844  0.2371 -2.4336 -0.1375
  144TMC2    C7 2248   4.056   2.330   0.964 -0.6342  0.3150 -0.2847
  144TMC2    C8 2249   4.147   1.944   0.708  0.4214 -0.7295 -0.1445
  144TMC2    O1 2250   4.155   2.284   1.019 -0.1209  0.1249  0.0468
  144TMC2    O2 2251   4.090   1.835   0.692  0.2698  0.0827  0.1305
  144TMC2    O5 2252   4.280   1.973   0.686  0.6335  0.0615  0.5521
  144TMC2    H5 2253   4.291   2.069   0.670 -0.3872 -0.1997 -1.6039
  145MPD2     C 2254   3.285   2.412   0.538  0.1778  0.7278  0.1736
  145MPD2    C1 2255   3.342   2.294   0.486 -0.2837  0.0773  0.3266
  145MPD2    C2 2256   3.471   2.259   0.515  0.0790 -0.0073  0.4530
  145MPD2    C3 2257   3.545   2.343   0.602 -0.1848  0.1524 -0.6410
  145MPD2    C4 2258   3.498   2.473   0.636 -0.0828 -0.6044  0.5647
  145MPD2    C5 2259   3.366   2.501   0.604 -0.4149 -0.4333  0.5488
  145MPD2     H 2260   3.493   2.165   0.466 -0.6118  0.4484 -0.7307
  145MPD2    H1 2261   3.556   2.542   0.696 -0.9330  0.8580 -0.3195
  145MPD2    H2 2262   3.187   2.456   0.522  0.4464  1.9986  1.9437
  145MPD2    H3 2263   3.315   2.594   0.628 -0.8622  0.1200 -2.5636
  145MPD2     N 2264   3.674   2.311   0.648  0.1927  0.5959  0.3120
  145MPD2    H5 2265   3.720   2.381   0.705  2.4494 -1.4063  0.9704
  145MPD2    N1 2266   3.270   2.207   0.400  0.7567 -0.2425 -0.5066
  145MPD2    H7 2267   3.323   2.128   0.363  1.5530 -0.5372  1.2450
  146TMC2    C1 2268   4.085   0.654  12.830 -0.1210  0.5269 -0.6228
  146TMC2    C2 2269   4.013   0.751  12.765  0.3335  0.7203 -0.2734
  146TMC2    C3 2270   3.937   0.705  12.659  0.2484  0.3415 -0.8884
  146TMC2    C4 2271   4.092   0.527  12.791  1.1284  0.0620  0.4965
  146TMC2    C5 2272   4.017   0.485  12.683  0.6763 -0.0776  1.4003
  146TMC2    C6 2273   3.936   0.572  12.616  0.1536 -0.9170 -0.1284
  146TMC2     C 2274   4.187   0.711  12.921 -0.0904  0.9299 -0.4075
  146TMC2     O 2275   4.172   0.827  12.947  0.0916  0.4881  0.6011
  146TMC2     H 2276   4.018   0.857  12.789  1.6800  0.2194  1.6073
  146TMC2    H1 2277   4.153   0.452  12.840 -0.5462 -0.3085  2.0300
  146TMC2    H2 2278   3.881   0.535  12.530 -0.3542 -0.3952 -0.0301
  146TMC2    C7 2279   4.004   0.340  12.642  0.0749 -0.9404  0.6757
  146TMC2    C8 2280   3.897   0.792  12.549 -0.5776  0.1814  0.0458
  146TMC2    O1 2281   3.903   0.317  12.573 -0.0935 -0.7151  0.1105
  146TMC2    O2 2282   3.969   0.785  12.447  0.3640  0.0977  0.1581
  146TMC2    O5 2283   3.831   0.895  12.602  0.5343  0.3692 -0.0021
  146TMC2    H5 2284   3.784   0.876  12.686  0.2108  0.5532 -0.1391
  147MPD2     C 2285   4.177   4.619  12.540  0.0894 -0.6774  0.8088
  147MPD2    C1 2286   4.285   4.695  12.574  1.5851 -0.5173  0.4289
  147MPD2    C2 2287   4.266   0.080  12.621  0.1323  0.0051  0.1013
  147MPD2    C3 2288   4.140   0.132  12.619 -0.6523  0.3936  0.1500
  147MPD2    C4 2289   4.029   0.056  12.585  0.6773  0.0584 -0.1343
  147MPD2    C5 2290   4.048   4.669  12.536 -0.0657  0.1887  0.1541
  147MPD2     H 2291   4.356   0.137  12.644 -0.3358 -0.2564  2.5861
  147MPD2    H1 2292   3.926   0.086  12.601  1.0020  2.1041 -1.8221
  147MPD2    H2 2293   4.201   4.516  12.513 -1.0151 -0.1805 -2.0507
  147MPD2    H3 2294   3.967   4.606  12.503 -1.1569  0.1251  2.9779
  147MPD2     N 2295   4.116   0.268  12.660 -0.2715 -0.0350 -0.1274
  147MPD2    H5 2296   4.198   0.313  12.701  0.7497 -2.0456  0.0390
  147MPD2    N1 2297   4.412   4.638  12.554 -0.4804  0.3378  0.0047
  147MPD2    H7 2298   4.417   4.538  12.542  0.5225  0.3611  0.2352
  148TMC2    C1 2299   0.550   4.186  10.649  0.7143 -0.4409  0.3969
  148TMC2    C2 2300   0.577   4.191  10.782 -0.3284 -0.5070 -1.1305
  148TMC2    C3 2301   0.695   4.134  10.820  0.9142 -0.2596  0.0512
  148TMC2    C4 2302   0.635   4.126  10.566 -0.1214  0.4669 -0.3422
  148TMC2    C5 2303   0.746   4.063  10.604 -0.5214 -1.2345  0.8301
  148TMC2    C6 2304   0.778   4.060  10.736 -0.0416 -0.0712 -0.1379
  148TMC2     C 2305   0.416   4.184  10.614  0.3620 -0.4700 -0.3013
  148TMC2     O 2306   0.337   4.274  10.649  0.4532 -1.0876 -0.3450
  148TMC2     H 2307   0.500   4.232  10.847  2.7252  3.2558  0.1645
  148TMC2    H1 2308   0.603   4.116  10.462 -1.8623 -0.1996  0.2639
  148TMC2    H2 2309   0.853   4.001  10.789 -1.7139 -2.5454 -0.5349
  148TMC2    C7 2310   0.753   3.938  10.535  0.1497  0.0024 -0.2749
  148TMC2    C8 2311   0.696   4.129  10.965  0.1715 -0.1385  0.4583
  148TMC2    O1 2312   0.660   3.911  10.462  0.3802 -0.0276  0.3401
  148TMC2    O2 2313   0.598   4.095  11.030 -0.5757 -0.4415 -0.2971
  148TMC2    O5 2314   0.824   4.148  11.010 -0.1901  0.0536 -0.2155
  148TMC2    H5 2315   0.880   4.187  10.940  0.1694  0.2687  0.1935
  149MPD2     C 2316   0.162   4.131  10.470  0.1872 -0.4113  0.1876
  149MPD2    C1 2317   0.257   4.038  10.481  0.6537  0.0024  0.1127
  149MPD2    C2 2318   0.238   3.912  10.433  0.2775  0.3681  0.1416
  149MPD2    C3 2319   0.119   3.869  10.382 -0.0248  0.5261  0.8563
  149MPD2    C4 2320   0.024   3.969  10.356  0.3001 -0.2346 -0.1796
  149MPD2    C5 2321   0.046   4.093  10.406  0.5354 -0.3644  0.1820
  149MPD2     H 2322   0.311   3.837  10.462  0.7089  0.5693 -0.4150
  149MPD2    H1 2323   4.674   3.960  10.294 -0.0005  0.4912  0.1480
  149MPD2    H2 2324   0.173   4.233  10.504  0.2036 -0.0514 -0.8971
  149MPD2    H3 2325   4.702   4.159  10.383  0.2682 -0.6878  0.2268
  149MPD2     N 2326   0.080   3.732  10.356  0.5276  0.4178  0.5538
  149MPD2    H5 2327   4.729   3.720  10.310  0.9492  1.7803 -0.6457
  149MPD2    N1 2328   0.381   4.067  10.548  0.6008 -0.6421  0.1314
  149MPD2    H7 2329   0.448   3.991  10.557  3.0188  1.8080  2.7686
  150TMC2    C1 2330   2.169   3.213  12.207  0.7854 -0.1634 -0.3670
  150TMC2    C2 2331   2.128   3.249  12.081  0.4050  0.4433 -0.2532
  150TMC2    C3 2332   2.232   3.287  11.997 -0.5479 -0.5526 -0.2328
  150TMC2    C4 2333   2.301   3.217  12.248 -0.4177  0.8652  0.0337
  150TMC2    C5 2334   2.393   3.246  12.148  0.6359  0.3732 -0.1194
  150TMC2    C6 2335   2.358   3.288  12.024 -0.6586 -1.0447  0.2579
  150TMC2     C 2336   2.075   3.164  12.312  0.1213 -0.4466 -0.3534
  150TMC2     O 2337   2.124   3.150  12.423 -0.0369  0.2143 -0.0388
  150TMC2     H 2338   2.027   3.234  12.045  0.1416  0.6576  0.3985
  150TMC2    H1 2339   2.338   3.207  12.349 -0.3862  1.1655  0.0534
  150TMC2    H2 2340   2.427   3.310  11.943  1.3396  0.0931  2.2722
  150TMC2    C7 2341   2.531   3.195  12.155  0.2930 -0.6679  0.7053
  150TMC2    C8 2342   2.200   3.259  11.859 -0.1695 -0.0547  0.3338
  150TMC2    O1 2343   2.607   3.250  12.073  0.7962 -0.1194  0.2490
  150TMC2    O2 2344   2.188   3.359  11.788 -0.6962 -0.0564  0.5263
  150TMC2    O5 2345   2.261   3.148  11.827 -0.2641  0.2585  0.3618
  150TMC2    H5 2346   2.301   3.090  11.896  1.6216  0.3926 -0.6412
  151MPD2     C 2347   1.663   2.896  12.422  0.5467 -0.6711 -0.4858
  151MPD2    C1 2348   1.648   2.948  12.295 -1.1769  0.1348  0.0046
  151MPD2    C2 2349   1.742   3.043  12.257 -0.8497  0.1572 -0.2915
  151MPD2    C3 2350   1.852   3.072  12.335 -0.1583  0.8093 -0.5492
  151MPD2    C4 2351   1.882   3.010  12.456 -0.5693  0.5345 -0.3662
  151MPD2    C5 2352   1.780   2.930  12.501 -0.1686  0.2930  0.4633
  151MPD2     H 2353   1.733   3.087  12.158  1.7136  0.0756 -0.5505
  151MPD2    H1 2354   1.971   3.031  12.513 -1.0506 -0.4232  0.7463
  151MPD2    H2 2355   1.587   2.825  12.454 -0.2704  0.6978  0.5616
  151MPD2    H3 2356   1.796   2.880  12.596  3.5227 -0.4509 -0.5819
  151MPD2     N 2357   1.955   3.144  12.262 -0.3487  0.0424  0.0594
  151MPD2    H5 2358   1.925   3.176  12.170  1.6754  1.3700 -0.1318
  151MPD2    N1 2359   1.538   2.913  12.214  0.8584 -0.4746  0.7762
  151MPD2    H7 2360   1.480   2.839  12.252  1.4277 -0.6183  1.3503
  152TMC2    C1 2361   2.010   2.582  12.800  0.0585 -0.5100 -0.2970
  152TMC2    C2 2362   2.087   2.472  12.833  0.0495  0.1082  0.0921
  152TMC2    C3 2363   2.221   2.481  12.800 -0.5178 -0.5442  0.2437
  152TMC2    C4 2364   2.061   2.690  12.738  0.0951 -0.0191 -0.2273
  152TMC2    C5 2365   2.191   2.690  12.704 -0.0657 -0.2619 -0.8870
  152TMC2    C6 2366   2.277   2.597  12.744 -0.0628 -0.1872 -0.3158
  152TMC2     C 2367   1.864   2.581  12.803  0.0115  0.2835 -0.1713
  152TMC2     O 2368   1.798   2.680  12.817  0.2044 -0.0055 -0.0352
  152TMC2     H 2369   2.050   2.388  12.889 -1.0976  1.2180  0.9908
  152TMC2    H1 2370   1.995   2.770  12.706 -2.6398 -2.2431 -0.1466
  152TMC2    H2 2371   2.386   2.599  12.741 -0.0584  1.3317  1.0131
  152TMC2    C7 2372   2.239   2.816  12.671 -0.4045  0.4744  0.0046
  152TMC2    C8 2373   2.306   2.376  12.848  0.4729  0.4136 -0.0099
  152TMC2    O1 2374   2.177   2.878  12.583  0.1012 -0.0638  0.1373
  152TMC2    O2 2375   2.412   2.404  12.905 -0.0287  0.2798  0.3110
  152TMC2    O5 2376   2.288   2.279  12.750  0.2130 -0.0363  0.0583
  152TMC2    H5 2377   2.206   2.287  12.698 -0.6067 -0.7056  1.2293
  153MPD2     C 2378   1.645   2.283  12.769 -0.1359 -0.2247  0.0024
  153MPD2    C1 2379   1.679   2.415  12.769 -1.0125  0.8683  0.4058
  153MPD2    C2 2380   1.581   2.504  12.728 -0.0161  0.8743  0.7059
  153MPD2    C3 2381   1.450   2.467  12.702 -0.4009  0.2300 -0.7640
  153MPD2    C4 2382   1.426   2.331  12.694 -0.3493 -0.0438  0.1776
  153MPD2    C5 2383   1.520   2.242  12.727 -0.2495  0.1104 -0.4020
  153MPD2     H 2384   1.604   2.610  12.732 -0.2596  0.8018  3.7188
  153MPD2    H1 2385   1.328   2.285  12.682  0.0611 -0.8881  0.0354
  153MPD2    H2 2386   1.708   2.195  12.776  0.2144  0.1590  1.5884
  153MPD2    H3 2387   1.494   2.138  12.739  0.0795  0.2733  1.7561
  153MPD2     N 2388   1.350   2.560  12.679 -0.0638 -0.0458 -0.5923
  153MPD2    H5 2389   1.373   2.656  12.655 -3.5289  1.2801  1.3338
  153MPD2    N1 2390   1.815   2.452  12.783  0.8210 -0.1397 -1.1067
  153MPD2    H7 2391   1.886   2.379  12.777  0.1707 -0.7842 -0.9124
  154TMC2    C1 2392   3.842   3.461   0.474  0.4389  0.2059 -0.4480
  154TMC2    C2 2393   3.918   3.508   0.574 -0.5157  0.4232  0.9465
  154TMC2    C3 2394   4.001   3.420   0.631 -0.7761 -0.4177 -0.9041
  154TMC2    C4 2395   3.852   3.336   0.420  0.1326 -0.2074  0.1490
  154TMC2    C5 2396   3.945   3.254   0.479  0.0859  0.0825  0.1898
  154TMC2    C6 2397   4.024   3.291   0.579  0.2287  0.2200  0.1665
  154TMC2     C 2398   3.752   3.560   0.410 -0.2269  0.0776 -0.3425
  154TMC2     O 2399   3.762   3.673   0.446 -0.0303  0.0256  0.3129
  154TMC2     H 2400   3.884   3.594   0.631  0.3685 -0.1014  2.2662
  154TMC2    H1 2401   3.790   3.308   0.336  0.9945  0.0057 -0.5626
  154TMC2    H2 2402   4.073   3.209   0.629 -0.4297  0.3310  0.9904
  154TMC2    C7 2403   3.970   3.129   0.409  0.1550  0.6165 -0.5272
  154TMC2    C8 2404   4.075   3.466   0.757  0.2021  0.3520 -0.0978
  154TMC2    O1 2405   3.880   3.083   0.338 -0.0759  0.6866  0.1166
  154TMC2    O2 2406   4.054   3.574   0.811 -0.2881  0.1532  0.4191
  154TMC2    O5 2407   4.207   3.450   0.733  0.6568  0.0156  0.3655
  154TMC2    H5 2408   4.227   3.380   0.668 -0.0044 -0.1341  0.3222
  155MPD2     C 2409   3.509   3.574   0.141 -0.1133 -1.0413  0.1469
  155MPD2    C1 2410   3.566   3.608   0.258 -0.4499  0.0264  0.2035
  155MPD2    C2 2411   3.515   3.716   0.327 -0.0005  0.7571  0.1582
  155MPD2    C3 2412   3.403   3.785   0.277 -0.3164 -0.8473 -0.7017
  155MPD2    C4 2413   3.350   3.757   0.155  0.3312 -0.0835 -0.1646
  155MPD2    C5 2414   3.408   3.651   0.086  0.0532  0.3359  0.5771
  155MPD2     H 2415   3.553   3.748   0.423  0.0170 -1.0071  0.7508
  155MPD2    H1 2416   3.261   3.809   0.124  1.3370  1.4761 -0.4636
  155MPD2    H2 2417   3.547   3.493   0.080 -0.5224 -0.2558 -1.1626
  155MPD2    H3 2418   3.372   3.625  17.741 -0.0393  0.5943  0.5415
  155MPD2     N 2419   3.362   3.897   0.354 -0.4609 -0.5083 -0.9137
  155MPD2    H5 2420   3.408   3.906   0.445 -0.8027  0.3999 -0.8314
  155MPD2    N1 2421   3.660   3.520   0.312  0.1445  0.0877 -0.3603
  155MPD2    H7 2422   3.675   3.434   0.260  2.2046 -0.4019  1.0437
  156TMC2    C1 2423   2.620   0.186  11.384 -0.3674  0.2129  0.2729
  156TMC2    C2 2424   2.540   0.122  11.299 -0.1043  0.4063 -0.3585
  156TMC2    C3 2425   2.482   0.191  11.192 -0.0400 -0.7239  0.0590
  156TMC2    C4 2426   2.642   0.318  11.367 -0.0556  0.5752 -0.5570
  156TMC2    C5 2427   2.583   0.387  11.272 -0.1093  0.3358 -0.2605
  156TMC2    C6 2428   2.507   0.325  11.172 -0.4923  0.5845  0.0147
  156TMC2     C 2429   2.586   0.172  11.522 -0.7884 -0.5633  0.2711
  156TMC2     O 2430   2.587   0.280  11.587  0.2061 -0.3541  0.0337
  156TMC2     H 2431   2.511   0.020  11.323  1.6084 -0.7698 -3.2380
  156TMC2    H1 2432   2.723   0.370  11.417  1.1352 -0.2937 -1.5828
  156TMC2    H2 2433   2.451   0.386  11.103  0.2660 -0.1119 -1.2145
  156TMC2    C7 2434   2.558   0.531  11.284 -0.4815  0.5451 -0.4142
  156TMC2    C8 2435   2.400   0.099  11.109  0.3971 -0.0180  0.4303
  156TMC2    O1 2436   2.506   0.593  11.188 -0.5685  0.8007  0.2162
  156TMC2    O2 2437   2.391   4.718  11.131  0.5624  0.0982  0.0731
  156TMC2    O5 2438   2.346   0.155  10.998  0.5620 -0.7119  0.0559
  156TMC2    H5 2439   2.339   0.253  10.985  1.6926 -0.9636 -2.5475
  157MPD2     C 2440   2.500   4.611  11.723  0.1039 -0.3951  0.2241
  157MPD2    C1 2441   2.510   0.008  11.695 -0.1180 -0.7192 -0.8481
  157MPD2    C2 2442   2.475   0.101  11.784  0.0581 -0.5903  0.7418
  157MPD2    C3 2443   2.407   0.075  11.901  0.2732 -0.2757  0.4246
  157MPD2    C4 2444   2.392   4.679  11.929  0.4184  0.7960  0.1487
  157MPD2    C5 2445   2.434   4.581  11.843 -0.7249  0.5874 -0.0285
  157MPD2     H 2446   2.479   0.209  11.770 -0.8939 -0.3562  2.3673
  157MPD2    H1 2447   2.341   4.647  12.019  1.6538  1.7983  1.1965
  157MPD2    H2 2448   2.525   4.532  11.653 -1.0001 -1.8255  1.4378
  157MPD2    H3 2449   2.429   4.478  11.876 -1.1097  0.2963 -0.9863
  157MPD2     N 2450   2.346   0.179  11.970 -0.1959 -0.1421 -0.3709
  157MPD2    H5 2451   2.332   0.265  11.918 -0.4034 -0.3517 -0.6596
  157MPD2    N1 2452   2.567   0.038  11.564  0.1574 -0.5877  0.9030
  157MPD2    H7 2453   2.597   4.709  11.495  2.3718  0.4851  0.8124
  158TMC2    C1 2454   2.705   4.049  13.458 -0.5529  0.4309 -0.0898
  158TMC2    C2 2455   2.783   4.091  13.357  0.0573 -0.6710 -0.2673
  158TMC2    C3 2456   2.722   4.143  13.243  1.2055 -0.1017 -0.3539
  158TMC2    C4 2457   2.570   4.067  13.457  0.2503 -0.9004  0.3667
  158TMC2    C5 2458   2.509   4.118  13.346 -0.6017 -0.0578 -0.3915
  158TMC2    C6 2459   2.585   4.160  13.240 -0.6896 -0.1827  0.3724
  158TMC2     C 2460   2.774   3.987  13.574 -0.0735  0.0340 -0.1229
  158TMC2     O 2461   2.890   3.960  13.557  0.8954 -0.3471 -0.1149
  158TMC2     H 2462   2.889   4.070  13.365 -0.2983 -2.5257 -0.4098
  158TMC2    H1 2463   2.515   4.059  13.550 -0.0234 -1.0426  0.1926
  158TMC2    H2 2464   2.547   4.192  13.143  0.7489 -0.9689 -0.4370
  158TMC2    C7 2465   2.365   4.146  13.341  0.1558  0.2113  0.8872
  158TMC2    C8 2466   2.806   4.150  13.133 -0.2533  0.4540 -0.1644
  158TMC2    O1 2467   2.322   4.203  13.241  0.2371  0.0071 -0.2626
  158TMC2    O2 2468   2.932   4.160  13.138  0.1708 -0.3168  0.0760
  158TMC2    O5 2469   2.753   4.061  13.059  0.0841 -0.8699  0.0723
  158TMC2    H5 2470   2.669   4.027  13.097  1.5653 -0.9814  3.2939
  159MPD2     C 2471   2.784   3.772  14.047  0.5403  1.0527 -0.5426
  159MPD2    C1 2472   2.657   3.810  14.014 -0.5287 -0.0186  0.1052
  159MPD2    C2 2473   2.638   3.870  13.887 -0.4365  0.2356  0.1123
  159MPD2    C3 2474   2.735   3.895  13.797  0.5041 -0.7480 -0.0419
  159MPD2    C4 2475   2.863   3.860  13.842  0.4522  0.1277 -0.1470
  159MPD2    C5 2476   2.891   3.805  13.965 -0.7718 -0.5529  0.0714
  159MPD2     H 2477   2.539   3.906  13.859  0.7160  3.5930  0.3360
  159MPD2    H1 2478   2.949   3.884  13.782  0.0784  0.2680 -0.6307
  159MPD2    H2 2479   2.804   3.730  14.144  0.1118  1.1512 -0.4115
  159MPD2    H3 2480   2.995   3.779  13.979 -0.9621  0.2551  2.9709
  159MPD2     N 2481   2.690   3.951  13.675  0.1059 -0.1387  0.4164
  159MPD2    H5 2482   2.593   3.969  13.652 -0.1367  1.2495  2.4955
  159MPD2    N1 2483   2.551   3.788  14.107  1.1048 -0.2586 -0.4578
  159MPD2    H7 2484   2.575   3.766  14.203 -0.6162  2.7389  0.6831
  160TMC2    C1 2485   1.964   2.663   1.796  0.8513 -0.4018  0.5201
  160TMC2    C2 2486   2.028   2.549   1.758 -0.3881  0.2644 -0.4380
  160TMC2    C3 2487   2.160   2.548   1.739 -0.3844  0.2759 -0.9111
  160TMC2    C4 2488   2.036   2.780   1.812  0.4690  0.2509 -0.2449
  160TMC2    C5 2489   2.171   2.776   1.780  0.1342 -0.1578 -0.4628
  160TMC2    C6 2490   2.239   2.661   1.741 -0.3513 -0.2927 -0.1280
  160TMC2     C 2491   1.817   2.663   1.786  0.1207  0.9098  0.8878
  160TMC2     O 2492   1.763   2.563   1.744  0.1498 -0.4647  0.4503
  160TMC2     H 2493   1.974   2.457   1.741 -0.2029 -0.2228  1.6003
  160TMC2    H1 2494   1.996   2.873   1.851 -1.3160 -0.4403 -0.4084
  160TMC2    H2 2495   2.341   2.658   1.704 -0.5683  0.1943 -0.7626
  160TMC2    C7 2496   2.241   2.903   1.796 -0.3410  0.1719  0.1644
  160TMC2    C8 2497   2.239   2.431   1.724 -0.1584  0.4942 -0.2261
  160TMC2    O1 2498   2.204   2.981   1.886  0.3069  0.2210  0.1140
  160TMC2    O2 2499   2.351   2.412   1.770  0.2919  0.5203  0.0844
  160TMC2    O5 2500   2.167   2.340   1.664  0.8524  0.1410 -0.6839
  160TMC2    H5 2501   2.081   2.377   1.636  1.6015 -0.2743 -3.5282
  161MPD2     C 2502   1.535   2.739   1.802  0.2838  0.2123  0.1685
  161MPD2    C1 2503   1.635   2.834   1.801  0.1721  0.4020  0.2431
  161MPD2    C2 2504   1.605   2.969   1.797  0.7137 -0.0615  0.5655
  161MPD2    C3 2505   1.477   3.011   1.792 -0.8707  0.2670  0.9316
  161MPD2    C4 2506   1.376   2.916   1.788  0.0704  0.1396 -0.0484
  161MPD2    C5 2507   1.403   2.782   1.791 -0.1043 -0.0675  0.2986
  161MPD2     H 2508   1.674   3.053   1.801  0.6470 -0.0231  0.8473
  161MPD2    H1 2509   1.275   2.952   1.777 -0.2484 -1.0371 -0.8578
  161MPD2    H2 2510   1.549   2.632   1.815  0.4194  0.3531  1.1671
  161MPD2    H3 2511   1.327   2.704   1.794  1.5034 -1.7097 -2.0634
  161MPD2     N 2512   1.434   3.144   1.768 -0.1074 -0.0763  0.5895
  161MPD2    H5 2513   1.335   3.164   1.770 -0.3282 -1.0930 -0.7432
  161MPD2    N1 2514   1.768   2.796   1.793 -0.4113  0.2495  0.2021
  161MPD2    H7 2515   1.826   2.873   1.822 -0.7689 -0.2349  2.2018
  162TMC2    C1 2516   0.062   0.423   1.477 -0.1382  0.7025  0.0114
  162TMC2    C2 2517   0.182   0.490   1.497 -0.4033 -0.5163  0.1527
  162TMC2    C3 2518   0.270   0.412   1.569  0.4822 -0.0599  0.0684
  162TMC2    C4 2519   0.018   0.309   1.541  0.0113  0.4552  0.5730
  162TMC2    C5 2520   0.111   0.248   1.620 -0.5752  0.2745 -0.0274
  162TMC2    C6 2521   0.238   0.301   1.635 -0.0580 -0.4925 -0.2235
  162TMC2     C 2522   0.007   0.416   1.347 -0.2858 -0.4500 -0.1773
  162TMC2     O 2523   4.675   0.320   1.308  0.0214  0.4557  0.4172
  162TMC2     H 2524   0.213   0.564   1.424  0.6412 -0.7822  0.3333
  162TMC2    H1 2525   4.655   0.274   1.529  0.0826 -0.1034  1.5383
  162TMC2    H2 2526   0.315   0.244   1.687 -0.5104 -0.7078  0.2124
  162TMC2    C7 2527   0.072   0.121   1.666  0.0801  0.8627 -0.1979
  162TMC2    C8 2528   0.405   0.454   1.566  0.8561  0.3491 -0.1645
  162TMC2    O1 2529   4.693   0.087   1.648  0.2570  0.5898 -0.1021
  162TMC2    O2 2530   0.439   0.562   1.613  0.1791  0.2030 -0.4406
  162TMC2    O5 2531   0.479   0.344   1.570  0.6525  0.1934  0.1691
  162TMC2    H5 2532   0.442   0.258   1.541  1.0315 -0.1978  0.8475
  163MPD2     C 2533   4.700   0.619   0.871 -0.0131  0.1373 -0.5488
  163MPD2    C1 2534   4.716   0.486   0.915 -0.2621 -0.2661 -0.0596
  163MPD2    C2 2535   4.717   0.458   1.054 -0.5534  0.4737  0.0581
  163MPD2    C3 2536   4.725   0.560   1.143  0.0001  0.2796  0.2197
  163MPD2    C4 2537   4.719   0.691   1.098 -0.2018  0.7257 -0.5631
  163MPD2    C5 2538   4.697   0.719   0.966  0.1425 -0.2424 -0.8018
  163MPD2     H 2539   4.724   0.356   1.091  0.6983  0.4471 -0.2504
  163MPD2    H1 2540   4.729   0.775   1.166  0.0644 -1.1807  1.7606
  163MPD2    H2 2541   4.694   0.656   0.769 -2.1360  1.9079  0.2205
  163MPD2    H3 2542   4.691   0.823   0.934  1.2807  0.7442  2.2618
  163MPD2     N 2543   0.014   0.535   1.283 -0.3814  0.3808  0.7122
  163MPD2    H5 2544   0.025   0.616   1.344 -2.6756  0.6605  0.7727
  163MPD2    N1 2545   4.738   0.385   0.823 -0.0385  0.0462  0.3134
  163MPD2    H7 2546   0.002   0.414   0.725 -3.1131 -1.6639 -0.2738
  164TMC2    C1 2547   0.914   3.538  11.169 -0.0632  0.2909  0.6277
  164TMC2    C2 2548   0.971   3.609  11.063  0.0878 -0.2359  0.6898
  164TMC2    C3 2549   0.977   3.743  11.073  0.5729  0.1980 -0.0972
  164TMC2    C4 2550   0.867   3.592  11.286  0.1416  0.5734  0.4688
  164TMC2    C5 2551   0.878   3.731  11.285  0.0848 -0.9644 -0.2768
  164TMC2    C6 2552   0.932   3.809  11.182 -0.2277  0.2032 -0.4404
  164TMC2     C 2553   0.884   3.397  11.153 -0.2638 -0.4957 -0.4464
  164TMC2     O 2554   0.776   3.368  11.194  0.1555  0.4492 -0.8195
  164TMC2     H 2555   1.006   3.555  10.975 -1.3349  1.6946 -1.0620
  164TMC2    H1 2556   0.809   3.541  11.361 -0.1294 -1.5709 -1.2081
  164TMC2    H2 2557   0.935   3.917  11.193 -2.4301  0.1329  0.8098
  164TMC2    C7 2558   0.824   3.795  11.404  0.3219 -0.0699  0.1904
  164TMC2    C8 2559   0.960   3.807  10.942  0.1962  0.0239 -0.1920
  164TMC2    O1 2560   0.797   3.915  11.395  0.7216 -0.7122  0.8048
  164TMC2    O2 2561   0.862   3.776  10.878 -0.1874  0.0670 -0.3564
  164TMC2    O5 2562   1.035   3.921  10.948  0.1466  0.2333  0.0056
  164TMC2    H5 2563   1.091   3.914  11.028  0.7202 -2.9259 -0.6553
  165TMC2    C1 2564   2.399   2.712   2.100  0.2190  0.6539 -0.4280
  165TMC2    C2 2565   2.384   2.838   2.153  0.0711  0.3783 -0.2468
  165TMC2    C3 2566   2.462   2.942   2.109  0.1076  0.1244 -0.1114
  165TMC2    C4 2567   2.476   2.696   1.984  0.5596 -0.5886 -0.0851
  165TMC2    C5 2568   2.543   2.804   1.937 -0.4000  0.3441  0.8182
  165TMC2    C6 2569   2.545   2.925   2.002  0.0231 -0.1274 -0.2895
  165TMC2     C 2570   2.296   2.612   2.122 -0.5111  0.1250 -0.5124
  165TMC2     O 2571   2.326   2.496   2.120 -0.5501 -0.2448  0.1088
  165TMC2     H 2572   2.325   2.858   2.241  0.3032 -1.3259  0.3000
  165TMC2    H1 2573   2.464   2.602   1.931  1.5993 -0.5624 -0.3641
  165TMC2    H2 2574   2.603   3.008   1.965  0.5107 -0.1027  0.5202
  165TMC2    C7 2575   2.623   2.795   1.815  0.1504 -0.5368  0.2665
  165TMC2    C8 2576   2.469   3.067   2.180  0.2805 -0.6421 -0.2246
  165TMC2    O1 2577   2.594   2.694   1.748  0.0034  0.1421 -0.0323
  165TMC2    O2 2578   2.556   3.145   2.148 -0.5233 -0.0897 -0.0853
  165TMC2    O5 2579   2.346   3.117   2.195  0.0761 -0.3342 -0.5754
  165TMC2    H5 2580   2.275   3.050   2.194 -0.4569  0.2181  0.3281
  166MPD2     C 2581   1.810   2.490   2.105 -0.3133 -0.4289  0.1799
  166MPD2    C1 2582   1.918   2.414   2.070  0.0509 -0.0342 -0.6004
  166MPD2    C2 2583   2.042   2.474   2.085 -0.1419 -0.1982  0.6692
  166MPD2    C3 2584   2.051   2.601   2.142 -0.0075  0.3023  0.7547
  166MPD2    C4 2585   1.942   2.671   2.178  0.3924  0.2777 -0.9366
  166MPD2    C5 2586   1.818   2.616   2.165  0.0486  0.2169  0.8446
  166MPD2     H 2587   2.126   2.414   2.053  0.9984  1.4056  0.6549
  166MPD2    H1 2588   1.948   2.771   2.221  1.6295 -0.3023  0.2807
  166MPD2    H2 2589   1.709   2.452   2.097  0.0880 -1.5513  0.5323
  166MPD2    H3 2590   1.728   2.663   2.203 -0.9753 -0.3414 -0.8756
  166MPD2     N 2591   2.172   2.671   2.147 -0.4415 -0.0045 -0.3618
  166MPD2    H5 2592   2.162   2.769   2.170  0.7456 -0.2241  1.1397
  166MPD2    N1 2593   1.899   2.289   2.006 -0.2662 -1.0634  0.0909
  166MPD2    H7 2594   1.805   2.251   2.014 -0.0631 -1.2836  1.4128
  167TMC2    C1 2595   0.242   3.692  13.183  0.5976 -0.4682  0.2092
  167TMC2    C2 2596   0.161   3.777  13.254 -0.5946  0.0116  0.4657
  167TMC2    C3 2597   0.068   3.715  13.339  0.3904 -0.0663 -0.3187
  167TMC2    C4 2598   0.232   3.554  13.194 -0.0030 -0.1071  0.2104
  167TMC2    C5 2599   0.141   3.501  13.288  0.1422  0.0459  0.1206
  167TMC2    C6 2600   0.058   3.577  13.363  0.1332  0.5733  0.6983
  167TMC2     C 2601   0.318   3.750  13.076 -0.1727 -0.0220 -0.1325
  167TMC2     O 2602   0.326   3.872  13.081  0.2227 -0.4611  0.4897
  167TMC2     H 2603   0.149   3.882  13.229  0.7449  0.4734  1.8085
  167TMC2    H1 2604   0.306   3.489  13.147 -1.3338 -1.1086 -0.5265
  167TMC2    H2 2605   4.713   3.534  13.417 -1.2262  1.6149 -0.5827
  167TMC2    C7 2606   0.115   3.356  13.285 -0.1440  0.0926  0.0362
  167TMC2    C8 2607   4.703   3.797  13.390 -0.7875  0.6627 -0.1456
  167TMC2    O1 2608   0.055   3.314  13.381 -0.3609 -0.1856  0.0261
  167TMC2    O2 2609   4.661   3.898  13.337 -0.3972 -0.0216  0.2504
  167TMC2    O5 2610   4.657   3.748  13.507 -0.0860  0.5265  0.0900
  167TMC2    H5 2611   4.722   3.697  13.561  0.9999 -0.0039 -1.7135
  168MPD2     C 2612   0.457   3.815  12.829 -0.0231  0.4200  0.3847
  168MPD2    C1 2613   0.372   3.703  12.847  0.0606  0.1556  0.0464
  168MPD2    C2 2614   0.342   3.631  12.735  0.4579 -0.1062  0.4672
  168MPD2    C3 2615   0.393   3.663  12.611  0.5040 -1.0088 -0.6818
  168MPD2    C4 2616   0.479   3.766  12.599  0.4380  0.4343  0.7610
  168MPD2    C5 2617   0.516   3.840  12.707  0.1285  0.5218 -0.1549
  168MPD2     H 2618   0.277   3.545  12.747 -0.7311  0.5481 -1.2497
  168MPD2    H1 2619   0.521   3.808  12.508 -1.2368  1.0843  0.2944
  168MPD2    H2 2620   0.501   3.883  12.901  0.8088 -0.2464  0.5074
  168MPD2    H3 2621   0.573   3.932  12.692  1.3217  0.2383  2.6761
  168MPD2     N 2622   0.353   3.600  12.489 -0.4652  0.1007  0.1315
  168MPD2    H5 2623   0.379   3.642  12.400 -1.3114 -3.3176 -1.7439
  168MPD2    N1 2624   0.303   3.674  12.966  0.2780  0.1479  0.1793
  168MPD2    H7 2625   0.244   3.591  12.967  0.0352  0.3433  1.2246
  169MPD1     C 2626   2.424   3.669   9.190 -1.0118 -0.0184 -0.1045
  169MPD1    C1 2627   2.384   3.683   9.321 -0.2241  0.8040 -0.0411
  169MPD1    C2 2628   2.480   3.626   9.414  0.2462  0.2261 -0.0560
  169MPD1    C3 2629   2.603   3.573   9.375  0.1182 -0.7087  0.9155
  169MPD1    C4 2630   2.633   3.571   9.238 -0.1024 -0.2728  0.0244
  169MPD1    C5 2631   2.542   3.620   9.146  0.4918  0.5437  0.4113
  169MPD1     H 2632   2.457   3.627   9.520 -0.4264 -0.4405 -0.1949
  169MPD1    H1 2633   2.722   3.527   9.195  0.2136 -0.6740  1.0833
  169MPD1    H2 2634   2.359   3.705   9.111 -0.6049 -0.1833 -0.5144
  169MPD1    H3 2635   2.575   3.638   9.044  0.6263 -0.5059  0.2697
  169MPD1     N 2636   2.674   3.505   9.472  0.0113  0.7375 -0.5743
  169MPD1    H5 2637   2.646   3.513   9.569  0.8135 -1.8108 -0.1548
  169MPD1    N1 2638   2.265   3.745   9.359 -0.1039  0.1149  0.3293
  169MPD1    H6 2639   2.196   3.744   9.284 -2.9204 -0.8145  2.9240
  169MPD1    H7 2640   2.228   3.700   9.443  1.4224  1.9331  1.9790
  170MPD1     C 2641   0.442   0.601  13.405 -0.2459  0.3659  0.5658
  170MPD1    C1 2642   0.484   0.702  13.316 -0.2850 -0.4383 -0.0662
  170MPD1    C2 2643   0.599   0.768  13.351 -0.8359 -0.3679  0.1050
  170MPD1    C3 2644   0.674   0.751  13.464 -0.3774  0.0647 -0.1190
  170MPD1    C4 2645   0.637   0.648  13.549 -0.3737  0.1722  0.3700
  170MPD1    C5 2646   0.520   0.576  13.512 -0.7134  0.2308 -0.0042
  170MPD1     H 2647   0.631   0.851  13.288 -2.2954  0.6638  0.7305
  170MPD1    H1 2648   0.694   0.624  13.638  0.6888  0.1893 -0.3059
  170MPD1    H2 2649   0.350   0.545  13.395 -0.4277  0.6344  0.7316
  170MPD1    H3 2650   0.491   0.503  13.586  0.2887  0.8815  1.0146
  170MPD1     N 2651   0.781   0.836  13.483 -0.0643  0.3915  0.2673
  170MPD1    H5 2652   0.788   0.909  13.413  0.9387  1.2304  1.2241
  170MPD1    N1 2653   0.415   0.737  13.202 -0.5340 -0.3681 -0.1397
  170MPD1    H6 2654   0.323   0.693  13.197  0.1623 -1.9454  0.9066
  170MPD1    H7 2655   0.416   0.837  13.183 -2.3341 -0.1100  1.0502
  171MPD1     C 2656   4.272   3.307  15.622 -0.6452  0.2198  0.4509
  171MPD1    C1 2657   4.201   3.241  15.528  0.0135 -0.0037 -0.0484
  171MPD1    C2 2658   4.204   3.103  15.533 -0.2193 -0.5799  0.2360
  171MPD1    C3 2659   4.267   3.035  15.633 -0.3609  0.0485 -0.0961
  171MPD1    C4 2660   4.325   3.107  15.733 -0.2029  0.3023  0.1758
  171MPD1    C5 2661   4.338   3.241  15.730 -0.2587 -0.0117  0.0528
  171MPD1     H 2662   4.150   3.056  15.452 -1.1663  0.9822 -0.0475
  171MPD1    H1 2663   4.382   3.054  15.808  0.7166  2.9809  1.3629
  171MPD1    H2 2664   4.279   3.415  15.615  1.2454  0.2225  2.4738
  171MPD1    H3 2665   4.404   3.299  15.793 -0.8124 -0.4057  0.9832
  171MPD1     N 2666   4.280   2.894  15.655 -0.0692 -0.0171 -0.0533
  171MPD1    H5 2667   4.331   2.870  15.739 -0.1660 -1.1033 -0.3078
  171MPD1    N1 2668   4.129   3.314  15.429  0.6390  0.4476 -0.7128
  171MPD1    H6 2669   4.159   3.273  15.340  0.7822  0.1348 -0.5198
  171MPD1    H7 2670   4.142   3.415  15.434 -2.0867  0.7853 -0.6436
  172MPD1     C 2671   3.654   1.585  17.744 -0.2504 -0.2369  0.5754
  172MPD1    C1 2672   3.558   1.634   0.075  0.0775 -0.2632  0.2821
  172MPD1    C2 2673   3.561   1.776   0.106  0.3438 -0.1736  0.1671
  172MPD1    C3 2674   3.662   1.853   0.046 -0.3516  0.0784 -0.1869
  172MPD1    C4 2675   3.744   1.796  17.704  0.2157 -0.1359 -0.6873
  172MPD1    C5 2676   3.746   1.659  17.681 -0.2481 -0.0173  0.1750
  172MPD1     H 2677   3.485   1.813   0.174  1.3085  1.9523  0.0773
  172MPD1    H1 2678   3.808   1.860  17.645  2.7794 -2.1125 -0.0630
  172MPD1    H2 2679   3.657   1.481  17.713  1.7032  0.4433 -1.4616
  172MPD1    H3 2680   3.807   1.616  17.602 -1.4567 -0.2323 -0.6509
  172MPD1     N 2681   3.685   1.992   0.066 -0.3183  0.7405 -0.5233
  172MPD1    H5 2682   3.744   2.036  17.750 -1.8437  0.5966 -1.8849
  172MPD1    N1 2683   3.483   1.547   0.152  0.0568  0.5999  0.1028
  172MPD1    H6 2684   3.405   1.597   0.194 -0.2348  1.1782 -1.1066
  172MPD1    H7 2685   3.445   1.477   0.087 -0.3978 -0.3443  1.3891
  173MPD1     C 2686   0.040   0.845  14.065  0.0449  0.8987 -1.1277
  173MPD1    C1 2687   4.701   0.947  14.106 -0.1405 -0.1808  0.1995
  173MPD1    C2 2688   0.017   1.042  14.190 -0.2103 -0.8414  0.0122
  173MPD1    C3 2689   0.147   1.045  14.225 -0.0691 -0.2872 -0.4849
  173MPD1    C4 2690   0.224   0.939  14.187  0.4605  0.4004  0.1818
  173MPD1    C5 2691   0.168   0.845  14.112  0.1043  0.0376 -0.6505
  173MPD1     H 2692   4.693   1.124  14.223 -0.0837 -0.6955 -0.1063
  173MPD1    H1 2693   0.329   0.926  14.214  1.3155  1.8778 -2.4493
  173MPD1    H2 2694   4.733   0.757  14.021  2.1409 -1.0209  0.5815
  173MPD1    H3 2695   0.232   0.759  14.094  0.0339 -0.2103  0.3084
  173MPD1     N 2696   0.206   1.159  14.288  0.2630 -0.1658  1.0464
  173MPD1    H5 2697   0.146   1.231  14.327 -0.3493  0.2344 -0.6810
  173MPD1    N1 2698   4.559   0.947  14.089 -0.9753  0.7535  0.3388
  173MPD1    H6 2699   4.516   0.886  14.019  3.1326 -1.1079 -0.5753
  173MPD1    H7 2700   4.528   1.043  14.075  1.1036  1.1239 -1.8337
  174MPD1     C 2701   1.154   1.196  14.459  0.5211 -0.0736  0.2637
  174MPD1    C1 2702   1.090   1.200  14.578  0.1027 -0.0046 -0.3064
  174MPD1    C2 2703   0.964   1.247  14.578  0.4873 -0.2101 -0.4018
  174MPD1    C3 2704   0.896   1.283  14.462 -0.2467  0.5040 -0.5551
  174MPD1    C4 2705   0.963   1.285  14.341  0.4532  0.0213 -0.3899
  174MPD1    C5 2706   1.088   1.232  14.340  0.1126  0.3586 -0.6220
  174MPD1     H 2707   0.911   1.245  14.672  1.7237  1.4397  0.3371
  174MPD1    H1 2708   0.922   1.326  14.249  1.3668 -1.5887 -1.4955
  174MPD1    H2 2709   1.251   1.153  14.441  0.3995  0.2873 -1.2390
  174MPD1    H3 2710   1.136   1.219  14.244 -1.2361  0.2812 -1.2791
  174MPD1     N 2711   0.761   1.337  14.465 -0.2574  0.3635 -0.2210
  174MPD1    H5 2712   0.729   1.373  14.376  2.3836 -0.9552 -1.6939
  174MPD1    N1 2713   1.167   1.140  14.686 -0.0961  0.2156 -0.5866
  174MPD1    H6 2714   1.140   1.182  14.775 -0.6350 -0.7014 -0.3196
  174MPD1    H7 2715   1.268   1.149  14.673 -0.0683  0.1937 -0.3869
  175MPD1     C 2716   3.105   2.870  15.401  0.2100 -0.8297 -0.3296
  175MPD1    C1 2717   3.212   2.825  15.469  0.4441 -0.0593 -0.0407
  175MPD1    C2 2718   3.218   2.842  15.603 -0.7077 -0.7941 -0.3275
  175MPD1    C3 2719   3.119   2.916  15.668  0.1153  0.5552 -0.7839
  175MPD1    C4 2720   3.016   2.968  15.594 -0.1625  0.5364  0.1447
  175MPD1    C5 2721   3.007   2.946  15.462 -0.3450  0.1510  0.3359
  175MPD1     H 2722   3.307   2.797  15.645  0.5022 -0.7999 -2.8968
  175MPD1    H1 2723   2.945   3.036  15.638  1.1205 -0.2447  3.4090
  175MPD1    H2 2724   3.115   2.873  15.293  2.6310  2.0327 -0.0312
  175MPD1    H3 2725   2.922   2.977  15.402 -0.0665 -1.1203 -0.7226
  175MPD1     N 2726   3.122   2.931  15.806  0.2601  0.0162 -0.1577
  175MPD1    H5 2727   3.037   2.972  15.843 -0.7361 -0.9371 -1.3871
  175MPD1    N1 2728   3.305   2.739  15.416  0.0186  0.1835 -0.3791
  175MPD1    H6 2729   3.394   2.737  15.465  0.4129  0.8058 -1.0718
  175MPD1    H7 2730   3.327   2.752  15.317 -0.2444  0.0639 -0.4538
  176MPD1     C 2731   1.311   0.634  17.670 -0.0675  0.0033  0.3884
  176MPD1    C1 2732   1.304   0.730   0.014 -0.4655 -0.5145  0.0645
  176MPD1    C2 2733   1.182   0.790   0.042 -0.4678  0.9385 -0.0070
  176MPD1    C3 2734   1.071   0.758  17.719  0.0511  0.6122  0.4564
  176MPD1    C4 2735   1.081   0.658  17.619  0.1218 -0.4488  0.1399
  176MPD1    C5 2736   1.198   0.600  17.596 -0.4321 -1.9885 -0.0946
  176MPD1     H 2737   1.172   0.866   0.119  0.8526  1.7270 -0.6070
  176MPD1    H1 2738   1.000   0.640  17.549  1.2843 -0.5700 -1.1623
  176MPD1    H2 2739   1.399   0.574  17.648  0.3973  0.7514  0.2018
  176MPD1    H3 2740   1.207   0.526  17.519  2.7913 -2.0375  0.3462
  176MPD1     N 2741   0.949   0.821   0.003  0.3816  0.2031 -1.2107
  176MPD1    H5 2742   0.967   0.881   0.083 -1.2056 -2.7946  1.3855
  176MPD1    N1 2743   1.417   0.767   0.084 -0.4138  0.1302 -0.4585
  176MPD1    H6 2744   1.481   0.688   0.081  0.4462  0.7974  0.4086
  176MPD1    H7 2745   1.389   0.790   0.179 -0.5888  1.3583 -0.8009
  177MPD1     C 2746   4.026   4.206  10.468  0.2724 -0.2003  0.4207
  177MPD1    C1 2747   3.924   4.126  10.408 -0.9612 -0.2822 -0.1198
  177MPD1    C2 2748   3.868   4.167  10.287 -0.1572 -0.2143 -0.6149
  177MPD1    C3 2749   3.922   4.275  10.222  0.6139  0.3886 -0.3484
  177MPD1    C4 2750   4.012   4.357  10.294  0.0544 -0.4047 -0.3547
  177MPD1    C5 2751   4.063   4.325  10.413 -0.5777  0.6354  0.3556
  177MPD1     H 2752   3.787   4.102  10.253 -0.8637  1.1491 -1.5304
  177MPD1    H1 2753   4.050   4.445  10.242 -0.3000 -0.6377 -1.0041
  177MPD1    H2 2754   4.076   4.178  10.560  1.6357  1.8789  0.3260
  177MPD1    H3 2755   4.134   4.394  10.458  0.4223  0.7675 -1.4664
  177MPD1     N 2756   3.863   4.309  10.096 -0.4338 -0.1201  0.4119
  177MPD1    H5 2757   3.791   4.251  10.055 -1.0285 -0.4427  1.9473
  177MPD1    N1 2758   3.911   3.992  10.450  0.3172  0.0638 -0.2215
  177MPD1    H6 2759   3.936   3.987  10.549 -1.2992 -2.6306  0.0610
  177MPD1    H7 2760   3.820   3.950  10.432 -0.3412  1.6333 -0.5588
  178MPD1     C 2761   1.097   1.202   0.415 -0.8103  0.6155 -0.2441
  178MPD1    C1 2762   0.996   1.219   0.324  0.1392 -0.2772 -0.1175
  178MPD1    C2 2763   1.025   1.207   0.187  0.4224  0.5372  0.1406
  178MPD1    C3 2764   1.157   1.188   0.154  0.3889  0.2569 -0.3072
  178MPD1    C4 2765   1.256   1.181   0.247  0.5846 -0.2243 -0.2364
  178MPD1    C5 2766   1.227   1.184   0.380 -0.1114  0.4951  0.7990
  178MPD1     H 2767   0.939   1.208   0.121 -1.1199 -1.0807  2.1368
  178MPD1    H1 2768   1.357   1.171   0.208  0.3276  1.2527 -1.2614
  178MPD1    H2 2769   1.077   1.198   0.522  0.8025 -1.0732  0.0079
  178MPD1    H3 2770   1.297   1.180   0.463 -0.3889 -1.0268  0.9489
  178MPD1     N 2771   1.193   1.158   0.019 -0.3807 -0.3092 -0.2823
  178MPD1    H5 2772   1.293   1.141   0.015 -0.5914 -1.6545  0.2133
  178MPD1    N1 2773   0.863   1.195   0.363 -0.1005 -0.4757  0.4354
  178MPD1    H6 2774   0.834   1.240   0.450 -1.7529  0.2666 -0.4959
  178MPD1    H7 2775   0.800   1.236   0.295  1.0360  0.4571 -0.0643
  179MPD1     C 2776   0.472   4.570  16.375 -0.1241  0.1305  0.8679
  179MPD1    C1 2777   0.416   4.476  16.458  0.0208  0.3166 -0.5635
  179MPD1    C2 2778   0.426   4.343  16.409 -0.5262  0.4963  0.0904
  179MPD1    C3 2779   0.489   4.309  16.294  0.0043 -0.7286  0.6481
  179MPD1    C4 2780   0.531   4.412  16.212 -0.3071 -0.1384  0.3581
  179MPD1    C5 2781   0.530   4.541  16.251  0.4525  0.0568 -0.9450
  179MPD1     H 2782   0.393   4.261  16.472 -2.6328  0.7417 -0.7238
  179MPD1    H1 2783   0.582   4.394  16.118 -0.5986  0.1573  0.1420
  179MPD1    H2 2784   0.489   4.671  16.410  1.2760 -0.4218  1.7865
  179MPD1    H3 2785   0.577   4.622  16.196 -1.6558  0.1124 -2.6849
  179MPD1     N 2786   0.515   4.182  16.250 -0.4314  0.7594  0.2455
  179MPD1    H5 2787   0.580   4.186  16.172 -0.2331  0.2250  0.3869
  179MPD1    N1 2788   0.371   4.522  16.585  0.2194 -0.1477 -1.2641
  179MPD1    H6 2789   0.342   4.618  16.571 -0.4239 -0.1615  0.0331
  179MPD1    H7 2790   0.287   4.469  16.608 -0.1419  0.1277 -1.9535
  180MPD1     C 2791   4.122   0.309  14.922 -0.0828  0.2124  0.3787
  180MPD1    C1 2792   4.235   0.380  14.935  0.0376  0.7151  0.3033
  180MPD1    C2 2793   4.340   0.350  14.855  0.0346  0.3881 -0.1444
  180MPD1    C3 2794   4.317   0.267  14.741  0.0915  0.7018  0.0994
  180MPD1    C4 2795   4.201   0.196  14.733  0.1100  0.2741 -0.2048
  180MPD1    C5 2796   4.100   0.224  14.817 -0.2403 -0.0612  0.1623
  180MPD1     H 2797   4.429   0.412  14.864  1.1339 -1.0160 -1.4224
  180MPD1    H1 2798   4.186   0.127  14.650  0.6212 -0.6145  0.4402
  180MPD1    H2 2799   4.037   0.331  14.986  0.1662  0.1265  0.7399
  180MPD1    H3 2800   4.002   0.183  14.798  0.7321 -1.5972 -1.4949
  180MPD1     N 2801   4.432   0.244  14.663 -0.4037 -0.1150 -0.0011
  180MPD1    H5 2802   4.507   0.307  14.687 -2.7855  1.9452  2.0807
  180MPD1    N1 2803   4.247   0.477  15.043 -0.2944  0.5141 -0.1160
  180MPD1    H6 2804   4.167   0.540  15.050 -0.2163  0.9430 -2.9043
  180MPD1    H7 2805   4.327   0.538  15.028  2.9369 -3.4878  0.9450
  181MPD1     C 2806   2.021   1.318  10.144 -0.2836  0.2378  0.5433
  181MPD1    C1 2807   2.009   1.444  10.098 -0.2650 -0.1542  0.2364
  181MPD1    C2 2808   2.117   1.528  10.094  0.1721 -0.0098  0.1546
  181MPD1    C3 2809   2.239   1.497  10.144  0.1499  0.0525  0.3154
  181MPD1    C4 2810   2.251   1.372  10.200 -0.1144  0.5683  0.1034
  181MPD1    C5 2811   2.145   1.284  10.193 -0.5109  0.2301  0.7079
  181MPD1     H 2812   2.092   1.622  10.046  0.7344  0.4023  0.6610
  181MPD1    H1 2813   2.347   1.350  10.245  0.4187 -1.0787 -1.8261
  181MPD1    H2 2814   1.941   1.245  10.148  0.9658 -1.2776 -1.6544
  181MPD1    H3 2815   2.150   1.183  10.232 -0.3983  0.0615  0.2606
  181MPD1     N 2816   2.354   1.574  10.151 -0.3806  0.2619  0.5290
  181MPD1    H5 2817   2.442   1.531  10.178  0.9299  3.4018  1.2876
  181MPD1    N1 2818   1.879   1.494  10.076 -0.0381  0.1929 -0.0923
  181MPD1    H6 2819   1.835   1.420  10.021  0.0444 -0.0208  0.1297
  181MPD1    H7 2820   1.872   1.582  10.026 -0.2169  0.2423  0.0179
  182MPD1     C 2821   3.547   1.861   2.326  0.4794  0.0005 -0.2512
  182MPD1    C1 2822   3.601   1.795   2.215  0.2714  0.0165 -0.2393
  182MPD1    C2 2823   3.529   1.801   2.096 -0.4119 -0.7160 -0.3504
  182MPD1    C3 2824   3.404   1.869   2.092  0.4584 -0.1590 -0.3436
  182MPD1    C4 2825   3.349   1.914   2.211 -1.4709  0.6774 -0.1274
  182MPD1    C5 2826   3.425   1.917   2.323 -0.7346  0.5563  0.2520
  182MPD1     H 2827   3.577   1.765   2.006  0.6995 -1.5469  0.5790
  182MPD1    H1 2828   3.255   1.969   2.202 -1.8048 -0.1317 -1.6262
  182MPD1    H2 2829   3.600   1.871   2.420  0.1070  0.3406 -0.0764
  182MPD1    H3 2830   3.378   1.956   2.413 -1.7540 -0.2249  0.0498
  182MPD1     N 2831   3.330   1.870   1.968  0.5775  0.0348  0.1069
  182MPD1    H5 2832   3.248   1.931   1.971 -0.6706 -1.7647  2.6504
  182MPD1    N1 2833   3.739   1.762   2.220  0.2900  0.6774 -0.9711
  182MPD1    H6 2834   3.778   1.730   2.308  0.3013  2.2209 -0.4233
  182MPD1    H7 2835   3.763   1.690   2.152 -0.5738  1.2005 -1.8373
  183MPD1     C 2836   3.319   1.237   9.310  0.1139  0.2705 -0.2241
  183MPD1    C1 2837   3.287   1.364   9.335  0.7963  0.5388  0.1774
  183MPD1    C2 2838   3.314   1.412   9.463 -0.7691  0.1349  0.1673
  183MPD1    C3 2839   3.364   1.335   9.563  0.4132 -0.2910 -0.5111
  183MPD1    C4 2840   3.395   1.206   9.536  0.4376  0.3532  0.7088
  183MPD1    C5 2841   3.367   1.156   9.412  0.0269  0.0851  0.3535
  183MPD1     H 2842   3.273   1.511   9.481  1.3814  1.4253 -2.0024
  183MPD1    H1 2843   3.427   1.144   9.620 -0.2149 -2.6768 -1.2599
  183MPD1    H2 2844   3.324   1.196   9.210 -1.7622  0.1461 -0.2532
  183MPD1    H3 2845   3.394   1.054   9.388  0.9522  0.2513  0.6444
  183MPD1     N 2846   3.372   1.394   9.689  0.6211  0.4648 -0.3076
  183MPD1    H5 2847   3.348   1.492   9.684  1.9439  0.7603 -0.8110
  183MPD1    N1 2848   3.243   1.448   9.235 -0.2110 -0.4164 -0.1646
  183MPD1    H6 2849   3.187   1.528   9.263  0.5097 -0.2796  0.8874
  183MPD1    H7 2850   3.195   1.398   9.160 -0.0889  0.3720 -0.7589
  184MPD1     C 2851   2.516   3.917   9.999 -0.4104  0.3585  0.6114
  184MPD1    C1 2852   2.515   3.975   9.871  0.3385 -0.2937  1.1340
  184MPD1    C2 2853   2.630   4.003   9.804  0.7488  0.6644 -0.0929
  184MPD1    C3 2854   2.747   4.009   9.873  0.0656 -0.6447 -0.1412
  184MPD1    C4 2855   2.750   3.964  10.000  0.6705 -0.1105  0.3903
  184MPD1    C5 2856   2.639   3.907  10.063 -0.1776  0.0307 -0.1549
  184MPD1     H 2857   2.625   4.022   9.697  2.5342  0.8507 -0.1363
  184MPD1    H1 2858   2.844   3.969  10.054  0.8664 -0.4227  0.0717
  184MPD1    H2 2859   2.425   3.886  10.048 -1.4514 -1.0133 -2.2182
  184MPD1    H3 2860   2.632   3.874  10.166  0.0825  0.4122 -0.0113
  184MPD1     N 2861   2.873   4.033   9.817  0.5401  0.0273  0.0016
  184MPD1    H5 2862   2.950   4.043   9.883 -0.4892  5.5529  0.3442
  184MPD1    N1 2863   2.393   3.958   9.803 -0.0706  0.5361 -0.0154
  184MPD1    H6 2864   2.322   3.991   9.867 -1.7538  1.1212 -2.1998
  184MPD1    H7 2865   2.398   4.019   9.722  0.4042  0.5453  0.0185
  185MPD1     C 2866   3.587   4.125   9.011 -0.6837 -0.1194 -0.4764
  185MPD1    C1 2867   3.455   4.133   8.991 -0.6231 -0.2523  0.4098
  185MPD1    C2 2868   3.371   4.157   9.102  0.7189 -0.7640  0.5152
  185MPD1    C3 2869   3.420   4.193   9.226  0.5554 -0.2859 -0.6544
  185MPD1    C4 2870   3.554   4.210   9.234 -0.0743 -0.4180 -0.5111
  185MPD1    C5 2871   3.633   4.170   9.131 -0.3831 -0.7309 -0.5563
  185MPD1     H 2872   3.265   4.140   9.089  0.2422  1.8672  0.9773
  185MPD1    H1 2873   3.602   4.250   9.323  1.0422  0.1856 -1.4025
  185MPD1    H2 2874   3.659   4.094   8.936 -0.9277 -0.2952 -0.6369
  185MPD1    H3 2875   3.739   4.174   9.154 -0.3392 -0.8348 -0.7429
  185MPD1     N 2876   3.346   4.209   9.345  0.0348  0.3241 -0.1596
  185MPD1    H5 2877   3.407   4.237   9.421  0.7888 -1.5206 -0.0840
  185MPD1    N1 2878   3.403   4.085   8.869  0.0654  0.9948  0.2055
  185MPD1    H6 2879   3.313   4.127   8.845 -0.5753 -0.6389 -0.2016
  185MPD1    H7 2880   3.463   4.097   8.788  0.5469 -1.2357  0.2313
  186MPD1     C 2881   0.900   3.632  16.183 -0.7748 -0.2401  0.4576
  186MPD1    C1 2882   0.834   3.605  16.303 -0.0840 -0.1660  0.5522
  186MPD1    C2 2883   0.798   3.716  16.383  0.2905  0.4763  0.2613
  186MPD1    C3 2884   0.808   3.846  16.331  0.6102  0.1089 -0.2347
  186MPD1    C4 2885   0.873   3.869  16.215 -0.4777  0.4611  0.6990
  186MPD1    C5 2886   0.907   3.761  16.142  1.1994  0.5125  0.0625
  186MPD1     H 2887   0.757   3.697  16.482 -0.4220  0.2184 -0.0785
  186MPD1    H1 2888   0.894   3.967  16.174 -0.0213 -0.0042 -0.1900
  186MPD1    H2 2889   0.933   3.556  16.113 -2.7712 -0.1503 -0.5775
  186MPD1    H3 2890   0.962   3.786  16.053 -0.3880  2.9540 -0.2157
  186MPD1     N 2891   0.788   3.964  16.408  0.3988  0.1017  0.2491
  186MPD1    H5 2892   0.781   4.046  16.348  0.6080 -0.7130 -0.8892
  186MPD1    N1 2893   0.819   3.474  16.346  0.3338 -0.0639  0.7048
  186MPD1    H6 2894   0.730   3.456  16.393 -0.5125  1.7739 -0.2175
  186MPD1    H7 2895   0.816   3.413  16.264  0.2080 -1.4221  1.7140
  187MPD1     C 2896   0.677   1.514   0.313 -0.7710 -0.0598  0.0024
  187MPD1    C1 2897   0.561   1.439   0.325  0.1462  0.4276  0.0847
  187MPD1    C2 2898   0.455   1.453   0.233  0.2311 -0.0603 -0.9084
  187MPD1    C3 2899   0.467   1.533   0.118 -0.0526 -0.3173  0.0407
  187MPD1    C4 2900   0.586   1.600   0.098 -0.0631  0.6384  0.5276
  187MPD1    C5 2901   0.688   1.595   0.192  0.2671 -0.3785 -0.4129
  187MPD1     H 2902   0.360   1.404   0.245  0.2042  0.1879 -0.1025
  187MPD1    H1 2903   0.606   1.651   0.005  0.5856  1.1782  0.9612
  187MPD1    H2 2904   0.746   1.518   0.396 -1.4217  1.0067  0.4931
  187MPD1    H3 2905   0.774   1.658   0.173  0.7944 -0.8667  0.3345
  187MPD1     N 2906   0.372   1.549   0.014  0.2044  0.2394 -0.2442
  187MPD1    H5 2907   0.390   1.630  17.709  1.1359  0.1443 -0.0859
  187MPD1    N1 2908   0.534   1.369   0.446 -0.3035 -0.7794 -0.0664
  187MPD1    H6 2909   0.618   1.352   0.501  0.9736  0.0865 -1.7671
  187MPD1    H7 2910   0.482   1.282   0.435  0.2183 -1.4999  3.1729
  188MPD1     C 2911   0.702   1.111  10.509  0.2562  0.2007 -0.2445
  188MPD1    C1 2912   0.782   1.021  10.581  0.0090  0.0014 -0.3027
  188MPD1    C2 2913   0.770   0.883  10.555  0.2824  0.2639  0.0181
  188MPD1    C3 2914   0.690   0.841  10.458  0.8500  0.1103 -0.5998
  188MPD1    C4 2915   0.635   0.931  10.374 -0.5359 -0.0216  0.1035
  188MPD1    C5 2916   0.636   1.066  10.399  0.4140 -0.2005 -0.5287
  188MPD1     H 2917   0.827   0.813  10.615  0.0555  1.0271  1.1384
  188MPD1    H1 2918   0.559   0.905  10.301 -0.8964 -0.3596  0.6052
  188MPD1    H2 2919   0.705   1.216  10.535 -0.8056  0.1162  0.2345
  188MPD1    H3 2920   0.558   1.127  10.355 -1.3549 -1.8869  0.2460
  188MPD1     N 2921   0.660   0.704  10.421  0.2397  0.0721  0.3817
  188MPD1    H5 2922   0.601   0.702  10.339  0.5349  1.9449  0.1227
  188MPD1    N1 2923   0.851   1.071  10.694 -0.1382 -0.8124 -0.6239
  188MPD1    H6 2924   0.875   1.169  10.684 -0.9222 -0.6566 -0.9876
  188MPD1    H7 2925   0.938   1.025  10.719  0.1338 -0.2005 -0.4499
  189MPD1     C 2926   2.484   2.194   0.728  0.5341 -0.8854 -0.0424
  189MPD1    C1 2927   2.398   2.113   0.662 -0.4167  0.4222  0.7510
  189MPD1    C2 2928   2.285   2.172   0.615  0.0263  0.0045 -0.1403
  189MPD1    C3 2929   2.249   2.310   0.640  0.4847  0.7942  0.1834
  189MPD1    C4 2930   2.334   2.384   0.719  0.5892  0.3029  0.1483
  189MPD1    C5 2931   2.445   2.317   0.765 -0.6389 -0.1530  0.5564
  189MPD1     H 2932   2.235   2.100   0.551  0.8274  1.5323 -2.4964
  189MPD1    H1 2933   2.321   2.481   0.765  0.2716  0.1082  0.4755
  189MPD1    H2 2934   2.578   2.151   0.761  0.4251  0.3440  1.8538
  189MPD1    H3 2935   2.514   2.373   0.827  0.7265 -3.2060  1.8111
  189MPD1     N 2936   2.122   2.361   0.601  0.1215  0.5271  0.2804
  189MPD1    H5 2937   2.074   2.307   0.530  1.0325  0.6346 -0.4205
  189MPD1    N1 2938   2.435   1.982   0.616  0.0923 -0.0533  0.5898
  189MPD1    H6 2939   2.489   1.927   0.683  1.1647 -1.6059 -1.5448
  189MPD1    H7 2940   2.362   1.922   0.579  1.0262 -1.2381  0.6833
  190MPD1     C 2941   4.613   0.513  16.468 -0.2802 -0.1380  0.3855
  190MPD1    C1 2942   4.721   0.564  16.532 -1.3193  0.1772 -0.3813
  190MPD1    C2 2943   0.091   0.595  16.456  0.8971 -0.0616 -0.3749
  190MPD1    C3 2944   0.105   0.567  16.325  0.2751  0.4646 -0.0786
  190MPD1    C4 2945   4.727   0.531  16.262  1.5363 -0.0747  0.4409
  190MPD1    C5 2946   4.617   0.510  16.333 -0.0301 -0.0723 -0.0947
  190MPD1     H 2947   0.164   0.658  16.505  0.0141  1.3726 -0.9032
  190MPD1    H1 2948   4.719   0.537  16.154  0.2367 -2.3652  0.4095
  190MPD1    H2 2949   4.514   0.504  16.513 -0.5988  3.4770  0.3634
  190MPD1    H3 2950   4.522   0.490  16.285 -0.1442 -1.1915  0.5799
  190MPD1     N 2951   0.235   0.574  16.269  0.3261  0.2583  0.3148
  190MPD1    H5 2952   0.306   0.591  16.339  0.4853 -1.3407  0.5418
  190MPD1    N1 2953   4.707   0.616  16.660 -0.3994  0.3347  0.4998
  190MPD1    H6 2954   0.046   0.602  16.724  0.6924  1.8927 -0.5020
  190MPD1    H7 2955   4.628   0.576  16.710  0.9950 -1.1960  1.4681
  191MPD1     C 2956   4.717   1.179  13.357 -0.4153 -0.5252 -1.0088
  191MPD1    C1 2957   0.050   1.295  13.343  0.3756  0.3420  0.2347
  191MPD1    C2 2958   4.727   1.392  13.272  0.6325 -0.1778 -0.5672
  191MPD1    C3 2959   4.600   1.379  13.217 -0.0855  0.1953  0.1953
  191MPD1    C4 2960   4.534   1.257  13.216  0.1452  0.2173  0.6173
  191MPD1    C5 2961   4.593   1.158  13.293 -0.0579 -0.2656 -0.3455
  191MPD1     H 2962   0.026   1.493  13.268  1.4699 -0.4805 -0.2939
  191MPD1    H1 2963   4.441   1.241  13.163  2.3169 -0.1622 -3.0419
  191MPD1    H2 2964   0.033   1.100  13.406  0.8059  0.0741 -1.4249
  191MPD1    H3 2965   4.542   1.062  13.296  0.5779 -0.5264  1.9221
  191MPD1     N 2966   4.535   1.491  13.163 -0.0409 -0.7029  0.1453
  191MPD1    H5 2967   4.590   1.575  13.151 -1.8668  0.5149  0.3632
  191MPD1    N1 2968   0.166   1.316  13.422  0.3134 -0.5974  0.6966
  191MPD1    H6 2969   0.214   1.229  13.443  0.3390 -0.4307  1.3296
  191MPD1    H7 2970   0.231   1.391  13.398 -0.2385 -0.9922 -1.9999
  192MPD1     C 2971   3.610   2.111  13.111 -0.0742 -0.3173 -0.1092
  192MPD1    C1 2972   3.646   2.014  13.201 -0.1416  0.2717  0.2680
  192MPD1    C2 2973   3.774   1.964  13.199 -0.1181  0.0869  0.2519
  192MPD1    C3 2974   3.877   2.005  13.114  0.0684  0.2300  0.5321
  192MPD1    C4 2975   3.830   2.100  13.024 -0.2860 -0.5351  0.0455
  192MPD1    C5 2976   3.706   2.155  13.035  0.0756  0.3032  0.5373
  192MPD1     H 2977   3.788   1.893  13.280  1.9411 -0.7341 -0.8058
  192MPD1    H1 2978   3.891   2.152  12.951  0.5033 -1.4296  0.0728
  192MPD1    H2 2979   3.512   2.158  13.105 -0.8493 -1.7678  1.0815
  192MPD1    H3 2980   3.675   2.239  12.974  0.3182 -1.4314 -1.9662
  192MPD1     N 2981   4.014   1.954  13.108 -0.4763 -0.2103 -0.4644
  192MPD1    H5 2982   4.082   1.996  13.045 -1.0312  1.2437 -0.1141
  192MPD1    N1 2983   3.558   1.953  13.290  0.1365 -0.8504  0.0975
  192MPD1    H6 2984   3.604   1.901  13.364  1.1299  0.9903  0.7790
  192MPD1    H7 2985   3.486   2.016  13.327 -0.0640  0.2275 -2.1261
  193MPD1     C 2986   3.896   2.369  16.305 -0.0877  0.3953  0.0190
  193MPD1    C1 2987   4.006   2.311  16.372  1.1154 -0.5051  0.4987
  193MPD1    C2 2988   4.087   2.395  16.451  0.0393 -0.0325  0.7864
  193MPD1    C3 2989   4.058   2.533  16.460 -0.3165 -0.2897 -0.1094
  193MPD1    C4 2990   3.940   2.583  16.395 -0.3019 -1.4400  0.0432
  193MPD1    C5 2991   3.862   2.499  16.324  1.0995 -0.1663 -0.4648
  193MPD1     H 2992   4.178   2.359  16.495 -0.4478 -0.5290  1.3830
  193MPD1    H1 2993   3.918   2.689  16.393  3.7728 -0.5475  2.4463
  193MPD1    H2 2994   3.834   2.303  16.246  0.5862 -1.5873  1.5005
  193MPD1    H3 2995   3.775   2.538  16.272  0.8698  0.4145  0.3411
  193MPD1     N 2996   4.138   2.624  16.530 -0.5056  0.0100  0.6002
  193MPD1    H5 2997   4.108   2.720  16.533  1.0334  0.4508  1.6797
  193MPD1    N1 2998   4.062   2.187  16.329  0.4450  0.0111  0.1719
  193MPD1    H6 2999   3.998   2.110  16.313  0.3566 -0.5726  3.5108
  193MPD1    H7 3000   4.131   2.153  16.395  0.3367  0.8324  0.6993
  194MPD1     C 3001   2.157   0.335  16.886  0.5465 -0.1431 -0.1397
  194MPD1    C1 3002   2.131   0.251  16.785 -0.2389 -0.0661  0.2350
  194MPD1    C2 3003   2.170   0.119  16.794 -0.6311  0.4417 -0.2163
  194MPD1    C3 3004   2.243   0.073  16.905  0.5675 -0.1824 -0.2797
  194MPD1    C4 3005   2.284   0.170  16.991 -0.0799  0.1274  0.6828
  194MPD1    C5 3006   2.228   0.291  16.992 -0.2877 -0.6530  0.5939
  194MPD1     H 3007   2.121   0.050  16.728  0.6328 -0.3811 -0.3047
  194MPD1    H1 3008   2.352   0.133  17.067  0.5987  1.6779  0.8354
  194MPD1    H2 3009   2.118   0.436  16.896  2.4275  0.8065 -2.2679
  194MPD1    H3 3010   2.249   0.358  17.075  0.7384 -0.8856  0.5253
  194MPD1     N 3011   2.263   4.676  16.939  0.5452  0.0113 -0.4984
  194MPD1    H5 3012   2.306   4.661  17.030  0.0196  1.4424 -0.0191
  194MPD1    N1 3013   2.054   0.300  16.679  0.0465  0.0161  0.5193
  194MPD1    H6 3014   2.077   0.398  16.666  0.2125 -0.0027  0.6671
  194MPD1    H7 3015   2.062   0.250  16.591 -1.6925  1.1006 -0.2480
  195MPD1     C 3016   4.597   2.008   1.075  0.8531  0.2766 -0.2586
  195MPD1    C1 3017   4.477   1.962   1.026 -0.5700 -0.1026  0.1106
  195MPD1    C2 3018   4.477   1.840   0.955  0.7472  0.8163 -0.4490
  195MPD1    C3 3019   4.601   1.784   0.936 -0.0753  1.5627 -0.4944
  195MPD1    C4 3020   4.716   1.844   0.966  0.1602  0.5376 -0.5216
  195MPD1    C5 3021   4.717   1.955   1.039  0.3100 -0.9817  0.4056
  195MPD1     H 3022   4.382   1.795   0.931  0.7282  0.0866  0.9427
  195MPD1    H1 3023   0.075   1.802   0.947 -0.1929  0.1603 -1.4768
  195MPD1    H2 3024   4.604   2.099   1.132 -1.5475  1.7168 -2.2292
  195MPD1    H3 3025   0.069   2.004   1.071 -1.1864  0.5491  2.3324
  195MPD1     N 3026   4.617   1.651   0.903 -0.1186 -0.1782  0.3898
  195MPD1    H5 3027   4.714   1.625   0.890  0.0847  0.5552  0.3992
  195MPD1    N1 3028   4.354   2.015   1.075 -0.1257 -0.2539 -0.2664
  195MPD1    H6 3029   4.273   1.974   1.029 -0.3874  0.2046 -0.2169
  195MPD1    H7 3030   4.338   1.992   1.172  3.4817  2.2305  0.9135
  196MPD1     C 3031   3.957   0.045   0.401 -0.4681  0.3393  0.6588
  196MPD1    C1 3032   4.042   0.077   0.502 -0.5977  0.3976 -0.0164
  196MPD1    C2 3033   3.999   0.172   0.594 -0.1026 -0.5295  0.2260
  196MPD1    C3 3034   3.880   0.237   0.579 -0.6261 -0.1493  0.3718
  196MPD1    C4 3035   3.803   0.213   0.470 -0.7111 -0.2324 -0.0742
  196MPD1    C5 3036   3.833   0.109   0.386 -0.2084  0.2545  0.0522
  196MPD1     H 3037   4.059   0.189   0.683  0.7565 -0.6367 -0.3352
  196MPD1    H1 3038   3.711   0.266   0.451 -0.9607 -0.1473  1.3836
  196MPD1    H2 3039   3.980   4.700   0.337  0.4022  1.0819  0.0009
  196MPD1    H3 3040   3.770   0.088   0.301 -1.2193 -2.8758  1.6165
  196MPD1     N 3041   3.847   0.352   0.654  0.3491 -0.2770 -0.0567
  196MPD1    H5 3042   3.751   0.385   0.653  0.1212 -0.9436 -1.3254
  196MPD1    N1 3043   4.155   4.735   0.529  0.8169  0.3515 -0.4102
  196MPD1    H6 3044   4.225   0.043   0.585  0.5955 -0.1707  0.3085
  196MPD1    H7 3045   4.198   4.693   0.447  3.2436  3.3913 -0.6796
  197MPD1     C 3046   2.834   3.781  17.740  0.5105 -0.3039  0.4155
  197MPD1    C1 3047   2.957   3.839   0.013 -0.2643 -0.2570  0.0612
  197MPD1    C2 3048   3.058   3.822  17.672  0.5976  0.5280  1.2652
  197MPD1    C3 3049   3.043   3.738  17.564 -0.2665  0.0491  0.4390
  197MPD1    C4 3050   2.935   3.657  17.563 -0.2796 -0.2875 -0.4459
  197MPD1    C5 3051   2.830   3.680  17.649  0.2330 -0.8008  0.1221
  197MPD1     H 3052   3.148   3.879  17.693  3.0474 -2.4151 -1.2536
  197MPD1    H1 3053   2.920   3.575  17.494  1.5829 -1.5152  0.6074
  197MPD1    H2 3054   2.752   3.791   0.055  0.5380  2.9766 -0.0111
  197MPD1    H3 3055   2.742   3.619  17.637  0.4921 -1.1315 -0.0872
  197MPD1     N 3056   3.139   3.733  17.455  0.6457 -0.0417 -0.3630
  197MPD1    H5 3057   3.133   3.662  17.383 -0.1594  1.0134 -1.3234
  197MPD1    N1 3058   2.970   3.927   0.118  0.2065 -0.3527 -0.0015
  197MPD1    H6 3059   2.901   3.908   0.190 -0.8087  0.2470 -0.8166
  197MPD1    H7 3060   3.060   3.920   0.165  1.0348  0.2307 -1.5023
  198MPD1     C 3061   4.449   1.689  15.703 -0.0819  1.1019 -0.1517
  198MPD1    C1 3062   4.491   1.558  15.729  0.3924 -0.9473  0.1065
  198MPD1    C2 3063   4.622   1.528  15.681 -0.2970  0.2635  0.0245
  198MPD1    C3 3064   4.710   1.627  15.644  0.6227  0.1885  0.0653
  198MPD1    C4 3065   4.663   1.754  15.623 -0.1434 -0.1108 -0.0131
  198MPD1    C5 3066   4.532   1.785  15.654  0.0960 -0.6445  0.5586
  198MPD1     H 3067   4.661   1.427  15.682 -1.4522 -0.1921  0.0599
  198MPD1    H1 3068   4.730   1.827  15.579  0.2571 -0.6742 -0.3433
  198MPD1    H2 3069   4.349   1.724  15.725 -1.1647 -1.8042 -0.4422
  198MPD1    H3 3070   4.491   1.884  15.637 -0.3975 -1.4117 -2.8353
  198MPD1     N 3071   0.101   1.588  15.603  0.0327  0.2981  0.2995
  198MPD1    H5 3072   0.134   1.493  15.621  0.8523  0.8851  1.9315
  198MPD1    N1 3073   4.397   1.459  15.772  0.7137 -0.1424  0.3451
  198MPD1    H6 3074   4.318   1.492  15.827  0.6347 -1.9344  1.3111
  198MPD1    H7 3075   4.445   1.399  15.838  2.8349  1.1741 -0.0207
  199MPD1     C 3076   2.839   1.930   9.982  0.8115 -0.0302  0.3882
  199MPD1    C1 3077   2.718   1.965   9.938 -0.7521  0.1812 -0.5249
  199MPD1    C2 3078   2.672   2.079   9.992 -0.7462 -0.1427  0.2219
  199MPD1    C3 3079   2.741   2.159  10.085  0.1488 -0.3880 -0.0999
  199MPD1    C4 3080   2.863   2.110  10.131 -0.4407  0.3302 -0.0455
  199MPD1    C5 3081   2.913   1.995  10.076  0.1821 -0.3447 -0.6722
  199MPD1     H 3082   2.570   2.101   9.964  0.1992  2.0466 -1.4773
  199MPD1    H1 3083   2.917   2.160  10.210  0.1255 -0.7784  0.2783
  199MPD1    H2 3084   2.882   1.837   9.947  4.6162  1.6115  0.7113
  199MPD1    H3 3085   3.009   1.956  10.110 -0.9711 -2.0370  0.6341
  199MPD1     N 3086   2.693   2.276  10.145 -0.5484 -0.3308 -0.2831
  199MPD1    H5 3087   2.761   2.337  10.189  0.3216 -1.0747 -0.6001
  199MPD1    N1 3088   2.648   1.895   9.842 -0.3556  0.2225 -0.0439
  199MPD1    H6 3089   2.553   1.921   9.818 -1.0172  1.0692  3.5983
  199MPD1    H7 3090   2.660   1.794   9.841  1.4514  0.4286  1.7537
  200MPD1     C 3091   1.353   2.604  14.582  0.9451 -0.1751  0.0416
  200MPD1    C1 3092   1.357   2.468  14.551 -0.0583 -0.1070  0.7381
  200MPD1    C2 3093   1.475   2.399  14.523  0.7648  0.1620  0.6151
  200MPD1    C3 3094   1.593   2.465  14.529  0.1032  0.1398 -0.3060
  200MPD1    C4 3095   1.592   2.608  14.533  0.1067 -0.4175 -0.2668
  200MPD1    C5 3096   1.471   2.668  14.561  0.1408  0.5713  0.9183
  200MPD1     H 3097   1.472   2.291  14.508 -0.5596  0.6251 -2.4105
  200MPD1    H1 3098   1.681   2.668  14.539  0.4998 -0.9978 -0.3028
  200MPD1    H2 3099   1.263   2.662  14.598  0.7725 -0.5664  0.4780
  200MPD1    H3 3100   1.477   2.774  14.583  0.5316  0.7878 -0.2374
  200MPD1     N 3101   1.711   2.402  14.488 -0.5201 -0.1745  0.8077
  200MPD1    H5 3102   1.699   2.306  14.458  0.7273 -0.6091  1.6853
  200MPD1    N1 3103   1.249   2.390  14.587  0.5317 -0.7228 -0.5011
  200MPD1    H6 3104   1.164   2.443  14.565  2.0546  2.0299  0.2084
  200MPD1    H7 3105   1.247   2.310  14.524  0.4476 -1.2641  0.1844
  201MPD1     C 3106   3.674   1.498  12.996  0.1731  0.3294  0.0678
  201MPD1    C1 3107   3.594   1.381  12.998 -0.3947  0.1337  1.1428
  201MPD1    C2 3108   3.653   1.267  13.043  0.4084 -0.1671  0.3887
  201MPD1    C3 3109   3.787   1.261  13.051 -0.2683  0.1637 -0.3781
  201MPD1    C4 3110   3.863   1.372  13.036  0.1725 -0.0451  0.0472
  201MPD1    C5 3111   3.804   1.498  13.015  0.1835 -0.2729  0.1522
  201MPD1     H 3112   3.597   1.175  13.057  0.1809 -0.5958 -3.4238
  201MPD1    H1 3113   3.970   1.357  13.025  0.4615  1.9236  0.2942
  201MPD1    H2 3114   3.628   1.595  12.988 -0.6933 -0.0592  0.3335
  201MPD1    H3 3115   3.868   1.584  13.002  2.0448 -1.5816  0.5398
  201MPD1     N 3116   3.832   1.132  13.077  0.0451  0.0062  0.6483
  201MPD1    H5 3117   3.764   1.063  13.108 -0.1262  0.0994  0.4765
  201MPD1    N1 3118   3.456   1.401  13.005 -0.1492  0.3667  0.0898
  201MPD1    H6 3119   3.399   1.319  12.985 -1.0758  1.1446 -0.4638
  201MPD1    H7 3120   3.416   1.486  12.966  4.2694  2.0730 -0.6706
  202MPD1     C 3121   3.506   0.309  10.846 -0.7046  0.1339  0.0500
  202MPD1    C1 3122   3.470   0.423  10.787 -0.0872  0.6152  0.0593
  202MPD1    C2 3123   3.571   0.506  10.743 -0.0888  0.4641 -0.3479
  202MPD1    C3 3124   3.707   0.474  10.762  1.8719  0.1343 -0.0353
  202MPD1    C4 3125   3.738   0.366  10.839  0.2361 -0.2501 -0.4902
  202MPD1    C5 3126   3.640   0.279  10.873  0.3126 -0.6627  0.2900
  202MPD1     H 3127   3.538   0.579  10.670  2.5602  0.4655 -1.5315
  202MPD1    H1 3128   3.841   0.340  10.861 -0.1333 -2.3793 -1.2647
  202MPD1    H2 3129   3.431   0.238  10.880 -1.2640  0.9214  0.4525
  202MPD1    H3 3130   3.670   0.190  10.926  2.3835 -0.7148 -0.9887
  202MPD1     N 3131   3.818   0.549  10.717  0.6314  0.2277 -0.1107
  202MPD1    H5 3132   3.911   0.508  10.725 -0.1368 -1.8565 -1.7835
  202MPD1    N1 3133   3.348   0.428  10.716  0.0020 -0.0757  0.4538
  202MPD1    H6 3134   3.337   0.525  10.687 -0.1952 -0.3638 -0.4296
  202MPD1    H7 3135   3.274   0.398  10.781 -2.5083 -1.4069 -3.0298
  203MPD1     C 3136   2.115   1.224  12.309  0.0008 -0.1517  0.0755
  203MPD1    C1 3137   2.239   1.207  12.257 -0.1608 -0.1510 -0.4739
  203MPD1    C2 3138   2.339   1.165  12.338  0.0990  0.2290  0.5317
  203MPD1    C3 3139   2.313   1.120  12.474  0.4633 -0.6427  1.4116
  203MPD1    C4 3140   2.183   1.142  12.520 -0.5155  0.0892  0.3866
  203MPD1    C5 3141   2.090   1.185  12.436  0.3956  0.2153  0.6874
  203MPD1     H 3142   2.425   1.124  12.287  1.2291 -0.0726  2.6640
  203MPD1    H1 3143   2.147   1.108  12.617 -2.0988  0.2229 -0.1423
  203MPD1    H2 3144   2.038   1.261  12.242  0.3583  0.6673  0.1230
  203MPD1    H3 3145   1.985   1.187  12.463 -0.2714  1.0224 -1.9943
  203MPD1     N 3146   2.413   1.045  12.548  0.4606  0.4726  0.4145
  203MPD1    H5 3147   2.493   1.008  12.497 -2.6645 -3.3912 -1.6332
  203MPD1    N1 3148   2.263   1.241  12.121  0.2276 -0.1523  0.4021
  203MPD1    H6 3149   2.180   1.255  12.063  1.4664  1.0112 -1.1051
  203MPD1    H7 3150   2.345   1.192  12.086 -1.6843 -1.4320 -2.3069
  204MPD1     C 3151   1.915   3.725  17.632 -0.7861 -0.5515 -0.4782
  204MPD1    C1 3152   1.967   3.713  17.511  0.2667 -1.4333 -0.5045
  204MPD1    C2 3153   2.037   3.597  17.481 -1.0189  0.7569  0.3274
  204MPD1    C3 3154   2.026   3.490  17.567  0.0984  0.3804  0.2452
  204MPD1    C4 3155   1.957   3.496  17.680  0.1331  0.1889 -0.3943
  204MPD1    C5 3156   1.901   3.612  17.713  0.8281 -0.1975  0.2106
  204MPD1     H 3157   2.102   3.589  17.395  0.4995  0.3718  1.5010
  204MPD1    H1 3158   1.943   3.415  17.751 -1.6093  0.2232 -0.6940
  204MPD1    H2 3159   1.877   3.822  17.662 -1.4615 -1.9134  3.0297
  204MPD1    H3 3160   1.842   3.627   0.049  0.4373  0.5843 -0.1715
  204MPD1     N 3161   2.098   3.370  17.529 -0.1199  0.5126 -0.2730
  204MPD1    H5 3162   2.154   3.365  17.445 -0.9387  2.4699 -0.9491
  204MPD1    N1 3163   1.985   3.828  17.431  0.2426  0.3484  0.7426
  204MPD1    H6 3164   1.991   3.802  17.332 -3.5243 -1.0444  0.8470
  204MPD1    H7 3165   1.907   3.894  17.432  0.8029  0.9607  2.5833
  205MPD1     C 3166   2.782   1.513  17.384 -0.2148  0.5728  0.3009
  205MPD1    C1 3167   2.688   1.587  17.315  0.2863 -0.3863 -0.2058
  205MPD1    C2 3168   2.600   1.661  17.390  0.4988 -0.2154  0.4474
  205MPD1    C3 3169   2.622   1.679  17.524  0.2065  0.1785 -0.4208
  205MPD1    C4 3170   2.718   1.608  17.589  0.4549  0.2565 -0.2347
  205MPD1    C5 3171   2.799   1.522  17.522  0.2118 -0.4581  0.6549
  205MPD1     H 3172   2.527   1.724  17.340  1.9545  1.8543  0.9119
  205MPD1    H1 3173   2.739   1.609  17.695  1.2469 -1.7536 -0.3605
  205MPD1    H2 3174   2.850   1.445  17.334  0.1965  1.0213  0.2470
  205MPD1    H3 3175   2.882   1.467  17.565  0.3251 -1.7741 -1.2564
  205MPD1     N 3176   2.542   1.765  17.608  0.1077 -0.2284 -0.0248
  205MPD1    H5 3177   2.554   1.754  17.708 -0.6220  0.8586  0.1911
  205MPD1    N1 3178   2.703   1.599  17.176 -0.0034  0.6016  0.2005
  205MPD1    H6 3179   2.748   1.516  17.138  0.3524  0.1302  1.6730
  205MPD1    H7 3180   2.613   1.625  17.136 -0.7407 -0.0253  1.4763
  206MPD1     C 3181   2.618   0.654  17.205 -0.0307 -0.3494 -0.3896
  206MPD1    C1 3182   2.503   0.668  17.133 -0.7512  0.4195 -0.4238
  206MPD1    C2 3183   2.485   0.591  17.022  0.0593  0.2224 -0.9675
  206MPD1    C3 3184   2.571   0.490  16.996  0.2403 -0.9919  0.7774
  206MPD1    C4 3185   2.684   0.468  17.072 -0.2516 -0.4598  0.0916
  206MPD1    C5 3186   2.707   0.551  17.182 -0.2572 -0.1210  0.3213
  206MPD1     H 3187   2.403   0.596  16.951 -2.3628 -1.0583  1.7516
  206MPD1    H1 3188   2.752   0.384  17.061 -0.9254 -0.9080 -0.6125
  206MPD1    H2 3189   2.652   0.721  17.283 -0.4676 -0.5519 -0.0272
  206MPD1    H3 3190   2.797   0.548  17.244  0.4420  0.2548 -0.6711
  206MPD1     N 3191   2.537   0.407  16.887  0.5268  0.6677 -0.0600
  206MPD1    H5 3192   2.472   0.448  16.821  0.7015 -1.7789 -1.7389
  206MPD1    N1 3193   2.431   0.792  17.137 -0.2293 -1.0923 -0.1955
  206MPD1    H6 3194   2.437   0.844  17.224 -1.0173  0.4111 -1.0548
  206MPD1    H7 3195   2.335   0.771  17.112  0.0028  0.6007 -2.5664
  207MPD1     C 3196   4.570   2.267   9.932  0.0509 -0.4388 -0.6183
  207MPD1    C1 3197   4.588   2.143   9.992  0.4749  0.2440 -0.4938
  207MPD1    C2 3198   4.695   2.118  10.079 -0.2627 -1.3473  0.7655
  207MPD1    C3 3199   0.047   2.218  10.114  0.5504  0.4465 -0.3931
  207MPD1    C4 3200   0.021   2.337  10.060  0.5080 -0.2790 -0.0943
  207MPD1    C5 3201   4.664   2.366   9.968 -0.1155  0.3118 -0.1386
  207MPD1     H 3202   4.710   2.015  10.109  0.5426 -0.6208  2.8855
  207MPD1    H1 3203   0.082   2.424  10.081 -1.6170  1.6500 -1.8569
  207MPD1    H2 3204   4.492   2.286   9.859 -1.6254  0.9963  1.5681
  207MPD1    H3 3205   4.644   2.466   9.931  1.0436  1.3642  2.1170
  207MPD1     N 3206   0.170   2.192  10.183 -0.8838 -0.3224  0.2843
  207MPD1    H5 3207   0.231   2.272  10.192 -0.3013 -1.0116  2.3108
  207MPD1    N1 3208   4.507   2.036   9.950 -0.0446 -0.8113  0.1923
  207MPD1    H6 3209   4.510   1.955  10.012 -3.6806 -1.0356  0.0834
  207MPD1    H7 3210   4.415   2.079   9.955  1.3455  2.3232 -1.0927
  208MPD1     C 3211   3.158   1.258   0.209  0.2562 -0.5680  0.6147
  208MPD1    C1 3212   3.034   1.319   0.194  0.4023 -0.1733  0.0860
  208MPD1    C2 3213   2.962   1.346   0.313  0.2566 -0.3820  1.0901
  208MPD1    C3 3214   3.005   1.296   0.434  0.7597  0.5428  0.2161
  208MPD1    C4 3215   3.130   1.235   0.443 -0.3945  0.5297 -0.0619
  208MPD1    C5 3216   3.204   1.223   0.334  0.5127 -0.0207  0.4771
  208MPD1     H 3217   2.871   1.404   0.315  0.1841 -0.5441  2.5659
  208MPD1    H1 3218   3.178   1.208   0.536  1.4098  1.4788 -0.7319
  208MPD1    H2 3219   3.221   1.245   0.121  0.9940  1.8732  0.7834
  208MPD1    H3 3220   3.305   1.185   0.349  0.8545 -0.5549 -3.0945
  208MPD1     N 3221   2.922   1.318   0.547 -0.1168  0.4663  0.2784
  208MPD1    H5 3222   2.843   1.382   0.551 -0.4199  0.0952  0.0889
  208MPD1    N1 3223   2.983   1.360   0.071 -0.5827  0.1574  0.2328
  208MPD1    H6 3224   3.011   1.294  17.753 -1.4216  0.5551 -0.4622
  208MPD1    H7 3225   2.882   1.370   0.076 -0.4682  2.1607 -1.4202
  209MPD1     C 3226   0.677   0.597  11.017 -0.0556  0.3993  0.0202
  209MPD1    C1 3227   0.682   0.656  10.899 -0.0190  0.1666 -0.1927
  209MPD1    C2 3228   0.688   0.794  10.893  0.1126  0.8444  0.2950
  209MPD1    C3 3229   0.717   0.872  11.005  0.0535 -0.1954 -0.2622
  209MPD1    C4 3230   0.714   0.802  11.127  0.3695 -0.0732  0.0742
  209MPD1    C5 3231   0.702   0.668  11.136 -0.1632  0.2151 -0.0061
  209MPD1     H 3232   0.672   0.837  10.795  0.4803 -0.2501 -0.2427
  209MPD1    H1 3233   0.723   0.847  11.225 -0.8832  0.3794 -0.0209
  209MPD1    H2 3234   0.658   0.491  11.029  0.2155  0.3008 -0.4084
  209MPD1    H3 3235   0.712   0.624  11.235 -0.4933  2.9416  1.2177
  209MPD1     N 3236   0.754   1.008  10.988 -0.5651  0.2747  0.2693
  209MPD1    H5 3237   0.751   1.044  10.893  0.5993  0.4498  0.3052
  209MPD1    N1 3238   0.667   0.574  10.788  0.3339 -0.0983  0.2294
  209MPD1    H6 3239   0.700   0.481  10.812  0.8451  0.1507  0.4937
  209MPD1    H7 3240   0.731   0.607  10.716 -0.3026  1.8116  0.5246
  210MPD1     C 3241   1.570   1.720  11.142 -0.1033 -0.0973 -0.6896
  210MPD1    C1 3242   1.530   1.618  11.223 -0.4343  0.3362  0.4992
  210MPD1    C2 3243   1.409   1.556  11.193  0.5009  0.3925  0.7566
  210MPD1    C3 3244   1.319   1.601  11.091 -0.1683 -1.1070  0.9941
  210MPD1    C4 3245   1.357   1.713  11.025 -0.5943 -0.4511  0.7417
  210MPD1    C5 3246   1.480   1.771  11.051  0.4364 -0.4981 -1.2432
  210MPD1     H 3247   1.381   1.467  11.248 -1.1174  0.9235  0.8007
  210MPD1    H1 3248   1.302   1.766  10.947 -1.9415  0.1332  2.0999
  210MPD1    H2 3249   1.662   1.770  11.168 -1.6186  2.1998  0.2213
  210MPD1    H3 3250   1.509   1.865  11.006 -0.9695 -0.6799 -2.5109
  210MPD1     N 3251   1.197   1.534  11.054  0.7647  0.2272  0.2351
  210MPD1    H5 3252   1.145   1.576  10.978 -0.2540  0.7882  1.2209
  210MPD1    N1 3253   1.624   1.556  11.306  0.0270 -0.5885 -0.2504
  210MPD1    H6 3254   1.574   1.498  11.372 -1.0264 -1.0578 -1.4632
  210MPD1    H7 3255   1.675   1.624  11.362  0.0577  0.5030 -1.5999
  211MPD1     C 3256   2.536   1.418  16.527 -0.1717 -0.4404 -0.1986
  211MPD1    C1 3257   2.404   1.420  16.567  0.2326 -0.2062  0.4125
  211MPD1    C2 3258   2.335   1.539  16.547  0.5230  0.3341  0.7662
  211MPD1    C3 3259   2.395   1.653  16.503 -0.0160  0.1887  0.1317
  211MPD1    C4 3260   2.531   1.646  16.467  0.0129  0.0066 -0.3744
  211MPD1    C5 3261   2.606   1.532  16.485 -0.0827 -0.1490  0.4613
  211MPD1     H 3262   2.231   1.539  16.577 -0.3138  2.7158 -2.1531
  211MPD1    H1 3263   2.572   1.739  16.431  2.6965 -1.2924 -0.7127
  211MPD1    H2 3264   2.596   1.327  16.529  1.6318  0.7485  0.4127
  211MPD1    H3 3265   2.710   1.530  16.454 -0.7721  0.0833 -1.8811
  211MPD1     N 3266   2.307   1.762  16.488  1.1488 -0.5034  0.4051
  211MPD1    H5 3267   2.209   1.749  16.513  1.4697 -1.6627  1.0842
  211MPD1    N1 3268   2.334   1.301  16.596 -0.2059  0.4987  0.3117
  211MPD1    H6 3269   2.393   1.233  16.644 -0.8322 -0.9333 -0.9165
  211MPD1    H7 3270   2.250   1.317  16.650  0.4932  2.6686  0.7517
  212MPD1     C 3271   2.017   0.126  16.363 -0.5812 -0.1734 -0.9894
  212MPD1    C1 3272   1.906   0.202  16.362  0.7332 -0.6749  0.3238
  212MPD1    C2 3273   1.800   0.153  16.444 -0.3140  0.4010 -0.2273
  212MPD1    C3 3274   1.814   0.048  16.531  0.4750  0.8953  0.3483
  212MPD1    C4 3275   1.932   4.715  16.532  0.8929 -0.3324 -1.0027
  212MPD1    C5 3276   2.027   0.011  16.442 -0.0614 -0.6970 -0.8997
  212MPD1     H 3277   1.704   0.202  16.439 -0.9570 -0.8614 -0.1551
  212MPD1    H1 3278   1.942   4.628  16.595 -1.4212  1.3671  1.7459
  212MPD1    H2 3279   2.090   0.155  16.288  1.2947 -2.5040 -0.0757
  212MPD1    H3 3280   2.104   4.679  16.412  1.8634  2.0730 -2.4544
  212MPD1     N 3281   1.716   0.004  16.625 -0.6343 -0.0883  0.5638
  212MPD1    H5 3282   1.735   4.655  16.672 -2.4326 -1.0426 -0.4968
  212MPD1    N1 3283   1.880   0.290  16.254 -0.2899  0.1629  0.7454
  212MPD1    H6 3284   1.788   0.335  16.259 -0.7374 -0.7097  0.2726
  212MPD1    H7 3285   1.957   0.353  16.236 -0.5093  0.6189  1.3838
  213MPD1     C 3286   3.988   1.567  15.975  0.0340 -0.0904 -0.0589
  213MPD1    C1 3287   4.050   1.612  15.853 -0.3849  0.3157 -0.0642
  213MPD1    C2 3288   4.074   1.516  15.756 -0.1693 -0.7942  0.0139
  213MPD1    C3 3289   4.005   1.394  15.754 -0.0223  0.0630 -0.0193
  213MPD1    C4 3290   3.914   1.370  15.860  0.1514 -0.0140 -0.2333
  213MPD1    C5 3291   3.905   1.463  15.961  0.4842 -1.0447 -0.1667
  213MPD1     H 3292   4.140   1.530  15.671  0.4662 -2.6589  0.1889
  213MPD1    H1 3293   3.843   1.288  15.858 -0.0210  0.2230 -3.8357
  213MPD1    H2 3294   3.973   1.646  16.048  1.1544  0.6771 -0.6632
  213MPD1    H3 3295   3.831   1.445  16.038 -0.7505  1.4161 -0.7797
  213MPD1     N 3296   4.020   1.307  15.647 -0.4957 -0.1476 -0.1335
  213MPD1    H5 3297   4.078   1.349  15.574  0.0082  0.3292  0.5439
  213MPD1    N1 3298   4.131   1.728  15.862  0.6527  0.1478  0.0090
  213MPD1    H6 3299   4.151   1.770  15.771  0.2839  0.4422  0.0636
  213MPD1    H7 3300   4.096   1.805  15.918  1.7092  0.4757  0.2062
  214MPD1     C 3301   3.305   0.767  15.224  0.1967 -0.6518  0.4694
  214MPD1    C1 3302   3.401   0.795  15.132 -0.5146 -0.3743 -0.6503
  214MPD1    C2 3303   3.519   0.838  15.181 -0.5252 -0.1160  0.1962
  214MPD1    C3 3304   3.550   0.836  15.314 -0.1011  0.0923  0.8173
  214MPD1    C4 3305   3.455   0.789  15.404 -0.0036  0.4070  0.1183
  214MPD1    C5 3306   3.327   0.763  15.361 -0.3614 -0.7766 -0.3649
  214MPD1     H 3307   3.589   0.870  15.105 -0.9238 -0.2230 -0.2206
  214MPD1    H1 3308   3.473   0.781  15.510  0.9368 -0.1518 -0.0841
  214MPD1    H2 3309   3.204   0.740  15.193  0.1235 -0.3011  0.4098
  214MPD1    H3 3310   3.246   0.741  15.430  0.6585  1.2048  1.4695
  214MPD1     N 3311   3.678   0.871  15.363 -0.5315  0.1746  0.6268
  214MPD1    H5 3312   3.700   0.870  15.463 -2.2859  0.4051  1.0218
  214MPD1    N1 3313   3.361   0.821  14.999  0.0044 -0.0973 -0.1536
  214MPD1    H6 3314   3.330   0.918  14.994 -0.4238 -0.2110  0.3986
  214MPD1    H7 3315   3.445   0.832  14.942 -0.3004 -0.2040 -0.6245
  215MPD1     C 3316   0.404   0.643  11.532 -0.0178 -0.3611 -0.2011
  215MPD1    C1 3317   0.514   0.651  11.617 -0.3502 -0.4979 -0.0902
  215MPD1    C2 3318   0.585   0.771  11.621 -0.4669 -0.3712  0.4577
  215MPD1    C3 3319   0.560   0.876  11.535 -0.1874  0.3576 -0.0640
  215MPD1    C4 3320   0.458   0.864  11.445  0.1900  0.2935 -0.2101
  215MPD1    C5 3321   0.379   0.746  11.455 -0.3521 -0.1291  0.6957
  215MPD1     H 3322   0.666   0.778  11.692 -0.4035 -2.8951  0.6316
  215MPD1    H1 3323   0.427   0.944  11.380 -0.8069  0.3967  0.3846
  215MPD1    H2 3324   0.330   0.564  11.539  2.6893 -2.9201 -0.3162
  215MPD1    H3 3325   0.292   0.737  11.390 -0.3509  1.1491  0.5091
  215MPD1     N 3326   0.648   0.987  11.539 -0.9972 -0.0958 -0.0077
  215MPD1    H5 3327   0.728   0.969  11.599 -1.5007  1.6060  1.1663
  215MPD1    N1 3328   0.533   0.543  11.708  0.1019  0.0529 -0.2057
  215MPD1    H6 3329   0.625   0.548  11.752 -0.2741 -0.1601  0.6074
  215MPD1    H7 3330   0.534   0.450  11.666  0.0424  1.0153 -2.3319
  216MPD1     C 3331   1.824   4.688  16.958  0.0666 -0.2723  0.0705
  216MPD1    C1 3332   1.797   4.565  16.903  0.3239  0.5027 -0.1142
  216MPD1    C2 3333   1.707   4.488  16.973  1.2120 -0.2710  0.0146
  216MPD1    C3 3334   1.657   4.526  17.102  0.3822  1.0096  0.3954
  216MPD1    C4 3335   1.693   4.653  17.146 -0.0501  0.0947  0.3410
  216MPD1    C5 3336   1.776   4.726  17.083 -1.0628  0.0139 -0.2371
  216MPD1     H 3337   1.692   4.383  16.948  0.4100 -0.0713 -0.3157
  216MPD1    H1 3338   1.658   4.695  17.239 -0.1571  0.4688  0.1321
  216MPD1    H2 3339   1.892   0.017  16.909  2.5319 -1.5807  1.6565
  216MPD1    H3 3340   1.798   0.089  17.110 -0.1571 -0.3007  0.2106
  216MPD1     N 3341   1.574   4.438  17.166  0.0817 -0.0345  0.2459
  216MPD1    H5 3342   1.551   4.348  17.125 -3.0446  0.3017  1.2545
  216MPD1    N1 3343   1.853   4.533  16.780  0.0803  0.0844  0.6754
  216MPD1    H6 3344   1.944   4.577  16.772  0.2115 -0.5919 -1.3899
  216MPD1    H7 3345   1.862   4.432  16.770 -0.7241  0.1041 -0.1744
  217MPD1     C 3346   2.088   0.775   8.249 -0.5468 -0.0619  0.4469
  217MPD1    C1 3347   2.182   0.678   8.225  0.4337 -0.4293 -0.3668
  217MPD1    C2 3348   2.278   0.661   8.318  0.1047 -0.1016  0.1736
  217MPD1    C3 3349   2.293   0.738   8.432 -0.3377 -0.1169 -0.1938
  217MPD1    C4 3350   2.191   0.830   8.454  0.8770 -0.1542 -0.4638
  217MPD1    C5 3351   2.092   0.851   8.361  0.2877  0.0777 -0.3574
  217MPD1     H 3352   2.352   0.585   8.293  1.0856  0.4251  1.5357
  217MPD1    H1 3353   2.186   0.893   8.542 -0.5191  0.2424 -0.8352
  217MPD1    H2 3354   2.009   0.792   8.176 -1.4766 -1.6029  1.1065
  217MPD1    H3 3355   2.016   0.925   8.383 -0.2709 -0.7701  0.5999
  217MPD1     N 3356   2.384   0.719   8.540 -0.4991  0.0276 -0.0983
  217MPD1    H5 3357   2.380   0.776   8.624  1.4839  0.7458 -0.4826
  217MPD1    N1 3358   2.164   0.595   8.111 -0.2952 -0.1061 -0.1085
  217MPD1    H6 3359   2.251   0.556   8.076  0.0657  0.3282  0.3140
  217MPD1    H7 3360   2.131   0.642   8.027 -0.4252 -0.7862 -0.4382
  218MPD1     C 3361   4.108   2.442  13.356  1.2383 -0.4138 -0.0915
  218MPD1    C1 3362   4.224   2.499  13.303  0.4901 -0.7048 -0.0785
  218MPD1    C2 3363   4.263   2.460  13.175  0.0557 -0.0984  0.2470
  218MPD1    C3 3364   4.200   2.359  13.104  0.6421 -0.3541  0.2644
  218MPD1    C4 3365   4.089   2.303  13.160  0.1682 -0.0668  0.4266
  218MPD1    C5 3366   4.046   2.347  13.282 -0.7307 -0.1474 -0.3295
  218MPD1     H 3367   4.347   2.517  13.137  1.5706 -2.9298 -0.5883
  218MPD1    H1 3368   4.034   2.218  13.119  0.0392 -0.3718  1.2244
  218MPD1    H2 3369   4.062   2.476  13.449 -0.7798 -0.5535 -1.0396
  218MPD1    H3 3370   3.960   2.296  13.324  0.5044 -0.6570  1.5775
  218MPD1     N 3371   4.267   2.316  12.986 -0.1349  0.2578 -0.6109
  218MPD1    H5 3372   4.350   2.367  12.957 -0.3617  0.2390 -1.2986
  218MPD1    N1 3373   4.274   2.622  13.354 -0.2715  0.5600 -0.1216
  218MPD1    H6 3374   4.373   2.631  13.335 -0.7104  1.8790 -1.7832
  218MPD1    H7 3375   4.257   2.630  13.455  1.2542 -1.0100  0.2527
  219MPD1     C 3376   0.179   2.325  12.219 -0.2202  0.1141 -0.5418
  219MPD1    C1 3377   0.127   2.417  12.297  0.1318 -0.0677 -0.3840
  219MPD1    C2 3378   0.041   2.377  12.395  0.3169  0.0099 -0.2139
  219MPD1    C3 3379   0.027   2.249  12.436  0.0014  0.2983  0.2309
  219MPD1    C4 3380   0.092   2.152  12.359  0.9013  0.7912  0.0629
  219MPD1    C5 3381   0.171   2.189  12.254  0.9386  0.7266 -0.0613
  219MPD1     H 3382   4.713   2.450  12.438  0.6243 -0.6078  1.3076
  219MPD1    H1 3383   0.079   2.046  12.379 -0.0808  0.9375  0.2282
  219MPD1    H2 3384   0.225   2.353  12.125 -0.5973 -1.3334 -1.1619
  219MPD1    H3 3385   0.216   2.108  12.198 -0.0121  0.1680 -0.0201
  219MPD1     N 3386   4.685   2.205  12.543 -0.2124 -0.0324 -0.9011
  219MPD1    H5 3387   4.680   2.104  12.549 -0.2177 -0.0984 -2.0499
  219MPD1    N1 3388   0.123   2.548  12.251  0.5839  0.5060  0.0493
  219MPD1    H6 3389   0.139   2.600  12.337  1.5735 -0.8113  0.6577
  219MPD1    H7 3390   0.201   2.579  12.194 -0.3706  0.8694 -1.0749
  220MPD1     C 3391   4.370   2.242  10.476  0.0157 -0.3032 -0.4068
  220MPD1    C1 3392   4.325   2.172  10.589 -0.5153 -0.7839  0.4676
  220MPD1    C2 3393   4.420   2.101  10.665 -0.2474 -0.4960  0.5530
  220MPD1    C3 3394   4.561   2.115  10.647  0.0829  0.2951 -0.4880
  220MPD1    C4 3395   4.601   2.188  10.539  0.0410  0.5235 -0.9186
  220MPD1    C5 3396   4.505   2.249  10.456 -0.7318 -0.0718  0.8028
  220MPD1     H 3397   4.389   2.035  10.745 -1.6251  1.3121  1.5044
  220MPD1    H1 3398   4.704   2.200  10.508  0.8039 -0.9190  1.1113
  220MPD1    H2 3399   4.300   2.296  10.414  0.6979 -0.4891 -1.3350
  220MPD1    H3 3400   4.542   2.301  10.369  2.1743 -0.0350  2.0254
  220MPD1     N 3401   4.658   2.054  10.735 -0.2094 -0.3753 -0.3075
  220MPD1    H5 3402   4.616   1.997  10.807 -1.0880  0.5493 -0.1012
  220MPD1    N1 3403   4.184   2.149  10.595  0.9924 -0.0017 -0.0570
  220MPD1    H6 3404   4.144   2.119  10.683 -0.6451  2.6772  0.0758
  220MPD1    H7 3405   4.131   2.227  10.557  2.0048 -0.1178 -1.7358
  221MPD1     C 3406   1.902   2.066  17.561  0.0765 -0.6651 -0.4546
  221MPD1    C1 3407   1.825   2.051  17.452  0.0344  0.8957 -0.1358
  221MPD1    C2 3408   1.861   1.954  17.361  0.2512 -0.5825  0.1637
  221MPD1    C3 3409   1.971   1.866  17.384 -0.7336 -0.2755 -0.2816
  221MPD1    C4 3410   2.048   1.880  17.499 -0.7441  0.1072 -0.5515
  221MPD1    C5 3411   2.010   1.985  17.584 -0.0329 -0.3257 -0.8060
  221MPD1     H 3412   1.797   1.930  17.277  1.0425  2.2676 -1.2755
  221MPD1    H1 3413   2.129   1.814  17.527 -1.2704 -0.5076 -0.4873
  221MPD1    H2 3414   1.873   2.141  17.634  0.4325 -0.1054 -0.8784
  221MPD1    H3 3415   2.070   2.007  17.672  0.8976 -0.9745 -1.2804
  221MPD1     N 3416   2.021   1.780  17.288  0.0447  0.8759 -0.0517
  221MPD1    H5 3417   2.106   1.732  17.316  1.1069  2.3851 -0.7265
  221MPD1    N1 3418   1.705   2.126  17.448 -0.0692  0.6514 -0.8642
  221MPD1    H6 3419   1.721   2.221  17.482 -1.4147  0.5954 -0.0879
  221MPD1    H7 3420   1.665   2.124  17.355 -3.0410 -0.8923  0.4723
  222MPD1     C 3421   0.947   4.185   0.357 -0.2787  0.6733 -0.1626
  222MPD1    C1 3422   1.029   4.232   0.254  0.3978  0.7275 -0.3915
  222MPD1    C2 3423   1.087   4.356   0.260 -0.2609  0.1403 -0.2857
  222MPD1    C3 3424   1.062   4.436   0.370  0.2790 -0.6656  0.0266
  222MPD1    C4 3425   0.981   4.390   0.472  0.0133 -0.2484  0.5737
  222MPD1    C5 3426   0.922   4.267   0.466  0.0998 -0.3207 -0.5566
  222MPD1     H 3427   1.143   4.388   0.173  0.4799  1.2169  0.5818
  222MPD1    H1 3428   0.967   4.447   0.563 -1.2388  2.0838 -1.0956
  222MPD1    H2 3429   0.908   4.084   0.353 -0.7850  0.7878  2.0426
  222MPD1    H3 3430   0.858   4.236   0.548  2.0932  1.3950  1.6156
  222MPD1     N 3431   1.105   4.572   0.392  0.7665  0.2936 -0.7134
  222MPD1    H5 3432   1.076   4.616   0.479  4.0192 -0.7577  0.8990
  222MPD1    N1 3433   1.068   4.143   0.155  0.0155 -0.0685 -0.2380
  222MPD1    H6 3434   1.112   4.183   0.073 -0.3375  2.7155  0.9253
  222MPD1    H7 3435   0.996   4.074   0.135 -0.0896 -0.6065  2.0133
  223MPD1     C 3436   1.282   0.040   1.260 -0.1742  0.1892  0.0852
  223MPD1    C1 3437   1.389   0.000   1.186  1.0018  0.5872  0.4582
  223MPD1    C2 3438   1.404   0.018   1.053 -0.3684 -0.4487  0.3644
  223MPD1    C3 3439   1.303   0.082   0.981  0.2161  0.2065 -0.3841
  223MPD1    C4 3440   1.198   0.140   1.056 -0.0499  1.0219 -0.4956
  223MPD1    C5 3441   1.184   0.107   1.195  0.6863  0.3722  0.5194
  223MPD1     H 3442   1.478   4.707   0.992 -0.9175 -1.4870  0.5517
  223MPD1    H1 3443   1.124   0.200   1.004 -1.0270  0.0896 -0.1592
  223MPD1    H2 3444   1.274   0.025   1.368 -1.9494 -2.1260 -0.3762
  223MPD1    H3 3445   1.107   0.156   1.253 -2.3130 -1.0044 -2.2374
  223MPD1     N 3446   1.326   0.102   0.845  0.2344 -0.3487  0.6047
  223MPD1    H5 3447   1.423   0.082   0.821  0.5490 -0.5614  2.0022
  223MPD1    N1 3448   1.469   4.641   1.250 -0.1854 -0.3182  0.1377
  223MPD1    H6 3449   1.561   4.638   1.207  0.2653 -0.0776  1.0876
  223MPD1    H7 3450   1.489   4.686   1.339 -0.2205 -1.3412  0.6599
  224MPD1     C 3451   2.482   1.374   8.997 -0.7128  0.8418  0.4331
  224MPD1    C1 3452   2.589   1.301   8.955 -0.1662 -0.4591 -0.2927
  224MPD1    C2 3453   2.693   1.276   9.045 -0.1648 -0.3049 -0.0809
  224MPD1    C3 3454   2.679   1.312   9.175 -0.4121 -0.3082 -0.1648
  224MPD1    C4 3455   2.570   1.392   9.215  0.1850  0.6395 -0.1290
  224MPD1    C5 3456   2.472   1.419   9.127 -0.1191  0.3263  0.0736
  224MPD1     H 3457   2.785   1.237   9.002 -0.1179  0.2310 -0.4594
  224MPD1    H1 3458   2.545   1.408   9.319 -1.3661 -1.5225 -0.1648
  224MPD1    H2 3459   2.404   1.394   8.924  2.5598 -0.7293 -3.4600
  224MPD1    H3 3460   2.383   1.473   9.158  0.5529  1.0091  0.7945
  224MPD1     N 3461   2.770   1.285   9.275 -0.5557 -0.7336  0.9383
  224MPD1    H5 3462   2.768   1.336   9.363  0.2402 -0.3079  0.7121
  224MPD1    N1 3463   2.595   1.267   8.815 -0.1159 -0.2812 -0.3142
  224MPD1    H6 3464   2.507   1.226   8.785 -0.3333 -0.3223  0.3752
  224MPD1    H7 3465   2.663   1.192   8.806  1.1710  0.6924  1.3329
  225MPD1     C 3466   4.437   2.204  12.295 -0.7762 -0.7357  0.1935
  225MPD1    C1 3467   4.372   2.079  12.286 -0.2511  0.3665 -0.0749
  225MPD1    C2 3468   4.262   2.052  12.361 -0.3550  0.6064 -0.8432
  225MPD1    C3 3469   4.208   2.155  12.439 -0.1887  0.1265 -0.0788
  225MPD1    C4 3470   4.268   2.274  12.447 -0.0783 -0.3672 -0.3878
  225MPD1    C5 3471   4.383   2.302  12.374  0.0026  0.0221  0.1075
  225MPD1     H 3472   4.228   1.949  12.365 -2.9996  1.4052 -2.8429
  225MPD1    H1 3473   4.229   2.353  12.510 -0.7082 -0.3347 -0.8151
  225MPD1    H2 3474   4.527   2.223  12.237  0.2652  1.4007  2.4910
  225MPD1    H3 3475   4.434   2.396  12.388  1.0616 -0.3107 -1.4857
  225MPD1     N 3476   4.084   2.142  12.512  0.0431 -0.0208 -0.3873
  225MPD1    H5 3477   4.039   2.226  12.548  0.5685  0.8967 -1.8720
  225MPD1    N1 3478   4.432   1.975  12.213  0.3606  0.1167 -0.1898
  225MPD1    H6 3479   4.368   1.910  12.168  3.0570 -1.3645 -1.8205
  225MPD1    H7 3480   4.501   2.001  12.143  1.4425 -1.6359  0.2544
  226MPD1     C 3481   2.647   1.754   9.211  0.3763 -0.7471  0.0373
  226MPD1    C1 3482   2.755   1.758   9.304 -0.0768  0.4869  0.3039
  226MPD1    C2 3483   2.750   1.839   9.412  0.9168  0.2689 -0.1142
  226MPD1    C3 3484   2.650   1.936   9.422 -0.5420 -0.0705  0.7413
  226MPD1    C4 3485   2.552   1.941   9.327 -0.3228  0.1953  0.3374
  226MPD1    C5 3486   2.553   1.851   9.223  0.0083 -0.8178  0.1707
  226MPD1     H 3487   2.822   1.834   9.493 -1.4358 -0.3302  1.9273
  226MPD1    H1 3488   2.466   2.006   9.332  0.3592  1.0192  1.2543
  226MPD1    H2 3489   2.644   1.681   9.131  0.9790  1.8761 -2.3994
  226MPD1    H3 3490   2.480   1.859   9.143  1.1063 -3.8083 -1.1434
  226MPD1     N 3491   2.668   2.031   9.529 -0.4977 -0.2809  0.6308
  226MPD1    H5 3492   2.740   2.008   9.597 -0.1252 -1.7603 -0.2457
  226MPD1    N1 3493   2.847   1.650   9.301  0.3308 -0.7379 -0.3955
  226MPD1    H6 3494   2.941   1.674   9.331 -0.5965  0.1529  1.7668
  226MPD1    H7 3495   2.856   1.607   9.209  0.2649 -2.6194  0.4643
  227MPD1     C 3496   1.975   2.523  10.007  0.3991  0.3901 -0.3413
  227MPD1    C1 3497   1.985   2.422   9.923  0.3844  0.0790  0.0217
  227MPD1    C2 3498   2.110   2.388   9.866 -0.3515 -0.2619  0.3518
  227MPD1    C3 3499   2.219   2.460   9.893  0.0340 -0.5760  0.7188
  227MPD1    C4 3500   2.210   2.564   9.987 -0.6669 -0.6740 -0.2750
  227MPD1    C5 3501   2.088   2.592  10.050  0.1835 -0.4701 -0.1762
  227MPD1     H 3502   2.119   2.313   9.788  0.7355  2.1008 -1.7990
  227MPD1    H1 3503   2.293   2.631  10.003 -2.3496  1.3608 -0.0603
  227MPD1    H2 3504   1.880   2.540  10.057 -0.4802 -2.0280 -1.2197
  227MPD1    H3 3505   2.086   2.686  10.103  0.1844 -1.7715  2.1094
  227MPD1     N 3506   2.337   2.426   9.824  0.4200  0.7891  0.2896
  227MPD1    H5 3507   2.329   2.356   9.752  1.2017  0.7769  0.2174
  227MPD1    N1 3508   1.877   2.337   9.890  0.2143  0.5784 -0.0217
  227MPD1    H6 3509   1.878   2.303   9.794  0.5047 -1.8256  0.8134
  227MPD1    H7 3510   1.786   2.377   9.914  0.4937  0.0010  1.9931
  228MPD1     C 3511   0.038   3.974  11.962 -0.0350  0.0687 -0.2713
  228MPD1    C1 3512   0.155   4.005  12.030  0.4880 -1.2041  0.1311
  228MPD1    C2 3513   0.153   4.101  12.130 -0.1344 -0.4461  0.2974
  228MPD1    C3 3514   0.032   4.157  12.169 -0.1210 -0.0841  0.0758
  228MPD1    C4 3515   4.652   4.111  12.107 -0.4207  0.4242  0.4013
  228MPD1    C5 3516   4.658   4.020  12.007  1.1521  0.1711 -0.5476
  228MPD1     H 3517   0.247   4.117  12.182  0.9826 -2.0139 -1.2383
  228MPD1    H1 3518   4.553   4.150  12.128 -0.9597 -1.0300  0.5466
  228MPD1    H2 3519   0.035   3.906  11.878  4.7931 -1.8131  1.0928
  228MPD1    H3 3520   4.564   3.999  11.956  1.0812 -3.2722  1.0082
  228MPD1     N 3521   0.034   4.249  12.284  0.7595  0.3913  0.1235
  228MPD1    H5 3522   0.126   4.262  12.325  1.6213  0.0638 -1.6937
  228MPD1    N1 3523   0.274   3.951  11.986  0.9971  0.3848  0.8385
  228MPD1    H6 3524   0.352   3.983  12.042  0.2441  1.3668  1.3303
  228MPD1    H7 3525   0.269   3.849  11.992 -1.7024  0.5282  0.9474
  229MPD1     C 3526   0.274   3.870  14.501  0.1709  0.1017  0.2869
  229MPD1    C1 3527   0.313   3.754  14.436  0.2971 -0.3033 -0.2471
  229MPD1    C2 3528   0.404   3.676  14.508 -0.3719  0.3490  0.0072
  229MPD1    C3 3529   0.470   3.714  14.620  0.5406 -0.7943 -0.6386
  229MPD1    C4 3530   0.435   3.832  14.681  0.4227 -0.0644 -0.5137
  229MPD1    C5 3531   0.346   3.915  14.614  0.2176  0.0845 -0.2640
  229MPD1     H 3532   0.415   3.575  14.468  2.0440  0.4665  0.3701
  229MPD1    H1 3533   0.476   3.872  14.774  0.0236  0.2453 -0.4703
  229MPD1    H2 3534   0.191   3.924  14.459  0.1137  0.1623  0.4774
  229MPD1    H3 3535   0.330   4.017  14.649  2.2111 -0.3348  1.8854
  229MPD1     N 3536   0.563   3.646  14.684 -0.3487 -0.6698 -0.8541
  229MPD1    H5 3537   0.596   3.690  14.770 -0.7629 -1.7283 -0.1472
  229MPD1    N1 3538   0.237   3.681  14.341 -0.5156  0.5124  0.1201
  229MPD1    H6 3539   0.200   3.747  14.273 -0.1353  1.0122  0.4034
  229MPD1    H7 3540   0.295   3.611  14.295 -1.3326 -1.4206  2.0133
  230MPD1     C 3541   0.989   3.418  15.573  0.4406  0.5634  0.8415
  230MPD1    C1 3542   1.086   3.390  15.477 -0.1597  0.0095  0.0322
  230MPD1    C2 3543   1.053   3.373  15.349 -0.2261 -0.0489 -0.3298
  230MPD1    C3 3544   0.927   3.412  15.308  0.2755 -0.2929 -0.1699
  230MPD1    C4 3545   0.825   3.449  15.394 -0.2260  1.1793  0.6902
  230MPD1    C5 3546   0.860   3.442  15.528 -0.0244  0.1601 -1.0353
  230MPD1     H 3547   1.124   3.341  15.273 -1.1907 -0.9718 -0.8437
  230MPD1    H1 3548   0.725   3.479  15.366 -0.6378 -0.9896 -0.1745
  230MPD1    H2 3549   1.003   3.411  15.680 -0.9203  0.9581  1.0521
  230MPD1    H3 3550   0.780   3.450  15.601  1.8211 -0.9870  1.0796
  230MPD1     N 3551   0.905   3.412  15.168  0.1045 -0.1544 -0.4712
  230MPD1    H5 3552   0.986   3.393  15.109  0.2057 -0.6546 -0.1717
  230MPD1    N1 3553   1.218   3.369  15.520  0.3491  0.3845  0.0496
  230MPD1    H6 3554   1.282   3.365  15.441  2.4848  3.5315  1.6136
  230MPD1    H7 3555   1.253   3.437  15.587 -2.0530 -0.8360  2.5334
  231MPD1     C 3556   3.366   1.164  15.166 -0.0571 -0.0885 -0.5989
  231MPD1    C1 3557   3.380   1.173  15.034  0.7048  0.6230 -0.1755
  231MPD1    C2 3558   3.506   1.188  14.984  0.2000 -0.3881 -0.4832
  231MPD1    C3 3559   3.612   1.210  15.066 -0.1109 -0.2376 -0.2808
  231MPD1    C4 3560   3.601   1.201  15.197 -0.0209 -0.2550 -0.0627
  231MPD1    C5 3561   3.474   1.174  15.248 -0.3232  0.2353 -0.1948
  231MPD1     H 3562   3.522   1.185  14.877 -0.1303 -1.1293 -0.5111
  231MPD1    H1 3563   3.683   1.201  15.268 -0.3518 -0.2940  0.3183
  231MPD1    H2 3564   3.277   1.137  15.222  0.4733  0.8212  0.6743
  231MPD1    H3 3565   3.456   1.176  15.355 -3.9797 -0.1524 -0.8198
  231MPD1     N 3566   3.741   1.224  15.008  0.4276  0.6602  0.2059
  231MPD1    H5 3567   3.757   1.195  14.912 -0.0824  2.7137 -0.5122
  231MPD1    N1 3568   3.277   1.131  14.947  0.4625 -0.4656  0.4829
  231MPD1    H6 3569   3.289   1.165  14.851  0.2868  1.5260  1.1631
  231MPD1    H7 3570   3.185   1.164  14.975 -0.1408 -1.2844 -0.5302
  232MPD1     C 3571   1.035   1.690   0.323 -0.5265 -0.6445  0.0948
  232MPD1    C1 3572   1.008   1.658   0.454 -0.0824  0.2321 -0.3453
  232MPD1    C2 3573   0.982   1.766   0.541 -0.0951  0.3736  0.7009
  232MPD1    C3 3574   0.962   1.893   0.495  0.2360  0.6029  0.1625
  232MPD1    C4 3575   0.974   1.918   0.364 -0.0337  0.7258 -0.1330
  232MPD1    C5 3576   1.007   1.819   0.276  0.6488 -0.4545 -0.8420
  232MPD1     H 3577   0.945   1.743   0.641  0.8840 -1.3363  0.6725
  232MPD1    H1 3578   0.953   2.011   0.311 -0.2982  1.3215  1.0261
  232MPD1    H2 3579   1.059   1.611   0.252 -1.5206 -1.3609  0.5663
  232MPD1    H3 3580   1.024   1.848   0.173  0.3694 -2.4303 -1.4478
  232MPD1     N 3581   0.904   1.981   0.590 -0.4190  0.3478 -0.1353
  232MPD1    H5 3582   0.900   1.941   0.683 -0.6089  0.6544 -0.0105
  232MPD1    N1 3583   1.033   1.532   0.505  0.1646  0.7224  0.3674
  232MPD1    H6 3584   0.985   1.509   0.591 -0.2664  0.6128  0.0962
  232MPD1    H7 3585   1.010   1.453   0.445 -1.5109  0.8033  0.9059
  233MPD1     C 3586   1.884   2.946   1.494 -0.8500 -0.5313 -0.3571
  233MPD1    C1 3587   2.019   2.981   1.497  0.5140 -0.1481 -0.6951
  233MPD1    C2 3588   2.114   2.890   1.453 -0.5709 -0.4791 -0.5862
  233MPD1    C3 3589   2.082   2.759   1.430 -0.3204  0.7301  0.4039
  233MPD1    C4 3590   1.949   2.724   1.421  0.5762 -0.2895  0.7976
  233MPD1    C5 3591   1.857   2.821   1.448 -0.2177 -0.6332 -0.7685
  233MPD1     H 3592   2.212   2.936   1.442 -1.8910  1.7671 -2.9374
  233MPD1    H1 3593   1.918   2.623   1.398 -1.5103  0.7517 -1.0080
  233MPD1    H2 3594   1.797   3.007   1.515 -1.0689 -1.5095  1.6112
  233MPD1    H3 3595   1.757   2.784   1.431  0.2395 -1.6852 -1.1851
  233MPD1     N 3596   2.178   2.650   1.414  0.3289  0.4085 -0.2024
  233MPD1    H5 3597   2.133   2.560   1.402 -0.0830  0.7430 -1.1640
  233MPD1    N1 3598   2.052   3.117   1.524  0.0219  0.2562  0.8229
  233MPD1    H6 3599   2.147   3.147   1.545  0.4126 -0.7198  0.4523
  233MPD1    H7 3600   1.978   3.163   1.578 -1.3342 -0.8657 -0.0861
  234MPD1     C 3601   3.937   4.440   9.496  0.1396  0.3475 -0.4383
  234MPD1    C1 3602   3.963   4.562   9.554  0.8861 -0.6707 -0.0073
  234MPD1    C2 3603   3.914   4.679   9.492 -0.3476 -0.2370  0.7375
  234MPD1    C3 3604   3.835   4.664   9.376  0.0605 -0.2854  0.3547
  234MPD1    C4 3605   3.808   4.543   9.321  0.5108 -0.0773  0.4659
  234MPD1    C5 3606   3.859   4.429   9.381 -0.7277 -0.0791  0.8772
  234MPD1     H 3607   3.940   0.034   9.540 -0.0472 -0.3578  0.8136
  234MPD1    H1 3608   3.760   4.520   9.226  1.3200 -0.9306  0.2672
  234MPD1    H2 3609   3.982   4.350   9.535  0.3245 -0.0817 -1.6460
  234MPD1    H3 3610   3.836   4.330   9.343  0.7180  0.7865 -2.3464
  234MPD1     N 3611   3.791   0.050   9.313 -0.2744  0.1555  0.1948
  234MPD1    H5 3612   3.831   0.135   9.352  0.6765  0.0300 -0.4960
  234MPD1    N1 3613   4.071   4.568   9.649  0.1964 -0.2796  0.1514
  234MPD1    H6 3614   4.075   4.480   9.699  1.2717  0.0706  0.6628
  234MPD1    H7 3615   4.042   4.637   9.717  0.6110  0.3250 -0.2912
  235MPD1     C 3616   0.375   2.363  10.678  0.2342 -0.5312 -0.0405
  235MPD1    C1 3617   0.323   2.423  10.570 -0.0044 -0.2851 -0.3729
  235MPD1    C2 3618   0.387   2.540  10.533 -0.7544 -0.1203 -0.1601
  235MPD1    C3 3619   0.477   2.611  10.615 -0.1379  0.3719 -0.2334
  235MPD1    C4 3620   0.520   2.554  10.735  0.4024  0.2664 -0.6544
  235MPD1    C5 3621   0.464   2.432  10.758 -0.0852 -0.3387  0.4848
  235MPD1     H 3622   0.354   2.583  10.440  1.2580  0.6821 -0.5130
  235MPD1    H1 3623   0.584   2.591  10.815 -0.0525 -1.3975  0.4868
  235MPD1    H2 3624   0.352   2.260  10.703  1.4635 -0.4731  1.2938
  235MPD1    H3 3625   0.514   2.372  10.833  1.6376 -0.7559 -0.9818
  235MPD1     N 3626   0.524   2.733  10.558  0.0097  0.1686  0.4213
  235MPD1    H5 3627   0.498   2.751  10.461 -1.4878  0.9845  0.9755
  235MPD1    N1 3628   0.242   2.351  10.483 -0.1760  0.2461 -0.2593
  235MPD1    H6 3629   0.181   2.421  10.442 -0.9117  0.1266  0.6377
  235MPD1    H7 3630   0.181   2.294  10.542  1.5728 -0.5119  0.8210
  236MPD1     C 3631   4.226   3.416   9.804 -0.3399 -0.4780 -0.2425
  236MPD1    C1 3632   4.270   3.298   9.862  0.2334 -0.1247 -0.2732
  236MPD1    C2 3633   4.368   3.301   9.962 -0.0867  0.2406  0.2406
  236MPD1    C3 3634   4.411   3.425  10.016  0.2900 -0.3341  0.2364
  236MPD1    C4 3635   4.347   3.538   9.970  0.7110  0.4763 -0.0537
  236MPD1    C5 3636   4.267   3.536   9.858 -0.0079  0.1321  0.3605
  236MPD1     H 3637   4.393   3.208  10.012  0.6692  0.2937 -0.0428
  236MPD1    H1 3638   4.359   3.637  10.014 -0.6336  0.2801  0.7534
  236MPD1    H2 3639   4.155   3.423   9.722 -0.5344  0.5931  0.0074
  236MPD1    H3 3640   4.224   3.630   9.827  0.3509  0.3102  0.4002
  236MPD1     N 3641   4.486   3.437  10.131  0.4497  0.5734 -0.1456
  236MPD1    H5 3642   4.504   3.536  10.146  1.1325  0.1237  1.9964
  236MPD1    N1 3643   4.246   3.187   9.794 -0.6652 -0.1098 -0.7230
  236MPD1    H6 3644   4.252   3.105   9.854 -0.1013 -1.3079 -2.4379
  236MPD1    H7 3645   4.156   3.178   9.747 -1.3237  1.4257  0.2414
  237MPD1     C 3646   4.019   2.895  16.029  0.2182 -0.3946  0.0839
  237MPD1    C1 3647   3.989   2.945  15.904 -0.5984 -0.4961 -0.2539
  237MPD1    C2 3648   3.940   2.854  15.815  0.0451 -0.3741  0.5463
  237MPD1    C3 3649   3.948   2.718  15.840  0.2653 -0.4030 -0.1552
  237MPD1    C4 3650   4.008   2.668  15.951  0.0669 -0.1499  0.3740
  237MPD1    C5 3651   4.033   2.765  16.048 -0.0306 -0.4820 -0.3996
  237MPD1     H 3652   3.885   2.875  15.724  1.4202  0.1348 -0.1691
  237MPD1    H1 3653   4.027   2.562  15.955 -1.1588 -0.4134 -0.8879
  237MPD1    H2 3654   4.050   2.961  16.109  1.3516 -2.0958  1.0422
  237MPD1    H3 3655   4.064   2.722  16.143  0.1205 -0.3455 -0.3867
  237MPD1     N 3656   3.887   2.621  15.751  0.3606 -0.3806 -0.2962
  237MPD1    H5 3657   3.887   2.525  15.784 -2.1655 -0.3532 -0.1700
  237MPD1    N1 3658   3.965   3.082  15.901 -0.6280 -0.0456 -0.2446
  237MPD1    H6 3659   4.034   3.143  15.944 -0.4073  0.5980 -1.5021
  237MPD1    H7 3660   3.957   3.114  15.804 -1.7107  1.0387  0.2066
  238MPD1     C 3661   1.459   0.861  15.004 -0.1704 -0.5167  0.3929
  238MPD1    C1 3662   1.371   0.795  15.087 -0.0681 -0.6466 -0.2013
  238MPD1    C2 3663   1.241   0.764  15.040  0.1113  0.5201  0.1193
  238MPD1    C3 3664   1.205   0.788  14.911  0.3424 -0.4014 -0.2709
  238MPD1    C4 3665   1.296   0.863  14.830 -0.1856  0.0197  0.4729
  238MPD1    C5 3666   1.420   0.896  14.881  0.0033  0.3334  0.0259
  238MPD1     H 3667   1.178   0.703  15.105 -0.2711 -0.4246 -1.1239
  238MPD1    H1 3668   1.267   0.897  14.731  1.0824 -0.3659 -0.0244
  238MPD1    H2 3669   1.556   0.899  15.037  1.7548 -3.7287 -1.6333
  238MPD1    H3 3670   1.485   0.959  14.821 -1.2037  1.6381  0.1003
  238MPD1     N 3671   1.087   0.740  14.850  0.0257 -0.5030  0.3752
  238MPD1    H5 3672   1.082   0.762  14.751  0.2807 -4.8313 -0.6013
  238MPD1    N1 3673   1.405   0.773  15.221  0.5939  0.3102  0.0333
  238MPD1    H6 3674   1.359   0.695  15.267 -1.3992  0.7104 -1.2294
  238MPD1    H7 3675   1.505   0.758  15.226  0.1612 -2.2698  1.0103
  239MPD1     C 3676   1.170   1.371  15.385 -0.2423  0.2380 -0.4830
  239MPD1    C1 3677   1.273   1.392  15.303 -0.3607 -0.2805 -1.4533
  239MPD1    C2 3678   1.257   1.423  15.170 -0.8001  0.9617 -0.2316
  239MPD1    C3 3679   1.132   1.435  15.116 -0.4025 -0.3828 -0.7653
  239MPD1    C4 3680   1.024   1.410  15.198  0.6244  0.2457  0.1538
  239MPD1    C5 3681   1.045   1.384  15.331  0.3355 -0.3843 -0.5492
  239MPD1     H 3682   1.344   1.446  15.111 -1.3580 -0.9718 -1.7897
  239MPD1    H1 3683   0.924   1.422  15.156 -0.3490 -1.5864  1.9225
  239MPD1    H2 3684   1.179   1.347  15.490  1.3699 -1.1571 -0.9273
  239MPD1    H3 3685   0.953   1.373  15.387 -0.7851  1.6690 -1.9880
  239MPD1     N 3686   1.099   1.458  14.979 -0.3353 -0.4005 -0.1851
  239MPD1    H5 3687   1.001   1.474  14.957 -1.5511 -2.1817  3.9999
  239MPD1    N1 3688   1.401   1.387  15.356  0.5744  0.4628 -0.5591
  239MPD1    H6 3689   1.407   1.420  15.452  1.7034 -3.3624  0.6652
  239MPD1    H7 3690   1.460   1.448  15.300  0.7003  1.8602  1.1211
  240MPD1     C 3691   0.901   1.199  13.923 -0.5509  0.1221  0.0867
  240MPD1    C1 3692   0.760   1.186  13.921 -0.1992  0.5667 -0.5441
  240MPD1    C2 3693   0.693   1.143  14.035 -0.5172  0.1912 -0.2868
  240MPD1    C3 3694   0.766   1.079  14.132 -0.2040  0.4891 -0.5720
  240MPD1    C4 3695   0.896   1.074  14.125 -0.6122  0.8449 -0.5255
  240MPD1    C5 3696   0.961   1.131  14.018  0.7682  0.5400 -0.7125
  240MPD1     H 3697   0.585   1.148  14.031 -0.7056 -1.2836  3.2055
  240MPD1    H1 3698   0.963   1.037  14.202 -0.6497 -1.5911 -1.6424
  240MPD1    H2 3699   0.962   1.246  13.847 -1.9600 -0.9346 -1.6822
  240MPD1    H3 3700   1.066   1.153  14.027  0.7077 -0.1331  1.7308
  240MPD1     N 3701   0.693   1.034  14.246 -0.2103 -0.2774 -0.1789
  240MPD1    H5 3702   0.592   1.043  14.245  0.0285  2.2704 -1.2484
  240MPD1    N1 3703   0.690   1.255  13.815  0.0748 -0.3969  0.5241
  240MPD1    H6 3704   0.594   1.229  13.795  0.6067 -1.1178 -1.1320
  240MPD1    H7 3705   0.734   1.243  13.724 -2.3006  1.7489 -0.9190
  241MPD1     C 3706   0.972   1.076  15.201  0.2985 -0.5349 -0.1848
  241MPD1    C1 3707   0.835   1.051  15.206 -0.6380 -0.3087 -0.1613
  241MPD1    C2 3708   0.768   1.020  15.085 -0.3072  0.4442  0.1381
  241MPD1    C3 3709   0.834   1.027  14.966  0.2714 -0.0856  0.8518
  241MPD1    C4 3710   0.969   1.045  14.962 -0.7264 -0.3904 -0.1681
  241MPD1    C5 3711   1.035   1.080  15.079 -0.2356  0.0508 -0.3988
  241MPD1     H 3712   0.666   0.986  15.091 -0.8681  1.8124 -1.5737
  241MPD1    H1 3713   1.020   1.056  14.867  0.6476  1.5708  0.7977
  241MPD1    H2 3714   1.030   1.088  15.292 -1.3387  0.7855  0.6897
  241MPD1    H3 3715   1.141   1.103  15.082 -0.1644 -0.3935  0.3289
  241MPD1     N 3716   0.775   1.006  14.841  0.3997 -0.2440  0.4556
  241MPD1    H5 3717   0.845   0.987  14.770  1.3491  3.5535  0.3575
  241MPD1    N1 3718   0.765   1.038  15.328 -0.0418  0.3425 -0.0835
  241MPD1    H6 3719   0.664   1.032  15.319 -0.0136 -1.7313  0.8012
  241MPD1    H7 3720   0.795   1.116  15.386 -2.5541  2.3457 -1.5334
  242MPD1     C 3721   0.101   0.260  15.717 -0.4201 -0.1175 -0.0328
  242MPD1    C1 3722   0.016   0.150  15.722 -0.4214  0.4908  0.5964
  242MPD1    C2 3723   0.003   0.066  15.606  0.1639 -0.5275  0.1618
  242MPD1    C3 3724   0.067   0.096  15.487 -0.8997  0.2817 -0.5424
  242MPD1    C4 3725   0.140   0.214  15.485  0.3209 -0.1332  0.2989
  242MPD1    C5 3726   0.160   0.294  15.595  0.0602 -0.5476  0.3561
  242MPD1     H 3727   4.688   4.712  15.620 -1.0916  0.1068 -0.4808
  242MPD1    H1 3728   0.188   0.253  15.396  1.7853 -1.2455  0.5956
  242MPD1    H2 3729   0.113   0.330  15.799 -1.3982  1.3437 -1.1376
  242MPD1    H3 3730   0.218   0.386  15.592  0.0879 -0.6269 -1.7130
  242MPD1     N 3731   0.069   0.011  15.371 -0.0485 -0.5173  0.8764
  242MPD1    H5 3732   0.139   0.036  15.302  0.8385 -1.1419  1.5418
  242MPD1    N1 3733   4.689   0.119  15.848 -0.2820 -0.2047 -0.1812
  242MPD1    H6 3734   4.614   0.053  15.830  0.5386 -0.9572 -0.8470
  242MPD1    H7 3735   4.658   0.201  15.900  1.6967  0.8983 -0.6983
  243MPD1     C 3736   1.415   3.700   0.277  0.0319 -0.2190  0.6735
  243MPD1    C1 3737   1.453   3.569   0.262  0.1709 -0.3358 -0.4413
  243MPD1    C2 3738   1.514   3.537   0.149  0.1786  0.1711 -0.7441
  243MPD1    C3 3739   1.504   3.615   0.032  0.1643  0.5621  0.3044
  243MPD1    C4 3740   1.442   3.732   0.038 -0.3793 -1.3777 -0.6127
  243MPD1    C5 3741   1.404   3.773   0.157 -0.4488 -0.2577 -0.2663
  243MPD1     H 3742   1.562   3.440   0.136 -0.7122 -0.4840  0.8789
  243MPD1    H1 3743   1.428   3.797  17.707  1.9459 -1.2274 -0.8825
  243MPD1    H2 3744   1.398   3.733   0.378  1.9320  0.1250  0.8722
  243MPD1    H3 3745   1.381   3.879   0.158  2.8675  0.4692 -0.2307
  243MPD1     N 3746   1.565   3.571  17.668  0.1602  0.3233 -0.4020
  243MPD1    H5 3747   1.603   3.477  17.669 -1.4973 -0.3568 -2.3593
  243MPD1    N1 3748   1.472   3.482   0.377 -0.0908 -0.2845 -0.0592
  243MPD1    H6 3749   1.400   3.483   0.449 -1.8315 -0.9041 -1.7914
  243MPD1    H7 3750   1.471   3.386   0.345 -0.4321 -0.1676 -0.4004
  244MPD1     C 3751   1.872   2.826  17.679 -0.3762  0.9874 -0.1424
  244MPD1    C1 3752   1.841   2.932   0.003  0.1745 -0.0895  0.0627
  244MPD1    C2 3753   1.812   3.048  17.690 -0.1033 -0.3966 -0.4321
  244MPD1    C3 3754   1.814   3.057  17.553 -0.0199 -0.0805  0.2808
  244MPD1    C4 3755   1.840   2.946  17.471 -0.0453  0.2422  0.6890
  244MPD1    C5 3756   1.874   2.836  17.539 -0.5533 -0.2807 -0.0928
  244MPD1     H 3757   1.778   3.134  17.746  1.6427  0.3092 -0.4431
  244MPD1    H1 3758   1.832   2.955  17.364  1.3444  2.0804  0.7320
  244MPD1    H2 3759   1.889   2.731  17.729  0.9539  0.3043 -1.8892
  244MPD1    H3 3760   1.900   2.749  17.479 -4.2480 -2.5555  1.6530
  244MPD1     N 3761   1.779   3.186  17.507  0.0945 -0.7170  0.1965
  244MPD1    H5 3762   1.754   3.248  17.583 -0.2432 -1.8840  1.0457
  244MPD1    N1 3763   1.857   2.931   0.143  0.0804 -0.1635 -0.1182
  244MPD1    H6 3764   1.833   2.839   0.178 -1.4281  0.4717  0.4944
  244MPD1    H7 3765   1.779   2.986   0.177  1.2373  1.1526  0.4388
  245MPD1     C 3766   4.299   3.204  13.272  0.6091  0.1571 -0.3158
  245MPD1    C1 3767   4.242   3.237  13.398  0.0971  0.3094 -1.2839
  245MPD1    C2 3768   4.200   3.363  13.418 -0.4928 -0.2813  0.3002
  245MPD1    C3 3769   4.255   3.465  13.343  0.6855 -0.0056 -0.2986
  245MPD1    C4 3770   4.337   3.437  13.231  0.2480  0.4336 -0.2425
  245MPD1    C5 3771   4.360   3.309  13.203 -0.5885 -0.5251  0.2210
  245MPD1     H 3772   4.143   3.381  13.509  0.8405 -1.1675  1.3117
  245MPD1    H1 3773   4.383   3.514  13.170 -0.1568 -0.1805 -1.3184
  245MPD1    H2 3774   4.331   3.105  13.244 -0.9164  0.1373 -1.9621
  245MPD1    H3 3775   4.423   3.279  13.121 -2.1840 -0.2834 -1.1014
  245MPD1     N 3776   4.222   3.592  13.378 -0.0094 -0.2438  0.4869
  245MPD1    H5 3777   4.144   3.599  13.443  0.2513 -0.2915  0.8066
  245MPD1    N1 3778   4.195   3.130  13.477 -0.6571  0.3634 -0.0794
  245MPD1    H6 3779   4.265   3.056  13.475 -0.4780  0.5803 -2.4284
  245MPD1    H7 3780   4.186   3.153  13.575 -0.0382 -1.1839  0.3324
  246MPD1     C 3781   0.633   3.166   9.848  0.4975 -0.2803  0.0942
  246MPD1    C1 3782   0.587   3.277   9.771  0.3013 -0.9722  0.0295
  246MPD1    C2 3783   0.454   3.269   9.735  0.0140  1.0064 -0.4026
  246MPD1    C3 3784   0.368   3.169   9.775  0.6492  0.1606  0.1797
  246MPD1    C4 3785   0.418   3.062   9.850  0.1461 -0.1561  0.1833
  246MPD1    C5 3786   0.551   3.066   9.889  0.5582  0.4133  0.5102
  246MPD1     H 3787   0.415   3.348   9.671 -0.2677  0.2420 -1.1737
  246MPD1    H1 3788   0.350   2.993   9.898 -0.3742  2.6678  3.4640
  246MPD1    H2 3789   0.740   3.161   9.867  1.2513  0.3791 -3.9157
  246MPD1    H3 3790   0.590   2.981   9.944 -0.2011 -0.2012  0.1034
  246MPD1     N 3791   0.239   3.186   9.739 -0.1836 -0.2097  0.3190
  246MPD1    H5 3792   0.218   3.269   9.685  0.7897 -0.6821 -0.7842
  246MPD1    N1 3793   0.670   3.370   9.715  0.1754  0.2434 -0.0035
  246MPD1    H6 3794   0.756   3.389   9.766 -0.0572  2.1130 -0.2961
  246MPD1    H7 3795   0.614   3.454   9.698  0.0918  0.2693  0.3969
  247MPD1     C 3796   3.598   4.661  16.626 -0.9302  0.2236  0.5329
  247MPD1    C1 3797   3.518   4.640  16.510 -0.0636  0.6983 -0.7147
  247MPD1    C2 3798   3.452   4.521  16.503 -0.4311 -0.0128 -0.2515
  247MPD1    C3 3799   3.481   4.414  16.587  0.0507  0.5052  0.0541
  247MPD1    C4 3800   3.576   4.434  16.690 -0.1511 -0.1933 -0.1344
  247MPD1    C5 3801   3.631   4.561  16.708 -0.4779  0.3367 -0.4334
  247MPD1     H 3802   3.398   4.510  16.409 -0.9388  0.7934 -0.0493
  247MPD1    H1 3803   3.600   4.353  16.758 -1.4364 -0.9578 -0.5813
  247MPD1    H2 3804   3.645   0.018  16.646  0.5654 -0.5178  0.5857
  247MPD1    H3 3805   3.686   4.589  16.797 -1.0112 -0.4834  0.1589
  247MPD1     N 3806   3.417   4.287  16.574 -0.6413  0.0183  0.4275
  247MPD1    H5 3807   3.454   4.207  16.623  1.0535 -0.2449 -1.2785
  247MPD1    N1 3808   3.491   0.006  16.423 -0.4926  0.4589 -0.0723
  247MPD1    H6 3809   3.562   0.078  16.417 -0.7522  0.6644 -0.6971
  247MPD1    H7 3810   3.477   4.719  16.325 -2.0267  0.1530  0.2265
  248MPD1     C 3811   4.229   2.694   0.406 -0.6793 -0.1446 -0.7177
  248MPD1    C1 3812   4.328   2.789   0.420 -0.4594  0.3772  0.2169
  248MPD1    C2 3813   4.283   2.919   0.418  0.1335  0.3413 -0.5961
  248MPD1    C3 3814   4.145   2.948   0.414  0.0835  0.5508  0.3836
  248MPD1    C4 3815   4.052   2.850   0.407  0.0584  0.4693  0.8650
  248MPD1    C5 3816   4.097   2.727   0.386 -0.2525 -0.3945 -0.9462
  248MPD1     H 3817   4.354   3.001   0.420  2.3292 -1.5742  1.1297
  248MPD1    H1 3818   3.945   2.866   0.398  0.1094  0.5332  0.3386
  248MPD1    H2 3819   4.256   2.589   0.401 -0.6875 -0.1346 -0.9733
  248MPD1    H3 3820   4.011   2.662   0.376 -1.3106  0.6653  1.3502
  248MPD1     N 3821   4.102   3.082   0.425 -0.4965 -0.3229 -0.0214
  248MPD1    H5 3822   4.174   3.140   0.468 -1.9515  1.6733 -0.2917
  248MPD1    N1 3823   4.465   2.767   0.402 -0.7151 -0.0262 -0.7363
  248MPD1    H6 3824   4.515   2.840   0.453  1.9740  0.0504 -3.4295
  248MPD1    H7 3825   4.483   2.683   0.455 -2.1205 -0.7648 -1.4242
  249MPD1     C 3826   0.254   2.045   9.773  0.5163 -0.3383  0.2685
  249MPD1    C1 3827   0.386   2.090   9.754 -0.6898  0.5266  0.2762
  249MPD1    C2 3828   0.474   2.042   9.851  0.6697 -0.8576  0.2540
  249MPD1    C3 3829   0.439   1.968   9.961  0.1759  0.0435 -1.0066
  249MPD1    C4 3830   0.303   1.932   9.981 -0.3064  0.3247  0.0344
  249MPD1    C5 3831   0.219   1.971   9.884  0.1843  0.4007 -0.9208
  249MPD1     H 3832   0.576   2.080   9.845 -0.2211  1.6626  1.2324
  249MPD1    H1 3833   0.266   1.872  10.063 -0.8614  0.4309 -0.1366
  249MPD1    H2 3834   0.171   2.078   9.712  0.9136 -2.3242 -1.3379
  249MPD1    H3 3835   0.114   1.948   9.901  0.5762 -1.5293 -1.0940
  249MPD1     N 3836   0.552   1.928  10.049 -0.0590  0.2485  0.5134
  249MPD1    H5 3837   0.640   1.951  10.002 -0.7978  0.1623 -0.9081
  249MPD1    N1 3838   0.435   2.147   9.635  0.0943  0.2956  0.8757
  249MPD1    H6 3839   0.516   2.204   9.661  2.1079 -2.4942  0.6822
  249MPD1    H7 3840   0.364   2.209   9.596  1.9775  1.7477 -0.2627
  250MPD2     C 3841   1.613   1.639  13.120  0.3429 -0.3394  0.2964
  250MPD2    C1 3842   1.683   1.614  13.003 -1.0337  0.8694  0.2476
  250MPD2    C2 3843   1.654   1.503  12.923  0.5257  0.9137  0.7689
  250MPD2    C3 3844   1.563   1.412  12.971  0.2909  0.6017 -0.5613
  250MPD2    C4 3845   1.507   1.425  13.092  0.1631 -0.2216 -0.6070
  250MPD2    C5 3846   1.525   1.537  13.165 -0.2565  0.3045 -1.0979
  250MPD2     H 3847   1.691   1.506  12.822  1.6724 -0.0484  1.1620
  250MPD2    H1 3848   1.429   1.357  13.123 -0.1140 -0.1705 -1.2022
  250MPD2    H2 3849   1.648   1.719  13.184  2.8074 -0.6187 -0.6780
  250MPD2    H3 3850   1.483   1.549  13.264 -2.8701 -0.3089 -2.1434
  250MPD2     N 3851   1.509   1.306  12.892 -0.2546 -0.2850 -0.3736
  250MPD2    H5 3852   1.441   1.244  12.934 -0.7182  0.4186 -0.0729
  250MPD2    N1 3853   1.799   1.701  12.981 -0.1282  0.1383 -0.0389
  250MPD2    H7 3854   1.820   1.772  13.051 -0.6914  0.6164 -0.3609
  251TMC3    C1 3855   2.005   1.791  12.896  0.0596 -0.7359  0.4797
  251TMC3    C2 3856   1.969   1.915  12.931 -0.1921 -0.5635  0.0034
  251TMC3    C3 3857   2.060   2.010  12.921 -0.0436 -0.5974  0.6920
  251TMC3    C4 3858   2.132   1.759  12.858  0.1830 -0.7505 -0.0255
  251TMC3    C5 3859   2.226   1.863  12.853 -0.4339  0.1685  0.4732
  251TMC3    C6 3860   2.189   1.988  12.882 -0.0651 -1.4683 -0.0030
  251TMC3     C 3861   1.901   1.686  12.891  0.1819  0.0858 -0.5259
  251TMC3     O 3862   1.937   1.579  12.841  0.2770 -0.2700  0.5854
  251TMC3     H 3863   1.869   1.947  12.960 -0.5832 -0.5626 -1.3532
  251TMC3    H1 3864   2.175   1.661  12.842 -1.6246 -1.4087 -0.7186
  251TMC3    H2 3865   2.264   2.067  12.879 -1.4599 -0.0665  2.2056
  251TMC3    C7 3866   2.371   1.839  12.879 -0.5211 -0.1981 -0.2751
  251TMC3    C8 3867   2.029   2.122  13.009  0.0753  0.1018  0.0301
  251TMC3    O1 3868   2.446   1.931  12.860  0.2208 -1.0497 -0.3529
  251TMC3    O2 3869   1.935   2.196  12.981  0.0822 -0.7638  0.5516
  252TMC3    C1 3870   2.824   3.349   9.565 -0.4700 -0.2087 -0.3221
  252TMC3    C2 3871   2.957   3.350   9.600  0.0474  0.5103 -0.2952
  252TMC3    C3 3872   2.986   3.335   9.732 -0.3650 -0.2827  0.4035
  252TMC3    C4 3873   2.725   3.348   9.661  0.3378  0.6186 -0.4238
  252TMC3    C5 3874   2.769   3.344   9.792  0.3272  0.4409 -0.7069
  252TMC3    C6 3875   2.894   3.332   9.835 -0.0238  0.4239 -0.0297
  252TMC3     C 3876   2.787   3.430   9.451  0.7061  0.3787 -0.6440
  252TMC3     O 3877   2.858   3.421   9.353 -0.4765 -0.4266  0.9336
  252TMC3     H 3878   3.033   3.373   9.526  0.7731  1.5938  0.7894
  252TMC3    H1 3879   2.619   3.344   9.636  0.2163  2.1242 -0.1086
  252TMC3    H2 3880   2.919   3.345   9.940  0.0870 -0.0059 -0.0029
  252TMC3    C7 3881   2.668   3.320   9.889 -0.1781  0.3187 -0.3824
  252TMC3    C8 3882   3.128   3.350   9.767 -0.0776 -0.4914  0.4605
  252TMC3    O1 3883   2.557   3.367   9.862  0.3875 -0.2438  1.2309
  252TMC3    O2 3884   3.203   3.378   9.676 -0.1637 -0.1539 -0.0724
  253MPD2     C 3885   3.109   2.131  15.036  0.4904 -0.2329 -0.1313
  253MPD2    C1 3886   2.968   2.142  15.022  0.3721 -0.3792 -0.4094
  253MPD2    C2 3887   2.891   2.151  15.137 -0.5787  0.2691  0.0066
  253MPD2    C3 3888   2.948   2.164  15.262 -0.0063 -0.5370 -0.3781
  253MPD2    C4 3889   3.086   2.167  15.270 -0.0324 -0.2501  0.9137
  253MPD2    C5 3890   3.167   2.137  15.164  0.0936 -0.7380 -0.4515
  253MPD2     H 3891   2.782   2.148  15.134 -0.5071  0.4040 -2.4175
  253MPD2    H1 3892   3.143   2.181  15.361  0.8770  2.0451  0.0102
  253MPD2    H2 3893   3.177   2.129  14.952  0.3066 -4.1224 -0.1654
  253MPD2    H3 3894   3.273   2.124  15.179 -0.0145 -1.3632 -0.2471
  253MPD2     N 3895   2.872   2.185  15.380 -0.5576 -0.2038  0.2531
  253MPD2    H5 3896   2.924   2.201  15.466  2.1136 -2.3509 -0.9900
  253MPD2    N1 3897   2.897   2.147  14.899  0.3524 -0.1278 -1.2236
  253MPD2    H7 3898   2.797   2.155  14.911  0.3840 -0.4502 -0.7383
  254TMC3    C1 3899   2.694   2.186  15.541 -0.5210  0.0329  0.3796
  254TMC3    C2 3900   2.563   2.211  15.565 -0.9196  0.4905  1.2143
  254TMC3    C3 3901   2.507   2.204  15.691 -0.0477 -1.0765 -0.4408
  254TMC3    C4 3902   2.776   2.163  15.650  0.3054  0.0397 -0.0778
  254TMC3    C5 3903   2.720   2.161  15.774  0.3621  0.2784  0.3629
  254TMC3    C6 3904   2.589   2.192  15.804  0.1098 -0.2752  0.3572
  254TMC3     C 3905   2.737   2.176  15.402 -0.3950 -1.2370 -0.1476
  254TMC3     O 3906   2.652   2.143  15.320  0.0520 -0.2516 -0.4812
  254TMC3     H 3907   2.507   2.243  15.478 -0.0668  0.0320  0.4860
  254TMC3    H1 3908   2.880   2.136  15.644 -0.1558 -1.9074  0.7350
  254TMC3    H2 3909   2.552   2.192  15.907 -0.6114  0.4446  0.1020
  254TMC3    C7 3910   2.815   2.178  15.885 -0.6089 -0.2303 -0.0142
  254TMC3    C8 3911   2.389   2.279  15.703  0.5217 -0.5854 -0.1493
  254TMC3    O1 3912   2.788   2.135  15.994  0.4284  0.4957 -0.4964
  254TMC3    O2 3913   2.303   2.277  15.613  0.0140  0.3396  0.1351
  255MPD2     C 3914   2.000   4.299   9.484  0.8741 -0.2380  0.7312
  255MPD2    C1 3915   2.052   4.409   9.540  0.2321  0.2214 -0.6858
  255MPD2    C2 3916   1.989   4.531   9.529  0.2743 -0.1406 -0.3104
  255MPD2    C3 3917   1.875   4.540   9.457 -0.2617  0.1906 -0.2732
  255MPD2    C4 3918   1.821   4.430   9.392  0.3085  0.4127 -0.1178
  255MPD2    C5 3919   1.881   4.305   9.411 -0.1567  0.3554  0.6254
  255MPD2     H 3920   2.017   4.625   9.576 -1.7138  0.2842  0.0108
  255MPD2    H1 3921   1.721   4.429   9.349 -0.7176  1.1233  2.2756
  255MPD2    H2 3922   2.052   4.204   9.497 -1.1105 -1.6347 -1.6351
  255MPD2    H3 3923   1.836   4.222   9.357 -0.8348  0.9001  0.3399
  255MPD2     N 3924   1.828   4.673   9.443 -0.6227 -0.2798 -0.0019
  255MPD2    H5 3925   1.876   0.000   9.503  1.4803 -2.6398  0.9375
  255MPD2    N1 3926   2.174   4.405   9.619  0.2390  0.1149 -0.6595
  255MPD2    H7 3927   2.218   4.314   9.627  0.7127  0.2009 -2.3455
  256TMC3    C1 3928   2.352   4.467   9.761 -0.0708 -0.4247  0.5903
  256TMC3    C2 3929   2.460   4.552   9.764  0.1038 -0.0093  0.5342
  256TMC3    C3 3930   2.550   4.546   9.868 -0.2717 -0.8445 -0.7690
  256TMC3    C4 3931   2.341   4.368   9.846  0.1458  0.3021  0.3759
  256TMC3    C5 3932   2.433   4.358   9.947  0.6134 -0.2737 -0.3691
  256TMC3    C6 3933   2.537   4.453   9.964  0.4988 -0.4170 -0.4282
  256TMC3     C 3934   2.233   4.507   9.691  1.0309 -0.0950 -0.1238
  256TMC3     O 3935   2.229   4.626   9.690  0.0544  0.6001 -0.9348
  256TMC3     H 3936   2.467   4.626   9.684  0.5343 -0.3443  0.2635
  256TMC3    H1 3937   2.259   4.297   9.840  0.1334  0.4840 -1.6156
  256TMC3    H2 3938   2.606   4.440  10.047 -1.2049  0.0388  1.0516
  256TMC3    C7 3939   2.385   4.290  10.069 -0.4236 -0.2968 -0.5067
  256TMC3    C8 3940   2.641   4.656   9.887  0.0354  0.1517 -0.6889
  256TMC3    O1 3941   2.261   4.288  10.075 -0.4482 -0.3028 -0.1044
  256TMC3    O2 3942   2.733   4.614   9.961 -0.4326 -0.7419 -0.5919
  257MPD2     C 3943   0.770   1.701  13.334 -0.5636 -0.4118  0.2250
  257MPD2    C1 3944   0.764   1.602  13.235  0.4197  0.2313 -0.2476
  257MPD2    C2 3945   0.807   1.475  13.272 -0.0341  0.3267 -0.1828
  257MPD2    C3 3946   0.842   1.447  13.405  0.0304  0.3403 -0.2470
  257MPD2    C4 3947   0.844   1.546  13.501  0.2485 -0.1755  0.2416
  257MPD2    C5 3948   0.798   1.666  13.462 -0.3166 -0.5019  0.3398
  257MPD2     H 3949   0.833   1.401  13.197 -2.1767 -0.2517 -0.3758
  257MPD2    H1 3950   0.879   1.531  13.603 -0.3256  0.2614  0.5047
  257MPD2    H2 3951   0.759   1.803  13.298 -1.8975 -0.7489 -0.3143
  257MPD2    H3 3952   0.804   1.746  13.535  1.4068  1.0436 -1.4966
  257MPD2     N 3953   0.897   1.321  13.432  0.2522 -0.5574  0.1853
  257MPD2    H5 3954   0.888   1.254  13.356  3.3175 -0.8767  0.1147
  257MPD2    N1 3955   0.743   1.646  13.099 -0.2844 -0.7864 -0.0984
  257MPD2    H7 3956   0.737   1.746  13.080  2.1176 -1.0900 -2.3010
  258TMC3    C1 3957   1.031   1.146  13.525 -0.0209 -0.8289 -0.1875
  258TMC3    C2 3958   0.940   1.048  13.520  0.4745 -0.2477 -0.0891
  258TMC3    C3 3959   0.963   0.930  13.586 -0.2308 -0.1048  0.1147
  258TMC3    C4 3960   1.148   1.132  13.587 -0.3079  0.4207 -0.4978
  258TMC3    C5 3961   1.171   1.020  13.655  0.3139  0.7163  0.4524
  258TMC3    C6 3962   1.074   0.918  13.663  0.0763  0.8543 -0.2040
  258TMC3     C 3963   0.987   1.286  13.530  0.8716 -0.8542  0.9765
  258TMC3     O 3964   1.027   1.358  13.621 -0.3791 -0.1751  0.0488
  258TMC3     H 3965   0.839   1.071  13.487 -0.2360 -2.1765  0.7509
  258TMC3    H1 3966   1.209   1.221  13.580  2.6308 -1.6083 -0.5553
  258TMC3    H2 3967   1.100   0.820  13.702 -1.7665  0.6452  0.5181
  258TMC3    C7 3968   1.288   1.028  13.738 -0.5751 -0.1425 -0.7370
  258TMC3    C8 3969   0.865   0.830  13.589 -0.2158  0.8288 -0.9285
  258TMC3    O1 3970   1.373   1.113  13.708  0.4819 -0.1027 -0.1930
  258TMC3    O2 3971   0.888   0.759  13.684  0.2930 -0.5832  0.1285
  259MPD2     C 3972   4.620   3.496   0.900 -0.0277 -0.4500  0.0034
  259MPD2    C1 3973   0.004   3.451   0.937 -0.6325 -0.0595  0.9654
  259MPD2    C2 3974   0.095   3.401   0.840  0.1974  0.3055  0.4018
  259MPD2    C3 3975   0.053   3.407   0.703  0.3502 -0.1043 -0.2495
  259MPD2    C4 3976   4.669   3.451   0.675 -0.0904  1.0863  0.2844
  259MPD2    C5 3977   4.586   3.502   0.771  0.2973 -0.0757 -0.0335
  259MPD2     H 3978   0.197   3.380   0.869  0.3488 -1.2528 -1.2846
  259MPD2    H1 3979   4.632   3.444   0.573 -0.2857  0.8334  0.3713
  259MPD2    H2 3980   4.545   3.539   0.966 -0.8985  0.3381 -1.4923
  259MPD2    H3 3981   4.488   3.537   0.740  0.8313  2.5390  1.2427
  259MPD2     N 3982   0.128   3.362   0.592 -0.0287 -0.0716  0.1431
  259MPD2    H5 3983   0.096   3.377   0.497 -0.8670  0.8833  0.5819
  259MPD2    N1 3984   0.026   3.447   1.074  0.0537 -0.1140  0.0749
  259MPD2    H7 3985   4.692   3.469   1.141  1.2669 -0.2392  1.4655
  260TMC3    C1 3986   0.301   3.262   0.467 -0.4331  0.6042 -0.0175
  260TMC3    C2 3987   0.392   3.164   0.478 -0.0387 -0.6938 -0.1176
  260TMC3    C3 3988   0.447   3.114   0.364 -0.0407 -0.5948 -0.2360
  260TMC3    C4 3989   0.249   3.316   0.349 -0.0534 -0.0869 -0.4722
  260TMC3    C5 3990   0.323   3.274   0.240 -0.1580 -0.2902 -0.0507
  260TMC3    C6 3991   0.425   3.178   0.244  0.2435  0.6574 -0.2664
  260TMC3     C 3992   0.246   3.303   0.593  0.2954  0.1810  0.5605
  260TMC3     O 3993   0.310   3.267   0.693  0.0639 -0.2799  0.0478
  260TMC3     H 3994   0.414   3.120   0.575 -1.4029  0.5998  0.7628
  260TMC3    H1 3995   0.178   3.397   0.346  1.1252  0.8706 -3.4001
  260TMC3    H2 3996   0.483   3.145   0.158 -0.0541 -1.6930  0.4310
  260TMC3    C7 3997   0.255   3.266   0.112  0.0582  0.3865 -0.6062
  260TMC3    C8 3998   0.569   3.047   0.379 -0.3506  0.1817  0.4201
  260TMC3    O1 3999   0.294   3.190   0.026  0.3710 -0.6561 -0.5851
  260TMC3    O2 4000   0.644   3.070   0.284  0.4095 -0.3545 -0.2809
  261MPD2     C 4001   1.509   1.028  12.067 -0.1180  0.3754  0.0504
  261MPD2    C1 4002   1.490   1.140  12.150 -0.2425 -0.0970  0.5595
  261MPD2    C2 4003   1.478   1.264  12.090  0.4631  0.1323 -0.7802
  261MPD2    C3 4004   1.501   1.281  11.954 -0.9774  0.1118 -0.2697
  261MPD2    C4 4005   1.529   1.174  11.878 -0.0185 -0.2781 -0.3123
  261MPD2    C5 4006   1.529   1.046  11.931 -0.2843 -0.4687  0.4237
  261MPD2     H 4007   1.449   1.345  12.155  0.9239 -0.6398  0.3830
  261MPD2    H1 4008   1.555   1.187  11.773 -1.9883  1.9473 -0.5148
  261MPD2    H2 4009   1.498   0.925  12.099 -0.7656 -0.3125 -2.4094
  261MPD2    H3 4010   1.539   0.956  11.872 -1.6508 -1.1297  1.1970
  261MPD2     N 4011   1.487   1.402  11.886 -0.1091 -0.0111  0.7375
  261MPD2    H5 4012   1.496   1.405  11.785 -0.5977  3.1849  0.7701
  261MPD2    N1 4013   1.458   1.129  12.286  0.0010  0.0157  0.2522
  261MPD2    H7 4014   1.419   1.214  12.325 -0.3049  0.3719 -0.8244
  262TMC3    C1 4015   1.462   1.637  11.853 -0.1986  0.8329 -0.1728
  262TMC3    C2 4016   1.381   1.749  11.870 -0.3293 -0.1011 -0.3908
  262TMC3    C3 4017   1.390   1.858  11.790  0.6706  0.3746  0.4692
  262TMC3    C4 4018   1.556   1.635  11.753 -0.2105  0.0617 -0.0877
  262TMC3    C5 4019   1.572   1.749  11.679 -0.2750  0.2258  0.4931
  262TMC3    C6 4020   1.487   1.854  11.693  0.1170  0.1262  0.3442
  262TMC3     C 4021   1.463   1.527  11.945 -0.3496 -0.6635 -0.7192
  262TMC3     O 4022   1.403   1.550  12.046  0.3132 -0.5645 -0.4198
  262TMC3     H 4023   1.332   1.753  11.966 -1.5346 -0.0157 -1.0051
  262TMC3    H1 4024   1.637   1.564  11.745  0.2923  0.6914 -0.5153
  262TMC3    H2 4025   1.504   1.935  11.623  0.9102 -1.3416 -1.1676
  262TMC3    C7 4026   1.701   1.793  11.635  0.3152 -0.2683 -0.8808
  262TMC3    C8 4027   1.365   1.982  11.844 -0.1881 -0.2878  0.6289
  262TMC3    O1 4028   1.747   1.722  11.548  0.0124 -0.8956 -0.1073
  262TMC3    O2 4029   1.453   2.066  11.825 -0.6488  0.0573  0.4822
  263MPD2     C 4030   2.976   1.009  11.773  0.7135 -0.2173  0.3564
  263MPD2    C1 4031   3.052   0.917  11.707 -0.1401  0.4342  0.8327
  263MPD2    C2 4032   3.073   0.934  11.567  0.1593 -0.3653  0.5059
  263MPD2    C3 4033   3.009   1.036  11.496  0.4075 -0.2232  0.2977
  263MPD2    C4 4034   2.933   1.124  11.565 -0.0205  0.2020  0.3438
  263MPD2    C5 4035   2.916   1.111  11.701 -0.3285  0.5280  0.0929
  263MPD2     H 4036   3.146   0.868  11.522  0.7393  1.9051 -1.9016
  263MPD2    H1 4037   2.890   1.212  11.519  0.6102  0.6694  0.6437
  263MPD2    H2 4038   2.946   1.006  11.877 -1.6641  0.5203 -0.3013
  263MPD2    H3 4039   2.857   1.179  11.762 -1.0693 -0.1374  0.1263
  263MPD2     N 4040   3.026   1.056  11.356 -0.2745 -0.6507 -0.0140
  263MPD2    H5 4041   3.107   1.006  11.319  0.6431  1.2201 -0.5572
  263MPD2    N1 4042   3.104   0.810  11.781 -0.3877 -0.9792 -0.6508
  263MPD2    H7 4043   3.069   0.800  11.875  0.1975  0.3578 -0.2974
  264TMC3    C1 4044   3.010   1.177  11.152 -0.4820 -0.0897 -0.0450
  264TMC3    C2 4045   2.924   1.241  11.065 -0.0958 -0.0476  0.6164
  264TMC3    C3 4046   2.957   1.267  10.936  0.0238 -0.1171 -0.3222
  264TMC3    C4 4047   3.136   1.135  11.114 -0.5468  1.1385  0.7671
  264TMC3    C5 4048   3.168   1.158  10.985  0.6319  0.5226 -0.1661
  264TMC3    C6 4049   3.079   1.214  10.893 -0.0909  0.3263 -0.5369
  264TMC3     C 4050   2.944   1.123  11.273  0.2146 -0.4875  0.9113
  264TMC3     O 4051   2.823   1.146  11.293 -0.4078  0.4966 -0.0662
  264TMC3     H 4052   2.830   1.283  11.101  0.0765 -0.3419  1.4115
  264TMC3    H1 4053   3.215   1.105  11.182 -0.8388  1.0547  1.0649
  264TMC3    H2 4054   3.120   1.238  10.796 -0.9334 -0.2751 -1.0396
  264TMC3    C7 4055   3.307   1.184  10.963 -0.0215 -0.3730  0.5141
  264TMC3    C8 4056   2.961   1.408  10.908  0.1058  0.0570 -0.1566
  264TMC3    O1 4057   3.394   1.113  11.014  0.1066 -0.4440 -0.1436
  264TMC3    O2 4058   3.072   1.455  10.881 -0.2130 -0.2025 -0.3817
  265MPD2     C 4059   4.182   2.123  15.274 -0.0006 -1.0867 -0.7995
  265MPD2    C1 4060   4.289   2.165  15.355 -0.1829 -0.1477 -0.0861
  265MPD2    C2 4061   4.403   2.098  15.343  0.3135 -0.4244 -0.1326
  265MPD2    C3 4062   4.411   1.993  15.262  0.1854  0.3531  0.0701
  265MPD2    C4 4063   4.312   1.948  15.187  0.4878  0.0127  0.0254
  265MPD2    C5 4064   4.197   2.016  15.196 -0.0661 -0.5566  0.4471
  265MPD2     H 4065   4.486   2.123  15.408 -1.0272  2.1912  0.5619
  265MPD2    H1 4066   4.321   1.864  15.119 -2.6941  0.0991 -0.5275
  265MPD2    H2 4067   4.083   2.168  15.270  0.7525  0.7739  1.3009
  265MPD2    H3 4068   4.117   1.995  15.125 -0.4078  0.6685  0.4756
  265MPD2     N 4069   4.530   1.917  15.246  0.2990 -0.0748  0.2947
  265MPD2    H5 4070   4.513   1.829  15.198  2.4031 -0.6461  0.6002
  265MPD2    N1 4071   4.282   2.262  15.459 -0.5396 -0.5761  0.1232
  265MPD2    H7 4072   4.368   2.269  15.514  0.4180 -0.7816 -1.3574
  266TMC3    C1 4073   4.199   2.433  15.587 -0.1294 -0.1744  0.0656
  266TMC3    C2 4074   4.267   2.397  15.703  0.1267  0.0582  0.1945
  266TMC3    C3 4075   4.313   2.497  15.787 -0.5846  0.1342  0.1895
  266TMC3    C4 4076   4.170   2.563  15.558  0.4199  0.4750  0.2436
  266TMC3    C5 4077   4.232   2.661  15.634  0.0901 -0.0306 -0.5346
  266TMC3    C6 4078   4.305   2.629  15.744  0.4171  0.2321  0.2360
  266TMC3     C 4079   4.171   2.341  15.480  1.0335  0.1328  0.1364
  266TMC3     O 4080   4.071   2.362  15.417 -0.1400 -0.5292 -1.0385
  266TMC3     H 4081   4.271   2.290  15.718  2.6896 -0.0150 -1.0287
  266TMC3    H1 4082   4.115   2.586  15.467  2.3378  0.6800 -0.8680
  266TMC3    H2 4083   4.353   2.709  15.799  0.5099  2.1229 -2.6303
  266TMC3    C7 4084   4.211   2.797  15.587  0.0247  0.5609  0.2489
  266TMC3    C8 4085   4.418   2.463  15.886 -0.2211 -0.1512  0.1506
  266TMC3    O1 4086   4.138   2.816  15.488  0.1973  0.5593 -0.1986
  266TMC3    O2 4087   4.445   2.344  15.892 -0.7227 -0.8107  0.0798
  267MPD2     C 4088   1.693   4.089   0.314  0.1414  0.3754  0.5982
  267MPD2    C1 4089   1.775   4.047   0.212 -0.0472 -0.2026  0.5863
  267MPD2    C2 4090   1.714   4.075   0.086 -0.0119 -0.1391 -0.0813
  267MPD2    C3 4091   1.582   4.117   0.071 -0.0280  1.0037  0.5720
  267MPD2    C4 4092   1.503   4.125   0.181  0.4051  0.7572 -0.0702
  267MPD2    C5 4093   1.562   4.120   0.307  0.0813 -0.6808  0.6018
  267MPD2     H 4094   1.778   4.058   0.000  1.2149 -0.5113  0.9066
  267MPD2    H1 4095   1.401   4.159   0.174  0.2107 -0.1095 -1.5390
  267MPD2    H2 4096   1.738   4.092   0.413  0.2810 -1.7413  0.6187
  267MPD2    H3 4097   1.510   4.147   0.398 -2.3220 -0.2168 -0.9225
  267MPD2     N 4098   1.533   4.143  17.695 -0.0660  0.0488 -0.4480
  267MPD2    H5 4099   1.591   4.111  17.619  1.3906 -1.0721  1.1475
  267MPD2    N1 4100   1.903   4.013   0.240  0.4338 -0.7131 -0.4667
  267MPD2    H7 4101   1.933   3.985   0.333 -1.7204 -0.2216  0.3859
  268TMC3    C1 4102   2.128   3.942   0.198 -0.1209  0.1682 -0.4769
  268TMC3    C2 4103   2.224   3.927   0.101  0.3508 -0.2179  0.0571
  268TMC3    C3 4104   2.339   3.872   0.143  0.3802 -0.4959 -0.1302
  268TMC3    C4 4105   2.148   3.921   0.333 -0.5932  0.4671  0.5742
  268TMC3    C5 4106   2.267   3.861   0.370  0.1258 -0.7971 -0.5964
  268TMC3    C6 4107   2.364   3.838   0.274 -1.0281  0.0469 -0.2929
  268TMC3     C 4108   2.004   4.005   0.149 -0.8723  0.1516  0.5803
  268TMC3     O 4109   2.001   4.038   0.030  0.6604 -0.0731 -0.8094
  268TMC3     H 4110   2.204   3.939  17.749 -2.3866  2.7652  0.8980
  268TMC3    H1 4111   2.079   3.935   0.416 -2.4337  0.6232 -0.9725
  268TMC3    H2 4112   2.458   3.791   0.301 -1.2021 -0.2342 -0.1705
  268TMC3    C7 4113   2.281   3.764   0.473  0.6381 -0.3119  0.2111
  268TMC3    C8 4114   2.455   3.939   0.088 -0.3909 -0.1393  0.1206
  268TMC3    O1 4115   2.399   3.746   0.504  0.1527 -0.1996 -0.0668
  268TMC3    O2 4116   2.536   3.992   0.165 -1.1856  0.3731 -0.0071
  269MPD2     C 4117   1.991   2.497  16.257  0.1152 -0.2718 -0.2491
  269MPD2    C1 4118   1.952   2.483  16.127  0.1785  0.3061  0.5731
  269MPD2    C2 4119   1.944   2.597  16.049 -0.3718 -0.4910  0.4673
  269MPD2    C3 4120   1.967   2.723  16.110  0.9315  0.4381 -0.5520
  269MPD2    C4 4121   1.987   2.735  16.249 -0.0296  0.1151  0.1685
  269MPD2    C5 4122   1.999   2.621  16.314 -0.8509 -0.4362 -0.4595
  269MPD2     H 4123   1.930   2.600  15.942  1.3009  1.7027  0.3069
  269MPD2    H1 4124   1.987   2.832  16.297 -2.7169  0.0222  0.3338
  269MPD2    H2 4125   2.016   2.411  16.318 -0.7372 -1.7459 -1.9947
  269MPD2    H3 4126   2.023   2.615  16.420  0.5335 -0.7690 -0.7882
  269MPD2     N 4127   1.944   2.838  16.034 -0.5507 -0.1517  0.6820
  269MPD2    H5 4128   1.896   2.821  15.945  0.3490 -0.3028  0.2210
  269MPD2    N1 4129   1.921   2.355  16.073 -0.3007 -0.4455 -0.2887
  269MPD2    H7 4130   1.942   2.277  16.134 -0.8833 -0.4338 -0.0710
  270TMC3    C1 4131   1.844   2.199  15.910  0.3321 -0.3509 -0.1510
  270TMC3    C2 4132   1.775   2.191  15.793 -0.2467  0.1883 -0.5064
  270TMC3    C3 4133   1.810   2.094  15.708 -0.2883  0.2175  0.1940
  270TMC3    C4 4134   1.951   2.127  15.932 -0.5362 -0.2543  0.1624
  270TMC3    C5 4135   1.996   2.034  15.839 -0.7174  0.7470  0.5500
  270TMC3    C6 4136   1.928   2.025  15.719  0.2895 -0.2068  0.4632
  270TMC3     C 4137   1.850   2.339  15.957  0.3116  0.6477  0.2106
  270TMC3     O 4138   1.799   2.423  15.883  0.0191  0.1108 -0.3609
  270TMC3     H 4139   1.685   2.245  15.765  0.6501  1.6409 -0.5667
  270TMC3    H1 4140   2.006   2.126  16.025  0.8755 -0.3145 -0.6766
  270TMC3    H2 4141   1.958   1.950  15.646  1.9344  1.2061 -0.3261
  270TMC3    C7 4142   2.096   1.943  15.871 -0.3709 -0.2463 -0.1375
  270TMC3    C8 4143   1.735   2.102  15.582 -0.8375  1.4068 -0.0541
  270TMC3    O1 4144   2.100   1.904  15.989  0.2974 -0.4817  0.0526
  270TMC3    O2 4145   1.617   2.130  15.584  0.4829 -0.1347  0.1422
  271MPD2     C 4146   1.615   1.867  13.837  0.5069 -0.5044  0.2292
  271MPD2    C1 4147   1.605   1.878  13.974  0.5994 -0.6002 -0.2440
  271MPD2    C2 4148   1.482   1.900  14.034  0.6602  0.0147  0.6014
  271MPD2    C3 4149   1.371   1.927  13.951 -0.6920 -0.5593  0.7313
  271MPD2    C4 4150   1.391   1.934  13.809  0.4284  0.5248 -0.2804
  271MPD2    C5 4151   1.512   1.901  13.758  0.7968 -0.3103 -1.0639
  271MPD2     H 4152   1.474   1.906  14.142  1.7097  2.2643  0.5638
  271MPD2    H1 4153   1.307   1.954  13.743 -0.6376 -0.7045  0.6944
  271MPD2    H2 4154   1.708   1.853  13.783 -0.7244 -0.8712 -1.7833
  271MPD2    H3 4155   1.528   1.886  13.652 -0.9547 -0.2027 -1.3552
  271MPD2     N 4156   1.236   1.941  14.001 -0.4159 -0.1621  0.3916
  271MPD2    H5 4157   1.171   1.965  13.927 -0.3550  1.4017  0.8282
  271MPD2    N1 4158   1.712   1.866  14.063  0.1164 -0.0336 -0.2215
  271MPD2    H7 4159   1.704   1.901  14.158  0.9169  0.1129 -0.2033
  272TMC3    C1 4160   1.887   1.752  14.142  0.0180  0.9081 -0.6843
  272TMC3    C2 4161   2.026   1.757  14.147 -0.1345 -0.0388 -0.0452
  272TMC3    C3 4162   2.079   1.778  14.269 -0.1881  0.8745  0.9159
  272TMC3    C4 4163   1.807   1.744  14.257 -0.8786 -0.1751 -0.4365
  272TMC3    C5 4164   1.865   1.764  14.378  0.4307  0.1472  0.0787
  272TMC3    C6 4165   2.001   1.783  14.387  0.2985 -0.2875 -0.2426
  272TMC3     C 4166   1.835   1.815  14.023  0.4941  0.2133 -0.0069
  272TMC3     O 4167   1.881   1.773  13.917  0.3520  0.2106 -0.1740
  272TMC3     H 4168   2.090   1.763  14.059 -2.0799  0.0884 -1.4626
  272TMC3    H1 4169   1.701   1.723  14.245 -0.4796 -1.7195 -1.3519
  272TMC3    H2 4170   2.052   1.782  14.483  0.0449  1.9569 -0.0827
  272TMC3    C7 4171   1.770   1.813  14.480 -0.8857 -0.1957 -0.2928
  272TMC3    C8 4172   2.223   1.789  14.282  0.4797 -0.5965  0.1629
  272TMC3    O1 4173   1.654   1.777  14.461  0.1103  0.1499  0.7471
  272TMC3    O2 4174   2.284   1.849  14.194 -0.1829 -0.2331 -0.2387
  273MPD2     C 4175   3.007   4.081  11.839 -0.1794  0.5991  0.4679
  273MPD2    C1 4176   3.139   4.125  11.867  0.1308 -0.1599 -1.0965
  273MPD2    C2 4177   3.221   4.135  11.750  0.0031  0.5072 -0.1380
  273MPD2    C3 4178   3.171   4.148  11.623 -0.0312  0.0889  0.7954
  273MPD2    C4 4179   3.035   4.122  11.604  0.1847 -0.3495 -0.4493
  273MPD2    C5 4180   2.960   4.081  11.709  0.0893  0.4051 -0.4628
  273MPD2     H 4181   3.328   4.132  11.768 -0.0462  2.4076  0.4704
  273MPD2    H1 4182   2.993   4.128  11.504 -2.4191  0.3563  0.6991
  273MPD2    H2 4183   2.939   4.062  11.921  0.3883 -1.8537  0.3596
  273MPD2    H3 4184   2.854   4.064  11.691 -0.0478 -0.2948  1.0222
  273MPD2     N 4185   3.251   4.178  11.505  0.0881  0.4441  0.3466
  273MPD2    H5 4186   3.208   4.174  11.413 -0.8344 -0.0945  0.8025
  273MPD2    N1 4187   3.185   4.137  12.002 -0.6186  0.0939 -0.3166
  273MPD2    H7 4188   3.121   4.124  12.080 -0.1255 -1.6528 -0.2086
  274TMC3    C1 4189   3.445   4.263  11.382  0.0169 -0.2380  0.3332
  274TMC3    C2 4190   3.352   4.295  11.282  0.5689 -0.2269 -0.4892
  274TMC3    C3 4191   3.354   4.424  11.242 -0.0682  0.3796  0.7892
  274TMC3    C4 4192   3.536   4.356  11.428  0.8189  0.2406 -0.0666
  274TMC3    C5 4193   3.523   4.491  11.391 -0.1010  0.4652 -0.4932
  274TMC3    C6 4194   3.441   4.524  11.285 -0.0172  0.4640  0.8010
  274TMC3     C 4195   3.383   4.206  11.504 -0.3117  0.0866  0.2116
  274TMC3     O 4196   3.459   4.218  11.599 -0.0772  0.2972  0.3414
  274TMC3     H 4197   3.304   4.215  11.226  0.2602  0.7983 -1.6934
  274TMC3    H1 4198   3.624   4.321  11.481  0.1520  1.0593  1.5825
  274TMC3    H2 4199   3.415   4.628  11.267 -1.7679 -0.4197 -1.7705
  274TMC3    C7 4200   3.499   4.582  11.501  0.1313  0.2553  0.2460
  274TMC3    C8 4201   3.301   4.451  11.114 -0.3414  0.7598  0.4121
  274TMC3    O1 4202   3.495   4.703  11.482 -0.1457  0.2121 -0.3243
  274TMC3    O2 4203   3.206   4.383  11.073  0.4405  0.1326 -0.4749
  275MPD2     C 4204   2.965   3.365  14.347  0.5399 -0.5411  0.1044
  275MPD2    C1 4205   2.971   3.241  14.411  0.4867 -0.0227  0.1089
  275MPD2    C2 4206   2.884   3.142  14.371 -0.1914 -1.0486  0.2232
  275MPD2    C3 4207   2.804   3.163  14.258  0.3434 -0.3233 -0.5209
  275MPD2    C4 4208   2.805   3.293  14.205  0.0005  0.3512 -0.2604
  275MPD2    C5 4209   2.881   3.393  14.250 -0.0434 -0.3854  0.0542
  275MPD2     H 4210   2.892   3.049  14.426  1.6598 -0.9332  0.1573
  275MPD2    H1 4211   2.732   3.313  14.128 -0.4804 -0.1263  0.0733
  275MPD2    H2 4212   3.023   3.452  14.374  0.4755 -0.4899  0.0772
  275MPD2    H3 4213   2.900   3.483  14.193  0.9825 -0.2501  0.6101
  275MPD2     N 4214   2.717   3.070  14.188 -0.2549  0.3247 -0.1175
  275MPD2    H5 4215   2.658   3.099  14.111 -1.8584  1.8946  1.6853
  275MPD2    N1 4216   3.062   3.216  14.519  0.1336 -0.3130  0.1861
  275MPD2    H7 4217   3.084   3.119  14.543 -1.6435 -0.5586  0.8512
  276TMC3    C1 4218   3.258   3.253  14.661 -0.7034 -0.4610  0.6596
  276TMC3    C2 4219   3.274   3.117  14.658  0.6934  0.6650 -0.3724
  276TMC3    C3 4220   3.345   3.063  14.762  0.4281  0.1670  0.0911
  276TMC3    C4 4221   3.311   3.333  14.757 -0.1063  0.5752  0.4338
  276TMC3    C5 4222   3.378   3.271  14.858 -0.1788  0.0330  0.1876
  276TMC3    C6 4223   3.396   3.141  14.866  0.2345  0.7348 -0.1605
  276TMC3     C 4224   3.138   3.309  14.592  0.3169  0.3226 -0.1989
  276TMC3     O 4225   3.118   3.427  14.593  0.2851  0.4122  0.2821
  276TMC3     H 4226   3.246   3.052  14.576 -1.2129 -1.2721  1.8184
  276TMC3    H1 4227   3.285   3.437  14.744 -0.4724  0.6122  1.4478
  276TMC3    H2 4228   3.433   3.096  14.958  2.8538 -0.8059 -1.9726
  276TMC3    C7 4229   3.429   3.356  14.971 -0.6426 -0.1156 -0.6057
  276TMC3    C8 4230   3.344   2.919  14.791 -0.3976 -0.9024 -0.0779
  276TMC3    O1 4231   3.398   3.473  14.966 -0.2529  0.0390 -0.3254
  276TMC3    O2 4232   3.432   2.890  14.869  0.2197 -0.2617  0.1269
  277MPD2     C 4233   0.425   1.621  13.462  0.3055 -1.2213 -0.3684
  277MPD2    C1 4234   0.302   1.656  13.529 -0.1470  0.4696  0.0480
  277MPD2    C2 4235   0.275   1.593  13.651  0.0047 -0.1427 -0.3722
  277MPD2    C3 4236   0.348   1.485  13.688  0.1007  0.4526  0.8126
  277MPD2    C4 4237   0.460   1.443  13.613  0.6200 -0.6793 -0.0864
  277MPD2    C5 4238   0.499   1.517  13.504 -0.0022 -0.0575  0.3132
  277MPD2     H 4239   0.184   1.624  13.700  2.3979  1.8939  2.8211
  277MPD2    H1 4240   0.519   1.355  13.637  0.8098 -0.4325  0.3443
  277MPD2    H2 4241   0.440   1.653  13.359 -0.9601 -2.7638 -1.0348
  277MPD2    H3 4242   0.581   1.477  13.446 -1.1360 -1.3882 -0.3581
  277MPD2     N 4243   0.295   1.414  13.798  0.0523  0.2781  0.4217
  277MPD2    H5 4244   0.210   1.454  13.837 -0.2785  0.3421 -0.3646
  277MPD2    N1 4245   0.209   1.746  13.468 -0.1768 -0.6687  0.1745
  277MPD2    H7 4246   0.234   1.783  13.376  0.3165 -2.0826 -0.2613
  278TMC3    C1 4247   0.215   1.222  13.895 -0.1244 -0.3456  0.0562
  278TMC3    C2 4248   0.163   1.130  13.810  0.1851 -0.8940 -0.7659
  278TMC3    C3 4249   0.029   1.125  13.784  0.5465  0.1050  0.3321
  278TMC3    C4 4250   0.129   1.305  13.957  0.4569 -0.1133 -0.7712
  278TMC3    C5 4251   4.734   1.308  13.927  0.5199  0.2004  0.0265
  278TMC3    C6 4252   4.684   1.213  13.838 -0.2151 -0.4259 -0.1379
  278TMC3     C 4253   0.331   1.284  13.839  0.0839 -0.9211  0.7724
  278TMC3     O 4254   0.414   1.217  13.783  0.1697  0.1070  0.0633
  278TMC3     H 4255   0.230   1.067  13.753 -1.0304 -1.5101 -1.5011
  278TMC3    H1 4256   0.171   1.379  14.024 -1.5071  0.4688 -0.1837
  278TMC3    H2 4257   4.580   1.210  13.809 -0.2554 -0.2709 -0.0094
  278TMC3    C7 4258   4.675   1.439  13.921  0.1710  0.9821  0.2035
  278TMC3    C8 4259   4.726   0.996  13.726  0.2304 -0.3002  0.1729
  278TMC3    O1 4260   0.022   1.529  13.918 -0.4358  0.4320 -0.1224
  278TMC3    O2 4261   0.068   0.901  13.727  0.1329  0.2978 -0.3632
  279MPD2     C 4262   4.259   2.608   0.088  0.3718 -0.8061 -0.1170
  279MPD2    C1 4263   4.139   2.547   0.057  0.6848 -0.3694  0.5004
  279MPD2    C2 4264   4.084   2.585  17.690 -0.0266  1.0615 -0.2003
  279MPD2    C3 4265   4.145   2.675  17.609 -0.0690 -0.1435 -0.2994
  279MPD2    C4 4266   4.269   2.727  17.644  0.0629 -0.1849 -0.1575
  279MPD2    C5 4267   4.332   2.687   0.005 -0.2378  0.1637 -0.0136
  279MPD2     H 4268   3.984   2.546  17.677  0.0179  1.3466 -1.4169
  279MPD2    H1 4269   4.309   2.815  17.595 -0.9007  0.1632 -0.3327
  279MPD2    H2 4270   4.300   2.589   0.187  0.6000  1.0525  0.1374
  279MPD2    H3 4271   4.434   2.717   0.028 -0.0596 -0.9785  0.6704
  279MPD2     N 4272   4.088   2.721  17.487 -0.6095  0.2299 -0.6477
  279MPD2    H5 4273   4.140   2.785  17.428 -3.5272  2.1239 -1.2198
  279MPD2    N1 4274   4.064   2.459   0.147 -0.6928 -0.2335 -0.4888
  279MPD2    H7 4275   4.096   2.445   0.242 -1.7621  0.9485  0.0362
  280TMC3    C1 4276   3.877   2.320   0.206  0.3305 -0.3930 -0.3605
  280TMC3    C2 4277   3.810   2.212   0.157 -0.1798  0.0602 -0.4344
  280TMC3    C3 4278   3.675   2.208   0.168  0.4966  0.2953 -0.1949
  280TMC3    C4 4279   3.818   2.411   0.294 -0.7437 -0.1314 -1.1719
  280TMC3    C5 4280   3.676   2.403   0.297 -0.6771 -0.0718  0.5265
  280TMC3    C6 4281   3.601   2.301   0.242  0.9434  0.9134 -0.0860
  280TMC3     C 4282   3.965   2.374   0.102 -0.9789 -0.2257  0.3365
  280TMC3     O 4283   3.929   2.348  17.740  0.3822  0.0482 -0.0007
  280TMC3     H 4284   3.868   2.141   0.099 -0.4440  1.3428 -2.2518
  280TMC3    H1 4285   3.869   2.496   0.337  0.2645 -1.1211 -0.3917
  280TMC3    H2 4286   3.495   2.289   0.258  0.9470 -0.4727 -1.0589
  280TMC3    C7 4287   3.623   2.533   0.326  0.7791  0.8096 -0.0704
  280TMC3    C8 4288   3.613   2.072   0.155  0.1834  0.7534  0.3870
  280TMC3    O1 4289   3.693   2.613   0.382  0.1794  0.0292 -0.4971
  280TMC3    O2 4290   3.520   2.044   0.233 -0.2408  0.3753  0.0261
  281TMC3    C1 4291   3.001   2.211  13.343 -0.3531 -0.2408 -0.1265
  281TMC3    C2 4292   2.892   2.151  13.288 -0.4315  0.0199  0.6626
  281TMC3    C3 4293   2.889   2.011  13.270 -0.2277  0.4929 -0.4792
  281TMC3    C4 4294   3.088   2.135  13.403  0.1950  0.6830 -0.3394
  281TMC3    C5 4295   3.078   1.999  13.398  0.2689  0.5216 -0.3666
  281TMC3    C6 4296   2.979   1.931  13.337  0.6468  0.3521 -0.5082
  281TMC3     C 4297   3.003   2.353  13.374  0.0258  0.2080  0.5337
  281TMC3     O 4298   3.112   2.399  13.397  0.2933 -0.1782 -0.6513
  281TMC3     H 4299   2.822   2.205  13.225  2.0255  0.6972 -1.5022
  281TMC3    H1 4300   3.164   2.191  13.456  1.6534 -2.0289  0.4331
  281TMC3    H2 4301   2.989   1.823  13.338  1.8263  0.4606 -1.0040
  281TMC3    C7 4302   3.176   1.916  13.467 -0.1877  0.8365 -0.8293
  281TMC3    C8 4303   2.777   1.944  13.206 -0.3135 -0.2224 -0.5520
  281TMC3    O1 4304   3.284   1.965  13.497 -0.1499  0.5330  0.2280
  281TMC3    O2 4305   2.713   2.021  13.134  0.0466 -0.3569 -0.7061
  282MPD2     C 4306   4.562   3.852  15.226  0.3520 -1.1586 -0.3047
  282MPD2    C1 4307   4.438   3.902  15.231 -0.0512 -0.1305  0.3110
  282MPD2    C2 4308   4.349   3.883  15.126 -0.2933  0.1071 -0.0724
  282MPD2    C3 4309   4.384   3.806  15.015  0.3867  0.4010  0.0319
  282MPD2    C4 4310   4.512   3.752  15.011  0.2646  0.1705  0.0539
  282MPD2    C5 4311   4.602   3.780  15.113 -0.4320  1.0262 -0.1184
  282MPD2     H 4312   4.249   3.925  15.128  0.0565  0.9247  0.3441
  282MPD2    H1 4313   4.553   3.716  14.917 -0.6242 -2.7794  0.8140
  282MPD2    H2 4314   4.631   3.868  15.308 -1.6664 -2.2316  1.5825
  282MPD2    H3 4315   4.701   3.736  15.118 -0.6418  0.7026  1.3342
  282MPD2     N 4316   4.288   3.807  14.909 -0.2620  0.2234 -0.0561
  282MPD2    H5 4317   4.201   3.857  14.927 -0.0734  0.4104  0.3301
  282MPD2    N1 4318   4.383   3.960  15.346 -0.2618 -0.0195  0.0523
  282MPD2    H7 4319   4.283   3.977  15.339 -0.3432  0.1089  1.4622
  283TMC3    C1 4320   4.366   4.043  15.564 -1.4613 -0.2365 -0.1847
  283TMC3    C2 4321   4.361   4.171  15.615  0.4140 -0.3728  0.1156
  283TMC3    C3 4322   4.247   4.206  15.687  0.6053  0.3885  0.0348
  283TMC3    C4 4323   4.257   3.953  15.578 -0.5267 -0.4391 -1.0613
  283TMC3    C5 4324   4.165   3.981  15.672  0.6109 -0.1558  1.0273
  283TMC3    C6 4325   4.163   4.108  15.729 -0.0339  0.4342 -0.2859
  283TMC3     C 4326   4.455   4.013  15.452  0.3172 -0.2714  0.0789
  283TMC3     O 4327   4.573   4.021  15.475 -0.0454 -0.2094  0.2639
  283TMC3     H 4328   4.443   4.237  15.589 -0.2996 -0.2325 -1.8015
  283TMC3    H1 4329   4.281   3.851  15.551 -0.4990 -0.6398 -0.2850
  283TMC3    H2 4330   4.079   4.130  15.794  1.2098  1.4305  0.9907
  283TMC3    C7 4331   4.103   3.873  15.746 -0.5710 -0.3602  0.3361
  283TMC3    C8 4332   4.251   4.325  15.766  0.0877 -0.2958 -0.4898
  283TMC3    O1 4333   4.010   3.902  15.822  0.3418  0.1002  0.4107
  283TMC3    O2 4334   4.227   4.319  15.886  0.0115  0.0881 -0.1553
  284MPD2     C 4335   2.733   2.195  12.123 -1.0592 -0.4785  0.7181
  284MPD2    C1 4336   2.773   2.227  11.992 -0.0843  0.3713  0.1392
  284MPD2    C2 4337   2.735   2.140  11.891 -0.2001  0.7669  0.0759
  284MPD2    C3 4338   2.675   2.016  11.923 -0.1974  0.2213  0.1428
  284MPD2    C4 4339   2.635   1.999  12.054  0.7978 -0.0561 -0.4760
  284MPD2    C5 4340   2.660   2.087  12.149  0.0199 -0.0875 -0.0157
  284MPD2     H 4341   2.772   2.171  11.794  1.5946 -1.3280  0.0863
  284MPD2    H1 4342   2.594   1.905  12.087 -2.5311  1.3564 -0.6397
  284MPD2    H2 4343   2.751   2.264  12.205  0.1526 -2.5751  2.2188
  284MPD2    H3 4344   2.632   2.062  12.250 -1.0203  2.3794  0.2988
  284MPD2     N 4345   2.651   1.911  11.832 -0.0436 -0.2817  0.0985
  284MPD2    H5 4346   2.628   1.816  11.860 -2.4947 -0.2404 -1.7557
  284MPD2    N1 4347   2.841   2.342  11.955 -0.1927  0.6852  0.0883
  284MPD2    H7 4348   2.864   2.353  11.857  2.4499  1.0321  0.7707
  285TMC3    C1 4349   2.997   2.514  11.989  0.6921 -0.5374 -0.0328
  285TMC3    C2 4350   3.086   2.443  11.916  0.2726  0.5295  0.2338
  285TMC3    C3 4351   3.205   2.506  11.882  0.3649  0.0839  0.2911
  285TMC3    C4 4352   3.018   2.646  12.030  0.1715 -0.2171 -0.4693
  285TMC3    C5 4353   3.129   2.709  11.982 -0.1694 -0.1772  0.8816
  285TMC3    C6 4354   3.227   2.639  11.915 -0.7591  0.4383  0.4134
  285TMC3     C 4355   2.885   2.438  12.037 -0.8529 -0.0591 -0.2639
  285TMC3     O 4356   2.851   2.459  12.152  0.1654 -0.0809  0.1826
  285TMC3     H 4357   3.076   2.335  11.907  0.6338  0.4795  0.4530
  285TMC3    H1 4358   2.944   2.698  12.090 -0.6573 -0.1700 -1.5482
  285TMC3    H2 4359   3.315   2.689  11.877 -0.6820  0.6344  0.8605
  285TMC3    C7 4360   3.140   2.852  11.982 -0.4124 -0.6077 -0.3103
  285TMC3    C8 4361   3.285   2.449  11.772 -0.8804  0.4002 -0.4632
  285TMC3    O1 4362   3.252   2.904  11.976 -0.0263  0.2854  0.3018
  285TMC3    O2 4363   3.233   2.358  11.710  0.0759  0.0011  1.1041
  286MPD2     C 4364   3.411   2.210   1.418  1.1501 -0.2442 -0.2134
  286MPD2    C1 4365   3.333   2.169   1.306 -0.4961  0.0793 -0.1614
  286MPD2    C2 4366   3.365   2.046   1.252  0.0238 -0.5079 -1.4930
  286MPD2    C3 4367   3.456   1.960   1.313 -0.1711 -0.2623 -0.0182
  286MPD2    C4 4368   3.525   1.999   1.422 -0.8268 -0.0883  0.5176
  286MPD2    C5 4369   3.514   2.130   1.464 -0.1507  0.7342  0.5507
  286MPD2     H 4370   3.327   2.021   1.153 -1.9794  0.0468 -0.8791
  286MPD2    H1 4371   3.592   1.933   1.475  1.7942  0.1115 -2.5118
  286MPD2    H2 4372   3.391   2.312   1.449  0.0422 -0.5589  0.1156
  286MPD2    H3 4373   3.556   2.173   1.555 -0.9473  0.3213  1.1148
  286MPD2     N 4374   3.474   1.825   1.265  0.0852 -0.1251 -0.6105
  286MPD2    H5 4375   3.524   1.767   1.332  2.8401  1.5917 -1.1510
  286MPD2    N1 4376   3.248   2.262   1.238 -0.4100  0.2315 -0.0877
  286MPD2    H7 4377   3.205   2.232   1.151 -2.5266 -0.7539  1.2991
  287TMC3    C1 4378   3.486   1.638   1.131  0.8891 -0.1812 -0.5302
  287TMC3    C2 4379   3.419   1.539   1.056  0.0859 -0.0986 -0.2110
  287TMC3    C3 4380   3.476   1.419   1.058  0.3090 -0.6532 -0.5613
  287TMC3    C4 4381   3.606   1.621   1.195 -0.4280 -0.1821 -0.8213
  287TMC3    C5 4382   3.653   1.496   1.192  0.5062 -0.4756 -0.3346
  287TMC3    C6 4383   3.583   1.389   1.136  0.1716  0.1809 -0.3849
  287TMC3     C 4384   3.423   1.763   1.149  0.6873 -0.3089  0.1751
  287TMC3     O 4385   3.344   1.801   1.063  0.0054  0.2378 -0.5003
  287TMC3     H 4386   3.335   1.571   0.995 -0.8253 -0.2937  0.9273
  287TMC3    H1 4387   3.668   1.706   1.221 -1.1281 -0.1513  0.7809
  287TMC3    H2 4388   3.630   1.291   1.147 -0.0971 -0.0050 -0.9295
  287TMC3    C7 4389   3.790   1.477   1.252  0.3419 -0.5677 -0.2250
  287TMC3    C8 4390   3.418   1.321   0.972  0.0177 -0.2014  0.6596
  287TMC3    O1 4391   3.841   1.579   1.298  0.1256  0.8108 -0.3834
  287TMC3    O2 4392   3.314   1.351   0.914  0.7550 -0.0592 -0.1699
  288TMC3    C1 4393   0.541   1.368  14.533  0.0693  0.1538  0.5943
  288TMC3    C2 4394   0.454   1.390  14.638 -0.4547  0.0697  0.0916
  288TMC3    C3 4395   0.320   1.371  14.614 -0.5956 -0.2949  0.0480
  288TMC3    C4 4396   0.499   1.313  14.411  0.5015  0.1718  0.5831
  288TMC3    C5 4397   0.368   1.284  14.395  0.3908 -0.0226 -0.0146
  288TMC3    C6 4398   0.272   1.312  14.499  0.2969  0.2120  0.2487
  288TMC3     C 4399   0.679   1.352  14.575  0.1613  0.4516  0.3146
  288TMC3     O 4400   0.695   1.326  14.695  0.7740 -0.0053  0.2960
  288TMC3     H 4401   0.486   1.430  14.733 -2.1042  0.8540  0.3148
  288TMC3    H1 4402   0.570   1.292  14.332 -0.0857  1.7608 -0.3693
  288TMC3    H2 4403   0.170   1.277  14.501  0.3816 -0.0755 -0.7579
  288TMC3    C7 4404   0.338   1.174  14.308  0.5056 -0.2434 -0.6046
  288TMC3    C8 4405   0.233   1.460  14.687 -0.1556  0.3744 -0.4574
  288TMC3    O1 4406   0.437   1.115  14.263  0.6603 -0.6141 -0.0844
  288TMC3    O2 4407   0.276   1.570  14.705  0.7935  0.0968  0.7790
  289MPD2     C 4408   0.289   0.485  14.321  0.3058  0.4176  0.5977
  289MPD2    C1 4409   0.253   0.598  14.383  0.6449 -0.0921  0.1611
  289MPD2    C2 4410   0.118   0.630  14.393  0.1529 -0.0262 -0.5357
  289MPD2    C3 4411   0.018   0.542  14.359  0.6173 -0.0670 -0.4129
  289MPD2    C4 4412   0.064   0.430  14.294 -0.2437 -0.2857  0.1053
  289MPD2    C5 4413   0.196   0.400  14.277 -0.1694 -0.2219  0.6906
  289MPD2     H 4414   0.084   0.723  14.437 -2.6352 -0.6354 -1.4099
  289MPD2    H1 4415   0.001   0.350  14.258 -0.0026 -1.1882  1.6943
  289MPD2    H2 4416   0.392   0.458  14.300  0.4391  0.3819  1.3172
  289MPD2    H3 4417   0.213   0.304  14.228 -2.7813 -1.1231  1.5644
  289MPD2     N 4418   4.619   0.567  14.359  0.0254 -0.3202 -0.3178
  289MPD2    H5 4419   4.551   0.506  14.316  2.7942 -3.6740  0.1068
  289MPD2    N1 4420   0.355   0.691  14.426 -0.0805 -0.2163 -0.1361
  289MPD2    H7 4421   0.446   0.675  14.384  1.4742  1.1561  2.6867
  290TMC3    C1 4422   4.431   0.692  14.370 -0.0554  0.3751  0.8819
  290TMC3    C2 4423   4.400   0.821  14.333  0.1109 -0.4037 -0.7894
  290TMC3    C3 4424   4.268   0.851  14.310  0.0929  0.8585 -0.0683
  290TMC3    C4 4425   4.336   0.596  14.402 -0.5834 -0.1223  0.0622
  290TMC3    C5 4426   4.205   0.637  14.387 -0.4910 -0.5897 -0.4599
  290TMC3    C6 4427   4.169   0.753  14.325  0.1456  0.0894  0.5717
  290TMC3     C 4428   4.564   0.676  14.418 -0.3314 -0.2784 -0.3472
  290TMC3     O 4429   4.609   0.770  14.475 -0.1805 -0.1198  0.1884
  290TMC3     H 4430   4.477   0.897  14.337  0.9646 -1.3362  0.1346
  290TMC3    H1 4431   4.348   0.511  14.468  2.7880  0.1430 -0.1742
  290TMC3    H2 4432   4.067   0.788  14.313 -0.1620 -1.6034 -1.6979
  290TMC3    C7 4433   4.096   0.548  14.392 -0.2427 -0.6848  0.6876
  290TMC3    C8 4434   4.225   0.992  14.296  0.0126 -0.0578  0.6270
  290TMC3    O1 4435   3.981   0.594  14.379 -0.2369  0.2790  0.6474
  290TMC3    O2 4436   4.104   1.015  14.273 -0.1532 -0.1012 -0.0646
  291MPD2     C 4437   3.997   0.917   0.529  0.2344 -0.4923  0.1514
  291MPD2    C1 4438   4.121   0.865   0.518  0.0292 -0.3224 -0.0994
  291MPD2    C2 4439   4.229   0.943   0.556  0.2041 -0.0327 -0.0792
  291MPD2    C3 4440   4.212   1.080   0.595 -0.6536  0.6361  0.2217
  291MPD2    C4 4441   4.085   1.130   0.590 -0.1386  0.2982  0.2602
  291MPD2    C5 4442   3.980   1.048   0.563  0.5038  0.2506  0.4288
  291MPD2     H 4443   4.326   0.895   0.559  0.3649  0.2967 -0.0982
  291MPD2    H1 4444   4.074   1.236   0.610 -0.2569  0.0773  1.3662
  291MPD2    H2 4445   3.902   0.870   0.506 -0.4489  0.4966  0.9450
  291MPD2    H3 4446   3.888   1.106   0.557  1.3356  1.6848  1.5955
  291MPD2     N 4447   4.322   1.160   0.636 -0.1605  0.1245 -0.3484
  291MPD2    H5 4448   4.296   1.255   0.662  1.4758  0.3545  0.4745
  291MPD2    N1 4449   4.146   0.734   0.470  0.1350 -0.6875  0.0054
  291MPD2    H7 4450   4.243   0.710   0.449  0.5549 -0.1002  1.2958
  292TMC3    C1 4451   4.105   0.529   0.356  0.1256  0.1092 -0.5089
  292TMC3    C2 4452   4.203   0.464   0.431 -0.5607  0.3279 -0.6237
  292TMC3    C3 4453   4.256   0.346   0.384 -0.7310  0.0107  0.4119
  292TMC3    C4 4454   4.042   0.455   0.261 -0.0831  0.0829 -0.0795
  292TMC3    C5 4455   4.084   0.332   0.224  0.2224  0.4528  0.0740
  292TMC3    C6 4456   4.208   0.287   0.270  0.1010  0.4201 -0.2219
  292TMC3     C 4457   4.049   0.658   0.419  0.4639  0.8476  0.6024
  292TMC3     O 4458   3.928   0.660   0.429 -0.1252 -0.1419 -0.3639
  292TMC3     H 4459   4.247   0.506   0.521 -1.2234 -0.2818 -0.0238
  292TMC3    H1 4460   3.963   0.499   0.201 -0.1239  0.4069  0.2137
  292TMC3    H2 4461   4.252   0.195   0.233  0.6077  0.8868 -0.7820
  292TMC3    C7 4462   4.021   0.250   0.127 -0.0760 -0.6481 -0.6908
  292TMC3    C8 4463   4.338   0.267   0.469 -0.6131 -0.0460  0.1999
  292TMC3    O1 4464   4.091   0.169   0.069 -0.2910 -0.2755 -0.1110
  292TMC3    O2 4465   4.407   0.182   0.416  0.5180 -0.1635  0.2467
  293MPD2     C 4466   1.029   1.410  12.854 -0.1894 -0.0236  0.0358
  293MPD2    C1 4467   1.007   1.332  12.972 -0.1910 -0.0098  0.4483
  293MPD2    C2 4468   1.067   1.379  13.086  0.7228 -0.3450  0.0551
  293MPD2    C3 4469   1.127   1.508  13.082 -0.3431 -0.2416 -0.3217
  293MPD2    C4 4470   1.143   1.584  12.965 -0.6041 -0.2831 -0.3559
  293MPD2    C5 4471   1.084   1.533  12.857  0.0864  0.1881  0.2415
  293MPD2     H 4472   1.061   1.330  13.183  1.4864 -0.2134  0.1731
  293MPD2    H1 4473   1.186   1.683  12.951 -2.0082  0.1272 -1.7466
  293MPD2    H2 4474   0.972   1.382  12.766 -2.5408  3.8829  0.3039
  293MPD2    H3 4475   1.065   1.593  12.769  0.0223  0.9022  0.7391
  293MPD2     N 4476   1.164   1.568  13.206 -0.1123  0.1319 -0.0646
  293MPD2    H5 4477   1.158   1.507  13.287 -0.7738 -0.4306 -0.5362
  293MPD2    N1 4478   0.935   1.207  12.971  0.5413  0.2953  0.2081
  293MPD2    H7 4479   0.892   1.186  12.882  0.6773 -3.6466  1.0988
  294TMC3    C1 4480   0.775   1.047  13.035  0.0916  0.2343  0.7110
  294TMC3    C2 4481   0.788   0.918  13.070  0.0715  0.1213  0.1144
  294TMC3    C3 4482   0.697   0.828  13.021  0.0817  0.2478 -0.5769
  294TMC3    C4 4483   0.671   1.099  12.966 -0.3957 -0.0498 -0.4817
  294TMC3    C5 4484   0.574   1.014  12.925  0.1966 -0.7266  0.6323
  294TMC3    C6 4485   0.586   0.878  12.951  0.1999 -0.5823 -0.0836
  294TMC3     C 4486   0.887   1.136  13.076 -0.5351  0.9602  0.3431
  294TMC3     O 4487   0.903   1.149  13.199 -0.4376  0.5369 -0.1871
  294TMC3     H 4488   0.880   0.879  13.111  1.0961  0.4212 -1.8881
  294TMC3    H1 4489   0.671   1.203  12.936  2.2745 -0.1430 -0.8863
  294TMC3    H2 4490   0.505   0.812  12.922  1.2943 -1.4658 -1.1060
  294TMC3    C7 4491   0.456   1.060  12.853 -0.1791  0.7828  0.6573
  294TMC3    C8 4492   0.739   0.689  13.002 -0.5446  0.2316  0.0578
  294TMC3    O1 4493   0.360   0.987  12.834 -0.5697  0.0339  0.1436
  294TMC3    O2 4494   0.846   0.657  13.050  0.1689 -0.5287 -0.0279
  295MPD2     C 4495   2.300   0.675   0.873  0.8860  0.1330 -0.0474
  295MPD2    C1 4496   2.234   0.797   0.869  0.4536  0.2097  0.1914
  295MPD2    C2 4497   2.235   0.870   0.988  0.5467 -0.0244 -0.0764
  295MPD2    C3 4498   2.296   0.823   1.105  0.0889  0.6553 -0.4482
  295MPD2    C4 4499   2.357   0.702   1.105 -0.0530 -0.0325  0.0283
  295MPD2    C5 4500   2.368   0.628   0.989 -0.3132 -0.1445  0.4975
  295MPD2     H 4501   2.191   0.969   0.974  0.1168 -0.3333 -0.8924
  295MPD2    H1 4502   2.394   0.657   1.196 -0.7043  0.5688  0.5822
  295MPD2    H2 4503   2.306   0.607   0.788 -0.0845 -2.1420  1.7017
  295MPD2    H3 4504   2.413   0.530   0.996 -2.7431 -1.4114 -1.3256
  295MPD2     N 4505   2.276   0.885   1.226  0.5979  0.0205 -0.2872
  295MPD2    H5 4506   2.319   0.838   1.305 -1.5534 -2.0817 -0.3414
  295MPD2    N1 4507   2.189   0.859   0.749 -0.0271  0.0332  0.6797
  295MPD2    H7 4508   2.150   0.951   0.766  0.1464  0.2039  0.1664
  296TMC3    C1 4509   2.203   1.015   1.396  0.5797  0.9596 -0.5015
  296TMC3    C2 4510   2.263   1.130   1.449 -0.5925 -0.4033 -0.1133
  296TMC3    C3 4511   2.305   1.119   1.576  0.0008 -0.2395 -0.7332
  296TMC3    C4 4512   2.193   0.894   1.460 -0.0432  0.6399  0.1871
  296TMC3    C5 4513   2.247   0.895   1.587 -0.0842 -0.0395 -0.3696
  296TMC3    C6 4514   2.310   1.002   1.645 -0.5655  0.2197  0.0185
  296TMC3     C 4515   2.212   1.003   1.249  0.2323 -1.4140  0.6064
  296TMC3     O 4516   2.174   1.096   1.178  0.4942 -0.0139 -0.4735
  296TMC3     H 4517   2.289   1.217   1.390  1.9571 -0.7314  0.5519
  296TMC3    H1 4518   2.136   0.813   1.416 -0.0232  0.0002  1.3517
  296TMC3    H2 4519   2.347   1.010   1.746 -1.8612  0.3158  0.4917
  296TMC3    C7 4520   2.194   0.800   1.688  0.9959  0.0996  0.0857
  296TMC3    C8 4521   2.376   1.234   1.634 -0.0448  0.4775  0.4340
  296TMC3    O1 4522   2.246   0.785   1.796  0.4606  0.0035 -0.0214
  296TMC3    O2 4523   2.461   1.213   1.716 -0.0481  0.1899 -0.4613
  297MPD2     C 4524   3.545   2.792  16.524 -0.2794 -0.2150  0.0798
  297MPD2    C1 4525   3.512   2.879  16.423 -0.0208  0.5804 -0.0698
  297MPD2    C2 4526   3.609   2.968  16.385  0.0440 -0.9210  0.9238
  297MPD2    C3 4527   3.741   2.951  16.427  0.2810  0.4414 -0.1121
  297MPD2    C4 4528   3.770   2.859  16.524 -0.5548  0.6374 -0.5106
  297MPD2    C5 4529   3.669   2.788  16.586  0.5144 -0.0143  0.7605
  297MPD2     H 4530   3.591   3.032  16.299  0.1469 -0.6910  1.0737
  297MPD2    H1 4531   3.871   2.853  16.564 -0.6695  0.3881 -0.2550
  297MPD2    H2 4532   3.471   2.730  16.572 -0.9130  0.4243 -0.0698
  297MPD2    H3 4533   3.682   2.720  16.669  0.2813 -1.4326 -0.3792
  297MPD2     N 4534   3.840   3.036  16.372  0.5488 -0.0649 -0.2758
  297MPD2    H5 4535   3.803   3.114  16.318  2.8991  0.6605 -0.8178
  297MPD2    N1 4536   3.391   2.882  16.348  0.1278  0.1592  0.4352
  297MPD2    H7 4537   3.375   2.954  16.279 -1.0501 -1.1667 -0.6617
  298TMC3    C1 4538   3.199   2.813  16.250  0.4420 -0.0483  0.0712
  298TMC3    C2 4539   3.254   2.847  16.124  0.2035 -0.5171  0.8674
  298TMC3    C3 4540   3.163   2.864  16.025  0.6803 -0.8749 -0.1110
  298TMC3    C4 4541   3.077   2.773  16.261  0.4860  0.4381  0.0180
  298TMC3    C5 4542   2.987   2.795  16.166 -0.5908 -0.3724 -1.1292
  298TMC3    C6 4543   3.026   2.844  16.040 -0.7242  0.7523 -0.0107
  298TMC3     C 4544   3.290   2.795  16.362 -0.0220 -0.1347  0.1485
  298TMC3     O 4545   3.278   2.693  16.430  0.1073 -0.5261  0.6876
  298TMC3     H 4546   3.361   2.844  16.104 -0.0221 -0.0864 -0.3861
  298TMC3    H1 4547   3.047   2.724  16.353  1.6168  1.6027  1.0048
  298TMC3    H2 4548   2.958   2.868  15.960 -2.0978  0.3888  1.0529
  298TMC3    C7 4549   2.861   2.843  16.219  0.4637  0.0185  1.2112
  298TMC3    C8 4550   3.214   2.886  15.894  0.2314  0.1880 -0.1029
  298TMC3    O1 4551   2.845   2.855  16.340  0.7791  0.0134 -0.6969
  298TMC3    O2 4552   3.326   2.838  15.877  0.6742 -0.2581 -0.3977
  299MPD2     C 4553   4.251   2.440  10.881  0.3472 -0.3111 -0.6474
  299MPD2    C1 4554   4.326   2.510  10.789  0.3220 -0.4004 -0.4326
  299MPD2    C2 4555   4.269   2.559  10.671 -0.7657 -0.3160  0.0475
  299MPD2    C3 4556   4.136   2.524  10.646 -0.4843 -0.7921 -0.0770
  299MPD2    C4 4557   4.072   2.427  10.721 -0.1396 -0.1071 -0.2890
  299MPD2    C5 4558   4.127   2.389  10.839  0.2170 -0.6194  0.8042
  299MPD2     H 4559   4.321   2.617  10.596 -0.1472  0.6875  1.2487
  299MPD2    H1 4560   3.970   2.396  10.699  0.0600 -0.8392 -0.1710
  299MPD2    H2 4561   4.297   2.406  10.973 -2.1761 -1.1513  0.3049
  299MPD2    H3 4562   4.062   2.334  10.906 -1.9045  0.1038 -0.6640
  299MPD2     N 4563   4.076   2.556  10.524 -0.5297  0.4470 -0.7779
  299MPD2    H5 4564   3.987   2.509  10.515 -1.4545  2.2750 -1.0070
  299MPD2    N1 4565   4.459   2.543  10.827  0.4233  0.2803 -0.0951
  299MPD2    H7 4566   4.496   2.498  10.910 -1.2202  0.7273  0.8872
  300TMC3    C1 4567   4.002   2.656  10.337  1.2486  0.1145 -0.2707
  300TMC3    C2 4568   3.966   2.780  10.289  0.5689 -0.1734  0.2035
  300TMC3    C3 4569   3.853   2.788  10.220 -0.4011 -0.2639 -0.6743
  300TMC3    C4 4570   3.915   2.545  10.315 -0.7657 -0.3200 -0.0596
  300TMC3    C5 4571   3.793   2.565  10.257 -0.6524  0.2741 -0.2857
  300TMC3    C6 4572   3.766   2.684  10.198  0.0098  0.3565 -1.0381
  300TMC3     C 4573   4.117   2.645  10.423  1.0612  0.9224  0.2262
  300TMC3     O 4574   4.224   2.704  10.410 -0.4680  0.1150 -0.2590
  300TMC3     H 4575   4.033   2.864  10.305 -0.8289  0.4255  2.9351
  300TMC3    H1 4576   3.942   2.447  10.353  1.5526  0.4522  0.2792
  300TMC3    H2 4577   3.673   2.704  10.146 -0.2532  0.3662 -0.5598
  300TMC3    C7 4578   3.698   2.465  10.243 -0.3961  0.0134 -0.0177
  300TMC3    C8 4579   3.813   2.916  10.175 -0.7051  0.4931  0.0219
  300TMC3    O1 4580   3.615   2.463  10.155  0.2190  0.0493  0.6003
  300TMC3    O2 4581   3.862   2.946  10.066 -0.8659  0.3209  0.0011
  301MPD2     C 4582   1.640   4.171   1.841 -0.2297  0.5334  0.4329
  301MPD2    C1 4583   1.522   4.130   1.783 -0.2784 -0.0130  1.2448
  301MPD2    C2 4584   1.507   4.002   1.743 -0.5891 -0.2336  0.6050
  301MPD2    C3 4585   1.597   3.904   1.787  0.3244  0.0248  0.2280
  301MPD2    C4 4586   1.717   3.944   1.837 -0.0960 -0.4497  0.2968
  301MPD2    C5 4587   1.733   4.078   1.868 -0.1446  0.4688  0.2916
  301MPD2     H 4588   1.417   3.986   1.686  0.6565 -0.8624 -1.1683
  301MPD2    H1 4589   1.791   3.874   1.872 -0.9037 -0.6767  1.5651
  301MPD2    H2 4590   1.675   4.273   1.846 -0.3532  0.6365 -0.7184
  301MPD2    H3 4591   1.819   4.115   1.922 -1.9609  1.6605  2.4044
  301MPD2     N 4592   1.563   3.766   1.774  0.5559  0.6615  0.3024
  301MPD2    H5 4593   1.629   3.689   1.779  0.0230  0.1680 -0.2564
  301MPD2    N1 4594   1.419   4.218   1.738  0.1472  0.0425  0.4825
  301MPD2    H7 4595   1.349   4.191   1.669 -1.7001  1.4592  1.8101
  302TMC3    C1 4596   1.424   3.593   1.676  0.0587  0.4386  0.0995
  302TMC3    C2 4597   1.496   3.491   1.732  0.4646  0.5052 -0.4517
  302TMC3    C3 4598   1.450   3.362   1.707 -0.2698  0.4652  0.1117
  302TMC3    C4 4599   1.313   3.572   1.600 -0.6280 -0.1657  0.0497
  302TMC3    C5 4600   1.275   3.447   1.571 -0.0799  0.2456 -0.2225
  302TMC3    C6 4601   1.340   3.340   1.629  0.0966 -0.1133 -1.0562
  302TMC3     C 4602   1.433   3.727   1.740 -0.2591 -0.6988  0.3911
  302TMC3     O 4603   1.327   3.786   1.741  0.0345 -0.0786  0.1458
  302TMC3     H 4604   1.576   3.504   1.804 -0.9751  0.8906  1.0808
  302TMC3    H1 4605   1.259   3.653   1.553  0.5047  0.1661 -0.6963
  302TMC3    H2 4606   1.315   3.244   1.586  1.0302 -0.7384 -0.1924
  302TMC3    C7 4607   1.165   3.416   1.488  0.0850 -0.0347  0.2441
  302TMC3    C8 4608   1.517   3.250   1.771  0.8878 -0.2225 -0.0346
  302TMC3    O1 4609   1.125   3.300   1.485 -0.0183  0.1196 -0.0097
  302TMC3    O2 4610   1.632   3.265   1.812 -0.1649  0.8198  0.3916
  303MPD2     C 4611   2.127   1.561  10.565  0.0950  0.2133 -0.2447
  303MPD2    C1 4612   2.005   1.497  10.539  0.1552 -0.8438  0.0883
  303MPD2    C2 4613   1.892   1.580  10.514  0.2497 -0.1659 -0.1349
  303MPD2    C3 4614   1.910   1.715  10.507  0.0782 -0.2389 -0.7856
  303MPD2    C4 4615   2.029   1.777  10.548 -0.4790 -0.2696  0.1707
  303MPD2    C5 4616   2.135   1.693  10.565 -0.2486  0.1518  0.0304
  303MPD2     H 4617   1.794   1.535  10.500  0.3317 -0.6823  1.0037
  303MPD2    H1 4618   2.055   1.882  10.543 -3.0213  0.3007 -0.9133
  303MPD2    H2 4619   2.214   1.500  10.584 -0.9976 -1.4705 -0.6294
  303MPD2    H3 4620   2.235   1.730  10.584  0.2543 -0.7186 -0.8560
  303MPD2     N 4621   1.806   1.800  10.461 -0.3768  0.0080 -0.4677
  303MPD2    H5 4622   1.820   1.900  10.469 -0.0676 -0.0136 -0.7457
  303MPD2    N1 4623   1.997   1.353  10.550  0.6511  0.0556  0.2199
  303MPD2    H7 4624   2.085   1.304  10.555 -0.0934 -1.4364 -1.5339
  304TMC3    C1 4625   1.921   1.133  10.569 -0.6658  0.0358 -0.3459
  304TMC3    C2 4626   1.847   1.079  10.671  0.1995 -0.4774 -0.5484
  304TMC3    C3 4627   1.791   0.952  10.646 -0.2704 -0.4017  0.3141
  304TMC3    C4 4628   1.951   1.065  10.451 -0.5847  0.1647 -0.8018
  304TMC3    C5 4629   1.900   0.938  10.436 -0.1950  0.3746 -0.0935
  304TMC3    C6 4630   1.824   0.882  10.540 -0.1771 -0.0958  0.7310
  304TMC3     C 4631   1.885   1.273  10.557 -0.2590 -0.2220 -0.2340
  304TMC3     O 4632   1.771   1.304  10.574 -0.0005  0.6163 -0.0630
  304TMC3     H 4633   1.807   1.141  10.750 -1.3296  0.3983 -2.0091
  304TMC3    H1 4634   1.985   1.114  10.361  0.4903 -2.1910 -1.6944
  304TMC3    H2 4635   1.792   0.779  10.526 -1.1314  0.6475 -2.7108
  304TMC3    C7 4636   1.851   0.925  10.306 -0.2318  0.4239 -0.6425
  304TMC3    C8 4637   1.653   0.927  10.674  0.1580 -0.1133  0.2728
  304TMC3    O1 4638   1.921   0.957  10.213 -0.2862  0.1154  0.2270
  304TMC3    O2 4639   1.585   0.867  10.589 -0.1891  0.3301 -0.0205
  305MPD2     C 4640   4.359   3.691  13.873  0.2271 -0.1176 -0.7289
  305MPD2    C1 4641   4.420   3.608  13.966 -0.0503 -0.1849  0.1062
  305MPD2    C2 4642   4.466   3.484  13.928  0.0573  0.2907  0.1345
  305MPD2    C3 4643   4.461   3.446  13.793 -0.5393  0.2602  0.0370
  305MPD2    C4 4644   4.379   3.524  13.707 -0.4619  0.4219  0.1869
  305MPD2    C5 4645   4.341   3.647  13.747 -0.1178  0.3408 -0.5508
  305MPD2     H 4646   4.522   3.422  13.997  0.9535 -0.0805 -0.9218
  305MPD2    H1 4647   4.359   3.497  13.604 -1.3324  0.7772  0.2656
  305MPD2    H2 4648   4.320   3.788  13.900 -1.3339 -0.9688  0.1063
  305MPD2    H3 4649   4.294   3.702  13.667 -1.1614  1.0024  0.5174
  305MPD2     N 4650   4.529   3.332  13.740  0.7680  0.2524 -0.3259
  305MPD2    H5 4651   4.520   3.319  13.640  1.8082  2.7232 -0.7503
  305MPD2    N1 4652   4.428   3.657  14.102  0.4427 -0.2195 -0.2610
  305MPD2    H7 4653   4.411   3.756  14.113 -0.8265 -0.5468  0.5719
  306TMC3    C1 4654   4.500   3.675  14.317  0.5325  0.0026  0.6960
  306TMC3    C2 4655   4.599   3.630  14.391  0.6285  0.5036 -0.1607
  306TMC3    C3 4656   4.628   3.690  14.507  0.0266 -0.1564  0.0448
  306TMC3    C4 4657   4.423   3.786  14.347 -0.3156  0.5041 -0.5493
  306TMC3    C5 4658   4.463   3.849  14.466  0.2455 -0.3539  0.0031
  306TMC3    C6 4659   4.564   3.806  14.545 -0.2029  0.6301  0.3267
  306TMC3     C 4660   4.471   3.586  14.208 -0.3287 -0.2156 -0.0597
  306TMC3     O 4661   4.504   3.469  14.216 -0.8772  0.2267 -0.1858
  306TMC3     H 4662   4.659   3.543  14.367  0.0992  0.2867 -0.6806
  306TMC3    H1 4663   4.334   3.818  14.294 -0.3074 -0.6697 -1.2897
  306TMC3    H2 4664   4.576   3.848  14.644 -2.2900  0.8477  0.5054
  306TMC3    C7 4665   4.383   3.945  14.527 -0.3644 -0.7105  0.4041
  306TMC3    C8 4666   4.731   3.628  14.589 -0.6671  0.2128 -0.0118
  306TMC3    O1 4667   4.262   3.932  14.506  0.9165  0.4242 -0.5899
  306TMC3    O2 4668   0.009   3.505  14.580 -0.1054  0.1823  0.2504
  307MPD2     C 4669   2.701   2.355   0.392 -0.2594  0.6356 -0.0247
  307MPD2    C1 4670   2.681   2.485   0.368  1.3111  0.4236  0.1490
  307MPD2    C2 4671   2.683   2.572   0.473  0.4838 -0.3035 -0.0696
  307MPD2    C3 4672   2.721   2.532   0.601  0.4425 -0.1534 -0.2861
  307MPD2    C4 4673   2.742   2.400   0.624  0.4151  0.0551 -0.1020
  307MPD2    C5 4674   2.732   2.312   0.515  0.1963 -0.3079 -0.1661
  307MPD2     H 4675   2.658   2.674   0.450 -0.6554 -0.6457 -0.3376
  307MPD2    H1 4676   2.767   2.357   0.720 -1.5233 -0.4006  0.2089
  307MPD2    H2 4677   2.706   2.282   0.312 -1.3473  1.1927 -0.6041
  307MPD2    H3 4678   2.759   2.208   0.531 -1.1563 -0.5315  0.6765
  307MPD2     N 4679   2.737   2.632   0.697  0.4136  0.0070  0.2198
  307MPD2    H5 4680   2.726   2.728   0.666  1.7580 -0.2184 -0.9414
  307MPD2    N1 4681   2.626   2.535   0.246 -0.3718 -0.3539  0.2018
  307MPD2    H7 4682   2.621   2.636   0.248 -0.0217 -0.2913 -3.4940
  308TMC3    C1 4683   2.675   2.847   1.100  0.0121  1.0281  1.2821
  308TMC3    C2 4684   2.750   2.958   1.063  0.1506  0.0167 -0.7044
  308TMC3    C3 4685   2.817   2.958   0.945  0.3095  0.1868  0.4768
  308TMC3    C4 4686   2.681   2.736   1.025  0.8367  0.5027 -0.2694
  308TMC3    C5 4687   2.755   2.733   0.909 -0.2745  0.0159  1.7126
  308TMC3    C6 4688   2.810   2.848   0.865  0.1701  0.2413  0.1083
  308TMC3     C 4689   2.546   2.881   1.157  0.3882 -0.2703 -0.3583
  308TMC3     O 4690   2.551   2.993   1.208 -0.4687 -0.3773  0.8419
  308TMC3     H 4691   2.761   3.039   1.135 -1.6052 -2.4001  2.3094
  308TMC3    H1 4692   2.653   2.640   1.068  1.6251  0.1306 -0.5877
  308TMC3    H2 4693   2.863   2.846   0.770 -2.1585 -2.0139 -1.1466
  308TMC3    C7 4694   2.749   2.609   0.831  0.2808 -0.3133 -0.6480
  308TMC3    C8 4695   2.872   3.080   0.896  0.9100 -0.2382  0.4520
  308TMC3    O1 4696   2.758   2.509   0.900  0.3223  0.5304  0.1546
  308TMC3    O2 4697   2.945   3.144   0.970  0.3969 -0.3161 -0.0088
  309MPD2     C 4698   1.163   2.799  17.134  0.1628  0.0596  0.0375
  309MPD2    C1 4699   1.264   2.843  17.214 -0.1794 -0.4226 -0.5408
  309MPD2    C2 4700   1.249   2.840  17.348  0.3795  0.8457 -0.4205
  309MPD2    C3 4701   1.129   2.801  17.401 -0.4575 -0.5113  0.1101
  309MPD2    C4 4702   1.026   2.747  17.321 -0.1980 -0.4940 -0.3548
  309MPD2    C5 4703   1.047   2.750  17.185  0.0591  0.1441 -0.8677
  309MPD2     H 4704   1.332   2.883  17.402 -0.8727  1.5183  0.9456
  309MPD2    H1 4705   0.934   2.714  17.370 -0.5623  1.0044 -0.0222
  309MPD2    H2 4706   1.172   2.803  17.027 -1.9656  0.2417 -0.1265
  309MPD2    H3 4707   0.969   2.716  17.118 -1.3108 -1.3140  1.4584
  309MPD2     N 4708   1.110   2.798  17.543 -0.0128  0.3084 -0.3687
  309MPD2    H5 4709   1.015   2.780  17.576 -0.1692  2.9136  0.6509
  309MPD2    N1 4710   1.390   2.874  17.154 -0.7978  0.1532  0.1594
  309MPD2    H7 4711   1.398   2.874  17.052  0.3212  0.0058  0.2426
  310TMC3    C1 4712   1.600   2.931  17.105 -0.1296 -0.2484  0.1981
  310TMC3    C2 4713   1.557   2.990  16.990  0.1750  0.3246  0.6705
  310TMC3    C3 4714   1.612   2.941  16.868  0.3224  0.3522  0.0653
  310TMC3    C4 4715   1.696   2.832  17.106 -0.8676  0.6072 -0.2884
  310TMC3    C5 4716   1.758   2.805  16.988 -0.5370 -0.4981  0.2392
  310TMC3    C6 4717   1.723   2.860  16.871 -0.6432 -0.7077 -0.5981
  310TMC3     C 4718   1.507   2.923  17.210 -0.0619  0.5094 -0.7126
  310TMC3     O 4719   1.539   2.934  17.330 -0.4800  0.1283  0.6454
  310TMC3     H 4720   1.465   3.047  16.991 -0.9851 -1.5228  0.0109
  310TMC3    H1 4721   1.734   2.793  17.199 -0.9895  0.0761 -0.4637
  310TMC3    H2 4722   1.774   2.834  16.779 -2.5782 -0.4705 -1.7423
  310TMC3    C7 4723   1.856   2.701  16.971 -0.7523  0.4045 -0.5357
  310TMC3    C8 4724   1.607   3.029  16.752  0.4142  0.0339  0.1018
  310TMC3    O1 4725   1.939   2.703  16.881 -0.3951  0.1054  0.4439
  310TMC3    O2 4726   1.568   3.144  16.764  0.0298  0.1129  0.6460
  311MPD2     C 4727   3.725   3.020  13.213 -0.2909  0.6379 -0.1032
  311MPD2    C1 4728   3.695   3.110  13.110 -0.2663  0.3728  0.5371
  311MPD2    C2 4729   3.563   3.120  13.070  0.1799 -0.1413 -0.5246
  311MPD2    C3 4730   3.466   3.049  13.129 -0.0292 -0.0173  0.6414
  311MPD2    C4 4731   3.503   2.948  13.217 -0.1198 -0.0958  0.6700
  311MPD2    C5 4732   3.631   2.933  13.258  0.4242  0.2193  0.4429
  311MPD2     H 4733   3.556   3.190  12.988 -0.7179  0.7509  0.3092
  311MPD2    H1 4734   3.431   2.896  13.279 -0.6323 -1.1784 -0.8336
  311MPD2    H2 4735   3.823   3.000  13.257  0.0582  2.4075 -0.0842
  311MPD2    H3 4736   3.657   2.862  13.336  1.8239 -1.6280 -1.7232
  311MPD2     N 4737   3.336   3.084  13.105  0.3128 -0.1385  0.1008
  311MPD2    H5 4738   3.313   3.170  13.056  1.5284  1.2403  1.9644
  311MPD2    N1 4739   3.790   3.191  13.047  0.3762 -0.1383 -0.1968
  311MPD2    H7 4740   3.761   3.265  12.983 -1.0470  1.2842  2.1027
  312TMC3    C1 4741   3.112   3.073  13.117  0.1238  0.1012 -0.0943
  312TMC3    C2 4742   3.006   2.997  13.073  0.0891 -0.1109 -0.7049
  312TMC3    C3 4743   2.907   3.074  13.021 -0.3830  0.7173 -0.0293
  312TMC3    C4 4744   3.100   3.205  13.148  0.0274 -0.2072  0.4455
  312TMC3    C5 4745   2.981   3.273  13.115 -0.3612 -0.0840  0.3497
  312TMC3    C6 4746   2.885   3.209  13.050  0.5417 -0.4499  0.7240
  312TMC3     C 4747   3.232   3.004  13.142 -0.4897  0.1205 -0.5247
  312TMC3     O 4748   3.228   2.883  13.151 -0.8908  0.2268  0.6670
  312TMC3     H 4749   3.022   2.894  13.044 -0.5702 -0.5224  0.3831
  312TMC3    H1 4750   3.182   3.267  13.183 -0.1561  1.3897 -1.9745
  312TMC3    H2 4751   2.790   3.258  13.031  0.9388 -0.2992 -0.8416
  312TMC3    C7 4752   2.977   3.419  13.118 -0.1405 -0.1580 -0.0138
  312TMC3    C8 4753   2.803   3.013  12.934 -0.0457 -0.9891 -0.5596
  312TMC3    O1 4754   2.883   3.475  13.065  0.0072 -0.5828 -0.2380
  312TMC3    O2 4755   2.773   2.901  12.964  0.7863  0.0412  0.0764
  313MPD2     C 4756   3.078   2.515  11.329 -0.1183 -0.2537 -0.5528
  313MPD2    C1 4757   3.082   2.647  11.298 -0.8122  0.2303 -0.0703
  313MPD2    C2 4758   3.092   2.681  11.168  0.4687  0.0399 -0.7745
  313MPD2    C3 4759   3.094   2.592  11.064  0.0270 -0.2295 -0.0435
  313MPD2    C4 4760   3.096   2.458  11.097  0.0672 -0.0312  0.1464
  313MPD2    C5 4761   3.079   2.424  11.230  0.4760  0.1608  0.0369
  313MPD2     H 4762   3.095   2.789  11.155 -3.0778  0.3244  0.7848
  313MPD2    H1 4763   3.105   2.378  11.025 -1.0048 -0.6770  0.7339
  313MPD2    H2 4764   3.070   2.475  11.429 -0.2391  0.4074 -0.2990
  313MPD2    H3 4765   3.066   2.320  11.257 -1.8558  0.8842  1.7687
  313MPD2     N 4766   3.111   2.633  10.930  0.0129 -0.4425 -0.1533
  313MPD2    H5 4767   3.125   2.733  10.923 -1.8859 -0.1667 -0.1306
  313MPD2    N1 4768   3.068   2.750  11.395 -0.2797  0.3046  0.4699
  313MPD2    H7 4769   3.069   2.846  11.362  0.2448  0.5688  1.2609
  314TMC3    C1 4770   3.022   2.862  11.583 -0.0014 -0.8191 -0.0062
  314TMC3    C2 4771   3.129   2.920  11.642  0.1718  0.2993 -0.2073
  314TMC3    C3 4772   3.149   3.053  11.617  0.0890  0.2429  0.0634
  314TMC3    C4 4773   2.921   2.927  11.513 -0.3184 -0.1375  0.3202
  314TMC3    C5 4774   2.950   3.060  11.491  0.2762  0.2887 -0.1300
  314TMC3    C6 4775   3.062   3.120  11.533  0.6882  0.3028 -0.2138
  314TMC3     C 4776   3.056   2.736  11.531 -0.7109 -1.1319 -0.1131
  314TMC3     O 4777   3.064   2.639  11.604 -0.4450  0.1554  0.1294
  314TMC3     H 4778   3.196   2.866  11.708  0.1378 -0.1990 -0.5754
  314TMC3    H1 4779   2.833   2.877  11.475  0.8533 -0.3588 -2.1255
  314TMC3    H2 4780   3.080   3.219  11.493 -0.7541  0.6018 -0.1387
  314TMC3    C7 4781   2.895   3.100  11.360  0.0550 -0.5251  0.3121
  314TMC3    C8 4782   3.281   3.111  11.622 -0.0818 -0.2831  0.3097
  314TMC3    O1 4783   2.780   3.064  11.335  0.5177  0.3334 -0.1515
  314TMC3    O2 4784   3.305   3.187  11.533 -0.4767  0.2220 -0.2247
  315MPD2     C 4785   2.805   2.167  17.514 -0.5715 -0.6762 -0.3344
  315MPD2    C1 4786   2.871   2.227  17.623 -0.0712  0.3519  0.0301
  315MPD2    C2 4787   2.893   2.361  17.609 -0.0145 -0.3493  0.4641
  315MPD2    C3 4788   2.878   2.429  17.486  0.0642  0.1334 -0.6825
  315MPD2    C4 4789   2.820   2.363  17.384 -0.1028  1.1161 -0.3833
  315MPD2    C5 4790   2.779   2.236  17.399  0.0932  0.0474  0.3054
  315MPD2     H 4791   2.933   2.412  17.695 -1.8961  1.6729  0.1358
  315MPD2    H1 4792   2.796   2.423  17.297  0.8348  3.7176  1.1516
  315MPD2    H2 4793   2.772   2.064  17.509  0.6662 -1.1088  0.3788
  315MPD2    H3 4794   2.718   2.200  17.317  1.3204 -0.6319 -0.3110
  315MPD2     N 4795   2.895   2.570  17.489 -0.3216 -0.2802  0.2695
  315MPD2    H5 4796   2.935   2.616  17.570  3.3472 -1.3743 -0.9310
  315MPD2    N1 4797   2.899   2.164  17.745 -0.4256 -0.5198 -0.1358
  315MPD2    H7 4798   2.950   2.218   0.060 -0.4346  0.2596 -0.7293
  316TMC3    C1 4799   2.931   2.787  17.412  0.5968  0.1421 -0.9753
  316TMC3    C2 4800   3.038   2.788  17.500  0.0682 -0.1961 -0.6342
  316TMC3    C3 4801   3.095   2.906  17.535 -0.0449 -0.4458 -0.4955
  316TMC3    C4 4802   2.881   2.904  17.352  0.1681  0.5851 -0.3709
  316TMC3    C5 4803   2.946   3.025  17.379 -0.2631  0.5108  0.3738
  316TMC3    C6 4804   3.056   3.022  17.466 -0.0236  0.6211  0.1501
  316TMC3     C 4805   2.872   2.659  17.384 -0.5989  0.4345  0.0674
  316TMC3     O 4806   2.815   2.647  17.279  0.1710  0.3525 -0.1311
  316TMC3     H 4807   3.067   2.701  17.557 -2.9272 -1.0929 -0.4326
  316TMC3    H1 4808   2.803   2.896  17.277 -0.2047 -0.1877  0.1037
  316TMC3    H2 4809   3.104   3.115  17.494  0.1645  0.2595  1.0169
  316TMC3    C7 4810   2.893   3.159  17.329 -0.3412  0.0264  0.2413
  316TMC3    C8 4811   3.158   2.932  17.663 -0.1483  0.2619 -0.2260
  316TMC3    O1 4812   2.960   3.259  17.363 -0.2035  0.3296  0.4331
  316TMC3    O2 4813   3.177   3.048  17.705 -0.2980 -0.1243 -0.2095
  317MPD2     C 4814   4.426   0.763  13.106 -0.5772  0.5031  0.1475
  317MPD2    C1 4815   4.409   0.654  13.025 -0.1366  0.3600  0.6988
  317MPD2    C2 4816   4.512   0.561  13.016 -0.2922 -0.4142 -0.0223
  317MPD2    C3 4817   4.628   0.583  13.085  0.2155 -0.0075 -0.1475
  317MPD2    C4 4818   4.648   0.701  13.153  0.0212 -0.4551 -0.2927
  317MPD2    C5 4819   4.543   0.784  13.163  0.3413  0.5726 -1.0081
  317MPD2     H 4820   4.503   0.477  12.948 -0.6805 -0.3160 -0.0948
  317MPD2    H1 4821   0.005   0.732  13.191  0.3165 -0.4551 -1.0453
  317MPD2    H2 4822   4.352   0.842  13.112 -1.3067 -0.2025  0.4865
  317MPD2    H3 4823   4.549   0.876  13.221 -0.4630  0.8787 -1.4122
  317MPD2     N 4824   4.724   0.479  13.083 -0.1855 -0.4807 -0.6539
  317MPD2    H5 4825   4.681   0.395  13.044 -2.0080 -0.4902  1.3712
  317MPD2    N1 4826   4.289   0.624  12.953 -0.4429  0.2318 -0.4451
  317MPD2    H7 4827   4.280   0.533  12.908  0.1065 -0.4861  0.8920
  318TMC3    C1 4828   0.191   0.364  13.123  0.8343 -0.5861  0.4254
  318TMC3    C2 4829   0.122   0.253  13.078 -0.4857 -0.7435 -0.2969
  318TMC3    C3 4830   0.201   0.146  13.057  0.3999  0.0441 -0.1915
  318TMC3    C4 4831   0.328   0.375  13.139  0.6538 -0.6174 -0.1841
  318TMC3    C5 4832   0.398   0.255  13.119 -0.2589  0.6666  0.6117
  318TMC3    C6 4833   0.335   0.142  13.082 -0.2639  0.3479 -0.1782
  318TMC3     C 4834   0.114   0.486  13.125  0.4361  0.0223  0.5826
  318TMC3     O 4835   0.177   0.586  13.158 -0.7821 -0.0413  0.7107
  318TMC3     H 4836   0.013   0.252  13.080 -0.5652  5.3461 -0.4865
  318TMC3    H1 4837   0.379   0.463  13.176 -0.8268  0.9921 -1.9825
  318TMC3    H2 4838   0.394   0.054  13.058  2.5428  2.5241 -1.2360
  318TMC3    C7 4839   0.511   0.223  13.198 -0.0905  0.2349 -0.6789
  318TMC3    C8 4840   0.138   0.009  13.050  0.0121  0.0218  0.2665
  318TMC3    O1 4841   0.525   0.107  13.237 -0.3967  0.0630 -0.3410
  318TMC3    O2 4842   0.214   4.660  13.083 -0.3340  0.4628 -0.1942
  319MPD2     C 4843   1.260   2.406  16.638  0.0892  0.8414  0.5296
  319MPD2    C1 4844   1.159   2.402  16.734 -0.2015  0.0957 -0.3046
  319MPD2    C2 4845   1.032   2.376  16.703  0.0786 -0.5156 -0.4401
  319MPD2    C3 4846   1.006   2.346  16.572  0.1445 -0.5656  0.8641
  319MPD2    C4 4847   1.096   2.359  16.478  0.0746 -0.4792 -0.1032
  319MPD2    C5 4848   1.227   2.399  16.505  0.5423  0.2082  0.5539
  319MPD2     H 4849   0.957   2.362  16.780  0.2005 -1.3227 -0.4679
  319MPD2    H1 4850   1.064   2.337  16.377 -1.1995  1.4948 -0.1298
  319MPD2    H2 4851   1.365   2.422  16.661  0.9476  0.5948 -3.3569
  319MPD2    H3 4852   1.300   2.402  16.425 -1.8920 -2.3286 -1.7882
  319MPD2     N 4853   0.885   2.280  16.537  0.7802  0.3928 -0.5481
  319MPD2    H5 4854   0.865   2.260  16.440 -1.9039 -1.2389  0.3243
  319MPD2    N1 4855   1.193   2.404  16.872 -0.3015  0.6254 -0.1498
  319MPD2    H7 4856   1.111   2.412  16.931  0.1834  1.2696  0.4192
  320TMC3    C1 4857   0.659   2.197  16.557 -0.2554  0.5442  0.1652
  320TMC3    C2 4858   0.605   2.245  16.443  0.0378 -0.6925 -0.6354
  320TMC3    C3 4859   0.478   2.208  16.408 -0.3099 -0.3342  1.0099
  320TMC3    C4 4860   0.588   2.112  16.637 -0.5299 -0.2617 -0.1215
  320TMC3    C5 4861   0.457   2.084  16.601 -0.7859  0.5219  0.3049
  320TMC3    C6 4862   0.413   2.119  16.482  0.3863 -0.1646 -0.3174
  320TMC3     C 4863   0.782   2.246  16.623 -0.5248 -0.0613  0.4916
  320TMC3     O 4864   0.797   2.219  16.743  0.9617 -0.0817  0.1022
  320TMC3     H 4865   0.657   2.325  16.391 -0.2092 -0.6818 -0.8671
  320TMC3    H1 4866   0.637   2.057  16.717 -0.2834  0.7055  0.4001
  320TMC3    H2 4867   0.319   2.075  16.453 -0.5703  0.3003  2.0971
  320TMC3    C7 4868   0.405   1.954  16.644 -0.9330 -0.0919 -0.2811
  320TMC3    C8 4869   0.410   2.271  16.292  0.1228 -0.1493  0.4572
  320TMC3    O1 4870   0.337   1.884  16.571 -0.3926  0.4272  0.5473
  320TMC3    O2 4871   0.444   2.378  16.255  0.1614  0.3324 -0.3822
  321TMC3    C1 4872   1.311   2.449  17.074  0.0756  0.3150  0.1795
  321TMC3    C2 4873   1.210   2.411  17.155  0.7949 -0.9641  0.4787
  321TMC3    C3 4874   1.218   2.439  17.288 -0.0555  0.4312 -0.1002
  321TMC3    C4 4875   1.427   2.495  17.129  0.3183 -0.1317 -0.3754
  321TMC3    C5 4876   1.422   2.537  17.258 -0.2770  0.2124  0.2371
  321TMC3    C6 4877   1.310   2.531  17.338 -0.6473 -0.1276 -0.1066
  321TMC3     C 4878   1.315   2.402  16.931 -1.4699  0.8507 -0.8721
  321TMC3     O 4879   1.424   2.401  16.883  0.1102  0.2115 -0.3211
  321TMC3     H 4880   1.116   2.374  17.114  1.4218 -0.2597 -1.5818
  321TMC3    H1 4881   1.514   2.512  17.067  0.3534  0.2697 -0.2192
  321TMC3    H2 4882   1.311   2.569  17.439 -0.2137  1.9754 -0.8899
  321TMC3    C7 4883   1.551   2.544  17.320  0.1382 -0.1888 -0.2889
  321TMC3    C8 4884   1.245   2.320  17.375 -0.5368 -0.4765  0.0489
  321TMC3    O1 4885   1.650   2.579  17.257  0.3366  0.6774 -0.4695
  321TMC3    O2 4886   1.300   2.330  17.486  0.1820  0.7114 -0.2560
  322MPD2     C 4887   4.268   2.744  14.032 -0.1156 -0.3243 -0.2403
  322MPD2    C1 4888   4.370   2.708  14.116 -0.3258  0.8000 -0.4365
  322MPD2    C2 4889   4.419   2.576  14.108  0.0025 -0.7748  0.1876
  322MPD2    C3 4890   4.361   2.489  14.018  0.5143 -0.7526  0.0303
  322MPD2    C4 4891   4.255   2.527  13.940  0.1267  0.2426 -0.3292
  322MPD2    C5 4892   4.215   2.661  13.935 -0.6366 -0.0854  0.6444
  322MPD2     H 4893   4.500   2.552  14.176  0.1615 -2.5600 -0.6240
  322MPD2    H1 4894   4.205   2.460  13.871  1.2619  1.9649 -2.8158
  322MPD2    H2 4895   4.229   2.845  14.037 -0.3972 -0.3908 -1.1853
  322MPD2    H3 4896   4.155   2.700  13.853  0.4634  0.6635  0.1865
  322MPD2     N 4897   4.423   2.356  14.002 -0.6171  0.4185 -0.4520
  322MPD2    H5 4898   4.490   2.315  14.067 -1.7796 -2.4200 -1.0175
  322MPD2    N1 4899   4.441   2.791  14.205 -0.4143  0.0304 -1.1787
  322MPD2    H7 4900   4.505   2.748  14.270 -1.4170 -1.3341 -1.0962
  323TMC3    C1 4901   4.547   2.997  14.265  0.8093  0.6434 -0.2537
  323TMC3    C2 4902   4.630   3.081  14.193 -0.2358  0.3276  0.4327
  323TMC3    C3 4903   0.005   3.125  14.245 -0.8269 -0.4598  0.1354
  323TMC3    C4 4904   4.579   2.955  14.388  0.0863  0.4742  0.2112
  323TMC3    C5 4905   4.682   3.010  14.452 -0.1663  0.4838 -1.0559
  323TMC3    C6 4906   0.031   3.089  14.379 -0.5353  0.1389 -0.1179
  323TMC3     C 4907   4.446   2.933  14.185  0.6786  0.1450 -0.4109
  323TMC3     O 4908   4.395   2.997  14.097 -0.6688  0.0512 -0.1982
  323TMC3     H 4909   4.597   3.113  14.095 -1.4856 -0.4872  0.5732
  323TMC3    H1 4910   4.521   2.875  14.435  0.2307 -0.2234 -0.7981
  323TMC3    H2 4911   0.129   3.120  14.411 -0.5596 -1.2498  1.3013
  323TMC3    C7 4912   0.001   2.943  14.563  0.3459  0.2313  0.0420
  323TMC3    C8 4913   0.114   3.092  14.161 -0.0986  0.6231 -0.0647
  323TMC3    O1 4914   4.716   2.826  14.582 -0.1107  0.2415 -0.0947
  323TMC3    O2 4915   0.217   3.159  14.162 -0.5095  0.1411 -0.0222
  324MPD2     C 4916   1.605   0.251  14.661  0.0051 -0.0407 -0.3248
  324MPD2    C1 4917   1.624   0.174  14.774 -0.7422  0.8315 -0.1089
  324MPD2    C2 4918   1.517   0.097  14.816 -0.5348 -0.1102 -0.1633
  324MPD2    C3 4919   1.389   0.109  14.762  0.4048  0.3080  0.1816
  324MPD2    C4 4920   1.378   0.187  14.656 -0.8466 -0.4245  0.4862
  324MPD2    C5 4921   1.485   0.248  14.601  0.9172  0.0770 -0.3068
  324MPD2     H 4922   1.518   0.031  14.902  0.1944 -2.2800 -1.8355
  324MPD2    H1 4923   1.283   0.199  14.605 -0.1387 -1.6721 -1.1249
  324MPD2    H2 4924   1.681   0.314  14.617  0.6202  0.8406  1.9838
  324MPD2    H3 4925   1.460   0.315  14.519 -0.0655  0.5254  0.3542
  324MPD2     N 4926   1.274   0.030  14.793 -0.1586 -0.1838 -0.0632
  324MPD2    H5 4927   1.186   0.055  14.750 -0.1653 -0.1573 -0.0337
  324MPD2    N1 4928   1.751   0.161  14.836  0.7890  0.0894 -0.4084
  324MPD2    H7 4929   1.749   0.075  14.890 -1.4933  0.1086 -0.4556
  325TMC3    C1 4930   1.141   4.603  14.892 -0.2697  0.1514 -0.0466
  325TMC3    C2 4931   1.123   4.471  14.857  0.5831 -0.9846 -0.5526
  325TMC3    C3 4932   0.992   4.430  14.847 -0.2808  0.4100 -0.6663
  325TMC3    C4 4933   1.045   4.694  14.927  0.6869  1.1378 -0.1110
  325TMC3    C5 4934   0.917   4.648  14.910 -0.2133  0.1635  0.0826
  325TMC3    C6 4935   0.890   4.516  14.878 -0.1122  0.4437 -0.3434
  325TMC3     C 4936   1.270   4.659  14.874  0.0568  0.4960 -0.3499
  325TMC3     O 4937   1.363   4.596  14.924 -0.1665  0.1093 -0.2721
  325TMC3     H 4938   1.199   4.414  14.805  1.1489 -1.0949  0.3905
  325TMC3    H1 4939   1.080   0.057  14.939  1.1938  1.0612 -0.9565
  325TMC3    H2 4940   0.787   4.484  14.886 -0.4458  1.9285  1.3814
  325TMC3    C7 4941   0.810   0.006  14.943  0.1212 -1.0248  0.1665
  325TMC3    C8 4942   0.955   4.312  14.772  0.2558 -0.0071  0.3013
  325TMC3    O1 4943   0.853   0.108  14.993 -0.2281  0.0400 -0.4729
  325TMC3    O2 4944   0.839   4.282  14.766 -0.7035 -0.2789 -0.3482
  326MPD2     C 4945   2.934   0.026  11.249 -0.0366  0.3087 -0.0315
  326MPD2    C1 4946   2.989   0.120  11.170 -0.0005  0.2629  0.2727
  326MPD2    C2 4947   3.121   0.145  11.190 -0.5398  0.0985  0.5208
  326MPD2    C3 4948   3.193   0.086  11.289 -0.6973  0.1844  0.6368
  326MPD2    C4 4949   3.136   4.735  11.372  0.6797 -0.1847  0.2493
  326MPD2    C5 4950   3.006   4.700  11.351  0.4321 -0.0616 -0.2574
  326MPD2     H 4951   3.175   0.212  11.125 -0.8565  0.1267  0.2826
  326MPD2    H1 4952   3.192   4.688  11.451  0.3271  1.6629  1.6180
  326MPD2    H2 4953   2.828   0.005  11.246  0.1523 -1.0181  2.4153
  326MPD2    H3 4954   2.958   4.630  11.419  1.2579 -1.6262 -1.2799
  326MPD2     N 4955   3.330   0.130  11.311  0.4279  0.9562  0.4573
  326MPD2    H5 4956   3.376   0.089  11.392 -1.0080 -0.6563  0.4608
  326MPD2    N1 4957   2.920   0.177  11.058 -0.2958 -0.3906 -0.0618
  326MPD2    H7 4958   2.973   0.239  10.997 -0.6092 -0.5052 -0.4540
  327TMC3    C1 4959   2.815   0.167  10.863  0.5569 -0.0508 -0.0869
  327TMC3    C2 4960   2.838   0.295  10.819 -0.3911 -0.5703  0.2098
  327TMC3    C3 4961   2.852   0.315  10.686  0.4084  0.3751 -0.3024
  327TMC3    C4 4962   2.838   0.063  10.781 -0.4339  0.2639 -0.0285
  327TMC3    C5 4963   2.868   0.089  10.652  0.2660 -0.7046  0.1122
  327TMC3    C6 4964   2.850   0.211  10.592 -0.0268 -0.2945  0.6813
  327TMC3     C 4965   2.807   0.135  11.001 -0.6095  0.7970 -0.2468
  327TMC3     O 4966   2.756   0.029  11.029 -0.2558  0.0659 -0.1459
  327TMC3     H 4967   2.820   0.376  10.888 -2.0527  1.0382 -2.1135
  327TMC3    H1 4968   2.828   4.697  10.805 -0.6991  0.3933  0.4332
  327TMC3    H2 4969   2.876   0.226  10.488  2.0384 -0.1835  1.2314
  327TMC3    C7 4970   3.005   0.028  10.619  0.2783 -0.3604  0.2162
  327TMC3    C8 4971   2.847   0.447  10.633 -0.5897  0.1151 -0.8512
  327TMC3    O1 4972   3.050   0.048  10.507  0.2418  0.1094 -0.0037
  327TMC3    O2 4973   2.797   0.462  10.523  0.1367  0.1377 -0.0056
  328MPD2     C 4974   0.462   1.365  17.464 -0.1456 -0.3199 -0.5299
  328MPD2    C1 4975   0.386   1.256  17.512 -0.3872 -0.8651  0.3732
  328MPD2    C2 4976   0.261   1.231  17.455 -0.2032  0.4077  0.0731
  328MPD2    C3 4977   0.198   1.321  17.367  0.5657 -0.1000  0.1627
  328MPD2    C4 4978   0.280   1.424  17.325  0.4561  0.8693 -0.5686
  328MPD2    C5 4979   0.408   1.445  17.364 -0.5799  0.6527 -0.2092
  328MPD2     H 4980   0.202   1.147  17.491 -0.2456  1.1945  1.8232
  328MPD2    H1 4981   0.253   1.478  17.234 -1.0769  0.3704 -0.4114
  328MPD2    H2 4982   0.562   1.387  17.502 -0.5423  1.2375 -0.3690
  328MPD2    H3 4983   0.457   1.529  17.316 -2.4330  2.2322  0.6832
  328MPD2     N 4984   0.067   1.309  17.307  0.0874 -0.3597 -0.8408
  328MPD2    H5 4985   0.035   1.378  17.239  0.6874  0.0664 -0.6916
  328MPD2    N1 4986   0.443   1.177  17.609  0.2545  0.1168  0.4117
  328MPD2    H7 4987   0.535   1.204  17.642 -1.2451  2.4328  2.6947
  329TMC3    C1 4988   0.500   0.974  17.719 -0.5190  0.2143 -0.3148
  329TMC3    C2 4989   0.484   0.965   0.102 -0.1875 -0.3314  0.0871
  329TMC3    C3 4990   0.589   0.922   0.179  0.4860 -0.3749  0.0673
  329TMC3    C4 4991   0.626   0.961  17.669  0.8569 -0.4251 -0.3071
  329TMC3    C5 4992   0.722   0.907  17.746 -0.1561 -0.0168 -0.0899
  329TMC3    C6 4993   0.708   0.893   0.123  0.0205 -0.6368  0.1152
  329TMC3     C 4994   0.403   1.048  17.640 -0.1139 -0.1986  0.0476
  329TMC3     O 4995   0.301   0.988  17.617  0.0887 -0.3747  0.2144
  329TMC3     H 4996   0.382   0.979   0.135 -0.4561  0.9225 -1.2776
  329TMC3    H1 4997   0.652   0.970  17.564  1.9850 -1.4117 -0.1020
  329TMC3    H2 4998   0.788   0.853   0.184 -0.6065  0.4483  1.6708
  329TMC3    C7 4999   0.832   0.835  17.678 -0.4310  0.5329 -0.5246
  329TMC3    C8 5000   0.584   0.933   0.324 -0.2017  0.2839  0.5514
  329TMC3    O1 5001   0.819   0.808  17.560 -0.2594  0.6857 -0.3963
  329TMC3    O2 5002   0.681   0.879   0.380  0.0849  0.0613 -0.0556
  330TMC3    C1 5003   3.667   4.562   9.768 -0.4788 -0.1847  0.1858
  330TMC3    C2 5004   3.618   4.454   9.700  0.5213 -1.0243  0.5010
  330TMC3    C3 5005   3.667   4.337   9.735 -0.4387  0.7354  0.5897
  330TMC3    C4 5006   3.766   4.552   9.860  0.0759  0.3000 -0.1180
  330TMC3    C5 5007   3.805   4.429   9.906  0.3307  0.4269 -0.0077
  330TMC3    C6 5008   3.760   4.314   9.839 -0.1787 -0.5059 -0.0223
  330TMC3     C 5009   3.629   4.703   9.738 -0.0069 -0.5365 -0.4677
  330TMC3     O 5010   3.717   0.048   9.767 -0.4505 -0.0208 -0.0634
  330TMC3     H 5011   3.550   4.459   9.616 -0.4344 -2.1624  1.2040
  330TMC3    H1 5012   3.777   4.639   9.923  0.5318 -1.1000  1.7148
  330TMC3    H2 5013   3.792   4.211   9.847  0.6342 -0.1628  1.0979
  330TMC3    C7 5014   3.880   4.430  10.035 -0.4838  0.1770  0.5198
  330TMC3    C8 5015   3.588   4.230   9.682  1.0198 -0.0625  0.7674
  330TMC3    O1 5016   3.929   4.540  10.062 -0.4595  0.4697 -0.0810
  330TMC3    O2 5017   3.528   4.256   9.577  0.4429 -0.5122 -0.1610
  331MPD2     C 5018   0.789   3.258  13.032  0.2329 -0.0304  0.0378
  331MPD2    C1 5019   0.896   3.280  12.952  0.1122 -0.6325  0.0758
  331MPD2    C2 5020   0.933   3.172  12.874  0.4253  0.0355 -0.0308
  331MPD2    C3 5021   0.869   3.049  12.876  0.4768  0.8492  0.3422
  331MPD2    C4 5022   0.748   3.034  12.941  0.3965 -0.4127 -0.5350
  331MPD2    C5 5023   0.711   3.142  13.020 -1.0306  0.1336  0.2382
  331MPD2     H 5024   1.009   3.185  12.798  0.8610  0.7985  0.5297
  331MPD2    H1 5025   0.677   2.951  12.942  0.7284 -0.7151 -2.4299
  331MPD2    H2 5026   0.753   3.329  13.105  0.3805  0.7410 -0.6431
  331MPD2    H3 5027   0.613   3.138  13.068 -1.0123  4.2238  0.6086
  331MPD2     N 5028   0.923   2.954  12.791 -0.3520 -0.3745  0.3605
  331MPD2    H5 5029   1.009   2.969  12.739 -0.4554  2.4488  1.0158
  331MPD2    N1 5030   0.973   3.399  12.965  0.2536 -0.0990  0.0622
  331MPD2    H7 5031   0.928   3.470  13.022  0.1635 -0.0173 -0.1120
  332TMC3    C1 5032   0.941   2.750  12.671 -0.3472 -0.4052  0.7921
  332TMC3    C2 5033   0.973   2.842  12.573  0.1336  0.1351 -0.6623
  332TMC3    C3 5034   1.091   2.831  12.511  0.0811 -0.1055 -0.7277
  332TMC3    C4 5035   1.019   2.647  12.697  0.1719 -0.0352 -0.2674
  332TMC3    C5 5036   1.140   2.635  12.631  0.7635 -0.2917 -0.0150
  332TMC3    C6 5037   1.183   2.729  12.541 -0.2677  0.1380  0.1824
  332TMC3     C 5038   0.873   2.823  12.781  0.1494 -0.3857 -0.5401
  332TMC3     O 5039   0.813   2.767  12.867 -0.1029  0.8536  0.3797
  332TMC3     H 5040   0.896   2.912  12.545 -2.4702 -1.9962  1.1779
  332TMC3    H1 5041   0.978   2.570  12.762  3.1458 -0.5033  1.0472
  332TMC3    H2 5042   1.277   2.726  12.488  0.1546 -0.7263  0.9710
  332TMC3    C7 5043   1.218   2.522  12.675  0.1415  0.4148 -0.0070
  332TMC3    C8 5044   1.144   2.936  12.422  0.2673  0.0242  0.6293
  332TMC3    O1 5045   1.160   2.445  12.747 -0.1591  0.3543 -0.0461
  332TMC3    O2 5046   1.261   2.926  12.383  0.0834  0.4674  0.0647
  333MPD2     C 5047   1.226   3.329  11.389 -0.9667 -0.7063  0.0327
  333MPD2    C1 5048   1.334   3.242  11.395 -0.6578 -0.2126  0.5086
  333MPD2    C2 5049   1.302   3.113  11.440  0.3210  0.6900 -0.2494
  333MPD2    C3 5050   1.174   3.068  11.470  0.6774  0.0595  0.1101
  333MPD2    C4 5051   1.067   3.152  11.448 -0.5827 -0.2658  0.3189
  333MPD2    C5 5052   1.102   3.284  11.418 -0.1859 -0.8082 -0.1307
  333MPD2     H 5053   1.386   3.045  11.447 -1.3006 -1.3242 -0.3415
  333MPD2    H1 5054   0.969   3.105  11.452 -0.1423 -1.3653 -1.9806
  333MPD2    H2 5055   1.239   3.432  11.356 -0.3571 -0.8286 -0.1181
  333MPD2    H3 5056   1.035   3.364  11.392 -1.8112 -1.5435  1.7309
  333MPD2     N 5057   1.167   2.936  11.521  0.2561 -0.2269  0.0157
  333MPD2    H5 5058   1.251   2.878  11.526 -0.1736 -0.9054 -0.7329
  333MPD2    N1 5059   1.467   3.289  11.371  0.3556  0.6617  0.6880
  333MPD2    H7 5060   1.478   3.388  11.356 -0.4910  0.8226  1.1082
  334TMC3    C1 5061   1.707   3.289  11.336  0.0825 -1.1902 -0.1604
  334TMC3    C2 5062   1.823   3.219  11.365 -0.7219  0.0798  0.8568
  334TMC3    C3 5063   1.937   3.249  11.293  0.8699 -0.2933  0.6650
  334TMC3    C4 5064   1.702   3.375  11.227  0.2502 -0.2239 -0.4496
  334TMC3    C5 5065   1.819   3.407  11.170  0.0354  0.2330 -0.2662
  334TMC3    C6 5066   1.936   3.343  11.198 -0.2733 -0.7722 -0.6064
  334TMC3     C 5067   1.588   3.213  11.370 -0.2163 -0.1644  0.0245
  334TMC3     O 5068   1.596   3.089  11.383 -0.5219  0.3702  0.1445
  334TMC3     H 5069   1.832   3.151  11.449  2.7780 -2.0996 -1.3210
  334TMC3    H1 5070   1.612   3.428  11.198 -0.0696  0.5363  1.9965
  334TMC3    H2 5071   2.022   3.348  11.131 -0.1695  1.0898 -0.3342
  334TMC3    C7 5072   1.815   3.509  11.065 -1.0572 -0.3583 -0.5641
  334TMC3    C8 5073   2.065   3.210  11.349  0.3235 -0.2495  0.1815
  334TMC3    O1 5074   1.723   3.497  10.987  0.0460 -0.0120 -0.2787
  334TMC3    O2 5075   2.062   3.113  11.422 -0.4411 -0.4138  0.4661
  335TMC3    C1 5076   1.181   1.097  17.552  0.5402 -0.1311  0.0488
  335TMC3    C2 5077   1.125   0.989  17.485  0.1506  0.1447  0.4844
  335TMC3    C3 5078   1.209   0.929  17.390 -0.0860  0.0752 -0.1958
  335TMC3    C4 5079   1.299   1.152  17.518  0.0785  0.5366  0.1311
  335TMC3    C5 5080   1.372   1.101  17.415 -0.1032 -0.2864 -0.0086
  335TMC3    C6 5081   1.338   0.981  17.364 -0.4507 -0.0155 -0.0330
  335TMC3     C 5082   1.108   1.149  17.672  0.1759  0.5343  0.5438
  335TMC3     O 5083   0.986   1.141  17.663 -0.1441 -0.6786  0.2410
  335TMC3     H 5084   1.023   0.958  17.504  0.2261 -1.6390 -2.0159
  335TMC3    H1 5085   1.349   1.236  17.564  0.1602 -2.1849  4.9417
  335TMC3    H2 5086   1.402   0.937  17.288 -1.0873  1.4400 -1.4060
  335TMC3    C7 5087   1.511   1.140  17.397  0.1905 -0.3237 -0.0328
  335TMC3    C8 5088   1.149   0.864  17.275 -0.1286  0.0528 -0.1565
  335TMC3    O1 5089   1.586   1.045  17.363  0.5745  0.0460 -0.3088
  335TMC3    O2 5090   1.215   0.878  17.173 -0.3963 -0.0783  0.5679
  336MPD2     C 5091   0.373   3.518  16.575  0.7032 -0.0468  0.1620
  336MPD2    C1 5092   0.457   3.499  16.468  0.2221  0.3652  0.4634
  336MPD2    C2 5093   0.525   3.378  16.445 -0.1393  0.3329 -0.2029
  336MPD2    C3 5094   0.507   3.274  16.537  0.2501 -0.1177  0.0372
  336MPD2    C4 5095   0.419   3.292  16.645  0.5980  0.3130  0.4037
  336MPD2    C5 5096   0.362   3.418  16.671  0.7155 -0.0751 -0.5435
  336MPD2     H 5097   0.588   3.364  16.358 -1.1842 -2.6857 -0.4979
  336MPD2    H1 5098   0.409   3.217  16.722  2.2985  0.7854  1.0920
  336MPD2    H2 5099   0.325   3.614  16.592  1.7193  0.4646  0.2155
  336MPD2    H3 5100   0.301   3.428  16.761  0.5850 -0.7385 -0.5586
  336MPD2     N 5101   0.573   3.145  16.530  0.3754 -0.5951 -0.0314
  336MPD2    H5 5102   0.552   3.074  16.599  2.8422 -1.9679 -0.7178
  336MPD2    N1 5103   0.455   3.599  16.375  0.7317  0.4696  0.0215
  336MPD2    H7 5104   0.404   3.679  16.411 -0.9495 -0.6588  0.1181
  337TMC3    C1 5105   0.482   3.724  16.186 -0.2893 -0.3092  0.1841
  337TMC3    C2 5106   0.460   3.734  16.052 -0.4167 -0.2988  0.4829
  337TMC3    C3 5107   0.454   3.866  16.001  0.3837 -0.3132  0.4946
  337TMC3    C4 5108   0.504   3.834  16.267 -0.5114 -0.1183  0.3980
  337TMC3    C5 5109   0.507   3.956  16.213  1.0230  0.2702 -0.1398
  337TMC3    C6 5110   0.489   3.973  16.076  0.2160  0.2111  0.5134
  337TMC3     C 5111   0.496   3.592  16.245  0.1917 -0.2981 -0.4863
  337TMC3     O 5112   0.539   3.503  16.175 -0.0101  0.4976  0.5288
  337TMC3     H 5113   0.423   3.648  15.997 -0.5737  0.2950 -0.3471
  337TMC3    H1 5114   0.523   3.823  16.374 -1.4096 -0.0784  0.5591
  337TMC3    H2 5115   0.497   4.068  16.025 -1.2180 -0.2136 -0.5080
  337TMC3    C7 5116   0.462   4.062  16.302 -0.5837  1.0826 -0.6186
  337TMC3    C8 5117   0.329   3.900  15.934  0.6571  0.3023  1.2712
  337TMC3    O1 5118   0.403   4.038  16.408 -0.0230  0.2610  0.1190
  337TMC3    O2 5119   0.281   4.007  15.965 -0.2357  0.0667 -0.1090
  338MPD2     C 5120   1.894   1.920   0.897  0.2933  0.0517  0.0447
  338MPD2    C1 5121   1.782   1.984   0.940  0.1452 -0.3226 -0.4228
  338MPD2    C2 5122   1.677   1.914   0.991 -0.0773 -0.0187  0.1609
  338MPD2    C3 5123   1.693   1.785   1.036 -0.3948  0.6383  0.5772
  338MPD2    C4 5124   1.811   1.718   1.004 -0.0157 -0.6715  0.0111
  338MPD2    C5 5125   1.906   1.788   0.934  0.0951  1.0222  0.1510
  338MPD2     H 5126   1.590   1.976   1.009 -0.8977 -1.2176  0.3294
  338MPD2    H1 5127   1.835   1.617   1.035 -0.6079 -0.8996 -0.2948
  338MPD2    H2 5128   1.967   1.966   0.832  1.8924 -2.7749 -0.1455
  338MPD2    H3 5129   1.993   1.732   0.901  2.0424  4.2052 -0.0514
  338MPD2     N 5130   1.580   1.720   1.104 -0.7628 -0.2751  0.6044
  338MPD2    H5 5131   1.498   1.776   1.124 -1.2354 -0.4958 -0.7848
  338MPD2    N1 5132   1.753   2.123   0.923 -0.3584  0.0022  0.1273
  338MPD2    H7 5133   1.665   2.155   0.963 -1.6967 -1.9146 -1.3085
  339TMC3    C1 5134   1.456   1.557   1.219 -0.2300 -0.1612  0.8226
  339TMC3    C2 5135   1.467   1.497   1.342  0.0591 -0.1340  0.4548
  339TMC3    C3 5136   1.352   1.481   1.419  0.1702 -0.1182  0.2394
  339TMC3    C4 5137   1.338   1.606   1.170  1.0113  0.9449  0.0727
  339TMC3    C5 5138   1.229   1.596   1.252  0.0509  0.5150  0.1638
  339TMC3    C6 5139   1.229   1.527   1.373  0.3679  0.5322 -0.8903
  339TMC3     C 5140   1.582   1.590   1.152  0.1198 -0.4080 -0.5582
  339TMC3     O 5141   1.680   1.523   1.184 -0.0698 -0.5824 -0.3346
  339TMC3     H 5142   1.560   1.451   1.372  0.1934  0.2033  0.5511
  339TMC3    H1 5143   1.339   1.651   1.071 -3.2500  1.4115  0.2310
  339TMC3    H2 5144   1.143   1.503   1.435  0.6788  1.6463 -0.0359
  339TMC3    C7 5145   1.116   1.681   1.203 -0.2860 -0.4135 -0.0898
  339TMC3    C8 5146   1.374   1.416   1.546  0.3550  0.0923 -0.5658
  339TMC3    O1 5147   1.126   1.747   1.101  0.2435 -0.1025 -0.3319
  339TMC3    O2 5148   1.486   1.370   1.571 -0.1589  1.1286 -0.1625
  340MPD2     C 5149   2.432   3.986  10.470 -0.0951  0.2061  0.4407
  340MPD2    C1 5150   2.319   4.014  10.396  0.6608 -0.5583  0.1092
  340MPD2    C2 5151   2.342   4.084  10.276  0.7523  0.5386  0.1866
  340MPD2    C3 5152   2.465   4.144  10.250 -0.1071  0.2698  0.1969
  340MPD2    C4 5153   2.566   4.132  10.342 -0.4337 -0.2059  0.1572
  340MPD2    C5 5154   2.551   4.048  10.448  0.4295 -0.5414  0.5644
  340MPD2     H 5155   2.261   4.093  10.204  0.0766 -0.9871  0.7365
  340MPD2    H1 5156   2.663   4.174  10.320 -1.0674  0.8896 -0.5734
  340MPD2    H2 5157   2.429   3.917  10.553  0.7430  0.0481  0.3427
  340MPD2    H3 5158   2.639   4.035  10.510  0.6382  2.1188  0.8530
  340MPD2     N 5159   2.490   4.230  10.141  0.1764 -0.3354  0.1289
  340MPD2    H5 5160   2.586   4.250  10.114 -0.3897  1.8116 -0.2666
  340MPD2    N1 5161   2.198   3.949  10.424 -0.3318  0.1975  0.5088
  340MPD2    H7 5162   2.207   3.862  10.475 -1.1871 -0.0929  0.1631
  341TMC3    C1 5163   1.959   3.924  10.437 -0.1662  0.0040 -0.1409
  341TMC3    C2 5164   1.954   3.801  10.375 -0.4606  0.6426  0.4444
  341TMC3    C3 5165   1.837   3.756  10.327  0.5468 -0.5356  0.5688
  341TMC3    C4 5166   1.847   3.997  10.454  0.5354 -0.2600 -0.3107
  341TMC3    C5 5167   1.729   3.943  10.409 -0.5303  0.0730 -0.5127
  341TMC3    C6 5168   1.717   3.824  10.343  0.5152  0.2844  0.3541
  341TMC3     C 5169   2.073   4.002  10.396  0.0537  0.0328  0.2908
  341TMC3     O 5170   2.046   4.090  10.322 -0.7058  0.6686  0.0856
  341TMC3     H 5171   2.045   3.746  10.358  0.1134  1.2442  1.5656
  341TMC3    H1 5172   1.847   4.087  10.514  2.6122  2.0565 -3.7665
  341TMC3    H2 5173   1.630   3.788  10.289 -1.4321  2.1170  2.3070
  341TMC3    C7 5174   1.624   4.042  10.409 -0.2708  0.3245  0.6661
  341TMC3    C8 5175   1.832   3.636  10.240 -0.0516 -0.1511  0.1199
  341TMC3    O1 5176   1.664   4.160  10.417 -0.4147  0.1322  0.2996
  341TMC3    O2 5177   1.723   3.580  10.233 -0.3991  0.0875  0.3550
  342MPD2     C 5178   3.572   3.835  17.520 -0.1070 -0.0835 -1.0551
  342MPD2    C1 5179   3.676   3.826  17.429  0.0437 -0.1715 -0.6641
  342MPD2    C2 5180   3.756   3.938  17.402 -0.3428 -0.1514  0.1336
  342MPD2    C3 5181   3.728   4.065  17.457 -0.1307  0.3281  0.0571
  342MPD2    C4 5182   3.625   4.071  17.552  0.7991  0.6460 -0.4615
  342MPD2    C5 5183   3.547   3.959  17.580 -0.7510  0.1178 -0.1529
  342MPD2     H 5184   3.836   3.927  17.330 -0.7249 -2.8829  0.1159
  342MPD2    H1 5185   3.602   4.162  17.607 -0.0270  0.6625 -0.8265
  342MPD2    H2 5186   3.500   3.755  17.524  0.9831 -0.9199  1.4875
  342MPD2    H3 5187   3.474   3.972  17.658 -1.3020 -0.8475 -0.5034
  342MPD2     N 5188   3.813   4.182  17.451 -0.5023  0.0079 -0.5891
  342MPD2    H5 5189   3.786   4.249  17.522  2.4847  0.0412  0.4888
  342MPD2    N1 5190   3.708   3.708  17.358  0.9211  0.0648 -0.2501
  342MPD2    H7 5191   3.785   3.718  17.293  0.9380 -0.1341 -0.2607
  343TMC3    C1 5192   3.696   3.493  17.275 -0.1669 -0.1311 -0.5150
  343TMC3    C2 5193   3.735   3.537  17.151 -0.7234  0.0164 -0.0530
  343TMC3    C3 5194   3.725   3.455  17.040  0.0217 -0.3246  0.5520
  343TMC3    C4 5195   3.651   3.364  17.289  0.1358  0.5399 -0.8185
  343TMC3    C5 5196   3.647   3.281  17.177  0.0582 -0.0804  0.0881
  343TMC3    C6 5197   3.677   3.327  17.051  0.7168 -0.6744  0.0878
  343TMC3     C 5198   3.651   3.586  17.374  0.8591 -0.2983  0.4528
  343TMC3     O 5199   3.555   3.544  17.441 -0.4110  0.0949 -0.6114
  343TMC3     H 5200   3.770   3.636  17.123 -2.2423  0.4484 -0.4184
  343TMC3    H1 5201   3.639   3.321  17.387 -0.8014  0.6784 -0.8773
  343TMC3    H2 5202   3.658   3.266  16.964 -1.4943 -1.6868  1.2801
  343TMC3    C7 5203   3.602   3.143  17.191 -0.3470  0.4990 -0.5609
  343TMC3    C8 5204   3.806   3.494  16.928 -0.4379  0.3402  0.1886
  343TMC3    O1 5205   3.539   3.092  17.100 -0.2637  0.0637  0.3012
  343TMC3    O2 5206   3.813   3.613  16.901 -0.5064  0.3400  0.2307
  344MPD2     C 5207   0.398   3.001  10.865 -0.2799 -0.1403  0.1385
  344MPD2    C1 5208   0.333   2.948  10.749 -0.6043  0.7056  0.1939
  344MPD2    C2 5209   0.356   3.010  10.628 -0.1606  0.2342  0.0527
  344MPD2    C3 5210   0.445   3.115  10.625  0.0978  0.9536 -0.1547
  344MPD2    C4 5211   0.513   3.164  10.735  0.2065  0.5963  0.1344
  344MPD2    C5 5212   0.483   3.112  10.859 -0.7729  0.6349  0.0717
  344MPD2     H 5213   0.305   2.964  10.544 -0.3096  0.5584 -0.0342
  344MPD2    H1 5214   0.579   3.249  10.725 -1.9037  2.0491 -1.2876
  344MPD2    H2 5215   0.383   2.962  10.965  0.8031 -1.3014 -0.1638
  344MPD2    H3 5216   0.523   3.151  10.952 -0.3474  2.2532 -0.7889
  344MPD2     N 5217   0.476   3.178  10.507  0.1964  0.8834 -0.3209
  344MPD2    H5 5218   0.560   3.234  10.507 -0.4929  1.9113  0.6510
  344MPD2    N1 5219   0.251   2.835  10.759  0.2359  0.0830 -0.3382
  344MPD2    H7 5220   0.201   2.815  10.673 -0.2655  0.5183 -0.1466
  345TMC3    C1 5221   0.475   3.219  10.277  0.9535  0.3366  0.5132
  345TMC3    C2 5222   0.611   3.215  10.280 -0.1569  0.5886 -0.3277
  345TMC3    C3 5223   0.673   3.296  10.186  0.5115 -0.1095 -0.6259
  345TMC3    C4 5224   0.399   3.282  10.188  0.1210  0.5119  0.5478
  345TMC3    C5 5225   0.467   3.363  10.097 -0.3297 -0.3859 -0.3926
  345TMC3    C6 5226   0.606   3.381  10.102 -0.3105 -0.1647  0.2451
  345TMC3     C 5227   0.402   3.165  10.386 -0.6189 -0.2787 -0.3518
  345TMC3     O 5228   0.288   3.130  10.361 -0.1362  0.1139  0.1123
  345TMC3     H 5229   0.662   3.146  10.346  0.2796  0.7187 -0.5318
  345TMC3    H1 5230   0.291   3.271  10.195 -0.0309  1.7663  0.2199
  345TMC3    H2 5231   0.657   3.447  10.033  1.9942  0.0325  2.1477
  345TMC3    C7 5232   0.391   3.470  10.034 -0.0534 -0.4442 -0.1815
  345TMC3    C8 5233   0.794   3.353  10.243  0.4983  0.0454 -1.4687
  345TMC3    O1 5234   0.455   3.573  10.007 -0.3740 -0.0439  0.7825
  345TMC3    O2 5235   0.881   3.274  10.266  0.8604  0.1440 -0.4654
  346MPD2     C 5236   0.090   4.347  13.954 -0.4828 -0.8833 -0.2861
  346MPD2    C1 5237   0.137   4.476  13.934 -0.2477  0.5629 -0.6951
  346MPD2    C2 5238   0.112   4.564  14.035 -0.1892  0.3672 -0.2026
  346MPD2    C3 5239   0.039   4.525  14.148  0.4546  0.2249 -0.1620
  346MPD2    C4 5240   4.731   4.400  14.161  0.5992 -0.3137 -0.0426
  346MPD2    C5 5241   0.015   4.314  14.061 -0.4313 -0.4484 -0.2782
  346MPD2     H 5242   0.153   4.663  14.022  0.3646  0.4071  1.7998
  346MPD2    H1 5243   4.690   4.361  14.253 -1.4773  2.7914  0.3287
  346MPD2    H2 5244   0.107   4.276  13.875  1.7825 -2.1590  1.3455
  346MPD2    H3 5245   4.713   4.214  14.062  0.3406 -0.7643  0.1413
  346MPD2     N 5246   0.015   4.615  14.255  0.7400 -0.5791  0.6715
  346MPD2    H5 5247   4.709   4.588  14.342 -0.4298  0.8671  0.5092
  346MPD2    N1 5248   0.207   4.521  13.821  0.3461  0.4355 -0.1259
  346MPD2    H7 5249   0.249   4.612  13.831 -0.5347  0.9027 -0.6651
  347TMC3    C1 5250   0.025   0.068  14.388 -0.5472 -0.6488  0.0170
  347TMC3    C2 5251   0.123   0.136  14.457  0.5982  0.0993  0.4456
  347TMC3    C3 5252   0.083   0.195  14.567  0.2735 -0.0821  0.2086
  347TMC3    C4 5253   4.630   0.054  14.430  0.2225  0.2675 -0.2676
  347TMC3    C5 5254   4.593   0.132  14.537  0.5779 -0.0382 -0.4813
  347TMC3    C6 5255   4.690   0.202  14.606  0.8012  0.0750 -0.3360
  347TMC3     C 5256   0.059   0.006  14.266 -0.6953  0.6754 -0.2774
  347TMC3     O 5257   0.138   0.069  14.198 -0.2094  0.3969 -0.2988
  347TMC3     H 5258   0.220   0.150  14.409  0.0126  1.1299 -0.4253
  347TMC3    H1 5259   4.552   0.017  14.364  0.1144  0.1288 -0.0640
  347TMC3    H2 5260   4.664   0.261  14.693 -0.9662 -0.2452 -0.6368
  347TMC3    C7 5261   4.455   0.140  14.575 -0.0812  0.3010 -0.4422
  347TMC3    C8 5262   0.181   0.243  14.662  0.1296  0.1844  0.4432
  347TMC3    O1 5263   4.370   0.062  14.532  0.7060  0.4438  0.0568
  347TMC3    O2 5264   0.143   0.321  14.745 -0.9261  0.0991 -0.2606
  348MPD2     C 5265   3.263   3.826  12.386 -0.6660  0.0243 -0.0608
  348MPD2    C1 5266   3.399   3.860  12.381  0.3874  0.3283 -0.1863
  348MPD2    C2 5267   3.452   3.877  12.251 -0.4072  0.0115 -0.3728
  348MPD2    C3 5268   3.373   3.855  12.135 -0.0140  0.1229  0.6442
  348MPD2    C4 5269   3.242   3.811  12.154 -0.4701  0.4333 -0.3757
  348MPD2    C5 5270   3.190   3.797  12.272  0.2703  0.3350  0.0033
  348MPD2     H 5271   3.559   3.885  12.236 -0.3989 -0.5599 -0.6373
  348MPD2    H1 5272   3.183   3.780  12.068  1.8227 -1.0509 -1.4320
  348MPD2    H2 5273   3.209   3.825  12.480 -1.7132  0.5182 -0.6701
  348MPD2    H3 5274   3.090   3.758  12.285  0.3225  0.4081  0.6539
  348MPD2     N 5275   3.434   3.858  12.009  0.0996  0.3981  0.0362
  348MPD2    H5 5276   3.532   3.886  12.007  0.2101 -0.0656 -0.7433
  348MPD2    N1 5277   3.490   3.854  12.494 -0.0188 -0.3759 -0.3016
  348MPD2    H7 5278   3.588   3.871  12.474  0.1799  1.4747  2.2351
  349TMC3    C1 5279   3.571   3.775  12.698 -0.1398 -0.1011 -0.2624
  349TMC3    C2 5280   3.566   3.646  12.734 -0.1804  0.1765  0.5607
  349TMC3    C3 5281   3.688   3.578  12.742 -0.8578  0.1158  0.5890
  349TMC3    C4 5282   3.692   3.838  12.660 -0.5198 -0.1996 -0.7981
  349TMC3    C5 5283   3.809   3.764  12.682 -0.0315 -0.9652 -0.0087
  349TMC3    C6 5284   3.812   3.633  12.722 -0.2672 -0.1616  0.2231
  349TMC3     C 5285   3.455   3.812  12.621 -0.5647 -0.3809  0.2275
  349TMC3     O 5286   3.347   3.797  12.666  0.2741  0.3814  0.1700
  349TMC3     H 5287   3.477   3.585  12.746 -0.5769  1.0785  2.1504
  349TMC3    H1 5288   3.698   3.945  12.644  1.9942 -0.1438  0.5018
  349TMC3    H2 5289   3.906   3.580  12.729  0.4306  1.0200 -0.3594
  349TMC3    C7 5290   3.877   3.777  12.558  0.1567 -0.0340  0.1582
  349TMC3    C8 5291   3.677   3.436  12.765  0.4316 -0.4464  0.1638
  349TMC3    O1 5292   3.947   3.877  12.550  0.1489 -0.2389  0.5974
  349TMC3    O2 5293   3.737   3.398  12.863 -0.1640 -0.1404  0.4562
  350MPD2     C 5294   2.554   2.271  10.591 -0.7304  0.7768  0.0662
  350MPD2    C1 5295   2.659   2.235  10.505 -0.4177 -0.1137 -0.1177
  350MPD2    C2 5296   2.767   2.319  10.476 -0.0704  0.8414  0.1297
  350MPD2    C3 5297   2.769   2.439  10.531 -0.7393 -0.6456  0.1945
  350MPD2    C4 5298   2.663   2.477  10.620 -0.3431  0.3388 -0.0167
  350MPD2    C5 5299   2.559   2.393  10.648 -0.0800  0.2626  0.5644
  350MPD2     H 5300   2.842   2.279  10.409 -1.0014 -0.5160 -0.1063
  350MPD2    H1 5301   2.662   2.574  10.668 -0.3306 -0.7140  2.1150
  350MPD2    H2 5302   2.471   2.208  10.622 -2.3456  1.6855 -2.4828
  350MPD2    H3 5303   2.472   2.432  10.700 -1.2404 -0.4193 -0.8630
  350MPD2     N 5304   2.875   2.525  10.492  0.2825 -0.1700  0.0638
  350MPD2    H5 5305   2.941   2.481  10.429  0.4276  1.1626 -0.7179
  350MPD2    N1 5306   2.654   2.111  10.440 -0.2191  0.5215 -0.3408
  350MPD2    H7 5307   2.723   2.100  10.366  0.7024 -2.8467  1.0272
  351TMC3    C1 5308   2.566   1.913  10.344  0.5975  0.8166  0.3653
  351TMC3    C2 5309   2.685   1.858  10.321  1.0034  0.0617 -0.2809
  351TMC3    C3 5310   2.698   1.764  10.222  0.3605  0.3218  0.2337
  351TMC3    C4 5311   2.455   1.877  10.280  0.6904  0.2607 -0.3908
  351TMC3    C5 5312   2.468   1.781  10.182  0.8783 -0.4806  0.1456
  351TMC3    C6 5313   2.588   1.717  10.158  0.5645 -0.6711  0.2859
  351TMC3     C 5314   2.547   2.027  10.437  0.2263 -0.3901 -0.0538
  351TMC3     O 5315   2.440   2.029  10.498 -0.3608 -0.2024 -1.0754
  351TMC3     H 5316   2.769   1.880  10.387  0.6114 -0.1858  0.2955
  351TMC3    H1 5317   2.365   1.937  10.285  0.8833  0.3313  2.6888
  351TMC3    H2 5318   2.589   1.624  10.102 -1.6300 -0.0464 -0.7973
  351TMC3    C7 5319   2.345   1.709  10.156  0.5219  0.6622 -0.1843
  351TMC3    C8 5320   2.823   1.689  10.211  0.1640 -0.2361 -0.4667
  351TMC3    O1 5321   2.247   1.773  10.176 -0.4911 -0.0808  0.2343
  351TMC3    O2 5322   2.884   1.685  10.316  0.3174  0.6250 -0.1774
  352MPD2     C 5323   1.523   0.408   1.421 -0.0898 -0.4402 -0.1145
  352MPD2    C1 5324   1.392   0.375   1.401 -0.3248  0.8088  0.2347
  352MPD2    C2 5325   1.331   0.275   1.477  0.0176  0.5835 -0.2104
  352MPD2    C3 5326   1.407   0.197   1.562 -0.1794 -0.3773  0.0468
  352MPD2    C4 5327   1.540   0.229   1.579 -0.0955 -0.0353  0.4322
  352MPD2    C5 5328   1.590   0.335   1.512  0.4231 -0.4329  0.4428
  352MPD2     H 5329   1.232   0.240   1.447 -0.8174  1.2401  1.7647
  352MPD2    H1 5330   1.608   0.189   1.653 -2.0914 -1.0325  1.7174
  352MPD2    H2 5331   1.570   0.485   1.361 -0.7705  1.2833  1.5787
  352MPD2    H3 5332   1.695   0.350   1.536  0.3781  2.1732 -0.9070
  352MPD2     N 5333   1.359   0.081   1.624 -0.2349 -0.3387 -0.2929
  352MPD2    H5 5334   1.430   0.028   1.673 -0.5928 -0.2914  0.2788
  352MPD2    N1 5335   1.320   0.449   1.306 -0.7923  0.3879  0.0495
  352MPD2    H7 5336   1.374   0.502   1.238  2.1652 -0.1901  1.9515
  353TMC3    C1 5337   1.210   4.630   1.663  0.3268 -0.7462 -0.1033
  353TMC3    C2 5338   1.305   4.565   1.737 -0.9315  0.9170  0.2820
  353TMC3    C3 5339   1.298   4.424   1.735 -0.2286 -0.3888 -0.3934
  353TMC3    C4 5340   1.103   4.564   1.609 -0.0728  0.4644 -0.2644
  353TMC3    C5 5341   1.103   4.429   1.610 -0.4318 -0.8981  0.4005
  353TMC3    C6 5342   1.198   4.355   1.678 -0.9544  0.3078 -0.1868
  353TMC3     C 5343   1.231   0.032   1.629 -0.4979 -0.7555 -0.0704
  353TMC3     O 5344   1.132   0.091   1.594  0.5920  0.1070 -0.3059
  353TMC3     H 5345   1.391   4.620   1.774  0.5948 -2.0713  1.2404
  353TMC3    H1 5346   1.035   4.614   1.541  0.9362 -0.9445 -2.3089
  353TMC3    H2 5347   1.188   4.248   1.688  2.8027 -0.1269 -1.2515
  353TMC3    C7 5348   0.998   4.367   1.538 -0.0250  0.7385  0.0711
  353TMC3    C8 5349   1.416   4.350   1.778  0.0299 -0.4705 -0.1232
  353TMC3    O1 5350   1.023   4.252   1.504  0.1426 -0.4387 -0.3218
  353TMC3    O2 5351   1.485   4.417   1.848  0.0859  0.5506 -0.4029
  354TMC3    C1 5352   2.883   0.322  13.755  0.3494  0.3392  0.4802
  354TMC3    C2 5353   2.778   0.389  13.698 -0.2679 -0.0936  0.2835
  354TMC3    C3 5354   2.737   0.353  13.568 -0.1731  0.2938 -0.3940
  354TMC3    C4 5355   2.944   0.216  13.686 -0.7794  0.5608  0.2474
  354TMC3    C5 5356   2.902   0.189  13.559  0.5061 -0.4605 -0.1527
  354TMC3    C6 5357   2.796   0.253  13.503  0.1254 -0.0728 -0.4211
  354TMC3     C 5358   2.909   0.345  13.896 -0.1357  0.0477 -0.1806
  354TMC3     O 5359   2.959   0.252  13.953  0.0705 -0.7015 -0.2424
  354TMC3     H 5360   2.722   0.462  13.756 -0.0387  4.0196 -4.6231
  354TMC3    H1 5361   3.046   0.195  13.717 -0.7350  0.1825 -0.1551
  354TMC3    H2 5362   2.760   0.210  13.410  0.3472 -1.2981  0.0562
  354TMC3    C7 5363   2.981   0.102  13.476  0.0815  0.0498 -0.1582
  354TMC3    C8 5364   2.662   0.447  13.486  0.6198 -0.4640 -0.8131
  354TMC3    O1 5365   2.992   4.725  13.511  0.9287 -0.4086 -0.2114
  354TMC3    O2 5366   2.657   0.419  13.368  0.8535  0.0646  0.1796
  355MPD2     C 5367   3.063   0.885  12.355  0.5208  0.6369  0.1624
  355MPD2    C1 5368   3.178   0.901  12.281  0.0574 -0.3055 -0.1551
  355MPD2    C2 5369   3.285   0.819  12.306  0.9177  0.2130  1.3127
  355MPD2    C3 5370   3.287   0.727  12.410 -0.5153  0.5311 -0.3284
  355MPD2    C4 5371   3.161   0.696  12.465 -0.4604  0.0761 -0.3364
  355MPD2    C5 5372   3.057   0.783  12.448 -0.4730  0.5030 -0.3602
  355MPD2     H 5373   3.373   0.820  12.243  0.7840  2.1896  1.1581
  355MPD2    H1 5374   3.147   0.625  12.545  1.9023  0.8721  0.7901
  355MPD2    H2 5375   2.978   0.952  12.346 -0.6832 -0.7901  1.0651
  355MPD2    H3 5376   2.971   0.772  12.513 -0.6112  0.8849 -0.4777
  355MPD2     N 5377   3.402   0.654  12.451  0.5469 -0.5283  0.1404
  355MPD2    H5 5378   3.381   0.561  12.484  1.1506 -0.4471  0.7506
  355MPD2    N1 5379   3.191   1.009  12.196 -0.7373 -0.1100 -0.6123
  355MPD2    H7 5380   3.152   1.099  12.224 -0.9516 -0.7017  1.0074
  356TMC3    C1 5381   3.560   0.843  12.415 -0.4973 -0.0242  0.1412
  356TMC3    C2 5382   3.629   0.885  12.302  0.3034 -0.1473 -0.6884
  356TMC3    C3 5383   3.606   1.017  12.267  0.2564  0.1012 -0.4091
  356TMC3    C4 5384   3.496   0.923  12.500 -0.9152 -0.0917 -0.8036
  356TMC3    C5 5385   3.493   1.054  12.469  0.0952  0.1049  0.1247
  356TMC3    C6 5386   3.548   1.102  12.355  0.5415  0.5732  0.7640
  356TMC3     C 5387   3.529   0.698  12.427  0.3308  0.5287  0.9234
  356TMC3     O 5388   3.634   0.636  12.428  0.0375  0.0207  0.5261
  356TMC3     H 5389   3.664   0.814  12.228  0.7989  2.7802 -3.2598
  356TMC3    H1 5390   3.453   0.886  12.593  1.1179  2.5226  1.2133
  356TMC3    H2 5391   3.531   1.205  12.327  1.8972  0.8610  0.9851
  356TMC3    C7 5392   3.409   1.138  12.559 -0.7721  0.5425 -0.8305
  356TMC3    C8 5393   3.644   1.060  12.128 -0.0238  0.0090  0.3579
  356TMC3    O1 5394   3.329   1.076  12.630  0.0523  0.5605  0.4163
  356TMC3    O2 5395   3.667   0.975  12.043  0.1488 -0.3099  0.3995
  357MPD2     C 5396   3.087   2.432   1.775  1.0698  0.0368  0.5789
  357MPD2    C1 5397   3.038   2.325   1.698 -0.0405  0.5363  0.0992
  357MPD2    C2 5398   2.907   2.329   1.657  0.0943 -0.2455 -0.0966
  357MPD2    C3 5399   2.830   2.441   1.672 -0.1119  0.3223  0.4676
  357MPD2    C4 5400   2.882   2.541   1.749 -0.2921 -0.3158  0.4664
  357MPD2    C5 5401   3.005   2.536   1.801 -0.3940 -0.0166 -0.5130
  357MPD2     H 5402   2.883   2.238   1.603  0.3533  0.2095 -0.9814
  357MPD2    H1 5403   2.842   2.642   1.757 -0.1090 -0.2025 -0.1077
  357MPD2    H2 5404   3.189   2.437   1.812  0.4146  3.7339  1.8229
  357MPD2    H3 5405   3.059   2.621   1.840  1.6320 -1.9732  0.9444
  357MPD2     N 5406   2.712   2.457   1.601 -0.1390 -0.2171 -0.3377
  357MPD2    H5 5407   2.666   2.544   1.624  0.6031 -0.1156  0.7685
  357MPD2    N1 5408   3.130   2.215   1.671  0.0661  1.0460  0.1847
  357MPD2    H7 5409   3.223   2.228   1.711 -0.1804  1.5339  0.5955
  358TMC3    C1 5410   3.186   1.998   1.600  0.8399  0.1169  0.0034
  358TMC3    C2 5411   3.178   1.911   1.500 -0.2509 -0.3090  0.1313
  358TMC3    C3 5412   3.219   1.783   1.524  0.3957 -0.2848  1.0787
  358TMC3    C4 5413   3.235   1.966   1.726  0.2393  0.3848  0.1726
  358TMC3    C5 5414   3.270   1.833   1.743  0.0593 -0.1416 -0.1696
  358TMC3    C6 5415   3.264   1.738   1.645 -0.1482  0.0896  0.0878
  358TMC3     C 5416   3.105   2.117   1.580 -0.0789  0.4500 -0.4175
  358TMC3     O 5417   3.018   2.115   1.491 -0.1146 -0.3293 -0.0389
  358TMC3     H 5418   3.147   1.931   1.399 -0.6642 -1.6171 -0.0092
  358TMC3    H1 5419   3.251   2.042   1.802 -1.0615  0.8349 -0.0000
  358TMC3    H2 5420   3.262   1.633   1.671  1.8779  0.4485  1.6714
  358TMC3    C7 5421   3.351   1.795   1.858 -0.4443 -0.6582 -0.1612
  358TMC3    C8 5422   3.184   1.688   1.432  1.0776  0.5722 -0.1898
  358TMC3    O1 5423   3.421   1.693   1.857 -0.3314  0.1955  0.4101
  358TMC3    O2 5424   3.100   1.716   1.350 -0.1983 -0.8869  0.0357
  359MPD2     C 5425   2.899   4.330  12.646  0.3968 -0.5754 -0.6386
  359MPD2    C1 5426   2.901   4.335  12.508  0.3121 -0.5392 -0.2853
  359MPD2    C2 5427   2.777   4.348  12.444  0.5234 -0.2727  0.4067
  359MPD2    C3 5428   2.654   4.358  12.512  0.2805 -0.2028  0.2926
  359MPD2    C4 5429   2.656   4.367  12.649  0.0082 -0.0695  0.1095
  359MPD2    C5 5430   2.777   4.358  12.715  0.4858 -0.1840  0.4323
  359MPD2     H 5431   2.777   4.346  12.336 -1.4889 -0.7552  0.4002
  359MPD2    H1 5432   2.564   4.368  12.706  0.0425  0.6180  0.1511
  359MPD2    H2 5433   2.990   4.328  12.704  0.9756  0.0284 -1.5319
  359MPD2    H3 5434   2.774   4.372  12.822 -0.8416 -1.3051  0.5340
  359MPD2     N 5435   2.527   4.357  12.451 -0.1849  0.4033 -0.1013
  359MPD2    H5 5436   2.446   4.371  12.510  0.4973  1.6573  0.5480
  359MPD2    N1 5437   3.017   4.343  12.427  0.7628 -0.0395  0.4336
  359MPD2    H7 5438   3.005   4.332  12.327  2.9361  1.8263 -0.0167
  360TMC3    C1 5439   3.250   4.336  12.364 -0.9343  0.5242  0.9250
  360TMC3    C2 5440   3.378   4.359  12.408 -0.0841  0.0093 -0.9021
  360TMC3    C3 5441   3.479   4.310  12.329 -0.9993 -0.2134  0.4399
  360TMC3    C4 5442   3.215   4.280  12.237 -0.1466  0.2199 -0.3322
  360TMC3    C5 5443   3.323   4.225  12.171  0.0063 -1.1502 -0.3780
  360TMC3    C6 5444   3.452   4.242  12.214 -0.2207 -0.5456 -0.9531
  360TMC3     C 5445   3.150   4.355  12.468  0.1781  0.4260 -0.3210
  360TMC3     O 5446   3.192   4.348  12.583  0.1810 -0.2361 -0.0795
  360TMC3     H 5447   3.397   4.406  12.504  1.8658  0.3128 -1.4245
  360TMC3    H1 5448   3.112   4.258  12.209  0.5797 -5.6073  1.5194
  360TMC3    H2 5449   3.533   4.199  12.155  3.8156  2.1373  2.6922
  360TMC3    C7 5450   3.307   4.189  12.037  0.2902  0.6237 -0.0952
  360TMC3    C8 5451   3.605   4.384  12.347 -0.2861 -0.6019 -0.2686
  360TMC3    O1 5452   3.405   4.204  11.970  0.2636  0.6392 -0.5382
  360TMC3    O2 5453   3.610   4.490  12.418  0.3285 -0.1369 -0.1313
  361MPD2     C 5454   0.306   4.119  16.756 -0.2205 -0.2087  0.4528
  361MPD2    C1 5455   0.300   4.167  16.883  0.0516 -0.2617  0.5863
  361MPD2    C2 5456   0.355   4.094  16.985  0.1464  0.6053 -0.1219
  361MPD2    C3 5457   0.417   3.974  16.963 -0.2899  0.4162  0.2721
  361MPD2    C4 5458   0.413   3.925  16.834 -0.0925 -0.3552 -0.0195
  361MPD2    C5 5459   0.353   3.997  16.734  0.1453  0.2623 -0.2486
  361MPD2     H 5460   0.341   4.134  17.085 -0.7033  0.5291 -0.2167
  361MPD2    H1 5461   0.456   3.829  16.809 -2.0720 -1.6728  1.6324
  361MPD2    H2 5462   0.257   4.168  16.674 -0.7329 -0.6027  0.5205
  361MPD2    H3 5463   0.345   3.958  16.633  1.2103 -0.8319  0.0936
  361MPD2     N 5464   0.489   3.905  17.062  0.3821 -0.4266  0.1621
  361MPD2    H5 5465   0.539   3.824  17.026 -0.2501 -0.6479 -0.2370
  361MPD2    N1 5466   0.231   4.288  16.916 -0.6973 -0.6118  0.0246
  361MPD2    H7 5467   0.231   4.305  17.016 -0.2203 -0.9513  0.0817
  362TMC3    C1 5468   0.077   4.471  16.879  0.1580 -0.3747  0.0562
  362TMC3    C2 5469   0.022   4.451  17.001  0.6659  0.4009 -0.1422
  362TMC3    C3 5470   4.663   4.545  17.037  0.0661 -0.5508 -0.4647
  362TMC3    C4 5471   0.025   4.560  16.784  0.7439  0.4368  0.3140
  362TMC3    C5 5472   4.660   4.636  16.815  0.6705 -0.1825 -0.4211
  362TMC3    C6 5473   4.609   4.632  16.944  0.4308  0.6435  0.5771
  362TMC3     C 5474   0.168   4.369  16.825 -0.9418  0.4735 -0.8642
  362TMC3     O 5475   0.179   4.369  16.702 -0.1815  0.2877  0.3813
  362TMC3     H 5476   0.054   4.372  17.068 -1.4219 -0.2919  0.0237
  362TMC3    H1 5477   0.078   4.563  16.689  0.8727  0.6513  0.3939
  362TMC3    H2 5478   4.522   4.685  16.981  0.7275 -0.3394  2.7189
  362TMC3    C7 5479   4.582   4.709  16.719  0.0119 -0.4142 -0.0983
  362TMC3    C8 5480   4.615   4.536  17.175  0.4990 -0.3103 -0.1250
  362TMC3    O1 5481   4.493   0.045  16.758 -0.2533  0.5471  0.3902
  362TMC3    O2 5482   4.674   4.458  17.244 -0.1833  0.3871  0.1149
  363TMC3    C1 5483   3.395   1.419   9.928 -0.8064 -1.1743 -0.1685
  363TMC3    C2 5484   3.492   1.416  10.023  0.1331  0.7302  0.6389
  363TMC3    C3 5485   3.505   1.531  10.097 -0.2977  0.6537  0.8817
  363TMC3    C4 5486   3.303   1.521   9.917  0.4753 -0.0318 -0.1544
  363TMC3    C5 5487   3.318   1.628  10.001 -0.3324  0.1324 -0.4633
  363TMC3    C6 5488   3.429   1.642  10.081 -1.2631  0.5880 -0.3565
  363TMC3     C 5489   3.412   1.338   9.810 -0.6253  0.1200  0.4715
  363TMC3     O 5490   3.463   1.230   9.820 -0.4566 -0.1153  0.6967
  363TMC3     H 5491   3.573   1.345  10.032 -1.5438 -1.2235  0.2890
  363TMC3    H1 5492   3.219   1.505   9.850  0.2329 -0.4005  0.2437
  363TMC3    H2 5493   3.441   1.731  10.142  0.7314  0.2782 -0.2720
  363TMC3    C7 5494   3.240   1.745   9.969  0.1060  0.1144 -0.0114
  363TMC3    C8 5495   3.620   1.547  10.187 -0.0334  0.5252  0.3456
  363TMC3    O1 5496   3.130   1.725   9.916 -0.3109  0.0766 -0.3554
  363TMC3    O2 5497   3.655   1.659  10.211  0.2314  0.0906  0.3056
  364MPD2     C 5498   2.960   0.942  10.695 -0.0351  0.3867 -0.4482
  364MPD2    C1 5499   2.897   0.879  10.591  0.8926 -0.5581  0.0527
  364MPD2    C2 5500   2.885   0.743  10.594 -0.1550 -0.3583 -0.3591
  364MPD2    C3 5501   2.923   0.670  10.706 -0.9067 -0.5822 -0.8099
  364MPD2    C4 5502   2.971   0.736  10.816  0.3791 -0.3358  0.0602
  364MPD2    C5 5503   2.995   0.872  10.806  0.4650  0.5657  0.4537
  364MPD2     H 5504   2.842   0.691  10.510 -1.5675  1.9529 -1.0746
  364MPD2    H1 5505   2.993   0.684  10.909  0.6057 -0.3077  0.0223
  364MPD2    H2 5506   2.998   1.042  10.678  0.2413  0.1466 -1.2573
  364MPD2    H3 5507   3.047   0.924  10.887 -0.0555  0.9417  0.5491
  364MPD2     N 5508   2.918   0.530  10.712  0.3126 -0.0138  0.1882
  364MPD2    H5 5509   2.955   0.490  10.798  1.2239  0.2250 -0.0858
  364MPD2    N1 5510   2.854   0.966  10.491  0.7298  0.8844  0.5221
  364MPD2    H7 5511   2.864   1.065  10.511 -0.3668  1.4242 -1.5579
  365TMC3    C1 5512   2.775   1.045  10.289 -0.5897  0.3233 -0.2070
  365TMC3    C2 5513   2.772   1.039  10.158  0.6912  0.3003 -0.4704
  365TMC3    C3 5514   2.730   1.151  10.088 -0.0305  0.2170  0.0701
  365TMC3    C4 5515   2.710   1.143  10.355  0.6729  0.2146 -0.2206
  365TMC3    C5 5516   2.645   1.243  10.282 -0.1513  0.3441  0.5745
  365TMC3    C6 5517   2.675   1.260  10.152 -0.5534  0.1394  0.4467
  365TMC3     C 5518   2.820   0.931  10.364 -0.2786  0.3914  0.3169
  365TMC3     O 5519   2.829   0.827  10.302 -0.1205  0.8449  0.4121
  365TMC3     H 5520   2.828   0.956  10.117  0.0347 -0.2382 -0.2727
  365TMC3    H1 5521   2.697   1.150  10.462  0.2644  2.1320 -0.3955
  365TMC3    H2 5522   2.634   1.344  10.097  0.5952  0.9596  0.8433
  365TMC3    C7 5523   2.597   1.361  10.360  0.0389 -0.0302 -0.0834
  365TMC3    C8 5524   2.679   1.138   9.949 -0.1306  0.4634 -0.1264
  365TMC3    O1 5525   2.570   1.460  10.287 -0.1091  0.3063 -0.1383
  365TMC3    O2 5526   2.605   1.226   9.907  0.0301 -0.5573 -0.2344
  366MPD2     C 5527   0.359   2.042  15.761 -0.1270  0.2327 -0.5960
  366MPD2    C1 5528   0.438   2.077  15.655 -0.5053  0.4359 -0.0567
  366MPD2    C2 5529   0.569   2.037  15.654  0.3923 -0.1431 -0.2173
  366MPD2    C3 5530   0.617   1.968  15.758 -0.3097  0.0301  0.3113
  366MPD2    C4 5531   0.534   1.922  15.858  0.2298  0.1952  0.5902
  366MPD2    C5 5532   0.400   1.955  15.858  0.1735 -0.3080  0.1471
  366MPD2     H 5533   0.634   2.082  15.580 -0.4732  1.0946 -0.2323
  366MPD2    H1 5534   0.566   1.874  15.950  2.7919 -2.5384 -1.7123
  366MPD2    H2 5535   0.264   2.095  15.770 -0.2389 -0.3083  1.5691
  366MPD2    H3 5536   0.338   1.919  15.940 -0.5529 -0.6380 -0.5407
  366MPD2     N 5537   0.756   1.954  15.762 -0.1287 -0.7296 -0.1645
  366MPD2    H5 5538   0.819   1.991  15.691 -3.0096  1.7012 -1.4087
  366MPD2    N1 5539   0.414   2.181  15.562 -0.7362 -0.7328  0.0980
  366MPD2    H7 5540   0.493   2.212  15.506 -1.1103 -1.7481 -0.9874
  367TMC3    C1 5541   0.346   2.396  15.510  0.1111  0.2771 -0.1918
  367TMC3    C2 5542   0.468   2.445  15.538  0.0375 -0.1161  0.6283
  367TMC3    C3 5543   0.507   2.566  15.496  0.3068  1.0762  0.4441
  367TMC3    C4 5544   0.250   2.467  15.450 -0.0224 -0.6726  0.3919
  367TMC3    C5 5545   0.290   2.589  15.397  0.3870  0.1229  0.8340
  367TMC3    C6 5546   0.415   2.644  15.428  0.1355  0.5272 -0.0462
  367TMC3     C 5547   0.314   2.272  15.569 -0.0732  0.2310  0.2237
  367TMC3     O 5548   0.199   2.257  15.605 -0.3809  0.7343 -0.2765
  367TMC3     H 5549   0.545   2.392  15.593  1.1890  0.0240 -0.8414
  367TMC3    H1 5550   0.147   2.432  15.447 -0.5044  0.6778  1.0022
  367TMC3    H2 5551   0.438   2.737  15.378  0.2157 -0.7179 -2.3728
  367TMC3    C7 5552   0.186   2.689  15.373 -0.0406  0.6032 -0.4934
  367TMC3    C8 5553   0.628   2.615  15.556 -0.1980 -0.1135 -0.1885
  367TMC3    O1 5554   0.216   2.809  15.371 -0.2754  0.3540 -0.1375
  367TMC3    O2 5555   0.711   2.539  15.594 -0.5305  0.5004 -0.4095
  368MPD2     C 5556   1.048   0.105  13.215 -0.6092 -0.8249  0.2074
  368MPD2    C1 5557   1.147   0.010  13.201 -0.9994  0.1925  0.0140
  368MPD2    C2 5558   1.232   0.022  13.091  0.0173  0.1104  0.3265
  368MPD2    C3 5559   1.229   0.131  13.009 -0.4256  0.5019  0.1123
  368MPD2    C4 5560   1.142   0.232  13.031 -0.0282  0.7900  0.2520
  368MPD2    C5 5561   1.048   0.221  13.131  0.1992 -0.9409  0.2994
  368MPD2     H 5562   1.298   4.678  13.069  1.1561  1.1148 -0.0556
  368MPD2    H1 5563   1.145   0.318  12.964 -0.5322  0.8849  0.3491
  368MPD2    H2 5564   0.979   0.096  13.298  0.6589  2.2161  1.5675
  368MPD2    H3 5565   0.962   0.284  13.155 -0.4759 -1.1217 -1.6040
  368MPD2     N 5566   1.337   0.132  12.914  0.5247 -0.0925  0.5718
  368MPD2    H5 5567   1.404   0.055  12.907  0.3627  0.1304 -3.1940
  368MPD2    N1 5568   1.163   4.633  13.271 -0.0530  0.4953 -0.1013
  368MPD2    H7 5569   1.243   4.575  13.245 -0.2128  0.3655 -0.3065
  369TMC3    C1 5570   1.145   4.463  13.421  0.2128 -0.0005 -1.1149
  369TMC3    C2 5571   1.272   4.435  13.371 -0.1738 -0.6954 -0.1313
  369TMC3    C3 5572   1.309   4.304  13.385  0.2107 -0.0316  0.3988
  369TMC3    C4 5573   1.072   4.376  13.495 -0.0968  0.3902  0.0752
  369TMC3    C5 5574   1.123   4.250  13.512  0.0877  0.0324 -0.0229
  369TMC3    C6 5575   1.240   4.206  13.448 -0.7320 -0.4219 -0.0477
  369TMC3     C 5576   1.084   4.582  13.368 -0.2905 -0.3771 -0.8792
  369TMC3     O 5577   0.963   4.602  13.388 -0.5924 -0.3791  0.4202
  369TMC3     H 5578   1.341   4.506  13.328 -3.0378  2.6314  0.7241
  369TMC3    H1 5579   0.974   4.408  13.528 -1.0702 -1.9165 -0.5725
  369TMC3    H2 5580   1.259   4.100  13.439  2.7089  0.1758  0.4098
  369TMC3    C7 5581   1.035   4.159  13.589 -0.5583  0.6164  0.0242
  369TMC3    C8 5582   1.406   4.271  13.279  0.3551  0.1923  0.0397
  369TMC3    O1 5583   0.977   4.215  13.680 -0.1131 -0.7846  0.6146
  369TMC3    O2 5584   1.390   4.347  13.188 -0.2678  0.3119 -0.3390
  370TMC3    C1 5585   0.927   0.318  16.437 -0.6311  0.0447  0.2826
  370TMC3    C2 5586   0.889   0.256  16.556 -0.0202  0.3313 -0.2299
  370TMC3    C3 5587   0.806   0.147  16.545  0.3548 -0.3089 -0.2813
  370TMC3    C4 5588   0.877   0.272  16.312  0.0850  0.3908  0.0536
  370TMC3    C5 5589   0.803   0.160  16.313 -1.0062 -0.7755  0.5320
  370TMC3    C6 5590   0.768   0.098  16.427  0.2127  0.0298  0.6842
  370TMC3     C 5591   1.048   0.397  16.445 -0.4271  0.7473 -0.3406
  370TMC3     O 5592   1.114   0.405  16.550 -0.2206  0.2641 -0.1311
  370TMC3     H 5593   0.938   0.275  16.651 -0.3780 -2.2044  0.4461
  370TMC3    H1 5594   0.896   0.321  16.217 -0.8313  0.7494  0.0596
  370TMC3    H2 5595   0.707   0.008  16.421  1.3809 -0.6452 -1.0563
  370TMC3    C7 5596   0.786   0.097  16.184  0.1420  0.2871 -0.0389
  370TMC3    C8 5597   0.769   0.072  16.667  0.0519  0.0486 -0.4965
  370TMC3    O1 5598   0.737   0.166  16.091 -0.1664 -0.0516  0.2896
  370TMC3    O2 5599   0.724   4.696  16.658 -0.0138 -0.6731 -0.1843
  371TMC3    C1 5600   1.958   3.065  15.980  0.2295 -0.2500 -0.0473
  371TMC3    C2 5601   1.825   3.061  15.937  0.7975 -0.5423  0.3565
  371TMC3    C3 5602   1.766   3.171  15.897 -0.5296  0.3528 -0.3035
  371TMC3    C4 5603   2.030   3.182  15.976  0.4651 -0.1075  0.2326
  371TMC3    C5 5604   1.968   3.292  15.917  0.2029 -0.6328 -0.2046
  371TMC3    C6 5605   1.842   3.287  15.874 -0.1408 -0.2002  0.1925
  371TMC3     C 5606   1.999   2.958  16.066 -0.0277 -0.3236  0.0328
  371TMC3     O 5607   2.105   2.975  16.127 -0.0181  0.3729 -0.5299
  371TMC3     H 5608   1.765   2.971  15.945 -0.2320  0.2374  1.5842
  371TMC3    H1 5609   2.137   3.182  15.994  0.9997  1.3173 -2.9385
  371TMC3    H2 5610   1.801   3.368  15.815  1.3253  0.1424 -0.3709
  371TMC3    C7 5611   2.034   3.416  15.899 -0.3833 -0.0615  0.2156
  371TMC3    C8 5612   1.621   3.172  15.898 -0.1235  0.3689 -0.2430
  371TMC3    O1 5613   1.978   3.498  15.826 -0.2159 -0.5183  0.0613
  371TMC3    O2 5614   1.561   3.064  15.893 -0.0820 -0.3220 -0.1344
  372MPD2     C 5615   2.073   4.202  13.402 -0.0503 -0.8183  0.0777
  372MPD2    C1 5616   2.149   4.103  13.466 -0.4171 -0.4032 -0.5215
  372MPD2    C2 5617   2.089   4.028  13.562  0.1901 -0.2548  0.3306
  372MPD2    C3 5618   1.959   4.027  13.582 -0.9620 -0.3646  0.4801
  372MPD2    C4 5619   1.883   4.117  13.510  0.4108 -0.1397 -0.0648
  372MPD2    C5 5620   1.943   4.215  13.431 -0.0867  0.2636  0.1042
  372MPD2     H 5621   2.142   3.955  13.622  0.1960 -0.0246  0.6054
  372MPD2    H1 5622   1.776   4.127  13.523  0.2189 -1.7616 -0.4037
  372MPD2    H2 5623   2.121   4.283  13.346  0.0078 -0.7913  0.1666
  372MPD2    H3 5624   1.884   4.297  13.393  0.9787  0.6742 -0.6848
  372MPD2     N 5625   1.916   3.913  13.654  0.5588 -0.3299  0.0683
  372MPD2    H5 5626   1.980   3.852  13.703  0.4634  0.9023  1.7521
  372MPD2    N1 5627   2.293   4.094  13.443  0.6210  0.0623 -0.0823
  372MPD2    H7 5628   2.335   4.027  13.506 -2.5020 -0.6195  1.2321
  373TMC3    C1 5629   1.783   3.759  13.750  0.0057 -0.0884  0.3318
  373TMC3    C2 5630   1.663   3.725  13.816 -0.5057  0.0973 -0.6021
  373TMC3    C3 5631   1.651   3.603  13.869 -0.8188 -0.5203  0.2005
  373TMC3    C4 5632   1.871   3.665  13.721 -0.0342  0.6726  0.4774
  373TMC3    C5 5633   1.858   3.540  13.778 -0.3142  0.2042  0.2328
  373TMC3    C6 5634   1.739   3.503  13.844 -0.0451  0.2538  0.2117
  373TMC3     C 5635   1.788   3.883  13.673  0.0243 -0.1299  0.1740
  373TMC3     O 5636   1.684   3.929  13.626  0.2945 -0.2352 -0.0586
  373TMC3     H 5637   1.593   3.805  13.837 -1.6312 -0.8396 -0.7484
  373TMC3    H1 5638   1.956   3.684  13.656  0.3756 -1.5448  0.3742
  373TMC3    H2 5639   1.728   3.413  13.904 -1.1108  1.0206  1.1509
  373TMC3    C7 5640   1.960   3.442  13.755  0.2325 -0.1623 -0.0150
  373TMC3    C8 5641   1.525   3.569  13.925  0.0620 -0.3619  0.0352
  373TMC3    O1 5642   1.946   3.328  13.783  0.0706 -0.9994  0.0034
  373TMC3    O2 5643   1.480   3.471  13.862  0.2989 -0.3175 -0.9272
  374TMC3    C1 5644   3.041   4.113   9.675  0.3517  0.0211  0.6984
  374TMC3    C2 5645   3.086   4.207   9.760 -0.2029  0.5553 -0.6031
  374TMC3    C3 5646   3.164   4.301   9.704  0.4518  0.5112  1.4411
  374TMC3    C4 5647   3.087   4.100   9.548 -0.0703  0.1836 -0.8845
  374TMC3    C5 5648   3.177   4.193   9.503 -0.9498 -0.1492  0.6658
  374TMC3    C6 5649   3.210   4.301   9.579  0.1280 -0.3618  0.0542
  374TMC3     C 5650   2.907   4.055   9.690 -1.1517  0.2849 -0.5737
  374TMC3     O 5651   2.846   4.027   9.589 -0.0950 -0.1142 -0.3482
  374TMC3     H 5652   3.042   4.221   9.859  3.2292 -0.7315  1.0821
  374TMC3    H1 5653   3.067   4.015   9.484 -0.9154 -0.9120  0.8361
  374TMC3    H2 5654   3.273   4.381   9.541 -0.5197  0.8857  1.6352
  374TMC3    C7 5655   3.213   4.198   9.365  0.0172  0.9785  0.1198
  374TMC3    C8 5656   3.254   4.378   9.788  0.0122 -0.3325  0.3209
  374TMC3    O1 5657   3.133   4.166   9.278 -0.2159 -0.2209 -0.4024
  374TMC3    O2 5658   3.301   4.475   9.733 -0.9836  0.3196 -0.1584
  375MPD2     C 5659   2.846   1.003  17.166  0.1131 -1.1019 -0.2965
  375MPD2    C1 5660   2.749   0.955  17.079 -0.4362  0.5087  0.2185
  375MPD2    C2 5661   2.783   0.850  16.994  0.7536  0.6804 -0.2498
  375MPD2    C3 5662   2.894   0.776  17.006  0.0523 -0.2624 -0.0770
  375MPD2    C4 5663   2.986   0.821  17.092  0.0725  0.1497  0.2537
  375MPD2    C5 5664   2.959   0.932  17.177 -0.1737 -0.5490  0.8662
  375MPD2     H 5665   2.699   0.823  16.931  1.9521 -0.6571 -1.2889
  375MPD2    H1 5666   3.079   0.766  17.105 -1.3104 -2.2888 -0.1667
  375MPD2    H2 5667   2.848   1.093  17.227 -1.5930  0.5789 -2.7185
  375MPD2    H3 5668   3.040   0.971  17.237 -1.3331  0.4430  1.7772
  375MPD2     N 5669   2.915   0.655  16.930 -0.1099  0.6311 -0.2305
  375MPD2    H5 5670   2.992   0.592  16.953  0.9829  1.8397 -0.5762
  375MPD2    N1 5671   2.622   1.017  17.063 -0.0200  0.4952  0.4180
  375MPD2    H7 5672   2.557   0.961  17.008  0.2560  0.3748  0.2193
  376TMC3    C1 5673   2.864   0.485  16.766  0.2845 -0.0288 -0.2285
  376TMC3    C2 5674   2.959   0.399  16.823  0.4030 -0.3922  0.3343
  376TMC3    C3 5675   2.997   0.286  16.753 -0.1439  0.4292  0.0220
  376TMC3    C4 5676   2.809   0.456  16.643 -0.1594  0.1416  0.0140
  376TMC3    C5 5677   2.848   0.345  16.579  0.7433 -0.2244 -0.5412
  376TMC3    C6 5678   2.934   0.252  16.637 -0.0209  0.2724 -0.3278
  376TMC3     C 5679   2.836   0.617  16.824 -0.8238 -0.4312 -0.5011
  376TMC3     O 5680   2.737   0.677  16.779  0.2393  0.4707 -0.6805
  376TMC3     H 5681   3.008   0.417  16.918  1.1470  0.1491 -0.1637
  376TMC3    H1 5682   2.745   0.526  16.592  1.0254  0.9122 -0.4306
  376TMC3    H2 5683   2.975   0.172  16.577 -3.1919 -3.0914  2.0568
  376TMC3    C7 5684   2.821   0.341  16.435 -0.3747 -0.2570 -0.0448
  376TMC3    C8 5685   3.131   0.305  16.704  0.0509 -0.1096  0.0547
  376TMC3    O1 5686   2.763   0.439  16.390  0.1993 -0.1001  0.2860
  376TMC3    O2 5687   3.137   0.379  16.608  0.2681  0.1647 -0.0869
  377MPD2     C 5688   1.007   4.349  13.117  0.1317 -0.0072  0.0586
  377MPD2    C1 5689   1.032   4.218  13.149  0.2594 -0.2654  0.3103
  377MPD2    C2 5690   0.933   4.144  13.222 -0.2654 -0.0035 -0.0716
  377MPD2    C3 5691   0.812   4.206  13.267 -0.0130  0.3534 -0.5752
  377MPD2    C4 5692   0.801   4.341  13.241 -0.5792  0.2203 -0.1844
  377MPD2    C5 5693   0.895   4.408  13.165 -0.3177  0.8863 -0.3379
  377MPD2     H 5694   0.957   4.042  13.248 -1.6183 -0.0225  1.1072
  377MPD2    H1 5695   0.708   4.389  13.272 -0.4406 -0.8175  1.8745
  377MPD2    H2 5696   1.078   4.412  13.066 -0.1264  1.9774  2.1519
  377MPD2    H3 5697   0.880   4.514  13.146  0.1550  1.2632  1.3730
  377MPD2     N 5698   0.718   4.137  13.336  0.2287  0.4130 -0.2652
  377MPD2    H5 5699   0.640   4.194  13.367 -0.0234 -0.1804  0.1705
  377MPD2    N1 5700   1.155   4.162  13.102  0.2681 -0.3681 -0.6383
  377MPD2    H7 5701   1.204   4.215  13.030 -0.5202  0.4383 -0.5749
  378TMC3    C1 5702   1.382   4.055  12.821 -0.3476  0.4810 -0.1050
  378TMC3    C2 5703   1.282   4.063  12.903  0.2104 -0.1139 -0.1779
  378TMC3    C3 5704   1.291   3.994  13.024 -0.0145 -0.1291 -0.2134
  378TMC3    C4 5705   1.489   3.967  12.844  0.8517  0.2664 -0.2277
  378TMC3    C5 5706   1.488   3.891  12.962  0.2567  0.2412  0.0833
  378TMC3    C6 5707   1.386   3.897  13.049 -0.1240  0.3551  0.6237
  378TMC3     C 5708   1.348   4.120  12.697  0.6111 -0.2386  0.8858
  378TMC3     O 5709   1.285   4.225  12.705 -0.4651 -0.5062 -0.1738
  378TMC3     H 5710   1.197   4.127  12.882  0.2341 -0.0642 -0.1217
  378TMC3    H1 5711   1.563   3.967  12.765 -0.4442  0.3361 -1.4587
  378TMC3    H2 5712   1.400   3.860  13.150  0.3020 -0.3851  0.2982
  378TMC3    C7 5713   1.584   3.788  12.982  0.3144 -0.2350 -0.6764
  378TMC3    C8 5714   1.202   4.035  13.122 -0.4146 -0.3596 -0.4989
  378TMC3    O1 5715   1.577   3.732  13.088  0.3062  0.1441 -0.4909
  378TMC3    O2 5716   1.180   3.961  13.216 -0.2198 -0.4520  0.3506
  379MPD2     C 5717   1.653   3.149  16.262 -0.0010 -0.2573 -0.2088
  379MPD2    C1 5718   1.609   3.016  16.275 -0.6197 -0.3195  0.3962
  379MPD2    C2 5719   1.610   2.957  16.400  0.3514  0.5755 -0.7302
  379MPD2    C3 5720   1.643   3.031  16.512  0.7143  0.1834  0.2561
  379MPD2    C4 5721   1.688   3.159  16.491 -0.2252  0.0207  0.2449
  379MPD2    C5 5722   1.692   3.219  16.366 -0.6023  0.2730 -0.1113
  379MPD2     H 5723   1.562   2.863  16.423 -0.9142  1.1472 -1.0613
  379MPD2    H1 5724   1.722   3.217  16.576  2.0299  0.4006 -0.9137
  379MPD2    H2 5725   1.654   3.191  16.162 -1.1974 -0.2411 -0.2157
  379MPD2    H3 5726   1.741   3.314  16.347 -0.0779 -0.0405 -0.3444
  379MPD2     N 5727   1.623   2.966  16.631 -0.3189  0.6729  0.0849
  379MPD2    H5 5728   1.611   2.865  16.639  2.2010  0.6086  3.0201
  379MPD2    N1 5729   1.568   2.953  16.159  0.7004 -0.2897 -0.1423
  379MPD2    H7 5730   1.547   3.010  16.078 -0.1087 -0.5125 -0.0897
  380TMC3    C1 5731   1.478   2.796  16.018  0.1340  0.0937  0.6189
  380TMC3    C2 5732   1.526   2.683  15.949  0.4394 -0.0623 -0.5688
  380TMC3    C3 5733   1.444   2.639  15.847  0.0317  0.9291 -0.8167
  380TMC3    C4 5734   1.363   2.862  15.984 -0.1915  0.0943 -0.4115
  380TMC3    C5 5735   1.295   2.815  15.874 -0.1127 -0.4840 -0.1070
  380TMC3    C6 5736   1.329   2.702  15.806 -0.1181  0.0473 -0.2311
  380TMC3     C 5737   1.537   2.818  16.150 -0.2977 -0.2235  0.8937
  380TMC3     O 5738   1.563   2.726  16.224  0.0368  0.2513  0.6059
  380TMC3     H 5739   1.620   2.636  15.976  0.8392 -0.2786 -2.3523
  380TMC3    H1 5740   1.336   2.950  16.040  0.2603  0.8949 -1.4389
  380TMC3    H2 5741   1.289   2.689  15.706  0.1164 -0.1687 -0.2983
  380TMC3    C7 5742   1.181   2.889  15.830 -0.4458  0.5124 -0.4194
  380TMC3    C8 5743   1.529   2.628  15.730  0.4076 -0.3754  0.3701
  380TMC3    O1 5744   1.192   3.009  15.844  0.4334  0.2440 -0.0574
  380TMC3    O2 5745   1.642   2.670  15.729  0.1281  0.1768 -0.1352
  381TMC3    C1 5746   0.764   4.103  16.600  0.8609 -0.2087 -0.6994
  381TMC3    C2 5747   0.814   4.208  16.525  0.1247  0.1022 -0.7157
  381TMC3    C3 5748   0.814   4.329  16.581 -0.5516 -0.0679 -0.2349
  381TMC3    C4 5749   0.700   4.125  16.720 -0.2216 -0.0491 -0.3134
  381TMC3    C5 5750   0.688   4.253  16.764 -0.0261 -1.0328  0.4066
  381TMC3    C6 5751   0.742   4.360  16.704 -0.3417 -0.1220  0.0703
  381TMC3     C 5752   0.758   3.968  16.544 -1.0971 -0.2317  0.0659
  381TMC3     O 5753   0.727   3.881  16.622  0.1867 -0.4514 -0.3648
  381TMC3     H 5754   0.880   4.192  16.441  1.1298  2.4708 -0.3658
  381TMC3    H1 5755   0.654   4.046  16.779  1.2078  0.1044  1.0213
  381TMC3    H2 5756   0.759   4.453  16.757  5.1312 -0.1160 -1.7057
  381TMC3    C7 5757   0.678   4.261  16.910 -0.2486 -0.1425 -0.6297
  381TMC3    C8 5758   0.899   4.423  16.518 -0.3475 -0.1330  0.7770
  381TMC3    O1 5759   0.707   4.159  16.972  0.7178  0.0423 -0.5060
  381TMC3    O2 5760   0.917   4.408  16.400  0.5127  0.0935  0.0369
  382MPD2     C 5761   0.190   2.125  17.014 -0.6147 -0.5013 -0.1591
  382MPD2    C1 5762   0.289   2.088  17.101  0.0376 -0.2583 -0.2362
  382MPD2    C2 5763   0.263   1.994  17.202  0.1687 -0.7793  0.0029
  382MPD2    C3 5764   0.133   1.947  17.215  0.4868  0.7585 -0.2563
  382MPD2    C4 5765   0.038   1.985  17.121 -0.3338 -0.5023 -0.0148
  382MPD2    C5 5766   0.073   2.064  17.023  0.4580 -0.6824  0.4431
  382MPD2     H 5767   0.346   1.974  17.268  0.1558 -2.5085 -0.5037
  382MPD2    H1 5768   4.675   1.949  17.128  0.0526 -2.0617 -2.3094
  382MPD2    H2 5769   0.208   2.191  16.930 -1.1907  1.5724  1.3449
  382MPD2    H3 5770   4.734   2.094  16.953  0.7966 -0.1171  0.3034
  382MPD2     N 5771   0.103   1.857  17.324  0.3049  0.0189 -0.1113
  382MPD2    H5 5772   0.010   1.847  17.362  0.0323  1.3823 -0.4167
  382MPD2    N1 5773   0.412   2.160  17.103  0.1881 -0.0920 -0.3932
  382MPD2    H7 5774   0.476   2.139  17.179  0.3191 -1.7972 -0.9812
  383TMC3    C1 5775   0.133   1.699  17.486  0.1481  0.8742  0.2222
  383TMC3    C2 5776   0.005   1.657  17.480  0.0007 -0.1263 -0.2947
  383TMC3    C3 5777   4.700   1.553  17.548  0.5448 -0.1152  0.7828
  383TMC3    C4 5778   0.223   1.645  17.578 -0.0570 -0.1956 -0.7545
  383TMC3    C5 5779   0.175   1.530  17.643  0.1296  0.2718  0.0226
  383TMC3    C6 5780   0.045   1.479  17.633 -1.2135 -0.1597  0.1939
  383TMC3     C 5781   0.199   1.774  17.383 -0.5618  0.0262 -1.2142
  383TMC3     O 5782   0.318   1.767  17.367 -0.0772  0.8502  0.4274
  383TMC3     H 5783   4.670   1.716  17.427 -1.8819 -3.0907 -0.9246
  383TMC3    H1 5784   0.325   1.682  17.578 -0.4382  0.8588 -1.3465
  383TMC3    H2 5785   0.006   1.403  17.699  1.6996 -3.5131 -1.8965
  383TMC3    C7 5786   0.258   1.475  17.746 -0.1067  0.4105 -0.1872
  383TMC3    C8 5787   4.563   1.507  17.527  0.6260  0.2622 -0.7678
  383TMC3    O1 5788   0.218   1.371   0.044 -0.1761  0.2768 -0.6989
  383TMC3    O2 5789   4.507   1.557  17.431  0.3904  0.5103  0.0887
  384MPD2     C 5790   1.860   2.613  12.290 -0.0449 -1.0832 -0.0522
  384MPD2    C1 5791   1.839   2.483  12.261 -0.0709 -0.9411  0.1055
  384MPD2    C2 5792   1.954   2.410  12.228  0.7917 -0.1184 -1.0197
  384MPD2    C3 5793   2.075   2.476  12.205  0.0109 -0.0635 -0.2950
  384MPD2    C4 5794   2.092   2.616  12.229  0.3833 -0.3681  0.4098
  384MPD2    C5 5795   1.978   2.676  12.278 -0.0858 -0.1565 -0.2944
  384MPD2     H 5796   1.944   2.304  12.205  0.8657 -0.1210 -1.0404
  384MPD2    H1 5797   2.185   2.669  12.209  0.1367  0.7497  2.2995
  384MPD2    H2 5798   1.775   2.666  12.330  0.9092 -0.1924  0.7858
  384MPD2    H3 5799   1.978   2.783  12.295 -2.1089 -0.0842 -0.7184
  384MPD2     N 5800   2.175   2.387  12.180  0.6990  0.2184 -0.1415
  384MPD2    H5 5801   2.149   2.290  12.171  1.6802  0.0635 -1.4127
  384MPD2    N1 5802   1.714   2.417  12.256 -0.0946 -0.1006 -0.7363
  384MPD2    H7 5803   1.723   2.319  12.231 -0.3338 -0.2266 -0.3187
  385TMC3    C1 5804   2.373   2.306  12.094  0.1582 -0.0774  0.2099
  385TMC3    C2 5805   2.383   2.301  11.957 -0.1425 -0.0369  0.3885
  385TMC3    C3 5806   2.355   2.186  11.887 -0.1546 -0.5173 -0.5649
  385TMC3    C4 5807   2.324   2.196  12.153  0.2915 -0.2162  0.2791
  385TMC3    C5 5808   2.284   2.086  12.079  0.4142  0.1064  0.6261
  385TMC3    C6 5809   2.304   2.075  11.945  0.3207 -0.0790 -0.0200
  385TMC3     C 5810   2.302   2.420  12.147  0.0019  0.5411  1.2425
  385TMC3     O 5811   2.352   2.523  12.117  0.5023 -0.1470 -0.0179
  385TMC3     H 5812   2.416   2.394  11.912 -1.0969  1.0027  1.7997
  385TMC3    H1 5813   2.300   2.197  12.259 -1.3361 -1.4740 -0.0580
  385TMC3    H2 5814   2.240   2.003  11.895  1.0922  0.9627 -2.5354
  385TMC3    C7 5815   2.166   2.035  12.124  0.2694 -0.0153 -0.8553
  385TMC3    C8 5816   2.377   2.186  11.745 -0.3765 -0.8634  0.5906
  385TMC3    O1 5817   2.102   2.097  12.208  0.1345 -0.2935 -0.2780
  385TMC3    O2 5818   2.395   2.296  11.701  0.0978  0.6808 -0.1152
  386TMC3    C1 5819   2.573   3.920  12.085 -0.8914 -0.0481  0.1154
  386TMC3    C2 5820   2.592   3.923  11.952 -0.3079  0.4853  0.6951
  386TMC3    C3 5821   2.489   3.938  11.867  0.4917  0.0181 -0.2272
  386TMC3    C4 5822   2.443   3.942  12.142  0.2830  0.5782  0.1720
  386TMC3    C5 5823   2.347   3.970  12.049  0.4393 -0.6847 -0.6701
  386TMC3    C6 5824   2.370   3.974  11.907  0.9933  0.5013  0.5542
  386TMC3     C 5825   2.684   3.893  12.173 -1.0800 -0.0379 -0.2327
  386TMC3     O 5826   2.781   3.833  12.127 -0.2762 -0.5971 -0.6916
  386TMC3     H 5827   2.694   3.905  11.918 -0.4398  0.8685  0.0841
  386TMC3    H1 5828   2.427   3.948  12.249 -1.6489  1.2951 -0.1631
  386TMC3    H2 5829   2.296   3.998  11.831  2.0016  0.9034 -0.3018
  386TMC3    C7 5830   2.214   3.996  12.098 -0.0554  0.1114 -0.1102
  386TMC3    C8 5831   2.500   3.935  11.723 -0.3578 -0.2909 -0.1238
  386TMC3    O1 5832   2.192   4.001  12.217  0.0932  0.3165  0.2231
  386TMC3    O2 5833   2.428   4.004  11.650 -0.0576 -0.3799 -0.4153
  387MPD2     C 5834   0.062   0.224  10.241 -0.1646  0.4726  0.4482
  387MPD2    C1 5835   0.145   0.155  10.327  0.1430  0.7068 -0.7358
  387MPD2    C2 5836   0.138   0.019  10.331 -0.1468  0.3568  0.1737
  387MPD2    C3 5837   0.042   4.689  10.259 -0.4729  0.9232 -0.6506
  387MPD2    C4 5838   4.709   0.024  10.167 -0.0584  0.3547 -0.6331
  387MPD2    C5 5839   4.706   0.155  10.165  0.6941 -0.1095 -0.0634
  387MPD2     H 5840   0.220   4.704  10.376 -0.6770  0.8596  1.7666
  387MPD2    H1 5841   4.650   4.711  10.093  0.3842 -1.7467  0.4963
  387MPD2    H2 5842   0.053   0.332  10.249 -2.5000  0.2222  1.1578
  387MPD2    H3 5843   4.639   0.212  10.102  1.4105  2.3617  1.4072
  387MPD2     N 5844   0.055   4.550  10.259  0.1831  0.8837 -0.3479
  387MPD2    H5 5845   0.121   4.512  10.325  0.2380  0.9462 -0.3675
  387MPD2    N1 5846   0.256   0.219  10.388 -0.7998  0.5387 -0.2607
  387MPD2    H7 5847   0.308   0.162  10.454 -0.3315  0.2159 -0.9087
  388TMC3    C1 5848   0.445   0.348  10.369 -0.0554 -0.4762 -0.4447
  388TMC3    C2 5849   0.511   0.471  10.394 -1.3473  0.2909  0.0336
  388TMC3    C3 5850   0.641   0.464  10.436  0.1497 -0.4171 -0.2221
  388TMC3    C4 5851   0.509   0.229  10.381  0.0689  0.1420 -0.0656
  388TMC3    C5 5852   0.642   0.233  10.416 -0.2333  0.0451 -0.4779
  388TMC3    C6 5853   0.703   0.344  10.457 -0.4385  0.0623  0.3225
  388TMC3     C 5854   0.304   0.343  10.351  0.1165 -0.9916  0.2596
  388TMC3     O 5855   0.256   0.437  10.289 -0.0852  0.1798 -0.4485
  388TMC3     H 5856   0.461   0.566  10.383 -0.2589  0.7500 -0.8729
  388TMC3    H1 5857   0.478   0.146  10.318 -0.6151  1.1804 -1.1125
  388TMC3    H2 5858   0.809   0.336  10.479 -0.4017  0.1153  0.1708
  388TMC3    C7 5859   0.724   0.112  10.407 -0.1975 -0.2378  0.2033
  388TMC3    C8 5860   0.711   0.591  10.475 -0.3175 -0.2834 -0.6320
  388TMC3    O1 5861   0.839   0.125  10.370  0.3369 -0.0717  0.0777
  388TMC3    O2 5862   0.808   0.575  10.543 -0.4675  0.4735 -0.5786
  389MPD2     C 5863   4.211   2.501  11.442 -0.3733 -0.6610 -0.4866
  389MPD2    C1 5864   4.113   2.479  11.350 -0.0725 -0.4637 -0.1937
  389MPD2    C2 5865   4.024   2.375  11.377 -0.3675  0.0614  0.5158
  389MPD2    C3 5866   4.010   2.326  11.505  0.1656  0.5085 -1.2318
  389MPD2    C4 5867   4.107   2.346  11.600  0.0907 -0.0134 -0.1935
  389MPD2    C5 5868   4.211   2.436  11.566 -0.2727  0.6540  0.4205
  389MPD2     H 5869   3.945   2.350  11.308 -0.1563 -1.9170  0.9866
  389MPD2    H1 5870   4.109   2.311  11.702  1.6779 -2.4270 -1.0467
  389MPD2    H2 5871   4.287   2.574  11.418 -0.2789 -0.7021 -0.3147
  389MPD2    H3 5872   4.289   2.458  11.638  1.6975 -0.6038 -1.3201
  389MPD2     N 5873   3.890   2.258  11.536  0.7922  0.5561 -0.2046
  389MPD2    H5 5874   3.831   2.244  11.454  0.1113  3.0234 -0.1434
  389MPD2    N1 5875   4.121   2.552  11.228 -0.0528 -0.1252  0.0715
  389MPD2    H7 5876   4.197   2.619  11.218 -1.4795  1.5854  0.7779
  390TMC3    C1 5877   3.712   2.150  11.651 -0.0433  0.0894  0.7218
  390TMC3    C2 5878   3.629   2.159  11.760 -0.1387 -0.0647 -0.4260
  390TMC3    C3 5879   3.498   2.133  11.724  0.3773 -0.0375 -0.1828
  390TMC3    C4 5880   3.678   2.087  11.535  0.0775  0.3160  0.8628
  390TMC3    C5 5881   3.545   2.072  11.511 -0.0780 -0.1399  0.4456
  390TMC3    C6 5882   3.451   2.096  11.604 -0.3176 -0.4231 -0.1964
  390TMC3     C 5883   3.845   2.214  11.655  0.2475  0.3472  0.1253
  390TMC3     O 5884   3.889   2.249  11.765 -0.4622  0.0547 -0.1554
  390TMC3     H 5885   3.656   2.200  11.857 -2.2123  0.2443  0.0188
  390TMC3    H1 5886   3.747   2.050  11.461 -0.7024  1.8882 -0.6685
  390TMC3    H2 5887   3.346   2.106  11.577 -0.3953 -1.2487 -0.1929
  390TMC3    C7 5888   3.507   1.958  11.427  0.0812  0.1887 -0.4610
  390TMC3    C8 5889   3.429   2.042  11.821  0.3654  0.5732  0.1313
  390TMC3    O1 5890   3.577   1.925  11.333  0.9245 -0.0490 -0.5955
  390TMC3    O2 5891   3.335   1.974  11.783  0.1090  0.3988  0.0482
  391MPD2     C 5892   3.162   3.924  11.290 -0.7630 -0.3432  0.5334
  391MPD2    C1 5893   3.303   3.908  11.290 -0.7652 -0.4369 -0.5751
  391MPD2    C2 5894   3.373   3.946  11.176 -0.5308 -0.2949  0.2215
  391MPD2    C3 5895   3.312   3.980  11.056  0.4741  0.6318 -0.1995
  391MPD2    C4 5896   3.176   3.991  11.056  0.4666  0.7026  0.2821
  391MPD2    C5 5897   3.106   3.972  11.173  0.7583  0.2095  0.6090
  391MPD2     H 5898   3.480   3.960  11.175 -0.6856  0.7715 -1.3873
  391MPD2    H1 5899   3.116   4.017  10.970  0.0804 -0.7881  0.1059
  391MPD2    H2 5900   3.106   3.907  11.381  0.2709  2.8212  1.7527
  391MPD2    H3 5901   2.999   3.978  11.158  0.5669 -0.8721  1.5324
  391MPD2     N 5902   3.393   4.016  10.943 -0.3726  0.4918 -0.0618
  391MPD2    H5 5903   3.493   4.026  10.954 -0.5664  0.5382  1.5796
  391MPD2    N1 5904   3.370   3.864  11.401 -0.3673  0.1786 -0.9953
  391MPD2    H7 5905   3.315   3.816  11.471  0.8135 -1.7070 -1.3900
  392TMC3    C1 5906   3.460   4.043  10.717 -0.6977 -0.5480  0.5697
  392TMC3    C2 5907   3.423   4.041  10.581  0.1401  0.3436  0.4397
  392TMC3    C3 5908   3.503   4.118  10.492  0.3596  0.3855  0.1355
  392TMC3    C4 5909   3.569   4.106  10.763  0.0127 -0.2380  0.4056
  392TMC3    C5 5910   3.644   4.167  10.675 -0.4238 -0.1348 -0.4151
  392TMC3    C6 5911   3.616   4.179  10.546 -0.0977 -0.1108 -0.1432
  392TMC3     C 5912   3.345   4.023  10.811  0.2305  0.3168  0.6559
  392TMC3     O 5913   3.240   3.999  10.758 -0.2559 -0.4580 -0.2107
  392TMC3     H 5914   3.327   4.004  10.546  0.0646  1.2401 -0.3121
  392TMC3    H1 5915   3.600   4.114  10.867  0.5397  0.9055  0.1544
  392TMC3    H2 5916   3.696   4.207  10.477  0.8164 -0.4771  0.7703
  392TMC3    C7 5917   3.729   4.271  10.734  0.6731  0.7943 -0.0958
  392TMC3    C8 5918   3.464   4.146  10.356  0.4207  0.6718 -0.5352
  392TMC3    O1 5919   3.783   4.251  10.840  0.0894  0.5885  0.2060
  392TMC3    O2 5920   3.362   4.091  10.315  0.0962 -0.3052 -0.4272
  393TMC3    C1 5921   2.607   2.204  10.967  0.3966 -0.2055 -0.2221
  393TMC3    C2 5922   2.479   2.189  10.925  0.0071  0.0174  0.0312
  393TMC3    C3 5923   2.447   2.074  10.848  0.2581  1.0711 -0.3427
  393TMC3    C4 5924   2.705   2.110  10.947 -0.0285 -0.0513 -0.2610
  393TMC3    C5 5925   2.672   2.016  10.855  0.1803 -0.2863  0.2329
  393TMC3    C6 5926   2.542   1.984  10.821  0.6112 -0.4978 -0.3840
  393TMC3     C 5927   2.648   2.324  11.037 -0.6135  0.4914 -0.3938
  393TMC3     O 5928   2.757   2.313  11.095 -0.6935 -0.0673  0.0615
  393TMC3     H 5929   2.407   2.259  10.966  1.4612  2.1159 -1.0240
  393TMC3    H1 5930   2.805   2.129  10.984  0.1831 -3.0746  0.7330
  393TMC3    H2 5931   2.525   1.918  10.737  1.1317 -0.5264 -0.4725
  393TMC3    C7 5932   2.770   1.949  10.776  0.1260 -0.7227 -0.3049
  393TMC3    C8 5933   2.307   2.033  10.833 -0.6404  0.1852 -0.4398
  393TMC3    O1 5934   2.724   1.872  10.696 -1.0942 -0.4348 -0.0471
  393TMC3    O2 5935   2.282   1.912  10.841 -0.9775 -0.9937  0.1704
  394TMC3    C1 5936   4.021   2.664  11.034 -0.3078  0.3846  0.4223
  394TMC3    C2 5937   3.902   2.695  10.973  0.0754 -0.8388 -0.5451
  394TMC3    C3 5938   3.911   2.785  10.868 -0.6996  0.1838  0.7469
  394TMC3    C4 5939   4.139   2.714  10.985  0.0457  0.1844 -0.1002
  394TMC3    C5 5940   4.132   2.816  10.899 -0.2143  0.1127 -0.2522
  394TMC3    C6 5941   4.019   2.851  10.840 -0.1194 -0.3963 -0.1239
  394TMC3     C 5942   4.015   2.565  11.144 -0.0461  0.7937  0.3329
  394TMC3     O 5943   3.908   2.509  11.153 -0.1607  0.0859 -0.1976
  394TMC3     H 5944   3.804   2.652  10.990 -1.8277  3.2559 -1.1430
  394TMC3    H1 5945   4.233   2.666  11.013 -0.0027  0.2188  0.1191
  394TMC3    H2 5946   4.019   2.944  10.784 -1.4697 -0.3891 -0.1115
  394TMC3    C7 5947   4.252   2.860  10.833 -0.1518  0.0354 -0.6922
  394TMC3    C8 5948   3.784   2.817  10.800 -0.1948  0.1248  0.1496
  394TMC3    O1 5949   4.236   2.917  10.727 -0.0075 -0.0102 -0.1296
  394TMC3    O2 5950   3.679   2.776  10.850 -0.0615 -0.2616 -0.4062
  395TMC3    C1 5951   3.400   0.396  15.293 -0.1256 -0.2062  0.7384
  395TMC3    C2 5952   3.341   0.294  15.217 -1.1008  0.3787  0.0351
  395TMC3    C3 5953   3.363   0.310  15.078  0.7275  0.2539 -0.2907
  395TMC3    C4 5954   3.506   0.476  15.254 -0.8284 -0.7621  0.8197
  395TMC3    C5 5955   3.534   0.468  15.114  0.6246 -0.6683 -0.0029
  395TMC3    C6 5956   3.463   0.380  15.030  0.5682 -0.3674  0.2180
  395TMC3     C 5957   3.366   0.407  15.435 -0.3998  0.2104 -0.1296
  395TMC3     O 5958   3.388   0.515  15.494 -0.3867  0.4076  0.0440
  395TMC3     H 5959   3.244   0.260  15.252 -0.1582 -2.1853  0.1559
  395TMC3    H1 5960   3.563   0.544  15.316  1.2332 -0.4893 -1.3778
  395TMC3    H2 5961   3.477   0.394  14.923  0.9268 -2.2075  0.0234
  395TMC3    C7 5962   3.659   0.519  15.069  0.3938  0.6770 -0.3848
  395TMC3    C8 5963   3.245   0.333  14.997 -0.0350  1.1329  0.3183
  395TMC3    O1 5964   3.724   0.572  15.156 -1.0762  0.0145 -0.6773
  395TMC3    O2 5965   3.253   0.424  14.917 -0.0360 -0.1501  0.3934
  396MPD2     C 5966   3.160   1.575  17.106 -0.6001  0.3422  0.1921
  396MPD2    C1 5967   3.242   1.679  17.148  0.0435 -0.6518  1.0358
  396MPD2    C2 5968   3.258   1.790  17.063  0.0693 -0.1244  0.8423
  396MPD2    C3 5969   3.207   1.799  16.934  1.0600  0.1979  0.3157
  396MPD2    C4 5970   3.126   1.687  16.894 -0.3622 -0.0186  0.3171
  396MPD2    C5 5971   3.090   1.587  16.985  0.4775  0.1462 -0.3012
  396MPD2     H 5972   3.309   1.880  17.097 -1.0887  1.2936 -1.1434
  396MPD2    H1 5973   3.079   1.676  16.797 -0.1965 -0.4755  0.2879
  396MPD2    H2 5974   3.147   1.497  17.180  0.2707  1.4739  1.5334
  396MPD2    H3 5975   3.020   1.510  16.954  0.3709 -0.7687  2.1767
  396MPD2     N 5976   3.235   1.913  16.852 -0.0107 -0.3727 -0.0197
  396MPD2    H5 5977   3.305   1.980  16.881  0.9019 -1.6343  0.6783
  396MPD2    N1 5978   3.292   1.667  17.284  0.0957  0.4386 -0.0799
  396MPD2    H7 5979   3.264   1.584  17.336 -1.6000  0.5650 -0.8113
  397TMC3    C1 5980   3.423   1.696  17.463 -0.1426  0.5928 -0.5335
  397TMC3    C2 5981   3.545   1.642  17.416  0.0162  0.0591 -0.2753
  397TMC3    C3 5982   3.560   1.507  17.388  0.3911 -0.0002 -0.8334
  397TMC3    C4 5983   3.333   1.608  17.520  0.0318 -0.1800 -0.3716
  397TMC3    C5 5984   3.362   1.474  17.511 -0.2242 -0.8888 -0.3255
  397TMC3    C6 5985   3.475   1.423  17.450  0.7609 -0.1317 -0.2249
  397TMC3     C 5986   3.369   1.761  17.350  0.0039  0.4019  0.3653
  397TMC3     O 5987   3.424   1.856  17.302 -0.2252 -0.7520 -0.3085
  397TMC3     H 5988   3.596   1.712  17.351 -0.0583 -2.0444 -2.6258
  397TMC3    H1 5989   3.237   1.645  17.551  0.6248  0.0459  1.1919
  397TMC3    H2 5990   3.473   1.318  17.423 -0.6989 -0.1263 -0.1588
  397TMC3    C7 5991   3.240   1.398  17.483 -0.7920  0.5665  0.0308
  397TMC3    C8 5992   3.556   1.486  17.244  0.2973  0.0077 -0.7616
  397TMC3    O1 5993   3.151   1.450  17.418  0.2375 -0.5313  0.3491
  397TMC3    O2 5994   3.452   1.427  17.207  0.3409  0.4761 -0.0374
  398MPD2     C 5995   1.671   3.067   0.406 -0.5464  0.2630  0.0052
  398MPD2    C1 5996   1.790   3.023   0.450  0.1738 -0.3049  0.0675
  398MPD2    C2 5997   1.899   3.112   0.449 -0.7691  0.8951  0.3213
  398MPD2    C3 5998   1.891   3.236   0.390 -0.7814  0.2020 -0.9265
  398MPD2    C4 5999   1.774   3.276   0.339 -0.2695 -0.1908 -0.6779
  398MPD2    C5 6000   1.668   3.195   0.345  0.2899  0.9748 -0.4698
  398MPD2     H 6001   1.993   3.085   0.495 -0.2841  1.0084 -0.6012
  398MPD2    H1 6002   1.760   3.364   0.276  0.0536  1.8083  2.0680
  398MPD2    H2 6003   1.576   3.016   0.420 -0.3601  0.1589  0.8426
  398MPD2    H3 6004   1.573   3.225   0.301  0.7097 -0.7475 -2.5520
  398MPD2     N 6005   2.017   3.308   0.384  0.2834  0.0912 -0.0959
  398MPD2    H5 6006   2.098   3.260   0.421 -0.7015 -2.5263 -1.3488
  398MPD2    N1 6007   1.808   2.887   0.495 -0.3528  0.5447  0.5974
  398MPD2    H7 6008   1.895   2.865   0.541  0.9502 -0.2111 -2.2384
  399TMC3    C1 6009   1.771   2.653   0.514 -0.1354  0.3637 -0.5693
  399TMC3    C2 6010   1.899   2.631   0.560 -0.4428 -0.2203 -1.0307
  399TMC3    C3 6011   1.943   2.502   0.557  0.4632 -0.0346  0.1956
  399TMC3    C4 6012   1.692   2.551   0.465  0.4448 -0.8628  0.2295
  399TMC3    C5 6013   1.744   2.425   0.468  0.6448  0.3283 -0.4272
  399TMC3    C6 6014   1.865   2.394   0.522 -0.3168 -0.1777  0.6087
  399TMC3     C 6015   1.711   2.789   0.493  0.4086 -0.2029  0.2711
  399TMC3     O 6016   1.596   2.794   0.465  0.0510  0.7746 -0.0557
  399TMC3     H 6017   1.963   2.711   0.596 -0.0295  0.7168 -3.8697
  399TMC3    H1 6018   1.587   2.573   0.448  0.5862 -0.2382  0.1481
  399TMC3    H2 6019   1.900   2.292   0.536 -0.6099 -0.1872  1.2544
  399TMC3    C7 6020   1.661   2.317   0.417  0.0854 -0.3733  0.3669
  399TMC3    C8 6021   2.066   2.481   0.628 -0.7895 -0.2256  0.1327
  399TMC3    O1 6022   1.688   2.208   0.464 -0.4060 -0.2525  0.0133
  399TMC3    O2 6023   2.106   2.564   0.711 -0.1540 -0.1346 -0.2069
  400TMC3    C1 6024   4.601   1.209  17.239 -0.0856  0.0734 -0.6585
  400TMC3    C2 6025   4.553   1.093  17.184 -0.6994 -0.4410 -0.0750
  400TMC3    C3 6026   4.444   1.107  17.103 -0.3987  0.6683 -0.2091
  400TMC3    C4 6027   4.554   1.336  17.208  0.0640  0.6040 -0.0367
  400TMC3    C5 6028   4.442   1.343  17.129  0.2528 -0.1295  0.2006
  400TMC3    C6 6029   4.390   1.234  17.068 -0.8085 -0.3958 -0.2395
  400TMC3     C 6030   4.726   1.197  17.315 -0.0505 -0.5161 -0.1698
  400TMC3     O 6031   0.011   1.087  17.364  0.5699  0.9315  0.1475
  400TMC3     H 6032   4.593   0.995  17.204  1.9600  0.1575 -2.4498
  400TMC3    H1 6033   4.600   1.423  17.253  2.5935 -0.8153  0.1306
  400TMC3    H2 6034   4.316   1.234  16.989 -0.2576 -1.0841 -0.7573
  400TMC3    C7 6035   4.398   1.466  17.067  1.1463  0.4548  0.2272
  400TMC3    C8 6036   4.390   0.996  17.028  0.4910  0.4762  0.0011
  400TMC3    O1 6037   4.339   1.459  16.960  0.0892  0.0906 -0.0817
  400TMC3    O2 6038   4.296   1.014  16.954 -0.0484  0.0739 -0.6017
  401MPD2     C 6039   3.560   0.094   0.700 -0.3597  0.2684 -0.3553
  401MPD2    C1 6040   3.585   4.726   0.781 -0.3623 -0.1961 -0.2105
  401MPD2    C2 6041   3.522   4.599   0.760 -0.0390 -0.1954  0.1761
  401MPD2    C3 6042   3.434   4.584   0.655  0.2537 -0.5239 -0.5835
  401MPD2    C4 6043   3.415   4.694   0.575 -0.6278 -0.8223 -0.2262
  401MPD2    C5 6044   3.477   0.078   0.594 -0.6289  0.5163 -0.1554
  401MPD2     H 6045   3.536   4.517   0.829  1.4405  0.0521  0.1682
  401MPD2    H1 6046   3.353   4.692   0.486 -2.2341 -1.5300  0.8969
  401MPD2    H2 6047   3.616   0.185   0.712  0.8273 -0.0087 -3.9675
  401MPD2    H3 6048   3.457   0.169   0.539  1.7867  1.1545  0.0332
  401MPD2     N 6049   3.373   4.461   0.627 -0.5704  0.0503  0.7771
  401MPD2    H5 6050   3.399   4.391   0.697 -0.1103  0.8491  1.3995
  401MPD2    N1 6051   3.675   0.004   0.893  0.4292 -0.5168 -0.0622
  401MPD2    H7 6052   3.724   4.660   0.922 -0.1754 -0.6389  0.6337
  402TMC3    C1 6053   3.260   4.290   0.525 -0.4760 -0.0658  0.3047
  402TMC3    C2 6054   3.230   4.239   0.648  0.3143  0.1810  0.3940
  402TMC3    C3 6055   3.214   4.103   0.658 -0.6320 -0.4638  0.6706
  402TMC3    C4 6056   3.265   4.212   0.420 -0.7995  0.4097  0.4864
  402TMC3    C5 6057   3.237   4.078   0.430 -0.2926 -0.3176  0.5853
  402TMC3    C6 6058   3.230   4.019   0.554 -0.1314 -0.1674 -0.2198
  402TMC3     C 6059   3.300   4.428   0.515 -0.5456  0.2614 -0.5172
  402TMC3     O 6060   3.285   4.488   0.413 -0.7157 -0.3378 -0.5173
  402TMC3     H 6061   3.205   4.304   0.731  1.4761  1.5241 -0.3193
  402TMC3    H1 6062   3.311   4.242   0.327 -1.1867 -2.5972 -0.6726
  402TMC3    H2 6063   3.236   3.912   0.570 -0.5320 -0.0968  0.4369
  402TMC3    C7 6064   3.270   3.993   0.318  0.1472  0.2860  0.2617
  402TMC3    C8 6065   3.241   4.053   0.795  0.2100 -0.5084  0.7038
  402TMC3    O1 6066   3.249   4.031   0.201 -0.3191  0.2927  0.0240
  402TMC3    O2 6067   3.310   3.953   0.799 -0.3443 -0.7343 -0.0753
  403MPD2     C 6068   0.945   2.238  13.800  0.0688  0.8836  0.7717
  403MPD2    C1 6069   1.058   2.180  13.741 -0.2567  0.7083 -0.6399
  403MPD2    C2 6070   1.181   2.249  13.750  0.9174  0.7555 -0.3569
  403MPD2    C3 6071   1.189   2.367  13.816 -0.5457  0.1944  0.5804
  403MPD2    C4 6072   1.071   2.421  13.876 -0.3451 -0.2986 -0.4936
  403MPD2    C5 6073   0.955   2.357  13.867 -0.4641  0.7971 -0.0963
  403MPD2     H 6074   1.274   2.201  13.722  0.7107 -1.1200  2.2571
  403MPD2    H1 6075   1.067   2.516  13.930 -0.1256 -0.4758 -0.1636
  403MPD2    H2 6076   0.845   2.195  13.794  0.3383 -0.0045  2.6685
  403MPD2    H3 6077   0.865   2.398  13.911  0.0533 -1.8828  3.4607
  403MPD2     N 6078   1.304   2.442  13.808  0.1540 -0.1412 -0.8723
  403MPD2    H5 6079   1.381   2.401  13.756  0.0551 -2.1444  0.5571
  403MPD2    N1 6080   1.040   2.057  13.667 -0.2254  0.3040 -0.2415
  403MPD2    H7 6081   0.961   1.995  13.683 -0.4500  1.2118  2.1860
  404TMC3    C1 6082   1.113   1.886  13.526  0.2278 -0.2481  0.0091
  404TMC3    C2 6083   1.124   1.788  13.625  0.9673 -0.1763 -0.3470
  404TMC3    C3 6084   1.194   1.674  13.593  0.8570 -0.3113  0.1980
  404TMC3    C4 6085   1.148   1.857  13.395  0.2636  0.1346 -0.3310
  404TMC3    C5 6086   1.188   1.732  13.370  0.2026 -0.3695 -0.6361
  404TMC3    C6 6087   1.217   1.640  13.460 -0.3555  0.6271  0.2000
  404TMC3     C 6088   1.124   2.025  13.563  0.5238  0.6544 -0.1012
  404TMC3     O 6089   1.210   2.097  13.516 -1.0918 -0.1479  0.4539
  404TMC3     H 6090   1.111   1.808  13.731  0.2277  1.4864 -0.7586
  404TMC3    H1 6091   1.139   1.937  13.323  1.1040  1.7271  1.3073
  404TMC3    H2 6092   1.267   1.549  13.430  0.2939  0.7399  0.9313
  404TMC3    C7 6093   1.187   1.701  13.228  0.3389 -0.0984  0.0061
  404TMC3    C8 6094   1.281   1.630  13.694 -0.0361  0.1026 -0.2793
  404TMC3    O1 6095   1.171   1.788  13.147  0.0585  0.2371 -0.2764
  404TMC3    O2 6096   1.394   1.597  13.653 -0.2940  0.4686  0.1300
  405MPD2     C 6097   1.751   2.868  14.303  0.4895  0.0813 -0.1783
  405MPD2    C1 6098   1.721   2.755  14.228 -0.7157 -0.3040  0.0111
  405MPD2    C2 6099   1.585   2.740  14.197 -0.2580 -0.3370  0.0960
  405MPD2    C3 6100   1.492   2.833  14.250 -0.2207  0.5289 -0.3271
  405MPD2    C4 6101   1.525   2.943  14.314  0.0618  0.2229  0.8233
  405MPD2    C5 6102   1.655   2.962  14.341 -0.4478  0.3161 -0.6129
  405MPD2     H 6103   1.542   2.659  14.139  1.5221 -0.3365 -1.2225
  405MPD2    H1 6104   1.452   3.021  14.335  1.7053  1.7187  1.0053
  405MPD2    H2 6105   1.851   2.890  14.338  1.3699 -1.0854 -1.9347
  405MPD2    H3 6106   1.681   3.052  14.396 -3.6133  0.5331  0.4850
  405MPD2     N 6107   1.355   2.794  14.241  0.1688  0.1574  0.1853
  405MPD2    H5 6108   1.345   2.703  14.197  1.7118 -0.9790  2.2124
  405MPD2    N1 6109   1.819   2.662  14.190 -0.2661 -0.5457  0.7279
  405MPD2    H7 6110   1.916   2.685  14.208 -0.4339  0.2567  0.5937
  406TMC3    C1 6111   0.898   2.759  14.194  0.4743  0.6019 -0.8398
  406TMC3    C2 6112   0.911   2.624  14.177  0.1476 -0.2314  0.5413
  406TMC3    C3 6113   1.040   2.571  14.198  0.2053  0.0059  0.0437
  406TMC3    C4 6114   1.003   2.840  14.238  0.4392  0.3381 -0.0966
  406TMC3    C5 6115   1.125   2.783  14.266  0.3709 -0.1022  0.0490
  406TMC3    C6 6116   1.145   2.653  14.250 -0.2128  0.8439 -0.4091
  406TMC3     C 6117   0.764   2.811  14.207 -0.0328  0.0343 -0.6950
  406TMC3     O 6118   0.673   2.770  14.135 -0.0373 -0.1170 -0.6029
  406TMC3     H 6119   0.818   2.575  14.147 -0.6972  1.9310 -0.3353
  406TMC3    H1 6120   0.994   2.948  14.248  0.6594  0.0669  3.1523
  406TMC3    H2 6121   1.229   2.615  14.308 -0.8753 -2.0718 -1.3495
  406TMC3    C7 6122   1.243   2.867  14.278  0.4719 -0.3867 -0.1278
  406TMC3    C8 6123   1.052   2.425  14.213 -0.0204 -0.0731 -0.5128
  406TMC3    O1 6124   1.231   2.988  14.301  0.2110  0.3353 -0.4535
  406TMC3    O2 6125   0.965   2.359  14.266  0.7269 -0.4195 -0.8083
  407MPD2     C 6126   4.381   4.128  10.237 -0.3282 -0.2379 -0.8911
  407MPD2    C1 6127   4.401   4.251  10.182 -0.1121 -0.4448 -0.2808
  407MPD2    C2 6128   4.421   4.360  10.269  0.4564  0.8225  0.1315
  407MPD2    C3 6129   4.417   4.341  10.408 -0.9249 -0.4064  0.4481
  407MPD2    C4 6130   4.399   4.211  10.455  0.1587  0.7662  0.3951
  407MPD2    C5 6131   4.379   4.111  10.371 -0.2992  0.0043 -0.2736
  407MPD2     H 6132   4.439   4.460  10.232  0.3486 -0.2052 -2.6830
  407MPD2    H1 6133   4.393   4.195  10.562 -2.0928 -0.1376  0.1128
  407MPD2    H2 6134   4.367   4.044  10.170 -1.9483  0.6230 -1.6285
  407MPD2    H3 6135   4.370   4.013  10.419 -0.5439  0.1565 -0.0055
  407MPD2     N 6136   4.437   4.456  10.489  0.3368 -0.1119  0.9210
  407MPD2    H5 6137   4.448   4.546  10.445 -0.2099 -0.5689 -0.1471
  407MPD2    N1 6138   4.418   4.268  10.043  0.0380  0.3530 -0.4228
  407MPD2    H7 6139   4.451   4.360  10.015 -2.0174  0.2968 -3.1235
  408TMC3    C1 6140   4.442   4.207   9.816  0.7532  0.5632  0.7133
  408TMC3    C2 6141   4.566   4.263   9.817 -0.0807  0.6922  0.5533
  408TMC3    C3 6142   4.660   4.218   9.728 -0.0695  0.2571  0.4687
  408TMC3    C4 6143   4.411   4.113   9.724  0.5827  0.7339  0.1802
  408TMC3    C5 6144   4.509   4.067   9.637 -0.2169  0.7824  0.4062
  408TMC3    C6 6145   4.632   4.118   9.642 -0.0957  0.4347  0.4295
  408TMC3     C 6146   4.390   4.180   9.943 -0.6119  0.0581  0.3677
  408TMC3     O 6147   4.327   4.073   9.949 -0.1031  1.2257  0.5581
  408TMC3     H 6148   4.592   4.344   9.884  0.6223 -0.0691  1.2203
  408TMC3    H1 6149   4.310   4.075   9.722  1.2085 -1.0265  1.9786
  408TMC3    H2 6150   4.716   4.077   9.587 -0.4682  1.4816 -0.9324
  408TMC3    C7 6151   4.499   3.931   9.593  1.2581  0.1704 -0.3649
  408TMC3    C8 6152   0.066   4.239   9.763  0.1174  1.3525 -0.4740
  408TMC3    O1 6153   4.596   3.859   9.592  0.1235 -0.1814  0.5760
  408TMC3    O2 6154   0.148   4.155   9.744  0.1844 -0.4934  0.1235
  409MPD2     C 6155   3.645   0.609  17.065  0.0486 -0.0877  0.1547
  409MPD2    C1 6156   3.724   0.665  17.158 -0.4349  0.0010 -0.1630
  409MPD2    C2 6157   3.750   0.799  17.155  0.0197 -0.4335 -0.0106
  409MPD2    C3 6158   3.682   0.882  17.070 -0.1361 -0.0271 -0.8051
  409MPD2    C4 6159   3.596   0.827  16.971  0.8359  0.3128  0.0263
  409MPD2    C5 6160   3.593   0.690  16.963  0.1951 -0.9093 -0.3269
  409MPD2     H 6161   3.835   0.826  17.217  1.8674 -1.9149 -1.8955
  409MPD2    H1 6162   3.559   0.885  16.888 -1.1321  0.0066  0.6898
  409MPD2    H2 6163   3.645   0.501  17.051  2.2279  0.2351 -2.2660
  409MPD2    H3 6164   3.555   0.639  16.875  1.3486 -1.7487 -0.3437
  409MPD2     N 6165   3.704   1.019  17.078 -0.4342  0.1843 -0.3858
  409MPD2    H5 6166   3.660   1.075  17.006  1.2920  2.9043  0.7031
  409MPD2    N1 6167   3.788   0.589  17.254  0.5647 -0.0100  0.5815
  409MPD2    H7 6168   3.826   0.644  17.331  2.7124 -0.7708  0.0885
  410TMC3    C1 6169   3.807   1.215  17.173 -0.4554 -0.1135  0.5129
  410TMC3    C2 6170   3.880   1.279  17.272  0.1231 -0.3043  0.7319
  410TMC3    C3 6171   3.970   1.373  17.239  0.5616  0.8102  0.1391
  410TMC3    C4 6172   3.825   1.258  17.046 -0.1649  0.7812 -0.5642
  410TMC3    C5 6173   3.924   1.342  17.015  0.1306 -0.7477 -0.3196
  410TMC3    C6 6174   3.995   1.404  17.109 -0.4789 -0.6017  0.4998
  410TMC3     C 6175   3.770   1.078  17.188  0.6767 -0.0268 -0.2909
  410TMC3     O 6176   3.820   1.033  17.291  0.0350 -0.7691  0.1081
  410TMC3     H 6177   3.853   1.251  17.373 -2.7390  0.6073  0.2315
  410TMC3    H1 6178   3.772   1.224  16.958 -1.1006 -0.1861  0.3620
  410TMC3    H2 6179   4.074   1.476  17.091  0.3780 -1.5329  0.5214
  410TMC3    C7 6180   3.961   1.372  16.875 -0.1777 -0.3858  0.1409
  410TMC3    C8 6181   4.088   1.381  17.318  0.0061  0.2910 -0.4798
  410TMC3    O1 6182   3.932   1.282  16.798  0.1217  0.0681 -1.0805
  410TMC3    O2 6183   4.174   1.461  17.287  0.1794  0.2210  0.2804
  411MPD2     C 6184   4.220   1.531  14.678  0.1320 -0.3683  0.3267
  411MPD2    C1 6185   4.086   1.537  14.722 -0.3525  0.7210  0.4420
  411MPD2    C2 6186   4.008   1.427  14.704 -0.0360  0.3985  0.0274
  411MPD2    C3 6187   4.054   1.319  14.631 -0.3754  0.9791 -0.4055
  411MPD2    C4 6188   4.179   1.320  14.574 -0.1544  0.4007 -0.2117
  411MPD2    C5 6189   4.260   1.428  14.601  0.4434  0.4747 -0.2060
  411MPD2     H 6190   3.907   1.427  14.742  0.0867 -1.3474  0.3677
  411MPD2    H1 6191   4.208   1.243  14.504  0.4085 -0.1903  0.6712
  411MPD2    H2 6192   4.292   1.611  14.694 -0.6112 -0.0883  2.2702
  411MPD2    H3 6193   4.358   1.425  14.554  1.1034  0.8043  1.1749
  411MPD2     N 6194   3.978   1.206  14.607  0.1150 -0.5772  0.0288
  411MPD2    H5 6195   4.031   1.147  14.543  0.3137 -2.0851  1.5783
  411MPD2    N1 6196   4.035   1.648  14.800  0.0450 -0.9568  0.7525
  411MPD2    H7 6197   3.936   1.649  14.822  0.1849  0.9254  1.3518
  412TMC3    C1 6198   3.811   1.051  14.597  0.5858 -0.0979  0.2245
  412TMC3    C2 6199   3.736   0.973  14.686 -0.5138  0.0633 -0.5427
  412TMC3    C3 6200   3.728   0.837  14.663  0.9163  0.6832 -0.0013
  412TMC3    C4 6201   3.875   1.000  14.487 -0.6858  0.0950 -0.7411
  412TMC3    C5 6202   3.857   0.868  14.457 -0.1888 -0.1203 -0.1910
  412TMC3    C6 6203   3.799   0.792  14.555 -0.4366  0.4440  0.5538
  412TMC3     C 6204   3.850   1.180  14.644  0.7518  0.5669 -0.5724
  412TMC3     O 6205   3.790   1.223  14.740  0.4539  0.5884  0.3264
  412TMC3     H 6206   3.686   1.012  14.773 -0.0895 -1.0867  0.2139
  412TMC3    H1 6207   3.919   1.069  14.416  3.7934  0.4346  2.3547
  412TMC3    H2 6208   3.788   0.686  14.534 -0.7645  0.7919 -1.0629
  412TMC3    C7 6209   3.791   0.846  14.322 -0.4318  0.5816 -0.1434
  412TMC3    C8 6210   3.598   0.781  14.686  0.1164 -0.2544  0.0823
  412TMC3    O1 6211   3.691   0.780  14.325 -0.2518 -0.0394  0.8921
  412TMC3    O2 6212   3.545   0.809  14.794 -0.1244 -0.5515  0.4580
  413MPD2     C 6213   0.655   4.594  15.245  0.2508 -0.3800  0.0898
  413MPD2    C1 6214   0.580   4.507  15.169 -0.1638 -0.0320 -0.1846
  413MPD2    C2 6215   0.638   4.387  15.124  0.5431  0.4599 -0.0047
  413MPD2    C3 6216   0.767   4.349  15.170  0.6119  0.7896  0.3495
  413MPD2    C4 6217   0.837   4.443  15.240  0.3877  0.3904  0.4024
  413MPD2    C5 6218   0.786   4.562  15.275  0.4686  0.5798  0.9047
  413MPD2     H 6219   0.588   4.311  15.066 -0.5201  1.1079  0.0797
  413MPD2    H1 6220   0.941   4.421  15.262  0.6800  1.1134 -0.2771
  413MPD2    H2 6221   0.609   4.688  15.276 -0.6276 -1.4954  2.1903
  413MPD2    H3 6222   0.841   4.635  15.334  0.2633  1.6490 -0.2424
  413MPD2     N 6223   0.815   4.219  15.127  0.2284  0.2904  0.1424
  413MPD2    H5 6224   0.760   4.155  15.070  0.3241  1.4777 -1.2636
  413MPD2    N1 6225   0.444   4.540  15.163 -0.0050 -0.4014 -0.3096
  413MPD2    H7 6226   0.406   4.619  15.213  0.1848  0.7846 -2.0272
  414TMC3    C1 6227   0.957   4.031  15.112  0.4006 -0.3152 -0.2196
  414TMC3    C2 6228   1.011   3.939  15.202  0.0716 -0.0939 -0.0194
  414TMC3    C3 6229   1.003   3.807  15.159 -0.1727 -0.0058  0.1576
  414TMC3    C4 6230   0.897   3.993  14.996  0.0580  0.5889  0.0617
  414TMC3    C5 6231   0.897   3.865  14.956 -0.6408  0.0678  0.1427
  414TMC3    C6 6232   0.948   3.770  15.041 -0.8436 -1.1072 -0.1750
  414TMC3     C 6233   0.935   4.162  15.166  0.0082  0.4201 -0.5822
  414TMC3     O 6234   1.020   4.199  15.246  0.0569  0.6086  0.2962
  414TMC3     H 6235   1.055   3.975  15.295  0.0514 -0.7426  0.2411
  414TMC3    H1 6236   0.872   4.067  14.920 -1.0704 -1.9480 -2.0397
  414TMC3    H2 6237   0.964   3.667  15.011  0.7797 -1.8090  3.1142
  414TMC3    C7 6238   0.853   3.833  14.822 -0.2759 -0.7362 -0.3784
  414TMC3    C8 6239   1.107   3.718  15.212  0.1443 -0.0365 -0.4487
  414TMC3    O1 6240   0.750   3.890  14.796  0.3286  0.0335 -0.5863
  414TMC3    O2 6241   1.149   3.633  15.133 -0.6346  0.3102 -0.6827
  415TMC3    C1 6242   1.617   1.884  10.360 -0.0035  0.3412  0.0070
  415TMC3    C2 6243   1.668   2.010  10.368  0.3029  0.6036  0.7523
  415TMC3    C3 6244   1.590   2.109  10.306  0.3123 -0.6059 -0.3287
  415TMC3    C4 6245   1.493   1.862  10.323  0.5365 -0.2042  0.0467
  415TMC3    C5 6246   1.418   1.970  10.280  0.4496 -0.1554 -0.1580
  415TMC3    C6 6247   1.460   2.094  10.278  0.1671 -0.0813  0.2592
  415TMC3     C 6248   1.686   1.765  10.406 -0.7270  0.8462  0.4585
  415TMC3     O 6249   1.642   1.655  10.373 -0.3044  0.4042 -0.1069
  415TMC3     H 6250   1.766   2.042  10.403  1.1352  1.0925 -1.9683
  415TMC3    H1 6251   1.453   1.761  10.313 -2.2819  0.7552  1.9209
  415TMC3    H2 6252   1.406   2.172  10.226  2.0987  1.1527  0.1043
  415TMC3    C7 6253   1.298   1.946  10.202  0.9756  0.4957  0.0952
  415TMC3    C8 6254   1.632   2.248  10.323 -0.2232 -0.2686  0.1245
  415TMC3    O1 6255   1.251   2.037  10.135  0.6405  0.7351  0.6106
  415TMC3    O2 6256   1.552   2.339  10.304 -0.4368 -0.8122 -0.0160
  416MPD2     C 6257   3.233   4.640  11.946  0.0177 -0.1290 -0.0996
  416MPD2    C1 6258   3.293   0.000  11.864  0.0655  0.4005 -0.2004
  416MPD2    C2 6259   3.379   4.699  11.761 -0.0142  0.2756  0.6904
  416MPD2    C3 6260   3.394   4.565  11.725  0.1994 -0.2634 -0.0114
  416MPD2    C4 6261   3.334   4.476  11.808 -0.3014 -0.0394  1.2961
  416MPD2    C5 6262   3.253   4.510  11.916  0.4077  0.3072  0.4375
  416MPD2     H 6263   3.422   0.039  11.700 -4.1582  1.7829 -0.2556
  416MPD2    H1 6264   3.330   4.370  11.784 -0.1694  0.6654 -1.7501
  416MPD2    H2 6265   3.172   4.654  12.034 -0.0694 -0.0687 -0.1684
  416MPD2    H3 6266   3.199   4.434  11.971 -0.7892 -0.8994 -2.3961
  416MPD2     N 6267   3.454   4.514  11.607 -0.0589  0.5627  0.0097
  416MPD2    H5 6268   3.469   4.414  11.599  0.5790  0.7932 -1.6049
  416MPD2    N1 6269   3.274   0.135  11.899 -1.4947  0.4984 -0.7204
  416MPD2    H7 6270   3.215   0.152  11.980 -1.2866 -3.1728  0.2028
  417TMC3    C1 6271   3.229   0.363  11.866 -0.1406 -0.5100 -0.1385
  417TMC3    C2 6272   3.161   0.365  11.984  0.2779  0.4747  0.3525
  417TMC3    C3 6273   3.105   0.485  12.033 -0.2662  0.7486  0.7473
  417TMC3    C4 6274   3.244   0.478  11.793 -0.1992  0.1630  0.4802
  417TMC3    C5 6275   3.187   0.598  11.834  0.2442 -0.4648 -0.5851
  417TMC3    C6 6276   3.119   0.601  11.954  0.1709 -0.1860 -0.1777
  417TMC3     C 6277   3.312   0.248  11.829  0.0666  0.3448  0.1782
  417TMC3     O 6278   3.391   0.261  11.737  0.6098  0.0938  0.3322
  417TMC3     H 6279   3.159   0.277  12.047  2.2384  0.1622 -0.0162
  417TMC3    H1 6280   3.274   0.464  11.690  0.7983 -0.8283  0.9145
  417TMC3    H2 6281   3.055   0.684  11.979  0.5688 -0.3135  1.2701
  417TMC3    C7 6282   3.174   0.704  11.738  0.1387 -0.0160  0.3672
  417TMC3    C8 6283   3.015   0.494  12.152  0.5323 -0.1602  0.1170
  417TMC3    O1 6284   3.216   0.682  11.624 -0.1478  0.0748 -0.0020
  417TMC3    O2 6285   2.942   0.593  12.157 -0.0184  0.4524 -0.0099
  418TMC3    C1 6286   2.350   3.538   0.185  0.4057  0.3041 -0.1622
  418TMC3    C2 6287   2.217   3.530   0.203  0.0372 -0.0739 -0.1782
  418TMC3    C3 6288   2.171   3.469   0.317 -0.7515  0.0913  0.5143
  418TMC3    C4 6289   2.434   3.490   0.279 -0.0443 -1.1899 -0.1580
  418TMC3    C5 6290   2.386   3.432   0.392 -0.6497  0.1628  0.0301
  418TMC3    C6 6291   2.253   3.417   0.412 -0.0897 -0.6980 -0.3307
  418TMC3     C 6292   2.388   3.519   0.050 -0.0022 -0.6406  0.2350
  418TMC3     O 6293   2.369   3.617  17.733 -0.0869 -0.3271  0.0062
  418TMC3     H 6294   2.150   3.546   0.119 -0.2126  0.0217  0.0411
  418TMC3    H1 6295   2.536   3.493   0.244  0.3506 -2.5362  0.8954
  418TMC3    H2 6296   2.223   3.381   0.509 -0.5900  2.9343  0.8647
  418TMC3    C7 6297   2.485   3.385   0.486  1.0632  0.4768 -0.2783
  418TMC3    C8 6298   2.034   3.429   0.321  0.1334  0.0350 -0.5688
  418TMC3    O1 6299   2.433   3.324   0.577 -0.0669 -0.2248  0.6902
  418TMC3    O2 6300   1.960   3.493   0.250 -0.0787  0.4294 -0.8498
  419MPD2     C 6301   4.483   0.436  12.519  0.4246  0.5109 -0.1633
  419MPD2    C1 6302   4.609   0.465  12.562  0.5717 -0.4487 -0.8012
  419MPD2    C2 6303   4.636   0.567  12.640 -0.2333 -0.4894  0.0252
  419MPD2    C3 6304   4.538   0.664  12.670  0.0201  0.4089  0.7535
  419MPD2    C4 6305   4.406   0.636  12.628 -0.3736 -0.4131  0.2648
  419MPD2    C5 6306   4.383   0.520  12.554 -0.0603  0.1969 -0.3201
  419MPD2     H 6307   4.737   0.581  12.678 -1.5179  1.8534  2.6522
  419MPD2    H1 6308   4.323   0.704  12.639 -1.7561 -2.0350 -0.1117
  419MPD2    H2 6309   4.471   0.348  12.457 -1.1622  1.0856 -0.6678
  419MPD2    H3 6310   4.289   0.502  12.503 -0.3665  0.5831  0.1088
  419MPD2     N 6311   4.574   0.782  12.736  0.1522 -1.2692 -0.6443
  419MPD2    H5 6312   4.669   0.808  12.759 -0.5439  0.3619  0.4184
  419MPD2    N1 6313   4.718   0.370  12.532 -0.7319 -0.0716 -0.1714
  419MPD2    H7 6314   0.071   0.395  12.567 -0.8700 -0.4802  0.4815
  420TMC3    C1 6315   4.577   1.000  12.811 -0.7440 -0.0255  0.4368
  420TMC3    C2 6316   4.531   1.129  12.784  0.1238 -0.3132 -0.2124
  420TMC3    C3 6317   4.598   1.229  12.854  0.6664  0.8574  0.0953
  420TMC3    C4 6318   4.669   0.967  12.909  0.5020 -0.5623 -0.9050
  420TMC3    C5 6319   4.727   1.076  12.972  0.3288 -0.3468  0.1350
  420TMC3    C6 6320   4.692   1.209  12.949 -0.7705  0.5700  0.0392
  420TMC3     C 6321   4.497   0.895  12.747  0.2773  0.5026 -0.2920
  420TMC3     O 6322   4.377   0.908  12.734 -0.4529 -0.1352  0.2055
  420TMC3     H 6323   4.474   1.149  12.694  2.1624  2.2649 -0.9222
  420TMC3    H1 6324   4.698   0.868  12.943 -2.2997 -1.1469 -0.1761
  420TMC3    H2 6325   4.736   1.295  12.998  2.1209  0.1323 -1.7641
  420TMC3    C7 6326   0.110   1.051  13.047 -0.5354  1.1786  0.3190
  420TMC3    C8 6327   4.536   1.363  12.844  0.3696 -0.2476  0.5460
  420TMC3    O1 6328   0.133   0.938  13.090 -0.0185 -0.3891  0.1741
  420TMC3    O2 6329   4.601   1.464  12.853 -0.0036  0.1341  0.0399
  421TMC3    C1 6330   1.465   2.604  13.853  0.1639 -0.2704  0.0781
  421TMC3    C2 6331   1.498   2.739  13.871  0.0795  0.1067  0.1055
  421TMC3    C3 6332   1.626   2.784  13.853 -0.1408  0.0230  0.2254
  421TMC3    C4 6333   1.556   2.512  13.810 -0.0497 -0.1574 -0.2002
  421TMC3    C5 6334   1.684   2.561  13.793  0.0384  0.1823 -0.1485
  421TMC3    C6 6335   1.723   2.693  13.816 -0.0757 -0.3684  0.0883
  421TMC3     C 6336   1.331   2.557  13.877  0.3136  0.2083  0.2692
  421TMC3     O 6337   1.273   2.607  13.975 -0.2453  0.4711  0.0181
  421TMC3     H 6338   1.415   2.800  13.907  3.3906  1.4163  5.5001
  421TMC3    H1 6339   1.541   2.405  13.806  1.1645 -0.3597  0.6541
  421TMC3    H2 6340   1.818   2.729  13.779 -1.0282  0.5665 -1.4517
  421TMC3    C7 6341   1.794   2.465  13.804 -0.6590 -0.5942 -0.1521
  421TMC3    C8 6342   1.675   2.915  13.897  0.0377  0.0006 -0.1301
  421TMC3    O1 6343   1.902   2.518  13.847 -0.5868 -0.0704 -0.3554
  421TMC3    O2 6344   1.792   2.936  13.869 -0.2022  0.1178 -0.3239
  422TMC3    C1 6345   4.203   3.355  12.904 -0.0808  0.4252 -0.3289
  422TMC3    C2 6346   4.173   3.484  12.926  0.8389 -0.0863 -0.5957
  422TMC3    C3 6347   4.059   3.505  12.995 -0.1790 -0.2544 -0.9493
  422TMC3    C4 6348   4.127   3.250  12.950 -0.1097 -0.4214 -0.6603
  422TMC3    C5 6349   4.009   3.282  13.016 -0.4535 -1.0744  0.0258
  422TMC3    C6 6350   3.972   3.403  13.042  0.4981 -0.1825  0.1238
  422TMC3     C 6351   4.321   3.328  12.820  0.5162 -0.7016 -0.7724
  422TMC3     O 6352   4.412   3.412  12.806 -0.0318 -0.3057 -1.1681
  422TMC3     H 6353   4.244   3.565  12.915  0.1807  0.6316  0.4494
  422TMC3    H1 6354   4.158   3.146  12.948  0.7684 -0.1770  0.7838
  422TMC3    H2 6355   3.883   3.431  13.098  1.1868 -2.0677  2.1693
  422TMC3    C7 6356   3.926   3.177  13.066 -0.0138  0.4136  0.3684
  422TMC3    C8 6357   4.027   3.646  13.012 -0.3512 -0.7755 -0.3114
  422TMC3    O1 6358   3.988   3.079  13.105 -0.1766  0.9416  0.5406
  422TMC3    O2 6359   4.093   3.718  12.937  0.1620  0.2880 -0.1952
  423MPD2     C 6360   1.318   0.533   0.513 -0.0175  0.1929  0.0858
  423MPD2    C1 6361   1.210   0.459   0.555  0.1502  0.2089  0.0980
  423MPD2    C2 6362   1.131   0.400   0.460  0.6346 -0.1165  0.4810
  423MPD2    C3 6363   1.161   0.393   0.326  0.9020 -0.3561 -0.9226
  423MPD2    C4 6364   1.267   0.474   0.285 -0.0878  0.4282  0.2223
  423MPD2    C5 6365   1.341   0.547   0.377 -0.3014 -0.2770 -0.2357
  423MPD2     H 6366   1.047   0.344   0.499  1.3956  0.0240  2.3409
  423MPD2    H1 6367   1.295   0.490   0.181 -0.0038  1.6713  0.4383
  423MPD2    H2 6368   1.373   0.590   0.586 -1.3884  0.9687  0.5065
  423MPD2    H3 6369   1.409   0.622   0.339 -0.9031  1.2027  1.6034
  423MPD2     N 6370   1.102   0.306   0.231  0.2188 -0.2781  0.4137
  423MPD2    H5 6371   1.143   0.303   0.139 -1.1307  1.0723 -0.2235
  423MPD2    N1 6372   1.169   0.462   0.690  0.0634 -0.4460  0.2266
  423MPD2    H7 6373   1.079   0.425   0.719 -0.8886  0.4513 -1.6045
  424TMC3    C1 6374   1.168   0.483   0.920  0.1616 -0.0092 -0.1449
  424TMC3    C2 6375   1.238   0.482   1.038  0.1879  0.8360 -0.2733
  424TMC3    C3 6376   1.160   0.511   1.148 -0.5318 -0.1350  0.6523
  424TMC3    C4 6377   1.035   0.510   0.909  0.2751 -0.2476  0.2202
  424TMC3    C5 6378   0.966   0.546   1.018 -0.5686 -0.2690  0.5300
  424TMC3    C6 6379   1.026   0.548   1.142  0.1717  0.6309  0.3892
  424TMC3     C 6380   1.247   0.507   0.795 -0.4111  0.0768  0.6497
  424TMC3     O 6381   1.366   0.530   0.801  0.2105  0.2513  0.0490
  424TMC3     H 6382   1.342   0.453   1.038 -0.3023 -0.8736 -1.9554
  424TMC3    H1 6383   0.982   0.526   0.816 -0.0038 -0.3363  0.3634
  424TMC3    H2 6384   0.972   0.579   1.231 -2.2860 -1.3636 -0.4214
  424TMC3    C7 6385   0.821   0.570   1.005  0.4655  0.2645 -0.2519
  424TMC3    C8 6386   1.185   0.448   1.276 -0.2275 -0.2925 -1.1818
  424TMC3    O1 6387   0.770   0.573   0.893  0.0198  0.5545  0.0889
  424TMC3    O2 6388   1.090   0.406   1.337  0.6767 -0.3589  0.0885
  425MPD2     C 6389   4.523   4.279  16.762  0.2831  0.4507 -0.1557
  425MPD2    C1 6390   4.541   4.225  16.893  0.2700  0.1542  0.1387
  425MPD2    C2 6391   4.455   4.256  16.994  0.2062  0.0728  0.4258
  425MPD2    C3 6392   4.352   4.346  16.969  0.1344  0.5327 -0.2386
  425MPD2    C4 6393   4.341   4.410  16.849 -0.1640  0.8485  0.1143
  425MPD2    C5 6394   4.422   4.373  16.750 -0.1828  0.3062  0.1719
  425MPD2     H 6395   4.465   4.214  17.093 -1.0126  0.9157  0.9072
  425MPD2    H1 6396   4.258   4.476  16.826  1.2899  1.8201 -2.3782
  425MPD2    H2 6397   4.592   4.249  16.684 -1.3234 -1.3429 -0.8700
  425MPD2    H3 6398   4.415   4.426  16.656  1.9311 -0.3136 -0.3373
  425MPD2     N 6399   4.269   4.374  17.080  0.0862  0.7539 -1.0667
  425MPD2    H5 6400   4.268   4.308  17.157  0.7150  2.2266  0.1802
  425MPD2    N1 6401   4.643   4.128  16.910 -0.0606 -0.0269  0.4882
  425MPD2    H7 6402   4.677   4.085  16.824  0.5561  1.8641 -0.1937
  426TMC3    C1 6403   0.041   3.954  17.006  0.0541 -0.0717  0.5463
  426TMC3    C2 6404   0.044   3.908  16.881  0.5894 -0.4167  0.5499
  426TMC3    C3 6405   0.112   3.788  16.870 -0.6513 -0.3918 -0.4147
  426TMC3    C4 6406   0.092   3.893  17.123 -0.0847  0.6054  0.4539
  426TMC3    C5 6407   0.169   3.777  17.101  0.0660 -0.3573 -0.0125
  426TMC3    C6 6408   0.179   3.721  16.974  0.0971 -0.1011  0.5489
  426TMC3     C 6409   4.685   4.074  17.032 -0.2811 -0.4349 -0.7267
  426TMC3     O 6410   4.652   4.102  17.145  0.6117 -0.7060  0.1147
  426TMC3     H 6411   4.737   3.952  16.793 -1.0180 -2.3470  0.4299
  426TMC3    H1 6412   0.074   3.941  17.219 -0.8128  0.3519  0.4455
  426TMC3    H2 6413   0.229   3.625  16.968 -1.5086 -0.8623 -0.7298
  426TMC3    C7 6414   0.229   3.699  17.215  0.4994  0.8157  0.5022
  426TMC3    C8 6415   0.096   3.721  16.747  0.7362 -0.1524  0.3341
  426TMC3    O1 6416   0.249   3.583  17.185  0.0299 -0.3131 -0.1898
  426TMC3    O2 6417   0.083   3.598  16.753  0.2539  0.1022  0.4319
  427MPD2     C 6418   3.380   1.510  14.943  0.4267 -0.4665  0.3028
  427MPD2    C1 6419   3.312   1.488  15.059 -0.8581  0.2144  0.5209
  427MPD2    C2 6420   3.178   1.458  15.052  0.5147  0.1821 -0.1149
  427MPD2    C3 6421   3.108   1.441  14.936  0.1496  0.1661 -0.0701
  427MPD2    C4 6422   3.172   1.461  14.816 -0.1648 -0.0302  0.1287
  427MPD2    C5 6423   3.311   1.499  14.827  0.4863  0.5149  0.0473
  427MPD2     H 6424   3.128   1.441  15.147  0.5395 -0.6621 -0.2517
  427MPD2    H1 6425   3.116   1.459  14.723 -0.7659  2.5920  0.4299
  427MPD2    H2 6426   3.486   1.529  14.930  0.4050 -2.3615 -2.6028
  427MPD2    H3 6427   3.356   1.510  14.729 -2.3634 -0.3526 -1.3500
  427MPD2     N 6428   2.973   1.403  14.928  0.7129  0.0540 -0.3864
  427MPD2    H5 6429   2.936   1.407  14.834  1.3037 -1.0290 -0.6691
  427MPD2    N1 6430   3.374   1.486  15.189  0.5101  0.3779  0.3202
  427MPD2    H7 6431   3.318   1.453  15.267  0.6435 -0.1143  0.2050
  428TMC3    C1 6432   3.543   1.491  15.353  0.4362 -0.2576 -0.4828
  428TMC3    C2 6433   3.471   1.413  15.443 -0.5603 -0.0440 -0.0270
  428TMC3    C3 6434   3.534   1.367  15.555 -0.2951 -0.3912 -0.2457
  428TMC3    C4 6435   3.670   1.542  15.379  0.3406  0.2805 -0.1982
  428TMC3    C5 6436   3.729   1.503  15.503 -0.0536  0.5606  0.9972
  428TMC3    C6 6437   3.663   1.415  15.589  0.0529  0.2191  0.1321
  428TMC3     C 6438   3.500   1.505  15.210 -0.6417  0.1453 -0.0657
  428TMC3     O 6439   3.585   1.541  15.131  0.2816 -0.1561  0.3831
  428TMC3     H 6440   3.367   1.387  15.428 -0.8125  0.6439  0.5247
  428TMC3    H1 6441   3.708   1.615  15.309  1.3776  0.9399  1.0732
  428TMC3    H2 6442   3.701   1.389  15.687 -2.5011  0.2204  1.1253
  428TMC3    C7 6443   3.791   1.603  15.590 -0.7981  0.2303  0.5911
  428TMC3    C8 6444   3.452   1.325  15.670  0.6482  0.4303 -0.3891
  428TMC3    O1 6445   3.732   1.611  15.696  0.2187  0.0943 -0.1128
  428TMC3    O2 6446   3.504   1.238  15.736 -0.2117 -0.3039  0.1803
  429MPD2     C 6447   4.082   1.609   0.190 -0.4184 -0.6624 -0.5132
  429MPD2    C1 6448   4.213   1.601   0.158  0.5585  0.1179  0.3263
  429MPD2    C2 6449   4.275   1.718   0.113 -0.2517 -0.6198 -0.5770
  429MPD2    C3 6450   4.210   1.833   0.081  0.1778  0.8603 -0.0160
  429MPD2    C4 6451   4.075   1.838   0.118  0.0652  0.6314 -0.4506
  429MPD2    C5 6452   4.011   1.726   0.175  0.5007  0.2339  0.3143
  429MPD2     H 6453   4.382   1.717   0.092 -0.4386 -0.1297 -1.5753
  429MPD2    H1 6454   4.007   1.919   0.097 -1.3798 -0.8352 -1.4307
  429MPD2    H2 6455   4.037   1.524   0.239 -2.5441  1.1337  0.6117
  429MPD2    H3 6456   3.905   1.724   0.200  0.3111  2.2064 -0.3331
  429MPD2     N 6457   4.288   1.928   0.021 -0.2411 -0.2021  0.1685
  429MPD2    H5 6458   4.376   1.895  17.738 -0.2468  0.8571 -0.8103
  429MPD2    N1 6459   4.280   1.472   0.169  0.0173 -0.2266  0.1665
  429MPD2    H7 6460   4.222   1.398   0.206  0.0019  0.4374  1.4865
  430TMC3    C1 6461   4.310   2.125  17.650  0.3375 -0.0235  0.0034
  430TMC3    C2 6462   4.268   2.248  17.618  0.0973  0.3162 -0.0184
  430TMC3    C3 6463   4.320   2.298  17.506  1.1349  0.1007  0.8034
  430TMC3    C4 6464   4.417   2.056  17.585 -0.3433  0.6864 -0.3315
  430TMC3    C5 6465   4.461   2.113  17.474 -0.8966 -0.0665  0.4311
  430TMC3    C6 6466   4.411   2.233  17.428  0.4924  0.1808  0.9860
  430TMC3     C 6467   4.244   2.055   0.005  0.2016 -0.1836 -0.1482
  430TMC3     O 6468   4.147   2.108   0.058 -0.2499  0.4849  0.5423
  430TMC3     H 6469   4.175   2.290  17.656  0.5020 -0.2525  1.6043
  430TMC3    H1 6470   4.448   1.953  17.595 -1.4377  0.2488 -1.4799
  430TMC3    H2 6471   4.445   2.278  17.335  0.1491  1.5999  1.5364
  430TMC3    C7 6472   4.508   2.017  17.372 -0.2555 -0.4848  0.5353
  430TMC3    C8 6473   4.218   2.360  17.432 -0.6260  0.2326  0.1495
  430TMC3    O1 6474   4.575   1.927  17.419 -0.4270  0.4969  0.0336
  430TMC3    O2 6475   4.117   2.294  17.418  0.0060 -0.5455  0.2926
  431MPD2     C 6476   0.756   0.398  12.963  0.7066  0.1379  0.4302
  431MPD2    C1 6477   0.654   0.475  12.916  0.2803  0.0202 -0.0434
  431MPD2    C2 6478   0.560   0.415  12.837  0.5199 -0.4656 -0.9307
  431MPD2    C3 6479   0.560   0.282  12.817 -0.1591 -0.0419 -0.2162
  431MPD2    C4 6480   0.653   0.200  12.876 -0.0034  0.4365 -0.2789
  431MPD2    C5 6481   0.754   0.260  12.944 -0.3976 -0.4833  0.3677
  431MPD2     H 6482   0.484   0.475  12.788 -1.1417  0.4130  2.7248
  431MPD2    H1 6483   0.658   0.092  12.870  1.6931  0.3318  2.8681
  431MPD2    H2 6484   0.845   0.443  13.005  1.6039 -0.0803 -1.2090
  431MPD2    H3 6485   0.835   0.200  12.982  0.8525 -0.1126 -1.7240
  431MPD2     N 6486   0.471   0.222  12.728  0.2784 -0.5879  0.5121
  431MPD2    H5 6487   0.484   0.122  12.715  1.6780 -0.3669  0.1663
  431MPD2    N1 6488   0.651   0.613  12.922  0.4223 -0.2294  0.1183
  431MPD2    H7 6489   0.593   0.666  12.857  2.2806  3.0943  1.1564
  432TMC3    C1 6490   0.289   0.177  12.590  0.6556  0.4251 -0.3531
  432TMC3    C2 6491   0.345   0.121  12.479 -0.4714  0.9540  0.4773
  432TMC3    C3 6492   0.257   0.086  12.378  0.2705  0.6127  0.6608
  432TMC3    C4 6493   0.154   0.194  12.605  0.1619 -0.1244 -0.0681
  432TMC3    C5 6494   0.080   0.162  12.493  0.1649  0.9362 -0.0498
  432TMC3    C6 6495   0.123   0.100  12.381  0.3093 -0.4819 -0.7531
  432TMC3     C 6496   0.360   0.275  12.675 -0.2602 -0.5419 -0.3096
  432TMC3     O 6497   0.306   0.382  12.679 -0.7070  0.0482  0.1784
  432TMC3     H 6498   0.449   0.092  12.489 -0.1408  1.1984 -2.3767
  432TMC3    H1 6499   0.110   0.237  12.694  0.1484  1.6005 -0.9169
  432TMC3    H2 6500   0.067   0.093  12.289 -0.4295  0.3447 -0.3660
  432TMC3    C7 6501   4.701   0.243  12.481  0.6899  0.7309 -0.0238
  432TMC3    C8 6502   0.303   0.092  12.245  0.0796 -0.1795  0.6057
  432TMC3    O1 6503   4.631   0.216  12.384  0.1156 -0.3795 -0.1285
  432TMC3    O2 6504   0.236   0.034  12.155 -0.5273 -0.1080  0.1323
  433MPD2     C 6505   4.312   4.349  10.977 -0.4160  0.6916 -0.7804
  433MPD2    C1 6506   4.431   4.303  11.033  0.4436  0.1836 -0.9397
  433MPD2    C2 6507   4.443   4.304  11.173 -0.6623 -0.4632  0.2895
  433MPD2    C3 6508   4.334   4.342  11.246  0.3358 -0.2740  0.2743
  433MPD2    C4 6509   4.221   4.394  11.192  0.3884 -1.0775 -0.3222
  433MPD2    C5 6510   4.213   4.389  11.053 -0.1310 -0.4072  0.3441
  433MPD2     H 6511   4.528   4.267  11.228 -1.8004 -1.0190  1.6773
  433MPD2    H1 6512   4.141   4.438  11.251  1.2280 -0.8344  0.6346
  433MPD2    H2 6513   4.297   4.351  10.870 -2.0146  2.6451 -0.5153
  433MPD2    H3 6514   4.129   4.421  10.992  0.3253  1.6922  0.8349
  433MPD2     N 6515   4.336   4.319  11.388  0.0295  0.1336 -0.7614
  433MPD2    H5 6516   4.416   4.268  11.422  0.9264  1.1976 -1.2819
  433MPD2    N1 6517   4.536   4.262  10.949 -0.5328 -0.0367  0.1677
  433MPD2    H7 6518   4.514   4.275  10.851 -2.9062  1.6919  0.9063
  434TMC3    C1 6519   4.735   4.153  10.889  0.3808 -0.3594 -1.0169
  434TMC3    C2 6520   0.120   4.115  10.920  0.1169 -0.4060 -0.5301
  434TMC3    C3 6521   0.175   4.011  10.851 -0.2684  0.0429  0.6359
  434TMC3    C4 6522   4.676   4.103  10.775  0.0365 -0.0789  0.3639
  434TMC3    C5 6523   4.730   3.995  10.708 -0.0455  0.0284  0.3436
  434TMC3    C6 6524   0.112   3.948  10.746 -0.2474  0.6015 -0.7119
  434TMC3     C 6525   4.661   4.215  10.989 -0.2087  0.6668  0.6465
  434TMC3     O 6526   4.707   4.197  11.105 -0.3179 -0.6434 -0.7510
  434TMC3     H 6527   0.173   4.150  11.007  0.2248  2.7197 -1.8427
  434TMC3    H1 6528   4.574   4.129  10.748 -0.6805 -1.3952  1.7308
  434TMC3    H2 6529   0.152   3.857  10.702 -0.4476 -0.9091  2.2154
  434TMC3    C7 6530   4.631   3.908  10.649 -0.0007 -0.2471  0.2750
  434TMC3    C8 6531   0.296   3.950  10.901 -0.1458 -0.3571 -0.5191
  434TMC3    O1 6532   4.540   3.955  10.585 -0.1213 -0.6726  0.0118
  434TMC3    O2 6533   0.365   3.894  10.815 -0.1380 -0.3827 -0.1271
  435MPD2     C 6534   0.776   0.276  15.611 -0.1138 -0.9537 -0.0602
  435MPD2    C1 6535   0.797   0.275  15.753 -0.1139 -0.0782  0.5670
  435MPD2    C2 6536   0.906   0.205  15.798  0.3854 -0.0758 -0.5157
  435MPD2    C3 6537   0.995   0.138  15.716 -0.5907 -0.6366  0.0184
  435MPD2    C4 6538   0.973   0.133  15.580 -0.8412  0.1587  0.5846
  435MPD2    C5 6539   0.856   0.195  15.534  0.2048 -0.3206  0.0372
  435MPD2     H 6540   0.934   0.208  15.903  0.9862  0.8528 -0.7075
  435MPD2    H1 6541   1.028   0.074  15.508 -3.1082  0.6562 -1.5932
  435MPD2    H2 6542   0.689   0.318  15.561 -0.4007  0.4454  1.6285
  435MPD2    H3 6543   0.843   0.202  15.427  0.4891  2.4647  0.1739
  435MPD2     N 6544   1.103   0.075  15.781  0.0409 -0.0204 -0.1190
  435MPD2    H5 6545   1.091   0.069  15.882  1.8707  0.1100  0.1064
  435MPD2    N1 6546   0.721   0.339  15.850 -0.2021 -0.1666  0.2477
  435MPD2    H7 6547   0.754   0.324  15.945  0.6924  2.0299  0.2716
  436TMC3    C1 6548   0.622   0.592  16.153  0.0093  0.3392  0.2343
  436TMC3    C2 6549   0.662   0.539  16.035 -0.7510 -0.2830  0.2016
  436TMC3    C3 6550   0.565   0.494  15.945 -0.0699 -0.1717 -1.0909
  436TMC3    C4 6551   0.489   0.602  16.186  0.4292 -0.5240 -0.0087
  436TMC3    C5 6552   0.401   0.549  16.094  0.8393 -0.5018  0.8182
  436TMC3    C6 6553   0.433   0.503  15.970 -0.2832  0.1363  0.3233
  436TMC3     C 6554   0.716   0.628  16.252 -0.3088 -0.0839 -1.3727
  436TMC3     O 6555   0.830   0.603  16.219 -0.2393  0.4564  0.2297
  436TMC3     H 6556   0.766   0.549  16.003 -0.6893 -0.0899  0.4664
  436TMC3    H1 6557   0.454   0.645  16.279 -0.7679  2.3402 -1.7561
  436TMC3    H2 6558   0.361   0.436  15.924 -0.6509  1.0981 -0.5000
  436TMC3    C7 6559   0.262   0.550  16.134 -0.1264 -0.1058 -0.2021
  436TMC3    C8 6560   0.608   0.417  15.831  0.1373  0.4538 -0.4067
  436TMC3    O1 6561   0.182   0.517  16.043 -0.4322  0.0650 -0.2507
  436TMC3    O2 6562   0.544   0.427  15.727 -0.7830  0.3824  0.1598
  437TMC3    C1 6563   4.348   1.626  13.099  0.1465  0.1676  0.4353
  437TMC3    C2 6564   4.230   1.670  13.146  0.1721  0.4630 -0.4205
  437TMC3    C3 6565   4.187   1.797  13.130  0.1539  0.8037  0.1116
  437TMC3    C4 6566   4.441   1.717  13.055 -0.8266  0.0433  0.4363
  437TMC3    C5 6567   4.401   1.849  13.050  0.7247  0.6145 -0.7354
  437TMC3    C6 6568   4.277   1.897  13.090 -0.1108  0.0682 -0.2200
  437TMC3     C 6569   4.401   1.499  13.148  0.3060 -0.6021 -0.0411
  437TMC3     O 6570   4.314   1.431  13.199  0.2967  0.1064  0.2769
  437TMC3     H 6571   4.151   1.604  13.181 -0.0567  0.2572 -1.3345
  437TMC3    H1 6572   4.535   1.682  13.014 -0.7201  0.1767  0.5662
  437TMC3    H2 6573   4.259   2.004  13.093 -2.3317 -0.3031 -0.0825
  437TMC3    C7 6574   4.498   1.960  13.042  0.5433 -0.2258  0.1861
  437TMC3    C8 6575   4.053   1.833  13.159  0.4134 -0.2666 -0.2638
  437TMC3    O1 6576   4.460   2.076  13.060 -0.1028 -0.1563  0.2655
  437TMC3    O2 6577   3.978   1.745  13.198 -0.4412  0.0851  0.1454
  438MPD2     C 6578   1.985   3.122  16.719 -0.0948  0.3053  0.2989
  438MPD2    C1 6579   2.068   3.018  16.769 -0.4865 -1.0805 -0.0858
  438MPD2    C2 6580   2.090   3.002  16.900 -0.5438 -0.5579  1.0877
  438MPD2    C3 6581   2.030   3.083  16.989  0.6140  0.6358  0.5414
  438MPD2    C4 6582   1.944   3.182  16.946  0.0472  1.0632 -0.3002
  438MPD2    C5 6583   1.928   3.206  16.812 -0.2027  0.5641  0.5709
  438MPD2     H 6584   2.160   2.929  16.939  1.4819  0.8973  0.1407
  438MPD2    H1 6585   1.905   3.250  17.021 -1.0578 -0.5745  0.6126
  438MPD2    H2 6586   1.974   3.146  16.614 -0.6209  2.0298  0.7436
  438MPD2    H3 6587   1.858   3.284  16.782 -1.3525 -0.7629 -0.2011
  438MPD2     N 6588   2.058   3.079  17.133  0.3426  0.3258  0.7232
  438MPD2    H5 6589   2.004   3.143  17.190 -1.7610  0.7965 -1.8230
  438MPD2    N1 6590   2.141   2.932  16.683  0.1597 -0.5321 -0.3487
  438MPD2    H7 6591   2.188   2.854  16.728 -0.8517 -0.5541  0.6922
  439TMC3    C1 6592   2.280   2.867  16.511  1.0076 -0.5700 -0.2245
  439TMC3    C2 6593   2.290   2.842  16.375  0.1288 -1.1055 -0.7643
  439TMC3    C3 6594   2.401   2.778  16.323  0.3137  0.0250  0.9548
  439TMC3    C4 6595   2.370   2.818  16.599 -0.3424  0.1012  0.1288
  439TMC3    C5 6596   2.482   2.759  16.542 -0.0322 -0.2443  0.0869
  439TMC3    C6 6597   2.486   2.720  16.410 -0.1519  0.2892  0.1726
  439TMC3     C 6598   2.166   2.948  16.551  0.2702  0.2949  0.0327
  439TMC3     O 6599   2.112   3.019  16.468  0.4499  0.4737  0.1179
  439TMC3     H 6600   2.216   2.873  16.302 -0.6888 -1.9304 -0.2701
  439TMC3    H1 6601   2.365   2.816  16.708 -1.7079  1.4244  0.1026
  439TMC3    H2 6602   2.574   2.679  16.361 -0.1141 -0.4109  0.8263
  439TMC3    C7 6603   2.568   2.686  16.632 -0.6715  0.2619 -0.6925
  439TMC3    C8 6604   2.377   2.686  16.211 -0.0245  0.0585 -0.0616
  439TMC3    O1 6605   2.575   2.730  16.745 -0.1191  0.5759 -0.4374
  439TMC3    O2 6606   2.422   2.574  16.236  0.0360  0.5750  0.3338
  440MPD2     C 6607   1.199   3.038  14.667 -0.0031 -0.7706  0.2069
  440MPD2    C1 6608   1.181   3.124  14.773  0.0287 -0.4881  0.0978
  440MPD2    C2 6609   1.288   3.145  14.858 -0.0715 -0.6218  1.1156
  440MPD2    C3 6610   1.410   3.091  14.834  0.4751  0.3237  0.6678
  440MPD2    C4 6611   1.421   3.009  14.722  0.2134 -0.3642  0.5520
  440MPD2    C5 6612   1.317   2.979  14.638 -0.1461  0.0421  0.4206
  440MPD2     H 6613   1.270   3.192  14.953 -0.6518  1.9060 -0.2567
  440MPD2    H1 6614   1.518   2.975  14.687  1.0729  2.4974  0.0798
  440MPD2    H2 6615   1.116   3.023  14.599 -1.8056 -0.3044  2.2892
  440MPD2    H3 6616   1.325   2.917  14.550 -1.5593 -0.3726  0.5769
  440MPD2     N 6617   1.528   3.125  14.911  0.3149  0.3036  0.9104
  440MPD2    H5 6618   1.609   3.067  14.897  0.3575  0.8575 -1.1941
  440MPD2    N1 6619   1.059   3.194  14.801  0.7093 -0.3809  0.1916
  440MPD2    H7 6620   1.062   3.261  14.878  0.0647  0.1755 -0.2685
  441TMC3    C1 6621   1.653   3.214  15.075  0.5315  0.2290  0.5070
  441TMC3    C2 6622   1.668   3.323  15.154 -0.7647 -0.1730  0.3354
  441TMC3    C3 6623   1.704   3.317  15.287  0.3359  1.1057 -0.1453
  441TMC3    C4 6624   1.662   3.093  15.143  0.3184 -0.8409  0.1181
  441TMC3    C5 6625   1.694   3.088  15.280  0.3809 -0.0046 -0.2809
  441TMC3    C6 6626   1.714   3.200  15.354  1.3084  0.3606  0.1253
  441TMC3     C 6627   1.530   3.229  15.001 -0.5731  0.3698  0.2014
  441TMC3     O 6628   1.453   3.320  15.026 -0.1263  0.3458 -0.1064
  441TMC3     H 6629   1.669   3.418  15.101 -3.7704  0.0220  0.6815
  441TMC3    H1 6630   1.627   3.006  15.088  0.5345  0.0433 -1.4305
  441TMC3    H2 6631   1.726   3.198  15.462  0.4215  0.2900  0.2231
  441TMC3    C7 6632   1.700   2.962  15.359 -0.7749 -0.5609 -0.2628
  441TMC3    C8 6633   1.657   3.421  15.377 -0.1853  0.4601 -0.5244
  441TMC3    O1 6634   1.714   2.970  15.482 -0.3767  0.1811 -0.9858
  441TMC3    O2 6635   1.711   3.433  15.486 -0.2372 -0.5722 -0.0237
  442MPD2     C 6636   3.980   3.989  16.225  0.2168  0.4443  0.7453
  442MPD2    C1 6637   4.058   3.965  16.341  0.1596  0.3814  0.6148
  442MPD2    C2 6638   4.089   3.833  16.370  0.1571  0.0721 -0.8066
  442MPD2    C3 6639   4.041   3.730  16.291 -0.3843  0.2951 -0.9012
  442MPD2    C4 6640   3.952   3.754  16.187 -0.5650  0.4799  0.1506
  442MPD2    C5 6641   3.927   3.885  16.156  0.2163  0.5988  0.2418
  442MPD2     H 6642   4.142   3.817  16.463  1.1497  1.5567 -1.1063
  442MPD2    H1 6643   3.904   3.677  16.128 -1.4864  0.9823  0.2406
  442MPD2    H2 6644   3.957   4.091  16.195  1.7084  1.0481  1.6487
  442MPD2    H3 6645   3.865   3.916  16.073  1.6867  1.4382 -0.5413
  442MPD2     N 6646   4.066   3.598  16.331 -0.6778  0.0305  0.1933
  442MPD2    H5 6647   4.138   3.583  16.401 -0.2517  1.4932  0.0745
  442MPD2    N1 6648   4.096   4.076  16.420  0.1757 -0.1139  0.4979
  442MPD2    H7 6649   4.063   4.162  16.378  2.7603 -0.3667 -2.0263
  443TMC3    C1 6650   4.158   4.205  16.600 -0.0987 -0.3066 -0.1256
  443TMC3    C2 6651   4.118   4.312  16.514  0.0605 -0.2265  0.3890
  443TMC3    C3 6652   4.022   4.398  16.563 -0.2047 -0.8484 -0.4039
  443TMC3    C4 6653   4.120   4.193  16.729 -0.4852  0.0894 -0.5708
  443TMC3    C5 6654   4.034   4.293  16.772 -0.3519  0.0524  0.4528
  443TMC3    C6 6655   3.980   4.392  16.696  0.3081 -0.6812 -0.2816
  443TMC3     C 6656   4.167   4.075  16.533  0.5513  0.0689 -0.6986
  443TMC3     O 6657   4.201   3.976  16.596  0.0517 -0.0227 -0.3004
  443TMC3     H 6658   4.138   4.322  16.408 -1.3251  1.1185  0.2444
  443TMC3    H1 6659   4.170   4.128  16.800 -0.3824  0.7625 -0.0234
  443TMC3    H2 6660   3.905   4.466  16.722  1.3907  0.2221  0.2566
  443TMC3    C7 6661   3.955   4.258  16.891 -0.2582 -0.3800  0.5565
  443TMC3    C8 6662   3.917   4.416  16.462 -0.5055  0.4247 -0.1068
  443TMC3    O1 6663   3.950   4.136  16.904 -0.1474 -0.0932 -0.3686
  443TMC3    O2 6664   3.924   4.514  16.389  0.7009  0.0587 -0.1141
  444MPD2     C 6665   4.032   3.485  16.731  0.0270 -0.2342  0.1842
  444MPD2    C1 6666   3.968   3.377  16.787 -1.1028 -0.1217 -0.4772
  444MPD2    C2 6667   4.012   3.243  16.762  0.7069 -0.6653 -0.1853
  444MPD2    C3 6668   4.129   3.223  16.686  0.4419  0.6645 -0.8496
  444MPD2    C4 6669   4.185   3.332  16.626  1.1345  0.4141 -0.1739
  444MPD2    C5 6670   4.141   3.460  16.645  0.3678 -0.3057  0.5568
  444MPD2     H 6671   3.968   3.157  16.811 -1.8202  0.2629 -0.8426
  444MPD2    H1 6672   4.271   3.338  16.559 -0.3262  3.3104 -1.7808
  444MPD2    H2 6673   3.991   3.583  16.753 -1.1248 -1.0166  1.5287
  444MPD2    H3 6674   4.190   3.549  16.607 -2.0855 -0.2955 -2.5914
  444MPD2     N 6675   4.193   3.094  16.689 -0.1692 -0.0978 -0.1680
  444MPD2    H5 6676   4.137   3.018  16.728 -1.1241  0.7632  0.1175
  444MPD2    N1 6677   3.867   3.383  16.881  0.3013 -0.4609  0.0612
  444MPD2    H7 6678   3.858   3.294  16.931  0.6471  0.1061  1.1330
  445TMC3    C1 6679   4.351   2.935  16.684  0.2583  0.4628 -0.7168
  445TMC3    C2 6680   4.258   2.831  16.663  0.9404 -0.7680  0.2802
  445TMC3    C3 6681   4.312   2.709  16.663  0.4035  0.0655 -0.3814
  445TMC3    C4 6682   4.483   2.922  16.718 -0.6595 -0.5652  0.5747
  445TMC3    C5 6683   4.520   2.791  16.730 -0.6076 -1.2156  0.1531
  445TMC3    C6 6684   4.437   2.687  16.711 -0.2065 -0.3823 -1.3136
  445TMC3     C 6685   4.319   3.072  16.657 -0.0189  0.9865  0.0808
  445TMC3     O 6686   4.407   3.153  16.644  0.2509  0.6493  0.4784
  445TMC3     H 6687   4.170   2.852  16.604  0.6839  0.4480  1.0823
  445TMC3    H1 6688   4.548   3.006  16.740  1.7764 -2.1469 -0.5867
  445TMC3    H2 6689   4.473   2.585  16.698  1.6088  0.2132 -0.9064
  445TMC3    C7 6690   4.661   2.774  16.742 -0.3016 -0.2464 -0.9046
  445TMC3    C8 6691   4.242   2.593  16.608 -0.0439 -0.8572  0.0903
  445TMC3    O1 6692   4.732   2.872  16.728 -0.3392 -0.0310  0.2593
  445TMC3    O2 6693   4.297   2.485  16.620  0.2882  0.0049 -0.0690
  446MPD2     C 6694   4.504   3.475  11.359  0.8988  0.2814  0.1029
  446MPD2    C1 6695   4.423   3.588  11.382  0.2741 -0.1059  0.1032
  446MPD2    C2 6696   4.482   3.715  11.393 -0.7008 -0.4813 -0.2288
  446MPD2    C3 6697   4.622   3.718  11.401 -0.2759  0.0612  0.3126
  446MPD2    C4 6698   4.700   3.606  11.375 -0.2352  0.2030  0.6125
  446MPD2    C5 6699   4.636   3.487  11.360 -0.7974  0.4372 -0.6561
  446MPD2     H 6700   4.420   3.801  11.415  5.0602  2.9280  2.6619
  446MPD2    H1 6701   0.068   3.620  11.388 -0.0527 -0.4470 -0.1677
  446MPD2    H2 6702   4.462   3.378  11.338 -1.4721  1.1105  1.0224
  446MPD2    H3 6703   4.700   3.400  11.350 -0.2633  0.9649 -1.7572
  446MPD2     N 6704   4.685   3.838  11.439 -0.5211  0.1510  0.1394
  446MPD2    H5 6705   4.626   3.921  11.443 -4.1181 -2.4267  0.3362
  446MPD2    N1 6706   4.281   3.577  11.384 -0.0719  0.1333 -0.3565
  446MPD2    H7 6707   4.227   3.662  11.395 -1.4307 -0.9384  1.0917
  447TMC3    C1 6708   0.108   3.976  11.555  0.1175  0.6399 -0.8323
  447TMC3    C2 6709   0.079   4.086  11.475  0.3971  0.0231  0.1828
  447TMC3    C3 6710   0.172   4.183  11.466 -0.4090 -0.6376  0.2291
  447TMC3    C4 6711   0.207   3.985  11.647  0.2904 -0.2615 -0.1963
  447TMC3    C5 6712   0.304   4.087  11.634 -0.0234 -0.4487 -0.7190
  447TMC3    C6 6713   0.287   4.185  11.542 -0.2507  0.2796  0.0699
  447TMC3     C 6714   0.068   3.849  11.509  0.4819  0.3052 -0.1920
  447TMC3     O 6715   0.145   3.759  11.546 -0.2325  0.7974 -0.2712
  447TMC3     H 6716   0.008   4.082  11.393 -0.0458  1.1390  0.5090
  447TMC3    H1 6717   0.232   3.902  11.711 -1.5819 -0.7293 -0.0725
  447TMC3    H2 6718   0.368   4.254  11.522 -0.4171  0.2462 -0.7093
  447TMC3    C7 6719   0.443   4.049  11.666  0.6258 -0.0744 -0.1064
  447TMC3    C8 6720   0.154   4.286  11.371 -0.1480  0.1330 -0.2014
  447TMC3    O1 6721   0.530   4.106  11.594  0.9539  0.0572 -0.4080
  447TMC3    O2 6722   0.049   4.343  11.353  0.4133 -0.1288  0.1244
  448TMC3    C1 6723   2.236   4.440  16.947 -0.4075 -0.2626 -0.5852
  448TMC3    C2 6724   2.157   4.339  16.910 -0.0250  0.2094 -1.0980
  448TMC3    C3 6725   2.189   4.213  16.962 -0.1361 -0.3026 -0.0172
  448TMC3    C4 6726   2.337   4.428  17.039 -0.3736 -0.2628  0.3662
  448TMC3    C5 6727   2.348   4.306  17.103 -0.8205  0.2073 -0.0638
  448TMC3    C6 6728   2.272   4.192  17.070  0.3749  0.2609  0.0871
  448TMC3     C 6729   2.217   4.569  16.869  0.7205  0.4094  0.1546
  448TMC3     O 6730   2.155   4.560  16.764  0.1482  0.1805  0.6411
  448TMC3     H 6731   2.082   4.353  16.833 -2.7165  2.8612  2.0176
  448TMC3    H1 6732   2.411   4.504  17.062 -0.3425 -0.8468  2.1441
  448TMC3    H2 6733   2.310   4.093  17.092 -1.1986 -0.8630 -2.2208
  448TMC3    C7 6734   2.444   4.299  17.213 -0.3430  0.2289  0.5938
  448TMC3    C8 6735   2.162   4.094  16.881 -0.4039 -0.2626 -0.0863
  448TMC3    O1 6736   2.518   4.398  17.232  0.2185  0.2543  0.4742
  448TMC3    O2 6737   2.158   3.992  16.946  0.0094 -0.5034  0.0114
  449MPD2     C 6738   3.883   2.530  13.962 -0.2045 -0.3590 -0.7881
  449MPD2    C1 6739   3.760   2.472  13.929 -0.3998 -0.4548  0.2646
  449MPD2    C2 6740   3.661   2.479  14.024 -0.2635  0.7682  0.1040
  449MPD2    C3 6741   3.691   2.525  14.152  0.3582  0.1737  0.1384
  449MPD2    C4 6742   3.813   2.563  14.189  0.3409 -0.3469  0.1055
  449MPD2    C5 6743   3.906   2.568  14.093  0.6870 -0.2796 -0.2400
  449MPD2     H 6744   3.562   2.443  13.997  1.0282 -1.5971 -1.5038
  449MPD2    H1 6745   3.836   2.598  14.289  1.8135 -0.7823 -0.0822
  449MPD2    H2 6746   3.962   2.547  13.889  0.2676 -0.5814 -0.3271
  449MPD2    H3 6747   4.004   2.607  14.118 -0.2908  1.9309  0.1229
  449MPD2     N 6748   3.576   2.547  14.235 -0.4241  0.5976  0.1804
  449MPD2    H5 6749   3.486   2.517  14.200  0.2103 -0.3656 -0.6459
  449MPD2    N1 6750   3.726   2.427  13.802  0.1010  0.3492  0.4527
  449MPD2    H7 6751   3.632   2.398  13.775  0.0440  1.6886 -0.7682
  450TMC3    C1 6752   3.739   2.342  13.594 -0.2088  0.0989  0.1312
  450TMC3    C2 6753   3.793   2.217  13.580 -0.8281  0.8942 -0.6134
  450TMC3    C3 6754   3.714   2.107  13.592  1.0939  0.4644  0.2044
  450TMC3    C4 6755   3.603   2.345  13.592 -0.5803  0.2518 -0.5280
  450TMC3    C5 6756   3.521   2.234  13.604  0.3386 -0.2813 -0.6363
  450TMC3    C6 6757   3.575   2.110  13.605 -0.0289 -0.7160  0.7153
  450TMC3     C 6758   3.815   2.406  13.697 -0.0524 -0.1264 -0.2417
  450TMC3     O 6759   3.932   2.436  13.688 -0.5676 -0.1706 -0.5534
  450TMC3     H 6760   3.901   2.210  13.582 -0.9441 -0.4422  0.9501
  450TMC3    H1 6761   3.565   2.447  13.591 -0.6126  0.2256 -1.5218
  450TMC3    H2 6762   3.518   2.018  13.609 -1.5834  0.1928 -0.3924
  450TMC3    C7 6763   3.433   2.262  13.717 -0.6591  0.2584  0.0016
  450TMC3    C8 6764   3.770   1.972  13.565  0.2670  0.8843  0.2126
  450TMC3    O1 6765   3.458   2.368  13.775  0.0845  0.7498 -0.0018
  450TMC3    O2 6766   3.686   1.884  13.547 -0.5608 -0.0128  0.0784
  451MPD2     C 6767   0.712   1.484   1.602  0.7805  0.5204 -0.1919
  451MPD2    C1 6768   0.720   1.483   1.463 -1.2885  0.4107 -0.1841
  451MPD2    C2 6769   0.824   1.412   1.408  0.0838  0.5316 -0.1034
  451MPD2    C3 6770   0.912   1.333   1.483 -0.2324 -0.2678 -0.6551
  451MPD2    C4 6771   0.905   1.342   1.624  0.3842 -0.2390 -0.2592
  451MPD2    C5 6772   0.806   1.417   1.681  0.5200  0.5014  0.0465
  451MPD2     H 6773   0.829   1.428   1.301  1.9381 -1.1418 -0.2659
  451MPD2    H1 6774   0.968   1.277   1.684 -2.2407 -2.2759  0.2764
  451MPD2    H2 6775   0.633   1.541   1.650  0.8458 -1.0020  1.7318
  451MPD2    H3 6776   0.803   1.413   1.789  1.6735 -0.0886  0.0516
  451MPD2     N 6777   1.011   1.256   1.424 -0.4340  0.1802 -0.0011
  451MPD2    H5 6778   1.069   1.212   1.495  1.8632  1.3031 -1.1797
  451MPD2    N1 6779   0.636   1.565   1.390 -0.6775 -0.0292  0.2383
  451MPD2    H7 6780   0.572   1.627   1.438 -1.0826  1.6307 -2.4483
  452TMC3    C1 6781   1.183   1.202   1.254  0.3245 -0.4495  0.5213
  452TMC3    C2 6782   1.272   1.158   1.354 -0.1685  0.2965  0.1651
  452TMC3    C3 6783   1.397   1.115   1.311  0.5347 -0.0476 -0.6966
  452TMC3    C4 6784   1.222   1.218   1.126  0.6030  0.2117 -0.1161
  452TMC3    C5 6785   1.348   1.188   1.091 -0.6241  0.0366  0.0957
  452TMC3    C6 6786   1.440   1.142   1.187  0.1977 -0.0389 -0.6110
  452TMC3     C 6787   1.049   1.254   1.289  0.6339  0.5650 -0.7462
  452TMC3     O 6788   1.002   1.323   1.200  0.0174 -0.1373  0.2500
  452TMC3     H 6789   1.244   1.159   1.459 -1.7223  0.2487 -0.2424
  452TMC3    H1 6790   1.151   1.232   1.045 -0.1560 -1.0606  0.3379
  452TMC3    H2 6791   1.543   1.115   1.166 -0.6563 -1.1602 -3.3321
  452TMC3    C7 6792   1.387   1.203   0.958  0.1213  0.2497 -0.6229
  452TMC3    C8 6793   1.500   1.061   1.402 -0.6035 -0.2785 -1.1246
  452TMC3    O1 6794   1.297   1.235   0.881 -0.4829 -0.0182 -0.7778
  452TMC3    O2 6795   1.617   1.085   1.380  0.1306 -0.2232  0.1599
  453TMC3    C1 6796   1.376   2.911  12.035  0.1781  0.1292  0.2886
  453TMC3    C2 6797   1.341   2.795  12.096 -0.3860 -0.4879  0.6744
  453TMC3    C3 6798   1.329   2.673  12.026  0.5707  0.5507 -0.2494
  453TMC3    C4 6799   1.396   2.907  11.899 -0.1096 -0.2957 -0.2465
  453TMC3    C5 6800   1.396   2.784  11.833  0.0862  0.2097  0.4675
  453TMC3    C6 6801   1.366   2.667  11.896 -0.3779  0.5732 -0.5494
  453TMC3     C 6802   1.493   2.975  12.099  0.8851  0.9481  0.1283
  453TMC3     O 6803   1.531   3.082  12.057 -0.5926  0.4950 -0.2694
  453TMC3     H 6804   1.316   2.795  12.202 -1.9102  1.6643  0.3208
  453TMC3    H1 6805   1.428   2.994  11.844  0.2133  1.4339  2.6696
  453TMC3    H2 6806   1.389   2.573  11.846 -1.0418 -1.2022  2.4492
  453TMC3    C7 6807   1.463   2.789  11.706  0.2459  0.0566  0.0834
  453TMC3    C8 6808   1.233   2.575  12.073 -0.4898 -0.0662  0.2411
  453TMC3    O1 6809   1.421   2.869  11.626  0.2652  0.2340 -0.1569
  453TMC3    O2 6810   1.164   2.587  12.175 -0.5200 -0.4299 -0.3555
  454MPD2     C 6811   0.490   3.056  15.905 -0.0060  0.4203 -0.7129
  454MPD2    C1 6812   0.399   2.968  15.957  0.3211 -0.5139 -0.1775
  454MPD2    C2 6813   0.367   2.971  16.092  0.9607  0.1907 -0.0964
  454MPD2    C3 6814   0.411   3.073  16.174 -0.7832 -0.6029  0.2281
  454MPD2    C4 6815   0.500   3.165  16.119 -0.3155 -0.1819  0.3417
  454MPD2    C5 6816   0.538   3.151  15.988 -0.7133 -0.3702 -0.3301
  454MPD2     H 6817   0.296   2.895  16.123  1.3097 -0.2264 -0.3052
  454MPD2    H1 6818   0.529   3.257  16.169  1.7060 -0.7028  0.1571
  454MPD2    H2 6819   0.530   3.061  15.804 -1.5544 -2.8919 -1.4666
  454MPD2    H3 6820   0.602   3.229  15.949  1.6267 -1.6765  0.8752
  454MPD2     N 6821   0.349   3.104  16.302 -0.1223  0.7230  0.1463
  454MPD2    H5 6822   0.354   3.201  16.332 -2.0098 -0.0312  2.9185
  454MPD2    N1 6823   0.330   2.881  15.872  0.1543 -0.8118  0.2066
  454MPD2    H7 6824   0.257   2.829  15.920  0.9239 -0.3941  1.8233
  455TMC3    C1 6825   0.161   3.084  16.418 -0.0717 -0.8075  0.7184
  455TMC3    C2 6826   0.129   3.212  16.375 -0.9159 -0.3138 -0.4359
  455TMC3    C3 6827   4.736   3.233  16.350 -0.1447  0.7169 -0.6555
  455TMC3    C4 6828   0.073   2.993  16.455  0.3132  0.1058 -0.2297
  455TMC3    C5 6829   4.675   3.013  16.423  0.3658  0.2709 -0.3787
  455TMC3    C6 6830   4.642   3.142  16.384  0.5906  0.3560 -0.7978
  455TMC3     C 6831   0.275   3.011  16.364 -0.1526 -0.2717 -0.0277
  455TMC3     O 6832   0.274   2.889  16.354  0.5845 -0.3320 -0.6916
  455TMC3     H 6833   0.203   3.285  16.345 -0.9232 -0.0882  0.1055
  455TMC3    H1 6834   0.114   2.899  16.492 -2.0294 -1.4692 -1.6467
  455TMC3    H2 6835   4.540   3.173  16.363  0.6026  0.6951 -0.3509
  455TMC3    C7 6836   4.622   2.911  16.331  0.4120  0.0292  0.0024
  455TMC3    C8 6837   4.715   3.374  16.383  0.3502 -0.7237 -0.4799
  455TMC3    O1 6838   4.515   2.931  16.276  0.0342  0.0420 -0.4570
  455TMC3    O2 6839   4.632   3.393  16.474  0.6067 -0.0002  0.1496
  456MPD2     C 6840   2.565   2.949  16.018  0.3674  0.1451  0.2061
  456MPD2    C1 6841   2.646   2.936  16.131 -0.1717 -0.3814 -0.5681
  456MPD2    C2 6842   2.605   3.004  16.246  0.2235 -0.0992 -0.7655
  456MPD2    C3 6843   2.492   3.084  16.251  0.2522  0.3835 -0.1712
  456MPD2    C4 6844   2.405   3.078  16.143 -0.1807  0.5413 -0.1272
  456MPD2    C5 6845   2.441   3.004  16.030 -0.0042 -0.3322  0.0117
  456MPD2     H 6846   2.674   3.009  16.329  0.6558  2.3655 -1.2831
  456MPD2    H1 6847   2.312   3.134  16.136 -0.3441  0.3948  0.9205
  456MPD2    H2 6848   2.581   2.898  15.924 -0.5979  0.4381 -0.1135
  456MPD2    H3 6849   2.369   2.993  15.950 -0.7427 -2.7587  0.9842
  456MPD2     N 6850   2.463   3.159  16.367 -0.3530 -0.2746 -0.1923
  456MPD2    H5 6851   2.529   3.131  16.439  1.4564  1.5217 -1.1269
  456MPD2    N1 6852   2.776   2.881  16.117  0.5336 -0.0133  0.1328
  456MPD2    H7 6853   2.797   2.844  16.025  0.9186 -0.2759  0.3273
  457TMC3    C1 6854   2.340   3.303  16.519 -0.2497  0.2047  0.0515
  457TMC3    C2 6855   2.259   3.409  16.532  0.6071 -0.2135  0.4293
  457TMC3    C3 6856   2.222   3.449  16.661  0.5642  0.3122 -0.3528
  457TMC3    C4 6857   2.380   3.229  16.624  0.1215  0.8168  0.5047
  457TMC3    C5 6858   2.332   3.266  16.751  1.2311  0.1856  0.1451
  457TMC3    C6 6859   2.248   3.371  16.776  0.0209  0.0700  0.9997
  457TMC3     C 6860   2.358   3.252  16.388 -0.1779 -1.2185  0.3316
  457TMC3     O 6861   2.284   3.295  16.303  0.3050 -0.6021 -0.2303
  457TMC3     H 6862   2.230   3.461  16.442  2.0633 -0.4017 -0.1495
  457TMC3    H1 6863   2.443   3.142  16.609  0.4179  1.2040 -0.5198
  457TMC3    H2 6864   2.215   3.408  16.872 -2.6858  0.1255  0.0536
  457TMC3    C7 6865   2.418   3.222  16.857 -0.2017  1.1010  0.0692
  457TMC3    C8 6866   2.187   3.584  16.691  0.9506  0.0367 -0.2424
  457TMC3    O1 6867   2.482   3.119  16.843  0.1018 -0.0572 -0.3334
  457TMC3    O2 6868   2.211   3.622  16.806 -0.3837 -0.1694  0.6711
  458MPD2     C 6869   0.203   2.131  12.830  0.1780  0.4032 -0.4319
  458MPD2    C1 6870   0.213   1.998  12.863 -0.2261  0.5232  0.4154
  458MPD2    C2 6871   0.115   1.931  12.929 -1.0870  0.7095  0.0357
  458MPD2    C3 6872   4.735   1.997  12.956  0.7779 -0.3519 -0.5241
  458MPD2    C4 6873   4.724   2.127  12.924  0.2054  0.4837  0.9582
  458MPD2    C5 6874   0.091   2.198  12.870 -0.4804 -0.1388  0.4777
  458MPD2     H 6875   0.124   1.829  12.964  1.4887  0.9877  0.1698
  458MPD2    H1 6876   4.640   2.187  12.956  0.0367  0.3273  0.8030
  458MPD2    H2 6877   0.287   2.185  12.787  1.1436 -1.0939 -0.3911
  458MPD2    H3 6878   0.092   2.307  12.873 -3.3515 -0.0931  0.3500
  458MPD2     N 6879   4.627   1.922  13.012  0.2379 -0.0430  0.3272
  458MPD2    H5 6880   4.669   1.830  13.025  1.5058  0.6438  1.0544
  458MPD2    N1 6881   0.341   1.937  12.818  0.4555 -0.1508 -0.4641
  458MPD2    H7 6882   0.410   2.002  12.783  1.6157 -0.7963  0.6233
  459TMC3    C1 6883   0.507   1.774  12.814 -0.2499 -0.7338 -0.1265
  459TMC3    C2 6884   0.589   1.870  12.760  0.5464  0.7087  0.3458
  459TMC3    C3 6885   0.724   1.847  12.765  0.0207 -0.1163 -0.3139
  459TMC3    C4 6886   0.554   1.663  12.872 -0.2656  0.3627  0.1564
  459TMC3    C5 6887   0.691   1.649  12.882  0.4115  0.6271  0.2727
  459TMC3    C6 6888   0.776   1.739  12.822 -0.9072 -0.7055 -0.1961
  459TMC3     C 6889   0.371   1.803  12.843  0.1110 -0.3500 -0.7413
  459TMC3     O 6890   0.304   1.707  12.889  0.6308  0.2552  0.0863
  459TMC3     H 6891   0.549   1.948  12.697 -1.3169  2.7936  4.1027
  459TMC3    H1 6892   0.493   1.601  12.936 -0.5342  0.4034 -0.0591
  459TMC3    H2 6893   0.884   1.728  12.821 -0.8849 -0.4937 -0.1409
  459TMC3    C7 6894   0.726   1.567  12.988 -0.0675 -0.0557  0.1519
  459TMC3    C8 6895   0.814   1.927  12.687 -0.9836  1.1444  0.0155
  459TMC3    O1 6896   0.682   1.456  12.986  0.1040  0.0528  0.2363
  459TMC3    O2 6897   0.900   1.864  12.627 -0.1626  0.1707 -0.6979
  460MPD2     C 6898   0.427   4.363  11.131 -1.2579  0.3725 -0.3990
  460MPD2    C1 6899   0.300   4.368  11.184 -0.8755  0.2646 -0.0375
  460MPD2    C2 6900   0.203   4.439  11.116  0.0147 -0.5587 -0.3552
  460MPD2    C3 6901   0.236   4.512  11.003  0.6614  0.3757 -0.0544
  460MPD2    C4 6902   0.371   4.509  10.956  0.6852  0.2614  0.2967
  460MPD2    C5 6903   0.463   4.432  11.021 -0.9021  0.6440  0.7171
  460MPD2     H 6904   0.100   4.442  11.150  0.3982  2.6233  0.5239
  460MPD2    H1 6905   0.406   4.560  10.867 -1.0222  1.1549  0.1465
  460MPD2    H2 6906   0.507   4.303  11.174 -0.9972 -0.7555 -2.5033
  460MPD2    H3 6907   0.559   4.415  10.974  0.3787  3.0712  2.4751
  460MPD2     N 6908   0.133   4.577  10.931  0.3633 -0.8534 -0.4294
  460MPD2    H5 6909   0.038   4.573  10.965  0.1335 -0.2305 -1.0054
  460MPD2    N1 6910   0.275   4.293  11.304  0.1385 -0.0783  0.0383
  460MPD2    H7 6911   0.352   4.233  11.333 -1.8696 -2.9577 -0.6041
  461TMC3    C1 6912   0.016   4.641  10.740 -0.7467 -0.4366  0.0636
  461TMC3    C2 6913   4.664   4.530  10.739  0.8768  0.3803 -0.0899
  461TMC3    C3 6914   4.544   4.561  10.675  0.6180  0.4307  0.2257
  461TMC3    C4 6915   4.735   0.021  10.678  0.4346  0.0300  0.7615
  461TMC3    C5 6916   4.610   0.047  10.622  0.4316  0.4345  0.0376
  461TMC3    C6 6917   4.522   4.680  10.617  0.7246  0.1260 -0.1536
  461TMC3     C 6918   0.148   4.621  10.801 -0.3708  0.6631 -0.0154
  461TMC3     O 6919   0.243   4.637  10.725 -0.5825 -0.1631 -0.2047
  461TMC3     H 6920   4.682   4.430  10.777 -1.4935 -0.8873 -2.2635
  461TMC3    H1 6921   0.082   0.087  10.678 -0.5912  1.3709  2.3207
  461TMC3    H2 6922   4.424   4.695  10.575  1.1452 -0.3647 -1.3385
  461TMC3    C7 6923   4.565   0.174  10.576  0.6538 -0.9603 -0.0891
  461TMC3    C8 6924   4.476   4.447  10.617 -0.0024 -0.2121  0.0336
  461TMC3    O1 6925   4.446   0.190  10.558  0.7074  0.2151  0.1209
  461TMC3    O2 6926   4.488   4.349  10.689  0.0193 -0.0131 -0.1179
  462TMC3    C1 6927   4.571   1.428   0.842  0.0386  0.2795  0.1220
  462TMC3    C2 6928   4.706   1.405   0.845 -0.0039  0.2977 -1.0063
  462TMC3    C3 6929   0.012   1.294   0.786  0.0267  0.1499 -0.2332
  462TMC3    C4 6930   4.490   1.338   0.784  0.2963  1.0079 -0.3427
  462TMC3    C5 6931   4.538   1.233   0.709  0.2131 -0.0504  0.1873
  462TMC3    C6 6932   4.673   1.217   0.703 -0.1869 -0.6826  0.2653
  462TMC3     C 6933   4.524   1.566   0.862 -0.2819 -0.4559 -0.3612
  462TMC3     O 6934   4.403   1.577   0.875  0.1573  0.5293 -0.2403
  462TMC3     H 6935   0.037   1.468   0.901 -0.9569  1.7456 -1.4425
  462TMC3    H1 6936   4.382   1.351   0.794 -0.2312 -2.0424 -2.0900
  462TMC3    H2 6937   4.711   1.121   0.667  1.2154 -0.4467  1.1023
  462TMC3    C7 6938   4.460   1.130   0.646 -0.2857 -0.1577 -0.9104
  462TMC3    C8 6939   0.156   1.281   0.796 -0.3535  0.1354  0.2588
  462TMC3    O1 6940   4.519   1.031   0.606 -0.4980 -0.2181  0.8858
  462TMC3    O2 6941   0.210   1.322   0.897 -0.0086 -0.0641  0.1296
  463MPD2     C 6942   1.167   4.576   2.138 -0.1407  0.1519  0.6769
  463MPD2    C1 6943   1.085   4.616   2.036  0.1918 -0.5026 -0.2763
  463MPD2    C2 6944   1.099   0.003   1.984 -0.2648 -0.4575  1.0214
  463MPD2    C3 6945   1.191   0.093   2.037 -0.3325  0.4782 -0.0488
  463MPD2    C4 6946   1.265   0.050   2.145  0.0136 -0.4861 -0.0883
  463MPD2    C5 6947   1.248   4.659   2.200  1.0411  0.6613 -0.7700
  463MPD2     H 6948   1.038   0.032   1.900 -0.0087 -2.7077  0.0576
  463MPD2    H1 6949   1.327   0.124   2.195  1.1880  0.4830 -2.9671
  463MPD2    H2 6950   1.150   4.484   2.194  0.3457 -1.2063 -1.4178
  463MPD2    H3 6951   1.312   4.632   2.283 -2.8605 -2.2716  1.3015
  463MPD2     N 6952   1.198   0.227   2.000  0.1374 -0.2837  0.4254
  463MPD2    H5 6953   1.266   0.287   2.046 -0.4130  0.6815 -0.0419
  463MPD2    N1 6954   0.983   4.531   1.994 -0.3299  0.1950  0.1020
  463MPD2    H7 6955   0.919   4.571   1.926 -2.1370 -0.4484  1.4299
  464TMC3    C1 6956   0.871   4.337   1.936  0.0389 -0.2347  0.2769
  464TMC3    C2 6957   0.753   4.401   1.933  0.3721 -0.4977  0.6666
  464TMC3    C3 6958   0.653   4.351   1.854  0.0747 -0.3827  0.6128
  464TMC3    C4 6959   0.894   4.229   1.853 -0.2916  0.2015  0.0517
  464TMC3    C5 6960   0.797   4.174   1.779  0.1019 -1.1267  0.7178
  464TMC3    C6 6961   0.668   4.233   1.778 -0.5800  0.5045  0.5579
  464TMC3     C 6962   0.980   4.389   2.001 -0.7143  0.1278  0.7908
  464TMC3     O 6963   1.065   4.309   2.033  0.4259  0.0663  0.1392
  464TMC3     H 6964   0.722   4.481   1.999 -2.6237  1.2715 -2.8713
  464TMC3    H1 6965   0.991   4.182   1.865 -0.1465  1.0707  2.2740
  464TMC3    H2 6966   0.584   4.195   1.721 -0.4667  3.2453 -1.3977
  464TMC3    C7 6967   0.818   4.034   1.736 -0.0329  0.2396 -0.1453
  464TMC3    C8 6968   0.544   4.442   1.822  0.2999  0.5125  0.1672
  464TMC3    O1 6969   0.929   3.988   1.743 -0.1129  0.4304  0.4605
  464TMC3    O2 6970   0.570   4.560   1.832 -0.7116 -0.5343  0.1787
  465MPD2     C 6971   1.809   3.667  16.809 -0.4045  0.0241 -0.1731
  465MPD2    C1 6972   1.706   3.586  16.856 -0.1339 -0.1902  0.6554
  465MPD2    C2 6973   1.627   3.526  16.767 -0.1031 -0.0178  0.3822
  465MPD2    C3 6974   1.640   3.546  16.630 -0.4769  0.5409 -0.0556
  465MPD2    C4 6975   1.733   3.637  16.580  0.0183 -0.6391  0.3056
  465MPD2    C5 6976   1.823   3.682  16.676 -0.3050 -0.1039  0.1858
  465MPD2     H 6977   1.548   3.463  16.808  0.0453  0.3707  1.2835
  465MPD2    H1 6978   1.743   3.668  16.476 -2.2999  0.6025  0.4482
  465MPD2    H2 6979   1.876   3.717  16.878 -2.2570 -0.0506  1.6670
  465MPD2    H3 6980   1.900   3.747  16.636 -2.0516  1.9262  0.1396
  465MPD2     N 6981   1.554   3.471  16.545 -0.3027  0.2783 -0.2982
  465MPD2    H5 6982   1.485   3.410  16.589  1.8837 -1.1062  1.1840
  465MPD2    N1 6983   1.696   3.561  16.998  0.1836  1.2143 -0.3044
  465MPD2    H7 6984   1.642   3.479  17.025 -0.0242  1.2252 -0.6844
  466TMC3    C1 6985   1.216   3.387  16.448 -0.2071  0.8070  0.0413
  466TMC3    C2 6986   1.158   3.500  16.392 -0.6049 -0.0428 -0.3321
  466TMC3    C3 6987   1.241   3.566  16.311  0.5516 -0.3640 -0.7492
  466TMC3    C4 6988   1.351   3.353  16.430  0.0114  0.2748 -0.1080
  466TMC3    C5 6989   1.425   3.435  16.350 -0.5349  0.2435 -0.4092
  466TMC3    C6 6990   1.367   3.532  16.271 -0.1059 -0.1494 -0.4157
  466TMC3     C 6991   1.127   3.315  16.535 -0.5142  0.0729  0.0039
  466TMC3     O 6992   1.184   3.228  16.603  0.5823 -0.2712 -0.4082
  466TMC3     H 6993   1.068   3.550  16.425  0.9148  2.5811 -0.1185
  466TMC3    H1 6994   1.402   3.279  16.491  0.1521 -1.2650 -2.1014
  466TMC3    H2 6995   1.420   3.586  16.193 -0.0075  0.8343  0.3217
  466TMC3    C7 6996   1.542   3.486  16.405  0.2459 -0.0011  0.6093
  466TMC3    C8 6997   1.231   3.717  16.306  0.0344  0.0337  0.2966
  466TMC3    O1 6998   1.606   3.561  16.334 -0.0011  0.6741  0.7768
  466TMC3    O2 6999   1.288   3.775  16.217  0.3399 -0.5352 -0.6334
  467TMC3    C1 7000   3.021   1.101  14.013 -0.1308  0.3388  0.0240
  467TMC3    C2 7001   3.028   1.220  13.947 -0.7797 -0.7995  0.0831
  467TMC3    C3 7002   2.929   1.260  13.864  0.1354  0.4570  0.0021
  467TMC3    C4 7003   2.912   1.014  13.986  0.6136  0.3388  0.0003
  467TMC3    C5 7004   2.808   1.061  13.908 -0.2072  0.5664  0.6872
  467TMC3    C6 7005   2.817   1.186  13.844 -0.2457  0.4631  0.0460
  467TMC3     C 7006   3.113   1.081  14.127 -0.9186  0.3735  0.4541
  467TMC3     O 7007   3.093   0.984  14.198 -0.0988 -0.1676  0.2292
  467TMC3     H 7008   3.092   1.299  13.985 -1.9618  0.2694 -0.1433
  467TMC3    H1 7009   2.901   0.924  14.046  1.7358 -0.6707 -1.3385
  467TMC3    H2 7010   2.748   1.224  13.770  0.0310 -3.2943 -2.1499
  467TMC3    C7 7011   2.679   0.990  13.903  0.0430 -0.3180  0.3369
  467TMC3    C8 7012   2.965   1.378  13.788 -0.3432  0.6049 -0.8147
  467TMC3    O1 7013   2.690   0.866  13.917  0.1654  0.0996 -0.5404
  467TMC3    O2 7014   2.892   1.477  13.789 -0.5889 -0.0109 -0.6115
  468MPD2     C 7015   2.016   3.894  10.791  0.3867 -0.0185  0.5782
  468MPD2    C1 7016   2.094   3.870  10.904  0.8269  0.2892  0.2411
  468MPD2    C2 7017   2.054   3.773  10.995 -0.0739 -0.1900 -0.3096
  468MPD2    C3 7018   1.949   3.684  10.968  0.1170  0.7138 -0.1259
  468MPD2    C4 7019   1.874   3.714  10.859 -0.3513  0.5891 -0.5333
  468MPD2    C5 7020   1.905   3.818  10.769 -0.2145 -0.4302 -0.4180
  468MPD2     H 7021   2.113   3.766  11.085 -1.9533 -0.0196  0.9372
  468MPD2    H1 7022   1.778   3.666  10.842  0.2619 -1.5688  2.0162
  468MPD2    H2 7023   2.048   3.955  10.708 -1.2441 -0.1569 -0.1577
  468MPD2    H3 7024   1.832   3.850  10.696 -0.0820 -1.3822 -0.9693
  468MPD2     N 7025   1.925   3.585  11.061  0.2887  1.0453 -0.0065
  468MPD2    H5 7026   1.993   3.570  11.135 -1.6781 -0.0917  1.5887
  468MPD2    N1 7027   2.219   3.942  10.927 -0.1756 -0.2697 -0.2335
  468MPD2    H7 7028   2.274   3.902  11.003 -0.4840 -0.8131 -0.2993
  469TMC3    C1 7029   2.411   4.082  10.880  0.2741  0.7265 -0.4285
  469TMC3    C2 7030   2.475   4.022  10.980  0.2274  0.2051 -0.1877
  469TMC3    C3 7031   2.610   4.033  10.982  0.7933 -0.0212  0.0032
  469TMC3    C4 7032   2.479   4.148  10.781 -0.3002  0.8420 -0.6576
  469TMC3    C5 7033   2.616   4.146  10.774 -0.3883 -0.2217 -0.3586
  469TMC3    C6 7034   2.681   4.091  10.883  0.0620  0.2829 -0.1453
  469TMC3     C 7035   2.270   4.047  10.854  0.3971 -0.1917  0.3718
  469TMC3     O 7036   2.219   4.121  10.775  0.1866 -0.3645  0.3365
  469TMC3     H 7037   2.424   3.978  11.064 -0.3095  1.8796  0.3603
  469TMC3    H1 7038   2.421   4.198  10.704 -3.3758  1.5214  2.1325
  469TMC3    H2 7039   2.787   4.104  10.894  0.2867 -1.3757 -0.3518
  469TMC3    C7 7040   2.688   4.243  10.708 -0.0034 -0.0421  0.2520
  469TMC3    C8 7041   2.687   3.968  11.087 -0.1599 -0.4052 -0.7255
  469TMC3    O1 7042   2.812   4.243  10.726  0.6640 -0.0456  0.5016
  469TMC3    O2 7043   2.804   3.946  11.060 -0.1957 -0.3311 -1.3307
  470TMC3    C1 7044   3.878   0.548   0.759  0.2964  0.2851 -0.6470
  470TMC3    C2 7045   3.966   0.654   0.775  0.0715  0.0064 -0.4370
  470TMC3    C3 7046   3.917   0.742   0.865 -0.3726 -0.9105 -0.5485
  470TMC3    C4 7047   3.756   0.535   0.817  0.1160  0.3865  0.0367
  470TMC3    C5 7048   3.711   0.635   0.897  0.1471  0.2185  0.0402
  470TMC3    C6 7049   3.791   0.740   0.923  0.9536  0.0992 -0.6898
  470TMC3     C 7050   3.937   0.430   0.708 -0.4864 -1.2720 -0.4295
  470TMC3     O 7051   4.059   0.426   0.693 -0.4154  0.1244  0.6923
  470TMC3     H 7052   4.058   0.664   0.718  0.7809 -0.0898  0.6972
  470TMC3    H1 7053   3.684   0.456   0.798 -0.5296  1.2882 -1.2536
  470TMC3    H2 7054   3.741   0.829   0.958  1.1015 -0.1746  0.2359
  470TMC3    C7 7055   3.575   0.646   0.933  0.6518 -0.0798  0.2658
  470TMC3    C8 7056   3.988   0.865   0.887 -0.2057  0.1627 -0.2854
  470TMC3    O1 7057   3.495   0.578   0.870 -0.2010 -0.1366  0.0368
  470TMC3    O2 7058   3.926   0.959   0.939 -0.0978  0.6775  0.0199
  471MPD2     C 7059   4.130   2.643  17.014  0.0596  1.0594 -0.0829
  471MPD2    C1 7060   4.081   2.521  17.056  0.5042 -0.4422  0.3365
  471MPD2    C2 7061   4.113   2.467  17.182 -0.1325 -0.0813 -0.3580
  471MPD2    C3 7062   4.214   2.521  17.251 -0.1326 -0.3250 -0.1842
  471MPD2    C4 7063   4.279   2.632  17.203  0.1498  0.6453 -1.1355
  471MPD2    C5 7064   4.241   2.693  17.082 -0.0429  0.0699 -0.1746
  471MPD2     H 7065   4.064   2.376  17.215  1.3973 -0.9548 -0.5020
  471MPD2    H1 7066   4.360   2.676  17.259 -0.0993  0.5433 -0.6890
  471MPD2    H2 7067   4.098   2.681  16.917 -0.1602  2.9678  0.7406
  471MPD2    H3 7068   4.303   2.771  17.039 -1.2072  1.0021 -0.1749
  471MPD2     N 7069   4.267   2.466  17.366 -0.6232 -0.6411  0.3630
  471MPD2    H5 7070   4.361   2.499  17.383 -0.7686  0.1846 -0.4299
  471MPD2    N1 7071   3.982   2.445  16.977  0.5675  0.2856  0.1113
  471MPD2    H7 7072   3.953   2.354  17.011  0.8483  0.9004  1.9882
  472TMC3    C1 7073   3.886   2.363  16.783 -0.1259 -0.4661 -0.2589
  472TMC3    C2 7074   3.786   2.374  16.686 -0.1691 -0.6152  0.0437
  472TMC3    C3 7075   3.760   2.263  16.604  0.2234  0.0898  0.2945
  472TMC3    C4 7076   3.975   2.255  16.784 -0.3029 -0.1224  0.3108
  472TMC3    C5 7077   3.945   2.146  16.701  0.0680  0.3774  0.5983
  472TMC3    C6 7078   3.834   2.149  16.621  0.1868  0.6053 -0.1243
  472TMC3     C 7079   3.930   2.484  16.860  0.4495 -0.0525 -0.1739
  472TMC3     O 7080   3.915   2.599  16.815 -0.3931  0.1576 -0.1712
  472TMC3     H 7081   3.740   2.468  16.659  0.6813 -0.5711 -1.3174
  472TMC3    H1 7082   4.063   2.255  16.847 -0.0882 -0.9577  0.0143
  472TMC3    H2 7083   3.829   2.063  16.556 -0.0696  0.9106 -0.5025
  472TMC3    C7 7084   3.990   2.010  16.733  0.0379 -0.3004 -0.2753
  472TMC3    C8 7085   3.649   2.260  16.513  0.0181 -0.1503  0.4517
  472TMC3    O1 7086   4.002   1.986  16.851  0.1505 -0.3970  0.0104
  472TMC3    O2 7087   3.596   2.365  16.475  0.3952  0.0962 -0.0005
  473MPD2     C 7088   3.920   3.930  13.979 -0.1420  0.5088  0.2547
  473MPD2    C1 7089   4.047   3.984  13.956  0.5526 -0.1151 -0.4256
  473MPD2    C2 7090   4.114   4.044  14.064  0.0718  1.1861 -0.6936
  473MPD2    C3 7091   4.065   4.059  14.191  0.2298  0.2676  0.5517
  473MPD2    C4 7092   3.940   4.012  14.208 -0.3529 -0.5011 -0.4617
  473MPD2    C5 7093   3.874   3.946  14.108  0.8139 -0.8395  0.5706
  473MPD2     H 7094   4.214   4.083  14.047  1.3521 -1.6124  0.3842
  473MPD2    H1 7095   3.890   4.026  14.303 -1.2817  1.0768 -1.1896
  473MPD2    H2 7096   3.848   3.895  13.905 -0.4515  0.7272  0.4516
  473MPD2    H3 7097   3.774   3.910  14.132  0.5222  0.0719  0.7624
  473MPD2     N 7098   4.122   4.135  14.294 -0.0997 -0.6418  0.1707
  473MPD2    H5 7099   4.071   4.144  14.381 -2.9631 -2.0363 -1.3779
  473MPD2    N1 7100   4.115   3.971  13.832 -0.7245  0.2848 -0.8514
  473MPD2    H7 7101   4.210   4.006  13.829 -0.0402 -1.2729  1.8591
  474TMC3    C1 7102   4.268   4.280  14.406 -0.2127  0.6628 -1.0156
  474TMC3    C2 7103   4.157   4.343  14.449 -0.0750  0.1135  0.1573
  474TMC3    C3 7104   4.175   4.459  14.515 -0.2687  0.1738  0.7436
  474TMC3    C4 7105   4.397   4.316  14.444 -0.3778 -0.2996 -0.0178
  474TMC3    C5 7106   4.406   4.427  14.519 -0.0917  0.1464  0.3414
  474TMC3    C6 7107   4.299   4.508  14.557 -0.0466  0.4120 -0.9590
  474TMC3     C 7108   4.251   4.182  14.296  0.2481 -0.2769  0.0702
  474TMC3     O 7109   4.337   4.177  14.211  0.0712  0.4376  0.1992
  474TMC3     H 7110   4.061   4.328  14.401 -1.3223  2.2981  2.0279
  474TMC3    H1 7111   4.488   4.265  14.414  0.0922  0.2026  0.5639
  474TMC3    H2 7112   4.303   4.595  14.622  1.2501  0.2137 -0.7642
  474TMC3    C7 7113   4.541   4.474  14.560 -0.0340 -0.7432 -0.0239
  474TMC3    C8 7114   4.070   4.558  14.493  0.2409  0.2419  0.2771
  474TMC3    O1 7115   4.638   4.447  14.487 -0.2615 -0.0495  0.4529
  474TMC3    O2 7116   3.957   4.515  14.482  0.5009  0.4454 -0.5210
  475MPD2     C 7117   3.130   2.108  10.442 -0.1462  0.7512  0.6627
  475MPD2    C1 7118   3.124   2.189  10.553  0.1600 -0.1611  0.0454
  475MPD2    C2 7119   3.058   2.146  10.667  0.4860 -0.0835  0.1429
  475MPD2    C3 7120   2.981   2.034  10.667  0.3566 -0.4057  0.5347
  475MPD2    C4 7121   2.973   1.955  10.549 -0.3059  0.5503 -0.2124
  475MPD2    C5 7122   3.054   1.991  10.443  0.1445 -0.2593  0.5188
  475MPD2     H 7123   3.053   2.215  10.750  0.6263  0.3003 -0.1627
  475MPD2    H1 7124   2.919   1.862  10.542 -1.0623  0.9084  1.0182
  475MPD2    H2 7125   3.174   2.141  10.349 -0.1569 -2.7505 -0.5546
  475MPD2    H3 7126   3.072   1.923  10.360 -2.3249  1.9465 -1.8431
  475MPD2     N 7127   2.887   2.025  10.776 -0.2815 -0.2443  0.1590
  475MPD2    H5 7128   2.872   2.106  10.835  1.2695 -0.1165  0.3798
  475MPD2    N1 7129   3.183   2.318  10.560 -0.2025  0.1915 -0.0604
  475MPD2    H7 7130   3.178   2.364  10.650  2.2537 -1.3479  0.8456
  476TMC3    C1 7131   3.218   2.524  10.495 -0.2704  0.5165  0.4898
  476TMC3    C2 7132   3.119   2.609  10.449 -0.2458 -0.0643  0.0615
  476TMC3    C3 7133   3.039   2.682  10.531 -0.7664  0.2880 -0.3035
  476TMC3    C4 7134   3.240   2.527  10.629  0.2114  0.3911  0.0311
  476TMC3    C5 7135   3.172   2.617  10.707 -0.1003  0.1262 -0.0433
  476TMC3    C6 7136   3.078   2.698  10.659 -0.6339 -1.0265 -0.6278
  476TMC3     C 7137   3.213   2.387  10.449 -0.2643 -0.5225  0.1843
  476TMC3     O 7138   3.176   2.364  10.333  0.5475 -0.2821  0.2476
  476TMC3     H 7139   3.102   2.621  10.342  0.9741  0.3929 -0.0850
  476TMC3    H1 7140   3.327   2.474  10.667  0.4490  0.7817  0.0370
  476TMC3    H2 7141   3.011   2.749  10.728  0.7089 -0.4129  0.2179
  476TMC3    C7 7142   3.130   2.548  10.822 -0.0713  0.0699  0.5136
  476TMC3    C8 7143   2.895   2.659  10.521  0.0371 -0.1204 -0.8096
  476TMC3    O1 7144   3.147   2.427  10.811 -0.4583  0.5087  0.0701
  476TMC3    O2 7145   2.824   2.732  10.585  0.5979  0.2056  0.1313
  477MPD2     C 7146   0.595   3.520  12.166 -0.5203 -0.1947 -0.3154
  477MPD2    C1 7147   0.556   3.403  12.106  0.8991 -0.4660 -0.4822
  477MPD2    C2 7148   0.573   3.289  12.180  0.2126  0.7641  0.3672
  477MPD2    C3 7149   0.612   3.283  12.316  0.3854 -0.4921  0.6438
  477MPD2    C4 7150   0.639   3.406  12.374  0.0384 -0.2247 -0.0595
  477MPD2    C5 7151   0.643   3.519  12.299  0.3768 -0.0434 -0.9152
  477MPD2     H 7152   0.549   3.197  12.129  1.4670  0.8646 -0.4136
  477MPD2    H1 7153   0.644   3.422  12.481  3.6114 -0.3220 -0.1945
  477MPD2    H2 7154   0.595   3.620  12.123  0.4771 -0.3167 -0.6089
  477MPD2    H3 7155   0.658   3.616  12.345  1.0497  0.4662 -2.2076
  477MPD2     N 7156   0.610   3.158  12.387  0.1450 -0.1957  0.6215
  477MPD2    H5 7157   0.586   3.077  12.331  0.8813 -0.0131  0.0364
  477MPD2    N1 7158   0.500   3.417  11.981 -0.5605 -0.1918  0.1234
  477MPD2    H7 7159   0.506   3.510  11.942  2.2905 -0.0668  0.8897
  478TMC3    C1 7160   0.384   3.356  11.794 -0.1801 -0.5862 -0.3398
  478TMC3    C2 7161   0.247   3.344  11.784 -0.9250 -0.2089  0.5426
  478TMC3    C3 7162   0.176   3.422  11.700 -0.4425  0.6199 -0.5497
  478TMC3    C4 7163   0.453   3.433  11.705  0.0776 -0.3824  0.1129
  478TMC3    C5 7164   0.375   3.480  11.600 -0.0411 -0.5491  0.5322
  478TMC3    C6 7165   0.239   3.491  11.600 -0.2196  0.6023  0.0794
  478TMC3     C 7166   0.438   3.319  11.916  0.7557  0.0330 -0.4221
  478TMC3     O 7167   0.379   3.224  11.968  0.2133  0.0093 -0.3563
  478TMC3     H 7168   0.189   3.275  11.843  1.4784 -0.9783  2.0080
  478TMC3    H1 7169   0.561   3.436  11.713 -0.0600 -1.5868  2.5108
  478TMC3    H2 7170   0.176   3.543  11.529 -0.4866  0.6525  0.3553
  478TMC3    C7 7171   0.448   3.536  11.487  0.4079  0.5248 -0.3314
  478TMC3    C8 7172   0.030   3.409  11.706 -0.3468 -0.2661  0.2653
  478TMC3    O1 7173   0.557   3.485  11.471 -0.1134  0.6843 -0.5061
  478TMC3    O2 7174   4.725   3.295  11.723 -1.0310  0.1276 -0.2689
  479MPD2     C 7175   3.939   1.929  15.489 -0.6232 -0.3313 -0.2991
  479MPD2    C1 7176   3.878   1.835  15.571 -0.3610 -0.2807  0.5234
  479MPD2    C2 7177   3.846   1.874  15.698 -0.5262 -0.2579 -0.5738
  479MPD2    C3 7178   3.859   2.003  15.734 -0.0118  0.7250  0.3633
  479MPD2    C4 7179   3.904   2.098  15.652  0.8520 -0.1503  0.8042
  479MPD2    C5 7180   3.956   2.060  15.529  0.2376  0.4141 -0.5941
  479MPD2     H 7181   3.824   1.799  15.773  1.3351 -1.0150 -0.7829
  479MPD2    H1 7182   3.904   2.202  15.684  0.8152 -0.0072  0.3281
  479MPD2    H2 7183   3.972   1.898  15.390 -0.0835  1.6983 -0.7528
  479MPD2    H3 7184   3.997   2.136  15.463 -0.2822  0.1750 -1.1983
  479MPD2     N 7185   3.804   2.054  15.856  0.0920  0.2594 -0.5488
  479MPD2    H5 7186   3.829   2.152  15.869  1.6405  0.1685 -2.7343
  479MPD2    N1 7187   3.853   1.705  15.519  0.1872  0.0928 -0.7395
  479MPD2    H7 7188   3.881   1.683  15.424  1.6344 -1.9925  0.1851
  480TMC3    C1 7189   3.527   1.691  16.008  0.2106  0.1334 -0.3639
  480TMC3    C2 7190   3.453   1.683  15.896  0.1613 -0.1047 -0.2875
  480TMC3    C3 7191   3.494   1.765  15.790 -0.0908 -0.2355 -0.1476
  480TMC3    C4 7192   3.625   1.792  16.034  0.0879 -0.2897  0.4075
  480TMC3    C5 7193   3.649   1.873  15.927 -0.3215 -0.4942  0.0545
  480TMC3    C6 7194   3.584   1.866  15.806  0.2126  0.2289  0.0525
  480TMC3     C 7195   3.512   1.590  16.112  0.5224  0.1557 -0.3985
  480TMC3     O 7196   3.617   1.558  16.169  0.2860  0.3874  0.3000
  480TMC3     H 7197   3.383   1.602  15.878 -0.2124 -0.3298  2.2466
  480TMC3    H1 7198   3.687   1.792  16.123 -0.2170 -0.7394  0.6222
  480TMC3    H2 7199   3.601   1.943  15.733  0.0399 -0.6585 -0.9216
  480TMC3    C7 7200   3.740   1.984  15.957 -0.4283  0.2666  0.0027
  480TMC3    C8 7201   3.420   1.753  15.662 -0.1794 -0.2209  0.2765
  480TMC3    O1 7202   3.725   2.030  16.071 -0.0170  0.7269 -0.4497
  480TMC3    O2 7203   3.326   1.675  15.661  0.4467 -0.5055 -0.2024
  481MPD2     C 7204   0.992   0.679  14.000 -0.5638 -0.0897 -0.1410
  481MPD2    C1 7205   0.869   0.710  14.047  0.0052  0.3464  0.5224
  481MPD2    C2 7206   0.838   0.675  14.180 -0.1894  0.6194  0.1882
  481MPD2    C3 7207   0.933   0.631  14.271  0.3075 -0.3848 -0.1262
  481MPD2    C4 7208   1.068   0.634  14.227 -0.4737 -0.4515  0.0979
  481MPD2    C5 7209   1.087   0.650  14.091 -0.1427  0.0673 -0.1238
  481MPD2     H 7210   0.734   0.681  14.209 -0.1636  2.2776 -0.0047
  481MPD2    H1 7211   1.154   0.603  14.287  0.5719 -3.5380 -2.9881
  481MPD2    H2 7212   1.020   0.689  13.896  1.1679 -0.5743  0.2853
  481MPD2    H3 7213   1.188   0.649  14.050  0.0417 -1.4249  0.3724
  481MPD2     N 7214   0.906   0.616  14.411  0.3611 -0.4598  0.1860
  481MPD2    H5 7215   0.982   0.597  14.476 -0.5551  1.0402  1.6868
  481MPD2    N1 7216   0.772   0.768  13.952 -0.0162  0.1878  0.0798
  481MPD2    H7 7217   0.786   0.763  13.852 -0.6016 -0.1277  0.0176
  482TMC3    C1 7218   0.556   0.822  13.885 -0.6523  0.6699  0.0521
  482TMC3    C2 7219   0.445   0.754  13.901  0.3058 -0.8737  0.1893
  482TMC3    C3 7220   0.353   0.756  13.802 -0.5947 -0.6455  0.2936
  482TMC3    C4 7221   0.586   0.904  13.775 -0.1710 -0.2297  0.5079
  482TMC3    C5 7222   0.487   0.916  13.682  0.4004  0.6845 -0.3080
  482TMC3    C6 7223   0.367   0.843  13.695  0.1635 -0.1504 -0.4853
  482TMC3     C 7224   0.647   0.806  13.992 -0.6182  0.2039  0.4105
  482TMC3     O 7225   0.593   0.788  14.101 -0.0953 -0.3236 -0.1157
  482TMC3     H 7226   0.439   0.678  13.978  0.3251  0.4872  1.5394
  482TMC3    H1 7227   0.679   0.961  13.768  0.1875 -0.7079  1.4205
  482TMC3    H2 7228   0.282   0.839  13.627 -0.8071 -0.9211  0.7803
  482TMC3    C7 7229   0.509   1.018  13.582  0.0449 -0.7659  0.2687
  482TMC3    C8 7230   0.292   0.627  13.781  0.1646 -0.1233 -1.2169
  482TMC3    O1 7231   0.616   1.072  13.584 -0.0461 -0.2201 -0.4498
  482TMC3    O2 7232   0.356   0.537  13.831 -0.0626  0.3348  0.6309
  483TMC3    C1 7233   3.801   0.096   1.070 -0.2172 -0.4931  0.0141
  483TMC3    C2 7234   3.885   0.205   1.099 -0.2449 -1.0158  0.5624
  483TMC3    C3 7235   4.011   0.178   1.151 -0.0048 -0.4856  0.2181
  483TMC3    C4 7236   3.834   4.704   1.100  0.0908  0.6544 -0.7555
  483TMC3    C5 7237   3.950   4.690   1.169  0.4157  0.7720  0.9967
  483TMC3    C6 7238   4.039   0.052   1.197 -0.0616 -0.2676  0.0111
  483TMC3     C 7239   3.697   0.121   0.966  0.2885  0.4156 -0.7077
  483TMC3     O 7240   3.654   0.237   0.950  0.1077  0.1314  0.4132
  483TMC3     H 7241   3.859   0.295   1.044  1.3692 -0.3170  0.9466
  483TMC3    H1 7242   3.766   4.624   1.073  0.2644  0.2837 -0.0923
  483TMC3    H2 7243   4.132   0.030   1.248  0.0254  0.1232  0.0200
  483TMC3    C7 7244   3.996   4.554   1.213  0.2537 -0.5457  0.1303
  483TMC3    C8 7245   4.121   0.251   1.078 -0.5736  0.2913 -0.0062
  483TMC3    O1 7246   4.100   4.546   1.280  0.0425  0.1791 -0.1585
  483TMC3    O2 7247   4.081   0.344   1.015 -0.4767 -0.1308  0.3977
  484MPD2     C 7248   0.768   2.278  12.598  0.5425  0.0722 -0.5815
  484MPD2    C1 7249   0.837   2.155  12.609  0.9583 -0.5134 -0.6521
  484MPD2    C2 7250   0.963   2.150  12.555 -0.3244  0.0101  0.3022
  484MPD2    C3 7251   1.022   2.255  12.478 -0.6405 -0.6015 -0.5795
  484MPD2    C4 7252   0.946   2.371  12.467 -0.0246 -0.2528 -0.2273
  484MPD2    C5 7253   0.822   2.385  12.530  0.6163  0.5884 -0.1439
  484MPD2     H 7254   1.022   2.059  12.566  1.0816  0.8061 -0.5862
  484MPD2    H1 7255   0.967   2.456  12.404 -1.8304  0.6669  0.3825
  484MPD2    H2 7256   0.671   2.295  12.643  1.2225 -1.4933  1.4830
  484MPD2    H3 7257   0.769   2.478  12.518  2.0275  1.0269 -2.8475
  484MPD2     N 7258   1.146   2.255  12.409  0.4398 -0.1432  0.4654
  484MPD2    H5 7259   1.182   2.338  12.364 -1.5633  1.8730  2.5280
  484MPD2    N1 7260   0.772   2.054  12.682 -0.9199  0.3341  0.2509
  484MPD2    H7 7261   0.698   2.087  12.743 -1.4788 -0.1165 -0.1847
  485TMC3    C1 7262   1.371   2.200  12.362  0.3172  0.8571 -0.7118
  485TMC3    C2 7263   1.435   2.097  12.292 -0.6612  0.2007 -0.2813
  485TMC3    C3 7264   1.519   2.129  12.190 -0.5717  0.4108 -0.0956
  485TMC3    C4 7265   1.394   2.334  12.342 -0.0432 -0.0453 -0.1183
  485TMC3    C5 7266   1.496   2.360  12.248 -0.8318 -0.3663  0.0144
  485TMC3    C6 7267   1.546   2.261  12.162  0.1244  0.1984 -0.2921
  485TMC3     C 7268   1.246   2.164  12.427  0.2815  0.6252 -0.2072
  485TMC3     O 7269   1.255   2.061  12.497 -0.1916 -0.2067  0.6245
  485TMC3     H 7270   1.428   1.995  12.326  0.2587  0.0793 -0.4477
  485TMC3    H1 7271   1.356   2.410  12.409  0.5835  0.4252 -0.2941
  485TMC3    H2 7272   1.604   2.293  12.076 -0.9303  0.6692 -0.8284
  485TMC3    C7 7273   1.588   2.462  12.282 -0.0234  0.5690 -0.3290
  485TMC3    C8 7274   1.644   2.065  12.186  0.2714  0.1535 -0.1493
  485TMC3    O1 7275   1.553   2.573  12.315  0.0473 -0.0133 -0.6561
  485TMC3    O2 7276   1.735   2.146  12.213  0.3405 -0.0489  0.1147
  486MPD2     C 7277   3.031   0.877  13.150  0.1751  0.1023 -0.7609
  486MPD2    C1 7278   3.037   0.848  13.014 -0.5071 -0.0307  0.1617
  486MPD2    C2 7279   2.967   0.923  12.923  0.0226 -0.2098 -0.3934
  486MPD2    C3 7280   2.904   1.036  12.961  0.3938 -0.0500 -0.1586
  486MPD2    C4 7281   2.889   1.066  13.101  0.3290 -0.4361  0.2120
  486MPD2    C5 7282   2.952   0.981  13.191  0.3840 -0.1683  0.0486
  486MPD2     H 7283   2.986   0.903  12.818 -1.4027  2.4215 -1.1588
  486MPD2    H1 7284   2.830   1.149  13.138  0.4741 -0.2174 -0.0497
  486MPD2    H2 7285   3.098   0.831  13.221 -1.8653 -1.2445  0.2869
  486MPD2    H3 7286   2.955   1.007  13.296  0.5334 -1.2206  0.3093
  486MPD2     N 7287   2.853   1.114  12.857 -0.9113 -0.3721 -0.4481
  486MPD2    H5 7288   2.875   1.081  12.764  2.0730  2.1974 -0.6335
  486MPD2    N1 7289   3.112   0.739  12.982  0.0348 -0.1696  0.6367
  486MPD2    H7 7290   3.168   0.707  13.061  0.7319 -0.3697  0.0621
  487TMC3    C1 7291   3.219   0.570  12.862 -0.1573  0.0188  0.4915
  487TMC3    C2 7292   3.195   0.467  12.783 -0.0538  0.3877 -0.1903
  487TMC3    C3 7293   3.268   0.355  12.813  0.1458 -0.4053 -0.8074
  487TMC3    C4 7294   3.311   0.569  12.966 -0.2624 -0.3554  0.7235
  487TMC3    C5 7295   3.360   0.450  13.007 -0.1487 -0.5096  0.5216
  487TMC3    C6 7296   3.346   0.339  12.926  0.3916 -0.1884 -0.2466
  487TMC3     C 7297   3.125   0.680  12.860  0.1107  0.1653  0.1346
  487TMC3     O 7298   3.046   0.681  12.768 -0.1309  0.4175 -0.0856
  487TMC3     H 7299   3.107   0.466  12.719 -1.5071  1.4361  1.8083
  487TMC3    H1 7300   3.332   0.659  13.022 -2.9681  0.1625  0.9283
  487TMC3    H2 7301   3.371   0.236  12.948 -1.7299 -0.1054  2.4342
  487TMC3    C7 7302   3.356   0.442  13.154 -0.4289 -0.2639 -0.3989
  487TMC3    C8 7303   3.199   0.233  12.804  0.1311  0.1537  1.0287
  487TMC3    O1 7304   3.290   0.535  13.206  0.3661 -0.3534  0.1737
  487TMC3    O2 7305   3.267   0.138  12.761  0.4306  0.2796  0.2549
  488MPD2     C 7306   3.464   3.272  16.633  0.4871 -0.3703  0.2573
  488MPD2    C1 7307   3.505   3.405  16.622  0.1476 -0.9673 -0.3228
  488MPD2    C2 7308   3.485   3.493  16.736  0.0825 -0.1245 -0.5123
  488MPD2    C3 7309   3.434   3.449  16.850  0.2437  0.5884 -0.3518
  488MPD2    C4 7310   3.393   3.317  16.861 -0.6193  0.0637 -0.0981
  488MPD2    C5 7311   3.407   3.232  16.753 -0.2994 -0.0757 -0.2480
  488MPD2     H 7312   3.510   3.598  16.727 -2.1727  0.5094  0.4333
  488MPD2    H1 7313   3.343   3.282  16.950 -1.0865  0.1100 -0.3443
  488MPD2    H2 7314   3.468   3.203  16.550 -1.4381 -1.2296  0.8814
  488MPD2    H3 7315   3.368   3.132  16.761  0.7212 -0.4015  0.6497
  488MPD2     N 7316   3.433   3.553  16.947  0.0659 -0.5034 -0.1968
  488MPD2    H5 7317   3.465   3.646  16.924 -0.5112 -0.0924  0.6412
  488MPD2    N1 7318   3.557   3.463  16.507  0.1532 -0.1100  0.6522
  488MPD2    H7 7319   3.580   3.561  16.523  0.0130 -0.2851  1.9326
  489TMC3    C1 7320   3.374   3.681  17.137  0.9343 -0.2920 -0.3940
  489TMC3    C2 7321   3.428   3.790  17.071  0.0084 -0.1739  0.1022
  489TMC3    C3 7322   3.421   3.911  17.128 -0.3069 -0.1180  1.1715
  489TMC3    C4 7323   3.295   3.702  17.250  0.4671  0.4187  0.2490
  489TMC3    C5 7324   3.289   3.825  17.301 -0.2527  0.4203  0.3205
  489TMC3    C6 7325   3.352   3.936  17.250 -0.9568  0.3819 -0.7722
  489TMC3     C 7326   3.366   3.555  17.070  0.3864  0.4247  0.4301
  489TMC3     O 7327   3.310   3.459  17.120 -0.0676  0.1135 -0.3561
  489TMC3     H 7328   3.472   3.791  16.972  0.6925  2.4323  0.4246
  489TMC3    H1 7329   3.244   3.614  17.285  1.0067  0.9719  2.4021
  489TMC3    H2 7330   3.350   4.031  17.302 -3.6266  0.6401 -1.3073
  489TMC3    C7 7331   3.220   3.839  17.428 -0.0829  0.4578  0.0431
  489TMC3    C8 7332   3.521   4.012  17.080  0.6320  0.3198  0.4619
  489TMC3    O1 7333   3.236   3.944  17.486  0.5871  0.3711  0.1802
  489TMC3    O2 7334   3.582   3.990  16.978 -0.5647  0.8127  0.6743
  490MPD2     C 7335   4.120   3.289  17.086 -0.4937 -0.0419  0.2740
  490MPD2    C1 7336   4.171   3.165  17.109  1.1115  0.3406  0.0232
  490MPD2    C2 7337   4.306   3.140  17.091  0.1165 -0.2594  0.7080
  490MPD2    C3 7338   4.390   3.245  17.039  0.1302  0.2922  0.0220
  490MPD2    C4 7339   4.330   3.371  17.018 -0.2996  0.8081  0.5684
  490MPD2    C5 7340   4.196   3.392  17.041 -1.0052 -0.2382  0.7565
  490MPD2     H 7341   4.351   3.045  17.116  2.7650 -0.1645 -3.7871
  490MPD2    H1 7342   4.381   3.458  16.978 -1.3953  2.9009  3.7370
  490MPD2    H2 7343   4.014   3.299  17.106 -0.4663 -0.1982  0.5046
  490MPD2    H3 7344   4.151   3.490  17.029 -0.8402  0.0887  2.8453
  490MPD2     N 7345   4.524   3.240  17.020 -1.4454  0.3628  0.1825
  490MPD2    H5 7346   4.573   3.324  16.993 -1.0139 -0.5225 -1.8264
  490MPD2    N1 7347   4.087   3.053  17.147 -0.2086 -0.3916  0.1442
  490MPD2    H7 7348   4.130   2.969  17.184 -0.9231 -2.9835 -4.8024
  491TMC3    C1 7349   3.908   2.915  17.166 -0.4890  0.4178  0.3248
  491TMC3    C2 7350   3.967   2.856  17.278 -0.1901  0.2895 -0.2712
  491TMC3    C3 7351   3.934   2.724  17.311 -0.3684 -0.6297  0.3437
  491TMC3    C4 7352   3.814   2.849  17.092 -0.4224 -0.6456  0.1428
  491TMC3    C5 7353   3.769   2.725  17.136 -0.3540  0.1686  0.5864
  491TMC3    C6 7354   3.838   2.658  17.243  0.4688  0.4273 -0.2519
  491TMC3     C 7355   3.952   3.042  17.122  0.3114 -0.7872  0.3815
  491TMC3     O 7356   3.881   3.115  17.050  0.1986  0.2960  0.0622
  491TMC3     H 7357   4.037   2.908  17.343  0.0876 -0.0677 -0.2851
  491TMC3    H1 7358   3.770   2.899  17.007 -0.8661 -0.1507  0.6591
  491TMC3    H2 7359   3.812   2.556  17.268 -0.2866  0.8311  0.6023
  491TMC3    C7 7360   3.643   2.668  17.091 -0.6146 -0.3831 -0.0089
  491TMC3    C8 7361   3.966   2.681  17.444  0.3238  0.2921  0.6720
  491TMC3    O1 7362   3.621   2.551  17.111  0.0920  0.7402 -0.0899
  491TMC3    O2 7363   3.880   2.601  17.493  0.2261 -0.0387  0.6915
  492MPD2     C 7364   0.406   2.155  11.135  0.6463 -0.5654  0.0962
  492MPD2    C1 7365   0.269   2.171  11.108 -0.0360 -0.6237  0.3885
  492MPD2    C2 7366   0.195   2.070  11.158  0.2048 -0.0957  0.5724
  492MPD2    C3 7367   0.246   1.969  11.236  0.1993 -0.1481  0.3776
  492MPD2    C4 7368   0.380   1.953  11.262  0.5525 -0.2137  0.0941
  492MPD2    C5 7369   0.458   2.054  11.218 -0.4582  0.0773  0.1678
  492MPD2     H 7370   0.089   2.083  11.143  0.2520  0.2387  0.5228
  492MPD2    H1 7371   0.423   1.888  11.338  0.4442 -0.2529  0.1208
  492MPD2    H2 7372   0.468   2.240  11.108  0.2621 -0.1628  0.4788
  492MPD2    H3 7373   0.566   2.048  11.225 -0.4664  0.9112  1.0502
  492MPD2     N 7374   0.170   1.873  11.301  0.1380  0.1260  0.1206
  492MPD2    H5 7375   0.206   1.815  11.376 -2.2273 -0.6351  0.6614
  492MPD2    N1 7376   0.224   2.280  11.031 -0.3779 -0.1961 -0.3495
  492MPD2    H7 7377   0.284   2.361  11.020  2.7434 -2.4732 -0.2115
  493TMC3    C1 7378   0.087   2.428  10.911  0.1989  0.2676  0.2863
  493TMC3    C2 7379   0.189   2.522  10.907 -0.3801  0.6151 -1.1194
  493TMC3    C3 7380   0.165   2.639  10.840 -0.2153  0.3970 -0.8185
  493TMC3    C4 7381   4.701   2.444  10.855 -0.9114  0.8898  0.0272
  493TMC3    C5 7382   4.682   2.566  10.793  1.2331  0.1768  0.8157
  493TMC3    C6 7383   0.042   2.664  10.787  0.3356 -0.4966 -0.4656
  493TMC3     C 7384   0.101   2.302  10.979 -0.3812  0.0684 -0.3973
  493TMC3     O 7385   0.002   2.236  10.998 -0.2242  0.0438 -0.1886
  493TMC3     H 7386   0.280   2.514  10.965 -1.3415 -0.0547  0.2985
  493TMC3    H1 7387   4.624   2.368  10.861 -2.4433  2.5433  1.6132
  493TMC3    H2 7388   0.021   2.761  10.744  0.2166  0.0929  0.9295
  493TMC3    C7 7389   4.550   2.606  10.746 -0.6073 -0.1512 -0.2164
  493TMC3    C8 7390   0.253   2.742  10.859  0.4282 -0.1670 -0.7624
  493TMC3    O1 7391   4.541   2.692  10.658  0.1770 -0.4618  0.1318
  493TMC3    O2 7392   0.326   2.740  10.962 -0.0692 -0.0702 -0.3021
  494TMC3    C1 7393   0.045   0.179   0.718 -0.5316 -0.0593 -0.4836
  494TMC3    C2 7394   0.069   0.045   0.734 -0.2921  0.8043  0.1037
  494TMC3    C3 7395   0.063   4.709   0.621  0.9725  0.4392  0.0984
  494TMC3    C4 7396   0.022   0.242   0.596  0.0031  0.3490 -0.0498
  494TMC3    C5 7397   0.025   0.160   0.489 -0.3324 -0.0199  0.1327
  494TMC3    C6 7398   0.038   0.022   0.499 -0.0070  0.5666  0.9159
  494TMC3     C 7399   0.023   0.250   0.840  0.3907 -0.5251  0.5187
  494TMC3     O 7400   0.035   0.185   0.940 -0.0279 -0.1634  0.1257
  494TMC3     H 7401   0.080   4.727   0.825  0.6411  1.1053  0.1789
  494TMC3    H1 7402   0.002   0.348   0.590 -1.2215  0.1604  0.5582
  494TMC3    H2 7403   0.019   4.707   0.407  1.6554 -2.4012  2.3002
  494TMC3    C7 7404   0.046   0.209   0.354 -0.4489 -0.2350  0.0994
  494TMC3    C8 7405   0.122   4.577   0.637  0.1113 -0.1965 -0.7478
  494TMC3    O1 7406   0.048   0.125   0.266  0.4213  0.4475 -0.4298
  494TMC3    O2 7407   0.171   4.548   0.745 -0.1831 -0.0378 -0.0278
  495TMC3    C1 7408   4.029   1.861  14.899  0.7322  0.2278  0.6475
  495TMC3    C2 7409   4.021   1.982  14.847 -0.3553 -0.1254 -0.2776
  495TMC3    C3 7410   3.901   2.046  14.857  0.6247  0.4722 -1.6315
  495TMC3    C4 7411   3.924   1.803  14.971  1.0168  0.0445 -0.9242
  495TMC3    C5 7412   3.811   1.873  14.984 -0.4915  0.1849  0.1148
  495TMC3    C6 7413   3.791   1.988  14.909  0.5639  0.4151  0.2151
  495TMC3     C 7414   4.111   1.761  14.830 -0.1879 -0.1394 -0.2620
  495TMC3     O 7415   4.220   1.801  14.796 -0.3340  0.3449  0.3445
  495TMC3     H 7416   4.099   2.024  14.785 -0.1052 -1.2365 -0.7203
  495TMC3    H1 7417   3.931   1.709  15.025  0.9166 -0.1207 -1.1995
  495TMC3    H2 7418   3.707   2.053  14.932  0.6079  0.5595 -0.0224
  495TMC3    C7 7419   3.746   1.865  15.110  0.5322 -0.1961 -0.6903
  495TMC3    C8 7420   3.872   2.131  14.743 -0.0058 -0.3178  0.0516
  495TMC3    O1 7421   3.800   1.803  15.199  0.0429 -0.6123  0.6031
  495TMC3    O2 7422   3.958   2.200  14.694 -0.5078  0.4159 -0.1150
  496MPD2     C 7423   0.895   1.888  15.106 -0.7462 -0.4504  0.1562
  496MPD2    C1 7424   0.963   1.819  15.210 -0.5644  0.6972 -0.0956
  496MPD2    C2 7425   0.884   1.781  15.323 -0.1473  0.0320  0.4311
  496MPD2    C3 7426   0.746   1.832  15.337 -0.5115  0.1203 -0.9073
  496MPD2    C4 7427   0.694   1.907  15.235 -0.7992 -0.3214 -0.0767
  496MPD2    C5 7428   0.765   1.928  15.118  1.0273  0.6565 -0.6454
  496MPD2     H 7429   0.933   1.722  15.401  0.5784  1.8510  1.3500
  496MPD2    H1 7430   0.595   1.951  15.228 -0.5529  0.0695 -1.0597
  496MPD2    H2 7431   0.948   1.916  15.015 -0.7170 -0.1983  0.2487
  496MPD2    H3 7432   0.719   1.980  15.035  2.0032  1.7009 -0.5357
  496MPD2     N 7433   0.661   1.796  15.443 -0.6081  0.2463  0.1486
  496MPD2    H5 7434   0.565   1.830  15.442 -1.1149 -1.1498  1.3106
  496MPD2    N1 7435   1.098   1.768  15.200 -0.3900  0.2862  0.1255
  496MPD2    H7 7436   1.130   1.722  15.285 -1.0363  2.9639  1.8205
  497TMC3    C1 7437   0.561   1.657  15.613 -0.4582 -0.6712  0.8969
  497TMC3    C2 7438   0.439   1.668  15.556  0.6309  0.8367  0.2250
  497TMC3    C3 7439   0.330   1.623  15.625 -0.5292 -0.5977 -0.7290
  497TMC3    C4 7440   0.577   1.619  15.741  0.2166  0.6584  0.2155
  497TMC3    C5 7441   0.462   1.590  15.807  0.2354 -0.0009 -0.0805
  497TMC3    C6 7442   0.340   1.584  15.750  0.2082 -0.1412  0.1404
  497TMC3     C 7443   0.684   1.701  15.542 -0.7575  0.0716 -0.3063
  497TMC3     O 7444   0.789   1.652  15.583  0.1449 -0.4941  0.7246
  497TMC3     H 7445   0.430   1.708  15.455  0.6738  0.9300  0.2578
  497TMC3    H1 7446   0.669   1.637  15.796  2.0954 -0.4198 -2.5945
  497TMC3    H2 7447   0.243   1.577  15.799  0.2620  0.4558  0.3324
  497TMC3    C7 7448   0.459   1.550  15.947  0.0378  0.2681  0.2571
  497TMC3    C8 7449   0.206   1.673  15.568 -0.2358 -0.1801 -0.1221
  497TMC3    O1 7450   0.362   1.477  15.971 -0.4864  0.2351 -0.3523
  497TMC3    O2 7451   0.206   1.786  15.529  0.5405 -0.4805 -0.7914
  498MPD2     C 7452   1.967   2.639  10.372 -0.3720  0.6687 -0.0010
  498MPD2    C1 7453   2.032   2.516  10.378  0.2702  0.4278  0.0891
  498MPD2    C2 7454   1.960   2.399  10.370 -0.0358  0.0787  0.4011
  498MPD2    C3 7455   1.823   2.396  10.369  0.2162 -0.5117  0.0949
  498MPD2    C4 7456   1.757   2.515  10.362 -0.3205  0.0873 -0.5248
  498MPD2    C5 7457   1.833   2.630  10.354  0.0824 -0.1512  0.3419
  498MPD2     H 7458   2.010   2.303  10.361 -2.2464 -0.9056 -1.2186
  498MPD2    H1 7459   1.650   2.522  10.346 -0.3890 -1.9474 -0.8802
  498MPD2    H2 7460   2.016   2.735  10.381 -4.1621  2.8278 -2.3661
  498MPD2    H3 7461   1.780   2.724  10.343  2.3784  0.9685 -1.1419
  498MPD2     N 7462   1.763   2.264  10.353 -0.4191  0.7204  1.2084
  498MPD2    H5 7463   1.827   2.187  10.372 -2.3916 -1.5724 -1.4942
  498MPD2    N1 7464   2.174   2.507  10.387 -0.1849  0.1015  0.4201
  498MPD2    H7 7465   2.212   2.413  10.394 -1.7278 -0.4260  1.6325
  499TMC3    C1 7466   2.404   2.555  10.371 -0.2332 -0.2184 -0.3365
  499TMC3    C2 7467   2.419   2.444  10.299  0.3746 -0.0985 -0.3851
  499TMC3    C3 7468   2.539   2.437  10.219  0.8939  0.2780  0.2464
  499TMC3    C4 7469   2.501   2.652  10.379  0.1208 -0.1040  0.1249
  499TMC3    C5 7470   2.600   2.647  10.294 -0.1809  0.2487  0.4931
  499TMC3    C6 7471   2.629   2.538  10.220  0.1661  0.0555 -0.1978
  499TMC3     C 7472   2.267   2.608  10.390 -0.1668  0.2564  0.5088
  499TMC3     O 7473   2.252   2.730  10.385  0.2346  0.1885  0.2276
  499TMC3     H 7474   2.345   2.366  10.284 -0.0099  0.1925 -0.0126
  499TMC3    H1 7475   2.491   2.737  10.446 -1.0588 -0.6904  0.6894
  499TMC3    H2 7476   2.699   2.538  10.137 -0.3387  2.3234 -0.6114
  499TMC3    C7 7477   2.640   2.772  10.245 -0.2744 -0.1841 -0.5514
  499TMC3    C8 7478   2.563   2.318  10.138  1.1186  0.2638 -0.2612
  499TMC3    O1 7479   2.757   2.801  10.216  0.0014  0.5201  0.0617
  499TMC3    O2 7480   2.466   2.259  10.096 -0.2339 -0.3446 -0.0966
  500MPD2     C 7481   3.942   2.994  11.187  0.2429  0.0453  0.0890
  500MPD2    C1 7482   3.993   3.084  11.097 -0.2899 -0.3821  0.5899
  500MPD2    C2 7483   3.912   3.129  10.991 -0.0797  0.6555  0.0565
  500MPD2    C3 7484   3.780   3.101  10.993 -0.5542  0.2192  0.0454
  500MPD2    C4 7485   3.735   3.010  11.088  0.0177 -0.0847  0.4554
  500MPD2    C5 7486   3.815   2.952  11.176 -0.4240  0.2346 -0.5505
  500MPD2     H 7487   3.957   3.189  10.913  0.0678  1.1174  0.4969
  500MPD2    H1 7488   3.634   2.973  11.083 -0.5262  1.0748  2.9958
  500MPD2    H2 7489   3.987   2.957  11.278  0.3795  2.0218  0.8379
  500MPD2    H3 7490   3.779   2.874  11.243  1.1075  0.3725  0.4548
  500MPD2     N 7491   3.686   3.162  10.907  0.6868 -0.1653 -0.0037
  500MPD2    H5 7492   3.590   3.146  10.935  0.2549 -1.1022 -2.0807
  500MPD2    N1 7493   4.125   3.132  11.100  0.3120 -0.3729 -0.5190
  500MPD2    H7 7494   4.160   3.189  11.023 -3.5100  2.3063 -0.2976
  501TMC3    C1 7495   4.337   3.154  11.190 -0.0968 -0.5807  1.0402
  501TMC3    C2 7496   4.370   3.231  11.082  0.2120  0.1787  0.0276
  501TMC3    C3 7497   4.501   3.257  11.062 -0.4628  0.1420 -0.3603
  501TMC3    C4 7498   4.430   3.095  11.268  0.2183  0.4611  0.4357
  501TMC3    C5 7499   4.563   3.115  11.238 -0.6589 -0.1115 -0.2214
  501TMC3    C6 7500   4.603   3.194  11.132 -0.1212  0.1698 -0.1208
  501TMC3     C 7501   4.209   3.093  11.195  0.6986  0.0085  0.8650
  501TMC3     O 7502   4.201   3.017  11.289  0.4549 -0.9034  0.0167
  501TMC3     H 7503   4.300   3.285  11.019 -1.6329 -0.8589  1.1841
  501TMC3    H1 7504   4.411   3.026  11.349 -1.7941  0.7807  0.2397
  501TMC3    H2 7505   4.705   3.204  11.098 -0.0201  1.3221  0.5470
  501TMC3    C7 7506   4.642   2.999  11.270  0.6357  0.1706 -0.1892
  501TMC3    C8 7507   4.540   3.359  10.965 -0.0503  0.6043  0.7160
  501TMC3    O1 7508   4.589   2.894  11.295 -0.1537 -0.2212  0.1587
  501TMC3    O2 7509   4.651   3.412  10.979  0.3762  0.3172 -0.1294
  502TMC3    C1 7510   2.847   2.162  14.662  0.3239  0.3530  0.7156
  502TMC3    C2 7511   2.890   2.231  14.558 -0.0593 -0.0196  0.2247
  502TMC3    C3 7512   2.842   2.351  14.516  0.4735  0.3778  0.3883
  502TMC3    C4 7513   2.723   2.197  14.710  0.7062 -0.2805  0.5351
  502TMC3    C5 7514   2.655   2.300  14.649 -0.3661  0.7555  0.1833
  502TMC3    C6 7515   2.718   2.392  14.570 -0.2839 -0.0697 -0.2586
  502TMC3     C 7516   2.952   2.141  14.768  0.3187  0.4655  1.0614
  502TMC3     O 7517   3.067   2.150  14.733 -0.4937  0.4374 -0.0833
  502TMC3     H 7518   2.976   2.193  14.505  0.6357  0.4314  1.0385
  502TMC3    H1 7519   2.683   2.127  14.783  1.0882 -1.7434 -0.6543
  502TMC3    H2 7520   2.663   2.479  14.535 -1.3102 -0.7641 -0.3623
  502TMC3    C7 7521   2.544   2.365  14.721 -0.5583 -0.3895 -0.4395
  502TMC3    C8 7522   2.943   2.452  14.523 -0.3632 -0.6016  0.2966
  502TMC3    O1 7523   2.430   2.355  14.688 -0.3451  0.0636  0.1425
  502TMC3    O2 7524   2.910   2.561  14.477  0.5885  0.1447 -0.7172
  503MPD2     C 7525   0.592   3.216  17.372  0.0943  0.2529 -0.4465
  503MPD2    C1 7526   0.645   3.303  17.469 -0.1238  0.3655  0.6707
  503MPD2    C2 7527   0.690   3.248  17.585  0.0736 -1.1104  0.3084
  503MPD2    C3 7528   0.689   3.108  17.606 -0.1367 -0.7737  0.0226
  503MPD2    C4 7529   0.624   3.028  17.518 -0.0770 -0.7174 -0.2136
  503MPD2    C5 7530   0.583   3.082  17.399  0.2643 -0.0593 -0.2255
  503MPD2     H 7531   0.743   3.315  17.651 -0.5857 -0.3683  0.0842
  503MPD2    H1 7532   0.623   2.920  17.532  1.0055 -0.6095  0.7087
  503MPD2    H2 7533   0.556   3.252  17.276  1.9614  0.4909 -1.0590
  503MPD2    H3 7534   0.532   3.029  17.320 -1.4095 -1.0341  1.5199
  503MPD2     N 7535   0.777   3.057  17.707 -0.1888 -0.0140  0.6666
  503MPD2    H5 7536   0.848   3.120  17.743 -0.1814 -0.4680  1.4481
  503MPD2    N1 7537   0.670   3.440  17.449 -0.5110 -0.0248  0.0117
  503MPD2    H7 7538   0.702   3.492  17.530  0.7162  0.5275 -0.8352
  504TMC3    C1 7539   0.907   2.905   0.074  0.5097 -0.1708  0.1310
  504TMC3    C2 7540   0.909   2.804   0.163 -1.3208  0.5905 -0.2245
  504TMC3    C3 7541   1.030   2.737   0.182 -0.1547  0.2543 -0.0285
  504TMC3    C4 7542   1.020   2.930  17.747  0.0404 -0.0187  0.5921
  504TMC3    C5 7543   1.133   2.861   0.010 -0.7746  0.3776 -0.1147
  504TMC3    C6 7544   1.141   2.762   0.106  0.2577 -0.1843  0.6177
  504TMC3     C 7545   0.781   2.932   0.005  0.6413 -0.1365 -0.0774
  504TMC3     O 7546   0.712   2.833  17.737  0.1702  0.4731 -0.6136
  504TMC3     H 7547   0.821   2.760   0.209 -1.4314  2.3669  1.2597
  504TMC3    H1 7548   1.009   2.992  17.659 -0.4807 -0.3022  0.4561
  504TMC3    H2 7549   1.222   2.691   0.108  2.1279  1.9509  0.8092
  504TMC3    C7 7550   1.199   2.839  17.635 -0.2505  0.3837 -0.1854
  504TMC3    C8 7551   1.032   2.614   0.259  0.3288  0.3135  0.2837
  504TMC3    O1 7552   1.315   2.868  17.625  0.2347  0.1557  0.1786
  504TMC3    O2 7553   0.931   2.546   0.267  0.3008  1.0060  0.2016
  505MPD2     C 7554   1.205   1.157  10.832 -0.0573 -0.2073 -0.1423
  505MPD2    C1 7555   1.240   1.104  10.710  0.1260  0.6304  0.0573
  505MPD2    C2 7556   1.370   1.050  10.695 -0.2508  0.6744 -0.0714
  505MPD2    C3 7557   1.466   1.052  10.795 -0.6167 -0.8589  0.0148
  505MPD2    C4 7558   1.428   1.106  10.912 -0.2612  0.7081  0.1477
  505MPD2    C5 7559   1.298   1.145  10.934 -0.4152  0.4818  0.1278
  505MPD2     H 7560   1.410   1.013  10.601  0.3528 -0.4556  0.6232
  505MPD2    H1 7561   1.497   1.098  10.996  0.8006 -0.9918 -0.8821
  505MPD2    H2 7562   1.104   1.190  10.851 -0.1824  0.2698 -1.6043
  505MPD2    H3 7563   1.266   1.165  11.035  0.9644  0.4114  0.5838
  505MPD2     N 7564   1.601   1.012  10.773  0.6397 -0.5165  0.9749
  505MPD2    H5 7565   1.670   1.051  10.836  0.1499 -1.4420  2.0901
  505MPD2    N1 7566   1.147   1.105  10.600 -0.1691  0.8372 -0.2956
  505MPD2    H7 7567   1.061   1.156  10.619  0.2814  1.1647  0.9056
  506TMC3    C1 7568   1.067   1.046  10.381  0.3027  0.2639  0.6016
  506TMC3    C2 7569   1.032   1.169  10.327  0.5632 -0.2742  0.1432
  506TMC3    C3 7570   0.993   1.180  10.195 -0.0076  0.6773 -0.0668
  506TMC3    C4 7571   1.069   0.940  10.297  0.5733  0.0796 -0.5023
  506TMC3    C5 7572   1.040   0.955  10.166  0.2824 -0.1921 -0.6778
  506TMC3    C6 7573   0.991   1.072  10.112  0.2550 -0.2458 -0.3799
  506TMC3     C 7574   1.163   1.029  10.487 -0.2664 -0.4282  0.5198
  506TMC3     O 7575   1.245   0.947  10.463  0.5204  0.1217  0.2552
  506TMC3     H 7576   1.032   1.258  10.388  0.4246 -0.8387  0.9738
  506TMC3    H1 7577   1.103   0.841  10.327  0.5805  0.6072  1.2750
  506TMC3    H2 7578   0.969   1.093  10.008  0.3214  0.1418 -0.3141
  506TMC3    C7 7579   1.147   0.908  10.085 -0.3002 -0.3831  0.3449
  506TMC3    C8 7580   0.965   1.302  10.130 -0.8692 -1.1618 -0.2440
  506TMC3    O1 7581   1.147   0.919   9.965  0.2883  0.2149  0.6815
  506TMC3    O2 7582   0.880   1.307  10.045 -0.1016 -0.1157  0.0501
  507TMC3    C1 7583   1.930   2.386  14.400 -0.4485  0.0395  0.9216
  507TMC3    C2 7584   1.882   2.263  14.371  0.7835 -0.3291 -0.0775
  507TMC3    C3 7585   1.847   2.229  14.247 -0.1704 -0.0321  0.6503
  507TMC3    C4 7586   1.960   2.467  14.297 -0.0490  0.0192  0.5817
  507TMC3    C5 7587   1.899   2.441  14.171 -0.3824  0.0996 -0.2736
  507TMC3    C6 7588   1.848   2.316  14.149 -0.2054 -0.7496  0.1540
  507TMC3     C 7589   1.836   2.454  14.491 -0.7952  0.3527  0.6784
  507TMC3     O 7590   1.880   2.552  14.545  0.2572  0.1471  0.2110
  507TMC3     H 7591   1.850   2.198  14.452 -1.1748  3.1795  1.9735
  507TMC3    H1 7592   1.989   2.568  14.325 -0.3480  0.7407 -1.7417
  507TMC3    H2 7593   1.805   2.291  14.052  0.4737  4.0595 -1.3752
  507TMC3    C7 7594   1.795   2.538  14.137 -0.0273  0.2993  0.9011
  507TMC3    C8 7595   1.727   2.141  14.243 -0.1792  0.3677  0.5966
  507TMC3    O1 7596   1.696   2.482  14.107  0.5378  0.6449 -0.1613
  507TMC3    O2 7597   1.742   2.048  14.319  0.3537  0.1335  0.0162
  508MPD2     C 7598   2.896   0.075  16.189 -0.1298  0.1767 -0.0078
  508MPD2    C1 7599   2.845   0.195  16.235 -0.5345 -0.8121 -0.2145
  508MPD2    C2 7600   2.787   0.285  16.150  0.3570  0.7968 -0.5801
  508MPD2    C3 7601   2.786   0.251  16.016 -0.1819 -0.0749 -0.3657
  508MPD2    C4 7602   2.841   0.134  15.976 -0.2864 -0.2531  0.7470
  508MPD2    C5 7603   2.882   0.036  16.063 -0.0463 -0.3733  0.4950
  508MPD2     H 7604   2.750   0.381  16.183 -1.5824  0.1561 -0.8388
  508MPD2    H1 7605   2.830   0.101  15.874 -3.2033  1.2534  0.5693
  508MPD2    H2 7606   2.953   0.005  16.249 -1.5222  0.8381  2.0940
  508MPD2    H3 7607   2.929   4.683  16.031 -1.4273 -0.6188 -0.8160
  508MPD2     N 7608   2.745   0.346  15.924 -0.0674 -0.7059 -0.3884
  508MPD2    H5 7609   2.725   0.438  15.961  1.4341  0.9922 -3.8301
  508MPD2    N1 7610   2.865   0.228  16.368 -0.5918  0.1272  0.0137
  508MPD2    H7 7611   2.920   0.166  16.426 -0.3081 -0.6644 -1.0820
  509TMC3    C1 7612   2.601   0.578  15.550 -0.2344 -0.0697  1.0514
  509TMC3    C2 7613   2.703   0.670  15.547 -0.1755 -0.1183  0.1473
  509TMC3    C3 7614   2.793   0.653  15.647  0.2430 -0.3575 -0.0954
  509TMC3    C4 7615   2.587   0.478  15.636 -0.3079 -0.1685 -0.0022
  509TMC3    C5 7616   2.683   0.463  15.736  0.0286 -0.3709  0.5888
  509TMC3    C6 7617   2.790   0.554  15.740 -0.3217 -0.5125  0.4997
  509TMC3     C 7618   2.478   0.615  15.472  0.3205 -0.0151  0.8047
  509TMC3     O 7619   2.373   0.554  15.494  0.4929 -0.1518 -0.4004
  509TMC3     H 7620   2.735   0.725  15.459  0.9350  0.5024  0.9569
  509TMC3    H1 7621   2.522   0.393  15.617 -0.3509  0.1877 -1.4345
  509TMC3    H2 7622   2.865   0.545  15.818 -1.3394  2.7100  1.8611
  509TMC3    C7 7623   2.707   0.334  15.796 -0.0137 -0.4343 -0.6832
  509TMC3    C8 7624   2.915   0.727  15.634  0.7067  0.6149 -0.2599
  509TMC3    O1 7625   2.709   0.231  15.725 -0.1352  0.5075  0.1295
  509TMC3    O2 7626   3.008   0.664  15.681  0.4297  0.2160  0.4946
  510MPD2     C 7627   0.506   1.956  14.840  0.4078 -0.2927 -0.5508
  510MPD2    C1 7628   0.519   1.835  14.910 -0.1665  0.2192  0.8332
  510MPD2    C2 7629   0.605   1.738  14.870  0.2640  0.2434  0.2375
  510MPD2    C3 7630   0.671   1.757  14.756 -0.5180  0.0790 -0.6706
  510MPD2    C4 7631   0.665   1.879  14.689 -0.1982 -0.6414 -0.3895
  510MPD2    C5 7632   0.584   1.985  14.733  0.3482  0.7508  0.0464
  510MPD2     H 7633   0.619   1.639  14.912 -2.6561  0.3059  1.3624
  510MPD2    H1 7634   0.728   1.904  14.605 -1.0895 -0.6718 -1.0636
  510MPD2    H2 7635   0.443   2.040  14.867  0.5442 -0.4827  0.3617
  510MPD2    H3 7636   0.574   2.081  14.685  0.4043  0.5642 -0.3442
  510MPD2     N 7637   0.766   1.665  14.717 -0.4015  0.0384 -0.5769
  510MPD2    H5 7638   0.775   1.579  14.771 -1.0025  1.5107  1.8656
  510MPD2    N1 7639   0.431   1.800  15.013  0.1780  0.1369 -0.1592
  510MPD2    H7 7640   0.447   1.719  15.072 -1.3855 -1.3433 -1.7864
  511TMC3    C1 7641   0.227   1.817  15.135  0.1891  0.1454 -0.3445
  511TMC3    C2 7642   0.134   1.904  15.184 -0.2048 -0.1651 -0.2237
  511TMC3    C3 7643   0.017   1.856  15.243 -0.0633 -0.8509  0.1339
  511TMC3    C4 7644   0.206   1.679  15.131  0.2587 -0.1737  0.0180
  511TMC3    C5 7645   0.084   1.641  15.179 -0.2588  0.3335 -0.1341
  511TMC3    C6 7646   4.728   1.724  15.237 -0.1793 -0.2085 -0.1564
  511TMC3     C 7647   0.329   1.880  15.061 -0.2225  0.1460 -0.5750
  511TMC3     O 7648   0.290   1.987  15.023  0.4205 -0.0488  0.7588
  511TMC3     H 7649   0.166   2.004  15.211  0.6207 -0.8974  1.5310
  511TMC3    H1 7650   0.263   1.609  15.071  1.9944 -2.5713  4.4545
  511TMC3    H2 7651   4.643   1.687  15.294  0.1135 -0.0844  0.3609
  511TMC3    C7 7652   0.068   1.497  15.188 -0.4576  0.3440 -0.3920
  511TMC3    C8 7653   4.658   1.955  15.275  0.7706 -0.0167 -0.2586
  511TMC3    O1 7654   0.165   1.426  15.155  0.4523  0.1982  0.2485
  511TMC3    O2 7655   4.689   2.059  15.329  0.1854 -0.3521 -0.2005
  512TMC3    C1 7656   3.967   0.955  13.129  0.4467 -0.0202  0.3188
  512TMC3    C2 7657   4.064   0.909  13.213 -0.8898 -0.1581  0.3094
  512TMC3    C3 7658   4.049   0.780  13.268  0.2315 -0.4189  0.2303
  512TMC3    C4 7659   3.859   0.878  13.095  0.5810  0.0315  0.1143
  512TMC3    C5 7660   3.868   0.744  13.120  0.6593  0.9508 -0.4677
  512TMC3    C6 7661   3.947   0.700  13.217  0.6275  0.5986 -0.3477
  512TMC3     C 7662   3.962   1.095  13.090  0.1192  0.4434  0.2700
  512TMC3     O 7663   4.068   1.152  13.064  0.1118  0.0957  0.1572
  512TMC3     H 7664   4.144   0.979  13.234  3.1099 -4.7427  0.0412
  512TMC3    H1 7665   3.777   0.906  13.031 -0.6334 -1.0506  1.1852
  512TMC3    H2 7666   3.939   0.594  13.240 -0.8066  0.4430 -1.5522
  512TMC3    C7 7667   3.778   0.655  13.046 -0.3652  0.2275  0.4661
  512TMC3    C8 7668   4.158   0.720  13.348  0.0124 -0.4021 -0.7119
  512TMC3    O1 7669   3.666   0.692  13.011 -0.3919 -0.0804  0.4459
  512TMC3    O2 7670   4.170   0.600  13.337 -0.0397  0.0631  0.3813
  513MPD2     C 7671   1.212   0.474  13.699  0.4075 -0.4046  0.1053
  513MPD2    C1 7672   1.254   0.562  13.601  0.0537  0.2818  0.5440
  513MPD2    C2 7673   1.340   0.662  13.638 -0.2272 -0.7225 -0.0395
  513MPD2    C3 7674   1.401   0.659  13.765  0.1719 -0.5172  0.8303
  513MPD2    C4 7675   1.354   0.576  13.863 -0.6298 -0.0683  0.4029
  513MPD2    C5 7676   1.254   0.495  13.827  0.2814 -0.7427  0.5793
  513MPD2     H 7677   1.378   0.733  13.565  0.0229 -1.4555 -0.6185
  513MPD2    H1 7678   1.392   0.582  13.964 -2.9489 -1.5797  1.3645
  513MPD2    H2 7679   1.141   0.396  13.673  1.5257 -0.8242 -1.6816
  513MPD2    H3 7680   1.207   0.432  13.901 -0.6143 -1.3472 -0.4963
  513MPD2     N 7681   1.505   0.753  13.783 -0.4028 -0.1555 -0.9645
  513MPD2    H5 7682   1.526   0.825  13.715 -0.7402  1.5671  0.7367
  513MPD2    N1 7683   1.202   0.559  13.470  0.6120  0.3025 -0.0796
  513MPD2    H7 7684   1.161   0.473  13.436 -1.2243  1.4244 -0.6577
  514TMC3    C1 7685   1.180   0.615  13.250 -0.5818 -0.1458  0.1261
  514TMC3    C2 7686   1.141   0.715  13.170  0.2623 -0.8028 -0.5006
  514TMC3    C3 7687   1.202   0.717  13.048 -0.1609  0.4138  0.8323
  514TMC3    C4 7688   1.261   0.519  13.209  0.0090 -0.3515 -0.0954
  514TMC3    C5 7689   1.308   0.518  13.084  0.0973  0.5924  0.0354
  514TMC3    C6 7690   1.294   0.624  13.000 -0.5886  0.6718  0.3999
  514TMC3     C 7691   1.200   0.667  13.382 -0.2666  0.2022  0.4815
  514TMC3     O 7692   1.181   0.783  13.414  0.0107  0.3488  0.2738
  514TMC3     H 7693   1.081   0.801  13.198 -0.4581 -2.3420  2.6745
  514TMC3    H1 7694   1.307   0.453  13.281 -2.4196 -1.9508  0.0015
  514TMC3    H2 7695   1.356   0.642  12.913  1.2245  0.3173  1.6089
  514TMC3    C7 7696   1.451   0.478  13.080  0.0284 -0.7984 -0.1620
  514TMC3    C8 7697   1.161   0.833  12.959 -0.4020  0.4195 -0.6491
  514TMC3    O1 7698   1.471   0.357  13.080  0.1596  0.5077  0.3144
  514TMC3    O2 7699   1.116   0.933  13.005  0.0610 -0.1161 -1.0595
  515MPD2     C 7700   3.845   3.669  15.008  0.0472  0.1657  0.2458
  515MPD2    C1 7701   3.913   3.556  14.959 -0.1432  0.9990 -0.3894
  515MPD2    C2 7702   4.035   3.520  15.006 -0.0714 -0.1185 -0.6930
  515MPD2    C3 7703   4.082   3.586  15.116 -0.3606  0.0377  0.5110
  515MPD2    C4 7704   4.021   3.702  15.157  0.7905 -0.5064 -0.2178
  515MPD2    C5 7705   3.898   3.738  15.108 -0.0735  0.2256 -0.3893
  515MPD2     H 7706   4.065   3.421  14.973  1.3656 -0.3178  1.2366
  515MPD2    H1 7707   4.062   3.770  15.231 -0.0650 -0.2788  0.0521
  515MPD2    H2 7708   3.749   3.698  14.966 -0.5157  0.1598  1.5291
  515MPD2    H3 7709   3.851   3.828  15.147 -0.6442 -1.1464  2.1331
  515MPD2     N 7710   4.193   3.552  15.190 -0.2985 -0.3474  0.0096
  515MPD2    H5 7711   4.205   3.600  15.278  0.4215 -0.0916 -0.2279
  515MPD2    N1 7712   3.853   3.461  14.871  0.1137  0.0680 -0.6019
  515MPD2    H7 7713   3.905   3.375  14.866  0.4092  0.1321  1.1891
  516TMC3    C1 7714   3.723   3.328  14.754  0.2705  0.3773  0.2232
  516TMC3    C2 7715   3.640   3.313  14.646 -0.0757 -0.5711  0.0236
  516TMC3    C3 7716   3.625   3.192  14.592  0.2583 -0.5786 -0.5484
  516TMC3    C4 7717   3.765   3.217  14.827  0.6123 -0.1030  0.0748
  516TMC3    C5 7718   3.746   3.092  14.770  0.5198  0.1339 -0.6215
  516TMC3    C6 7719   3.672   3.080  14.652 -0.9915 -0.4627  0.5543
  516TMC3     C 7720   3.730   3.463  14.816  0.1196  0.2750 -0.2250
  516TMC3     O 7721   3.650   3.555  14.808  0.3164  0.2521 -0.1817
  516TMC3     H 7722   3.607   3.404  14.596  0.6471  1.0020  2.4039
  516TMC3    H1 7723   3.815   3.231  14.922  0.9409  1.3569 -0.3136
  516TMC3    H2 7724   3.633   2.982  14.626  0.8253 -1.3025  1.0360
  516TMC3    C7 7725   3.738   2.978  14.857  0.9012  0.3253 -0.1811
  516TMC3    C8 7726   3.572   3.175  14.463 -0.2880 -0.5582  0.2350
  516TMC3    O1 7727   3.721   2.993  14.979  0.5720  0.1039  0.0241
  516TMC3    O2 7728   3.490   3.258  14.425 -0.5951  0.0929 -0.3148
  517MPD2     C 7729   3.691   0.130  17.516  0.5149 -0.3430 -0.9434
  517MPD2    C1 7730   3.800   0.056  17.571 -0.6172  0.0662 -0.6598
  517MPD2    C2 7731   3.858   0.104  17.684 -0.3883 -0.1160  0.2913
  517MPD2    C3 7732   3.823   0.229  17.736  0.0100 -0.8486 -0.0256
  517MPD2    C4 7733   3.717   0.298  17.676 -0.2391 -0.1024 -0.5251
  517MPD2    C5 7734   3.655   0.243  17.569 -0.5940 -0.0869 -0.0921
  517MPD2     H 7735   3.933   0.044  17.735  1.4913  1.0549 -1.1222
  517MPD2    H1 7736   3.681   0.396  17.705  0.8888  0.4548 -0.9873
  517MPD2    H2 7737   3.647   0.080  17.430  1.3975  0.1350 -1.6722
  517MPD2    H3 7738   3.567   0.295  17.532 -0.2799  0.0364 -0.6556
  517MPD2     N 7739   3.892   0.287   0.100 -0.0451 -0.4777  0.0416
  517MPD2    H5 7740   3.839   0.365   0.137 -1.3822 -0.6474 -1.5040
  517MPD2    N1 7741   3.849   4.680  17.500 -0.1650 -0.0971  0.1959
  517MPD2    H7 7742   3.904   4.607  17.543  2.5093  1.9868  0.2899
  518TMC3    C1 7743   3.921   4.553  17.331  0.8569  0.3934 -0.0044
  518TMC3    C2 7744   3.896   4.435  17.400  0.4438 -0.6125 -0.6531
  518TMC3    C3 7745   3.976   4.330  17.360  0.3931 -0.4157 -0.7804
  518TMC3    C4 7746   4.001   4.567  17.223  0.7732  0.1605 -0.7018
  518TMC3    C5 7747   4.079   4.457  17.191  0.5951  0.4176 -0.8953
  518TMC3    C6 7748   4.063   4.342  17.255  0.5356 -0.6423 -0.7143
  518TMC3     C 7749   3.842   4.665  17.364 -0.0676 -0.5708  0.4563
  518TMC3     O 7750   3.804   0.012  17.284 -0.3436  0.0558  0.5038
  518TMC3     H 7751   3.808   4.430  17.463 -0.4357 -1.3208 -1.9392
  518TMC3    H1 7752   4.007   4.656  17.162  0.3738 -0.4416 -1.6237
  518TMC3    H2 7753   4.116   4.253  17.222  2.1975  0.1683 -0.2169
  518TMC3    C7 7754   4.171   4.467  17.079  0.0318  0.5337 -0.1409
  518TMC3    C8 7755   3.920   4.198  17.369 -0.0175 -0.3908  0.0869
  518TMC3    O1 7756   4.155   4.560  17.003 -0.0032  0.4393 -0.0435
  518TMC3    O2 7757   3.964   4.108  17.297 -1.0909  0.3457  0.0840
  519MPD2     C 7758   0.795   2.327  14.805  0.1675  0.6109  0.2320
  519MPD2    C1 7759   0.758   2.356  14.676  0.0943  0.4679  0.5103
  519MPD2    C2 7760   0.793   2.273  14.575  0.7770  0.3017 -0.3135
  519MPD2    C3 7761   0.869   2.154  14.597  0.0356 -0.6193 -0.0290
  519MPD2    C4 7762   0.921   2.136  14.726  0.4901 -0.2979  0.1789
  519MPD2    C5 7763   0.886   2.222  14.830  0.5444  0.1313  0.2099
  519MPD2     H 7764   0.763   2.292  14.472 -0.7177  2.7161  0.5582
  519MPD2    H1 7765   0.989   2.054  14.747  0.8638  0.1859  0.8646
  519MPD2    H2 7766   0.763   2.388  14.888 -1.3564  0.1456 -0.0034
  519MPD2    H3 7767   0.913   2.198  14.932 -1.7587 -1.0110  0.5720
  519MPD2     N 7768   0.889   2.059  14.490 -0.4815 -0.4131  0.4085
  519MPD2    H5 7769   0.961   1.990  14.506 -0.7826 -0.9951 -0.7012
  519MPD2    N1 7770   0.674   2.472  14.656 -0.1392 -0.9922 -0.1431
  519MPD2    H7 7771   0.631   2.510  14.740  3.3706  1.8771  0.3491
  520TMC3    C1 7772   0.867   1.979  14.268  0.6989  0.9986  0.1380
  520TMC3    C2 7773   0.791   1.956  14.163  0.4994 -0.1456  0.1676
  520TMC3    C3 7774   0.843   1.933  14.037 -0.7061  0.2912  0.5989
  520TMC3    C4 7775   1.002   1.979  14.265 -0.3535  0.3028 -0.6424
  520TMC3    C5 7776   1.053   1.942  14.143 -0.2863 -0.5965 -0.8090
  520TMC3    C6 7777   0.979   1.910  14.028  0.1281 -0.3671  0.0753
  520TMC3     C 7778   0.807   2.048  14.379  0.3577 -0.3334 -0.0187
  520TMC3     O 7779   0.696   2.095  14.361  0.2393 -0.4857  0.3564
  520TMC3     H 7780   0.684   1.961  14.179  0.7313  1.7828  1.1277
  520TMC3    H1 7781   1.069   1.986  14.350  0.5288 -1.1165 -1.2118
  520TMC3    H2 7782   1.022   1.870  13.937 -3.6494  1.6580 -2.6149
  520TMC3    C7 7783   1.196   1.938  14.131  0.5539 -0.0541  0.9379
  520TMC3    C8 7784   0.765   1.931  13.915 -0.6448 -0.3089 -0.3565
  520TMC3    O1 7785   1.267   1.911  14.226 -0.0936 -0.6350 -0.4663
  520TMC3    O2 7786   0.832   1.927  13.812 -0.4124  0.1643 -0.3576
  521MPD2     C 7787   1.684   1.466  17.398 -0.8684 -0.6996 -0.3966
  521MPD2    C1 7788   1.670   1.332  17.382  0.5630  0.1086 -0.2888
  521MPD2    C2 7789   1.778   1.259  17.332  0.2490  0.4848 -0.6874
  521MPD2    C3 7790   1.900   1.321  17.308 -0.8451  0.0256 -0.6651
  521MPD2    C4 7791   1.910   1.455  17.331 -0.0536  0.7062 -0.0153
  521MPD2    C5 7792   1.805   1.528  17.376 -0.4906 -0.2038  0.1179
  521MPD2     H 7793   1.768   1.153  17.311  0.9771  0.6087 -1.6263
  521MPD2    H1 7794   2.005   1.504  17.313 -0.1360  1.6512  2.1763
  521MPD2    H2 7795   1.611   1.532  17.444 -1.2137 -1.9762  0.8754
  521MPD2    H3 7796   1.805   1.633  17.399 -1.9084 -0.5538  1.7334
  521MPD2     N 7797   2.010   1.249  17.256 -0.3774  0.4811 -1.4411
  521MPD2    H5 7798   1.989   1.153  17.227  0.6187 -0.4332  0.9176
  521MPD2    N1 7799   1.544   1.274  17.411  0.7140 -0.4659  0.3576
  521MPD2    H7 7800   1.471   1.343  17.422  0.7016 -0.2502 -1.0396
  522TMC3    C1 7801   2.219   1.227  17.148 -1.0943 -0.2531  0.1111
  522TMC3    C2 7802   2.358   1.213  17.178  0.5836 -0.1610  0.2092
  522TMC3    C3 7803   2.432   1.144  17.086 -0.1882  0.9128  0.2581
  522TMC3    C4 7804   2.163   1.155  17.041  0.5784 -0.1684  0.1784
  522TMC3    C5 7805   2.244   1.087  16.957  0.1730  0.5628 -0.1392
  522TMC3    C6 7806   2.376   1.080  16.974  0.4445  0.2939  0.3393
  522TMC3     C 7807   2.136   1.294  17.252  0.0011  0.4690 -0.3944
  522TMC3     O 7808   2.191   1.384  17.313  0.0958  0.0212 -0.0281
  522TMC3     H 7809   2.399   1.262  17.265  0.2663  0.1001  0.2120
  522TMC3    H1 7810   2.055   1.149  17.027  0.3968  0.5610  1.2058
  522TMC3    H2 7811   2.444   1.030  16.906  0.0902  0.3221 -0.0323
  522TMC3    C7 7812   2.183   0.986  16.870  0.1637 -0.7918 -0.2746
  522TMC3    C8 7813   2.571   1.125  17.125  0.3938 -0.3207  0.1474
  522TMC3    O1 7814   2.242   0.883  16.839 -0.3597  0.3726 -0.0085
  522TMC3    O2 7815   2.626   1.190  17.217  0.3623 -0.0999 -0.2871
  523MPD2     C 7816   0.030   0.477  10.530  0.1264  0.5441  0.7767
  523MPD2    C1 7817   4.659   0.400  10.531  0.0373 -1.1003 -0.2350
  523MPD2    C2 7818   4.532   0.464  10.538 -0.4708  0.3696 -0.1506
  523MPD2    C3 7819   4.519   0.599  10.535 -0.6363  0.4607  0.3664
  523MPD2    C4 7820   4.633   0.672  10.535  0.2787  0.2591  0.1728
  523MPD2    C5 7821   0.019   0.616  10.535 -0.1424 -0.1723 -0.4498
  523MPD2     H 7822   4.439   0.408  10.539  0.2477 -0.8382 -0.9916
  523MPD2    H1 7823   4.628   0.780  10.535 -1.2607  0.1847  0.7855
  523MPD2    H2 7824   0.133   0.444  10.536  0.3919  1.7780  2.9900
  523MPD2    H3 7825   0.104   0.680  10.515  0.8068 -1.3925 -0.3681
  523MPD2     N 7826   4.394   0.670  10.536 -0.5876  0.4416 -0.2944
  523MPD2    H5 7827   4.401   0.771  10.542  1.6200  0.2556  0.1843
  523MPD2    N1 7828   4.672   0.260  10.561 -0.0909  0.5913 -0.2492
  523MPD2    H7 7829   0.027   0.233  10.586 -0.6552 -0.4295  0.7342
  524TMC3    C1 7830   4.164   0.706  10.544  0.1415 -1.1593  0.1861
  524TMC3    C2 7831   4.039   0.648  10.575 -0.6540 -0.1874 -0.1729
  524TMC3    C3 7832   3.934   0.722  10.599  0.6471  0.2665  0.3586
  524TMC3    C4 7833   4.182   0.845  10.528 -0.2161  0.1269 -0.7260
  524TMC3    C5 7834   4.066   0.914  10.540 -0.3325 -0.2407 -0.3722
  524TMC3    C6 7835   3.948   0.860  10.588 -0.0684  0.0326  0.2962
  524TMC3     C 7836   4.270   0.610  10.545 -0.0754  0.4391  0.5748
  524TMC3     O 7837   4.235   0.493  10.528  0.2249 -0.4295  0.7370
  524TMC3     H 7838   4.025   0.543  10.599  3.2571 -0.7577 -0.3642
  524TMC3    H1 7839   4.273   0.898  10.499 -3.0520  4.8056 -1.0356
  524TMC3    H2 7840   3.860   0.922  10.598  0.5877  1.1321 -0.7857
  524TMC3    C7 7841   4.070   1.061  10.507 -0.4386  0.5428 -0.5140
  524TMC3    C8 7842   3.813   0.676  10.665  0.0776 -0.0166  0.7857
  524TMC3    O1 7843   4.171   1.124  10.534 -0.7758  0.1436  0.0028
  524TMC3    O2 7844   3.717   0.756  10.672 -0.8101  0.1538 -0.0956
  525MPD2     C 7845   2.158   2.124  14.281  0.0011 -0.7624 -0.4034
  525MPD2    C1 7846   2.253   2.182  14.368  0.3587 -0.4981 -0.0738
  525MPD2    C2 7847   2.312   2.298  14.325 -0.8553  0.2399 -0.2696
  525MPD2    C3 7848   2.277   2.358  14.200 -0.0429 -0.1644 -0.5075
  525MPD2    C4 7849   2.192   2.292  14.111 -0.0597 -0.3007 -0.2214
  525MPD2    C5 7850   2.144   2.174  14.152  0.3087 -0.5228 -0.2476
  525MPD2     H 7851   2.372   2.352  14.397  1.0509 -1.6498 -0.4147
  525MPD2    H1 7852   2.167   2.337  14.016 -0.3550 -0.7461 -0.3524
  525MPD2    H2 7853   2.093   2.041  14.307 -0.3943  0.6316  3.0297
  525MPD2    H3 7854   2.088   2.118  14.078 -0.2191  0.7156 -0.7773
  525MPD2     N 7855   2.329   2.484  14.154 -0.3014  0.1405  0.0331
  525MPD2    H5 7856   2.263   2.540  14.101  1.8251  2.5612 -0.0675
  525MPD2    N1 7857   2.287   2.128  14.495  0.2305 -0.3527  0.0730
  525MPD2    H7 7858   2.365   2.176  14.540  1.5056 -1.4576 -0.9554
  526TMC3    C1 7859   2.236   2.028  14.699  0.8905 -0.8552 -0.4617
  526TMC3    C2 7860   2.138   2.031  14.795 -0.4846  0.8134 -0.4324
  526TMC3    C3 7861   2.166   1.996  14.928 -0.2732 -0.0291 -0.2220
  526TMC3    C4 7862   2.356   1.959  14.719 -0.0016 -0.0477 -0.9728
  526TMC3    C5 7863   2.373   1.911  14.844  0.3169  0.4249 -0.8158
  526TMC3    C6 7864   2.286   1.937  14.945 -0.1803 -0.7145  0.5379
  526TMC3     C 7865   2.194   2.062  14.569 -0.1920  0.7471 -0.0691
  526TMC3     O 7866   2.080   2.037  14.538  0.2730  0.0354  0.2419
  526TMC3     H 7867   2.037   2.061  14.769  0.1048  1.6182 -1.7794
  526TMC3    H1 7868   2.424   1.941  14.636 -0.7514 -1.0963 -1.3504
  526TMC3    H2 7869   2.324   1.931  15.046 -0.6605 -1.3346  0.6859
  526TMC3    C7 7870   2.498   1.858  14.886 -0.5704  0.5972 -0.2840
  526TMC3    C8 7871   2.062   1.978  15.028  0.1444 -0.8243  0.8170
  526TMC3    O1 7872   2.506   1.809  14.997  0.0915  0.4413  0.1473
  526TMC3    O2 7873   2.097   1.912  15.126  0.3279 -0.0385 -0.5899
  527MPD2     C 7874   0.343   0.659   1.169  0.9461 -0.7055 -0.0528
  527MPD2    C1 7875   0.434   0.711   1.260  0.3731  0.0491  0.2703
  527MPD2    C2 7876   0.569   0.689   1.234  0.3974 -0.2431  0.6037
  527MPD2    C3 7877   0.615   0.623   1.125 -0.4658  0.3229  0.3215
  527MPD2    C4 7878   0.528   0.575   1.031  0.4692  0.2566 -0.6307
  527MPD2    C5 7879   0.394   0.602   1.050 -0.8883 -0.3114 -0.1007
  527MPD2     H 7880   0.641   0.717   1.311  0.2282  0.9350  0.3396
  527MPD2    H1 7881   0.554   0.507   0.951  0.2590  1.2208 -1.5184
  527MPD2    H2 7882   0.238   0.655   1.194  0.7318 -2.9963 -1.3185
  527MPD2    H3 7883   0.328   0.572   0.970 -1.4259  0.0630  0.2089
  527MPD2     N 7884   0.757   0.603   1.120  0.0733  0.0431  0.9040
  527MPD2    H5 7885   0.819   0.633   1.194  0.1230  2.4128 -0.1176
  527MPD2    N1 7886   0.388   0.779   1.379 -0.2383  0.1279 -0.6304
  527MPD2    H7 7887   0.456   0.821   1.441 -0.2525 -1.1189  0.2453
  528TMC3    C1 7888   0.251   0.885   1.529  0.3478 -0.2134 -0.0342
  528TMC3    C2 7889   0.355   0.868   1.616 -0.0112 -0.1948  0.6784
  528TMC3    C3 7890   0.343   0.925   1.740  0.0794 -0.4310 -0.5754
  528TMC3    C4 7891   0.141   0.948   1.558  0.7199 -0.0545 -0.5287
  528TMC3    C5 7892   0.141   1.026   1.672 -0.0461  1.1704  0.1212
  528TMC3    C6 7893   0.238   1.013   1.767 -0.4862 -0.2807  0.1236
  528TMC3     C 7894   0.265   0.832   1.395  0.0683  0.1895  0.1138
  528TMC3     O 7895   0.167   0.822   1.323 -0.0470  0.8653  0.2060
  528TMC3     H 7896   0.442   0.806   1.599 -0.5024 -0.2987 -1.4650
  528TMC3    H1 7897   0.055   0.940   1.493  0.3992 -2.3085  0.1808
  528TMC3    H2 7898   0.243   1.072   1.858 -2.1892  1.0236 -0.6375
  528TMC3    C7 7899   0.017   1.096   1.697 -0.0720 -0.0509  0.2008
  528TMC3    C8 7900   0.446   0.897   1.839  0.4133  0.4728 -0.1557
  528TMC3    O1 7901   4.672   1.090   1.606 -0.0294  0.1798  0.1222
  528TMC3    O2 7902   0.547   0.848   1.798  0.1795 -0.1209 -0.3160
  529MPD2     C 7903   2.117   3.461   0.851 -0.2511 -0.8507 -0.0705
  529MPD2    C1 7904   2.248   3.513   0.824 -0.1084 -0.3490 -0.6623
  529MPD2    C2 7905   2.259   3.603   0.724 -0.2656  0.1598  0.1868
  529MPD2    C3 7906   2.150   3.629   0.643  0.2124  0.3176 -0.1301
  529MPD2    C4 7907   2.025   3.581   0.673 -0.0256 -0.3634 -0.2763
  529MPD2    C5 7908   2.004   3.497   0.780  0.1633 -0.2831  0.5832
  529MPD2     H 7909   2.357   3.646   0.706 -0.2588  0.0267 -0.1033
  529MPD2    H1 7910   1.936   3.608   0.617  0.2142  1.6995  0.3503
  529MPD2    H2 7911   2.100   3.398   0.937  0.1325  2.2279  2.2615
  529MPD2    H3 7912   1.908   3.458   0.813  0.1771 -0.7443  0.0751
  529MPD2     N 7913   2.166   3.712   0.530  0.7010 -0.0440 -0.5804
  529MPD2    H5 7914   2.082   3.745   0.484 -0.0430 -0.0505  0.7757
  529MPD2    N1 7915   2.368   3.470   0.889 -0.5421 -0.0691 -0.4156
  529MPD2    H7 7916   2.450   3.504   0.840 -0.7931  2.2724  0.7791
  530TMC3    C1 7917   2.520   3.342   1.020 -0.4867  0.5735 -0.0524
  530TMC3    C2 7918   2.634   3.404   0.961  0.3159  0.1051 -0.4094
  530TMC3    C3 7919   2.748   3.407   1.031 -0.7133  0.3319 -0.1875
  530TMC3    C4 7920   2.521   3.288   1.142 -0.0208  0.2971 -0.2142
  530TMC3    C5 7921   2.650   3.288   1.206 -0.6610  0.2044  0.0363
  530TMC3    C6 7922   2.759   3.352   1.153 -0.3322 -0.5898  0.0938
  530TMC3     C 7923   2.380   3.382   0.990 -1.0364  0.6604 -0.1832
  530TMC3     O 7924   2.296   3.349   1.072  0.8135 -0.0200  0.4222
  530TMC3     H 7925   2.627   3.451   0.863  2.3133  0.9127 -0.1678
  530TMC3    H1 7926   2.435   3.249   1.194  0.0764 -1.9440 -1.7307
  530TMC3    H2 7927   2.854   3.346   1.205  1.4441  2.2221 -2.8281
  530TMC3    C7 7928   2.640   3.304   1.349  0.5646  0.5543  0.5824
  530TMC3    C8 7929   2.850   3.499   0.993  0.2317  0.1551 -0.1466
  530TMC3    O1 7930   2.689   3.399   1.403 -0.4879  0.1715  0.0464
  530TMC3    O2 7931   2.814   3.606   0.943  0.3028  0.1186  1.0633
  531MPD2     C 7932   1.895   0.529  13.338  0.5276  0.8155  0.0167
  531MPD2    C1 7933   1.814   0.642  13.363  0.0803  0.3046 -0.2969
  531MPD2    C2 7934   1.698   0.664  13.288 -0.4255  0.0471  0.2974
  531MPD2    C3 7935   1.651   0.568  13.200  0.7698  0.3745 -0.3643
  531MPD2    C4 7936   1.733   0.456  13.180  0.3913 -1.1054 -0.0646
  531MPD2    C5 7937   1.853   0.437  13.244 -0.8416  0.4305  0.4282
  531MPD2     H 7938   1.638   0.754  13.298  2.1274  1.7622  0.0177
  531MPD2    H1 7939   1.700   0.383  13.106  1.3381 -2.5573  0.9366
  531MPD2    H2 7940   1.993   0.512  13.381  1.0583  0.5237 -1.3296
  531MPD2    H3 7941   1.911   0.351  13.213 -0.2160  0.9248  0.2153
  531MPD2     N 7942   1.524   0.578  13.136 -0.1456  0.4673 -0.1900
  531MPD2    H5 7943   1.481   0.670  13.144 -0.8045 -0.0568  2.1578
  531MPD2    N1 7944   1.862   0.734  13.461 -0.0687 -0.0783  0.0712
  531MPD2    H7 7945   1.941   0.705  13.518  0.2267 -0.9002 -0.7511
  532TMC3    C1 7946   1.834   0.872  13.653  0.0429  0.1659 -0.0928
  532TMC3    C2 7947   1.729   0.896  13.741  0.0473  0.9350 -0.1717
  532TMC3    C3 7948   1.716   0.820  13.856  0.4839 -0.6027 -0.5484
  532TMC3    C4 7949   1.946   0.793  13.687  0.2075 -0.2362  0.1566
  532TMC3    C5 7950   1.937   0.727  13.804 -0.3924  0.1252  0.3674
  532TMC3    C6 7951   1.826   0.733  13.889 -0.0419  0.4508  0.3223
  532TMC3     C 7952   1.788   0.833  13.522  0.1686 -0.0912  0.9359
  532TMC3     O 7953   1.669   0.855  13.513  0.2141  0.0387  0.4213
  532TMC3     H 7954   1.650   0.966  13.716 -0.2799  0.9052  0.7804
  532TMC3    H1 7955   2.033   0.789  13.623  0.1488 -0.1313  0.0714
  532TMC3    H2 7956   1.819   0.671  13.977  0.0874  1.4977  1.0675
  532TMC3    C7 7957   2.000   0.599  13.813 -0.8087 -0.0468 -0.3503
  532TMC3    C8 7958   1.588   0.757  13.892 -0.4892 -0.0792 -0.2771
  532TMC3    O1 7959   2.017   0.551  13.698  0.4934 -0.2364  0.2899
  532TMC3    O2 7960   1.588   0.691  13.991 -0.1327  0.2252  0.5373
  533TMC3    C1 7961   2.454   2.686  14.189 -0.4613  0.0295  0.1721
  533TMC3    C2 7962   2.579   2.741  14.180 -0.2924 -0.0903 -0.0542
  533TMC3    C3 7963   2.583   2.878  14.185  0.1687  0.4400 -1.1782
  533TMC3    C4 7964   2.347   2.761  14.187 -0.3721 -0.3278 -0.4367
  533TMC3    C5 7965   2.347   2.897  14.156  0.6185 -0.0314 -0.4969
  533TMC3    C6 7966   2.473   2.960  14.164 -0.4968 -0.3100  0.8067
  533TMC3     C 7967   2.448   2.538  14.196  0.5788 -0.2018  0.1775
  533TMC3     O 7968   2.537   2.482  14.262  0.2268  0.3421 -1.4045
  533TMC3     H 7969   2.675   2.691  14.191  0.7464  1.7113 -0.9083
  533TMC3    H1 7970   2.255   2.704  14.190 -0.1555 -0.6597 -0.1073
  533TMC3    H2 7971   2.478   3.068  14.165 -0.4438 -0.2930 -1.7991
  533TMC3    C7 7972   2.248   2.975  14.228  0.1614  0.4827 -0.4038
  533TMC3    C8 7973   2.695   2.945  14.244  0.2956 -0.2213 -0.5102
  533TMC3    O1 7974   2.219   3.083  14.187 -0.1773 -0.6830 -0.6439
  533TMC3    O2 7975   2.734   2.899  14.351 -0.3185 -0.0104  0.9169
  534MPD2     C 7976   0.815   3.756   1.622  0.3951 -0.3302 -0.1312
  534MPD2    C1 7977   0.703   3.844   1.633 -0.1797 -1.0703  0.3051
  534MPD2    C2 7978   0.586   3.788   1.591 -0.3179 -0.0626  0.6350
  534MPD2    C3 7979   0.563   3.668   1.529  0.1146  0.1764 -0.0789
  534MPD2    C4 7980   0.669   3.584   1.518 -0.3029 -0.2808 -0.2419
  534MPD2    C5 7981   0.789   3.632   1.558 -0.3295  0.3120  0.1331
  534MPD2     H 7982   0.504   3.854   1.617 -0.9997 -1.5854  2.3760
  534MPD2    H1 7983   0.661   3.486   1.473 -0.7360  0.1253 -1.0510
  534MPD2    H2 7984   0.915   3.780   1.656  0.2738 -2.6085  1.8183
  534MPD2    H3 7985   0.875   3.565   1.554  0.6417  1.5847 -0.2457
  534MPD2     N 7986   0.441   3.627   1.478 -0.2224  0.3335 -0.2800
  534MPD2    H5 7987   0.434   3.533   1.440  1.6691  0.0803  0.0083
  534MPD2    N1 7988   0.707   3.974   1.681 -0.2455 -0.0220 -0.1427
  534MPD2    H7 7989   0.622   4.029   1.683 -0.4178 -0.2780 -0.4283
  535TMC3    C1 7990   0.214   3.595   1.452  0.8473  0.3230 -0.1794
  535TMC3    C2 7991   0.091   3.618   1.504  0.1288 -0.1037 -0.2391
  535TMC3    C3 7992   4.722   3.553   1.443 -0.5466 -0.4777  0.1643
  535TMC3    C4 7993   0.230   3.510   1.347  0.3975  0.2258  0.2331
  535TMC3    C5 7994   0.125   3.454   1.286 -0.2027  0.3981 -0.5628
  535TMC3    C6 7995   0.001   3.481   1.334 -0.4377  0.4642  0.8463
  535TMC3     C 7996   0.318   3.686   1.497 -0.2346 -1.1265  0.4679
  535TMC3     O 7997   0.285   3.797   1.543 -0.2686  0.2403 -0.4922
  535TMC3     H 7998   0.086   3.681   1.592 -0.6014  1.3199 -1.3027
  535TMC3    H1 7999   0.328   3.501   1.302 -0.1958 -1.7494 -0.6285
  535TMC3    H2 8000   4.651   3.446   1.284 -1.8587  2.8573  1.7111
  535TMC3    C7 8001   0.145   3.425   1.139 -0.7837  1.1915  0.4013
  535TMC3    C8 8002   4.588   3.603   1.469 -0.4902 -0.0825  0.4985
  535TMC3    O1 8003   0.256   3.391   1.092  0.2948 -0.0269 -0.0265
  535TMC3    O2 8004   4.511   3.597   1.372  0.6019 -0.0815  0.0444
  536MPD2     C 8005   3.175   2.472  16.101 -0.8912 -0.2644  0.0893
  536MPD2    C1 8006   3.114   2.361  16.150  0.4006  0.1404  0.1415
  536MPD2    C2 8007   3.018   2.305  16.071  0.2145  0.1767  1.1000
  536MPD2    C3 8008   2.985   2.351  15.949 -0.4381  0.4678 -0.0799
  536MPD2    C4 8009   3.051   2.465  15.897  0.1858  0.2018  1.1208
  536MPD2    C5 8010   3.151   2.519  15.980 -0.1352 -0.1290 -0.0903
  536MPD2     H 8011   2.960   2.225  16.116  1.8594 -1.5691  0.1531
  536MPD2    H1 8012   3.057   2.484  15.790  0.3690 -3.2944  0.4910
  536MPD2    H2 8013   3.256   2.508  16.165 -1.8535  0.8743  0.6716
  536MPD2    H3 8014   3.224   2.593  15.948  0.5796 -0.2103  1.3575
  536MPD2     N 8015   2.901   2.286  15.859  0.3491  0.8023 -0.5481
  536MPD2    H5 8016   2.908   2.313  15.761  0.8468  2.1434 -0.1359
  536MPD2    N1 8017   3.137   2.326  16.285  0.1234  0.3944 -0.3405
  536MPD2    H7 8018   3.203   2.385  16.334  1.9826 -1.9652 -0.0012
  537TMC3    C1 8019   3.164   2.196  16.478 -0.0256  1.1023 -0.1975
  537TMC3    C2 8020   3.248   2.293  16.526 -0.0130  0.5201  0.2010
  537TMC3    C3 8021   3.311   2.267  16.638  0.5024 -0.3308  0.0126
  537TMC3    C4 8022   3.142   2.078  16.543  0.1004 -0.4216 -0.2240
  537TMC3    C5 8023   3.214   2.056  16.654  0.8379 -1.1332  0.1285
  537TMC3    C6 8024   3.298   2.151  16.702  0.4142  0.5497  0.5302
  537TMC3     C 8025   3.094   2.220  16.352  0.0077  0.3233 -0.5017
  537TMC3     O 8026   3.006   2.139  16.328  0.1734 -0.0318  0.3351
  537TMC3     H 8027   3.259   2.391  16.483 -1.4380  1.2585  1.4988
  537TMC3    H1 8028   3.077   2.010  16.489 -0.2441 -0.0033 -0.3382
  537TMC3    H2 8029   3.368   2.127  16.781  0.5088 -0.0255  0.2716
  537TMC3    C7 8030   3.183   1.925  16.721  0.2280  0.2118  0.2216
  537TMC3    C8 8031   3.367   2.372  16.717 -0.5907 -1.7078  0.5018
  537TMC3    O1 8032   3.113   1.849  16.659 -0.2424  1.0564 -0.0530
  537TMC3    O2 8033   3.460   2.346  16.792  0.3701 -0.0303 -0.3504
  538TMC3    C1 8034   0.385   4.673  11.458 -0.3209  0.1018  0.0576
  538TMC3    C2 8035   0.511   4.667  11.419 -0.2102  0.0974  0.5105
  538TMC3    C3 8036   0.543   4.728  11.301 -0.5231 -0.3311  0.2834
  538TMC3    C4 8037   0.281   4.722  11.383  0.1384  0.5855 -0.0463
  538TMC3    C5 8038   0.322   0.056  11.271 -0.1334  1.1241 -1.1498
  538TMC3    C6 8039   0.454   0.057  11.228 -0.7171 -0.0609 -0.0958
  538TMC3     C 8040   0.350   4.624  11.589  0.2704  0.0190  0.2739
  538TMC3     O 8041   0.241   4.567  11.601 -0.0257  0.1121 -0.0516
  538TMC3     H 8042   0.587   4.619  11.479 -1.6507 -2.3133  0.4308
  538TMC3    H1 8043   0.182   4.716  11.425  0.0201 -1.6825 -0.6231
  538TMC3    H2 8044   0.489   0.109  11.139 -1.0462 -0.7618 -0.6296
  538TMC3    C7 8045   0.228   0.102  11.176  0.2872 -0.1770 -0.2559
  538TMC3    C8 8046   0.689   0.001  11.282  0.1758  0.0707 -0.4454
  538TMC3    O1 8047   0.287   0.161  11.082 -0.5761 -0.4977  0.3652
  538TMC3    O2 8048   0.765   4.695  11.371 -0.9239  0.0609 -0.2148
  539MPD2     C 8049   4.477   3.444  11.722  0.6589  0.1422  1.0602
  539MPD2    C1 8050   4.569   3.542  11.702 -0.4150 -0.1429  0.2684
  539MPD2    C2 8051   4.519   3.675  11.703 -0.3368  0.7411  0.9465
  539MPD2    C3 8052   4.388   3.704  11.736  0.0557  0.4051  0.0506
  539MPD2    C4 8053   4.302   3.604  11.754 -0.5203  0.1752 -0.4210
  539MPD2    C5 8054   4.346   3.472  11.745 -0.1381  0.6523 -0.1051
  539MPD2     H 8055   4.591   3.755  11.687  0.1336 -0.0362 -0.8270
  539MPD2    H1 8056   4.196   3.623  11.766 -0.1794  0.1266  2.5576
  539MPD2    H2 8057   4.500   3.342  11.694 -0.3118  0.1382  0.3086
  539MPD2    H3 8058   4.278   3.388  11.756 -0.4847  1.1294  1.2727
  539MPD2     N 8059   4.340   3.834  11.732  0.1526 -0.3166  0.3135
  539MPD2    H5 8060   4.241   3.838  11.754 -0.1414 -2.1698 -0.7646
  539MPD2    N1 8061   4.709   3.528  11.691 -1.0087  0.8121 -0.5778
  539MPD2    H7 8062   0.032   3.608  11.693 -0.8252  0.6531 -0.0374
  540TMC3    C1 8063   4.328   4.078  11.705 -0.4110  0.0237 -0.0013
  540TMC3    C2 8064   4.352   4.184  11.619 -0.5266  0.0257  0.4481
  540TMC3    C3 8065   4.263   4.289  11.613 -0.2928 -0.2145 -0.0914
  540TMC3    C4 8066   4.218   4.081  11.786  0.1145 -0.5908  0.0301
  540TMC3    C5 8067   4.139   4.192  11.781  0.1004 -0.1585  0.1050
  540TMC3    C6 8068   4.159   4.303  11.700 -0.8249 -0.1236 -0.1491
  540TMC3     C 8069   4.407   3.954  11.696  0.2603  0.3766  0.2272
  540TMC3     O 8070   4.513   3.970  11.642  0.3061  0.3927  0.0587
  540TMC3     H 8071   4.443   4.174  11.560 -0.1322 -0.5719  1.1558
  540TMC3    H1 8072   4.195   4.005  11.861 -1.0916 -1.4838 -1.2423
  540TMC3    H2 8073   4.086   4.383  11.699 -2.2857 -1.4299  2.3474
  540TMC3    C7 8074   4.053   4.219  11.893 -0.4636  0.0678  0.4750
  540TMC3    C8 8075   4.251   4.359  11.488 -0.0789 -0.2666 -0.8719
  540TMC3    O1 8076   3.997   4.119  11.937  0.7173 -0.2774  0.5184
  540TMC3    O2 8077   4.154   4.433  11.481 -0.1465 -0.2004  0.4334
  541MPD2     C 8078   2.590   0.804  13.552 -0.6626  0.0245 -0.4104
  541MPD2    C1 8079   2.625   0.691  13.478  0.2757 -0.2830 -1.2373
  541MPD2    C2 8080   2.634   0.701  13.337  0.0817  1.0440  0.2922
  541MPD2    C3 8081   2.594   0.815  13.273  0.0719  0.0361  0.2727
  541MPD2    C4 8082   2.548   0.921  13.352  0.1809 -0.6888  0.2644
  541MPD2    C5 8083   2.542   0.910  13.483 -0.4745  0.5340  0.4426
  541MPD2     H 8084   2.663   0.620  13.271 -2.0995  0.1824  0.4087
  541MPD2    H1 8085   2.519   1.017  13.313 -1.3637 -0.3827  2.2053
  541MPD2    H2 8086   2.591   0.806  13.660 -0.9190  2.5830 -0.4484
  541MPD2    H3 8087   2.520   0.995  13.546 -1.9402  1.7959 -1.7731
  541MPD2     N 8088   2.596   0.842  13.134 -0.5971  0.5167  0.3227
  541MPD2    H5 8089   2.575   0.937  13.104  1.2633  0.4168 -1.3085
  541MPD2    N1 8090   2.649   0.572  13.548  0.2831 -0.4221 -0.8566
  541MPD2    H7 8091   2.660   0.582  13.649 -0.3280 -1.4057 -0.6948
  542TMC3    C1 8092   2.625   0.801  12.896  0.1504  0.6847 -0.6934
  542TMC3    C2 8093   2.706   0.736  12.808  0.6287  0.1917 -0.8148
  542TMC3    C3 8094   2.681   0.764  12.679 -0.1415 -0.1673 -0.2034
  542TMC3    C4 8095   2.532   0.897  12.861  1.2956 -0.1619  0.9338
  542TMC3    C5 8096   2.520   0.937  12.730 -0.1614 -0.1173 -0.5649
  542TMC3    C6 8097   2.587   0.861  12.637 -0.1950 -0.5509 -0.4382
  542TMC3     C 8098   2.644   0.754  13.040  0.1625 -0.5121  0.2931
  542TMC3     O 8099   2.684   0.639  13.056  0.1402  0.5268  0.2520
  542TMC3     H 8100   2.783   0.672  12.849 -0.2073 -1.7382 -2.2355
  542TMC3    H1 8101   2.471   0.951  12.933  1.3463  1.5535 -0.3194
  542TMC3    H2 8102   2.557   0.852  12.533 -0.0692  0.1713 -0.5356
  542TMC3    C7 8103   2.405   1.021  12.686  0.2659  0.1171  0.6591
  542TMC3    C8 8104   2.731   0.679  12.570 -0.3351  0.1711 -0.3174
  542TMC3    O1 8105   2.330   1.067  12.772 -0.1413  0.4877  0.2105
  542TMC3    O2 8106   2.720   0.709  12.450  0.2995  0.0134 -0.7797
  543TMC3    C1 8107   2.159   3.012  17.334 -1.0031  0.3124 -0.2825
  543TMC3    C2 8108   2.202   2.903  17.406  0.3455  0.0460 -0.6117
  543TMC3    C3 8109   2.209   2.918  17.541  0.6744 -0.2664 -0.1694
  543TMC3    C4 8110   2.141   3.135  17.391  0.0418 -0.1438  0.6768
  543TMC3    C5 8111   2.163   3.152  17.529  0.8581  0.1636  0.7943
  543TMC3    C6 8112   2.198   3.040  17.602 -0.4748  1.1790 -0.4723
  543TMC3     C 8113   2.149   2.989  17.194 -0.8082 -0.7174 -0.9732
  543TMC3     O 8114   2.225   2.902  17.158  0.2377 -0.0537 -1.1971
  543TMC3     H 8115   2.230   2.805  17.368  1.4112 -0.5067  1.5894
  543TMC3    H1 8116   2.113   3.216  17.325 -0.9992 -0.7732  0.3540
  543TMC3    H2 8117   2.199   3.047  17.711  1.6416 -0.6830 -0.3718
  543TMC3    C7 8118   2.094   3.254  17.599 -0.3702 -0.5098 -0.0707
  543TMC3    C8 8119   2.220   2.796  17.616  0.4138  1.0885 -0.0889
  543TMC3    O1 8120   2.062   3.236  17.714 -0.5405  0.1461 -0.3854
  543TMC3    O2 8121   2.251   2.699  17.551 -0.1514  0.3650  0.6517
  544MPD2     C 8122   2.221   2.495   0.280  0.8449  0.7338 -0.0096
  544MPD2    C1 8123   2.230   2.470   0.148 -0.2028  0.5153 -0.2227
  544MPD2    C2 8124   2.211   2.569   0.051 -0.2780 -0.1876 -0.5948
  544MPD2    C3 8125   2.190   2.701   0.089  0.2642 -0.3189 -0.3843
  544MPD2    C4 8126   2.184   2.723   0.227 -0.1482 -0.1866  0.1621
  544MPD2    C5 8127   2.191   2.623   0.317  0.4020 -0.1602  0.3036
  544MPD2     H 8128   2.222   2.538  17.702  1.4961 -3.6391  0.6389
  544MPD2    H1 8129   2.176   2.825   0.262  0.0561  0.2358 -1.0299
  544MPD2    H2 8130   2.226   2.419   0.357  1.2601  0.2839 -0.4810
  544MPD2    H3 8131   2.190   2.650   0.422 -0.7981 -0.5444  0.3927
  544MPD2     N 8132   2.186   2.806  17.749 -0.9662  0.2857 -0.2891
  544MPD2    H5 8133   2.167   2.901   0.025 -0.2988  0.7871 -1.4427
  544MPD2    N1 8134   2.264   2.335   0.108 -0.0150 -0.6863  0.4820
  544MPD2    H7 8135   2.295   2.274   0.183 -1.0556  0.5484  1.9069
  545TMC3    C1 8136   2.297   2.141  17.736  0.3838  0.6323  0.1803
  545TMC3    C2 8137   2.381   2.080  17.635 -0.2884  0.4566 -0.0114
  545TMC3    C3 8138   2.419   1.950  17.669  0.2886  0.8255 -0.1366
  545TMC3    C4 8139   2.245   2.068   0.084 -0.6992 -0.1390 -0.0772
  545TMC3    C5 8140   2.280   1.942   0.111  0.1025  0.0355  0.0095
  545TMC3    C6 8141   2.366   1.876   0.024 -0.9004  0.3517  0.8142
  545TMC3     C 8142   2.265   2.281  17.734  0.1639 -0.8474  0.0225
  545TMC3     O 8143   2.257   2.335  17.623  0.2578 -0.1343 -0.0670
  545TMC3     H 8144   2.418   2.125  17.543 -0.3191  0.9731  0.2300
  545TMC3    H1 8145   2.170   2.119   0.143 -1.2784 -3.1004  1.7561
  545TMC3    H2 8146   2.400   1.775   0.042 -1.5930 -0.2284 -1.1322
  545TMC3    C7 8147   2.235   1.892   0.243 -0.4517 -0.3226 -0.3058
  545TMC3    C8 8148   2.476   1.873  17.559 -0.5815  1.0651  0.1752
  545TMC3    O1 8149   2.143   1.955   0.293 -0.4044  0.1689  0.8651
  545TMC3    O2 8150   2.470   1.918  17.443 -0.3281  0.8841 -0.0442
  546MPD2     C 8151   3.518   2.761  17.527  0.4249 -0.4909  0.3634
  546MPD2    C1 8152   3.463   2.786  17.403  0.0613 -0.1066  0.1944
  546MPD2    C2 8153   3.506   2.894  17.332 -0.9738  0.2545  0.1194
  546MPD2    C3 8154   3.600   2.986  17.383 -0.0884  1.0224 -0.6471
  546MPD2    C4 8155   3.657   2.960  17.508 -0.2590  0.5881  0.2916
  546MPD2    C5 8156   3.619   2.846  17.579 -0.4496  0.3714 -0.3112
  546MPD2     H 8157   3.468   2.913  17.232 -1.3052 -0.9442  0.0084
  546MPD2    H1 8158   3.742   3.015  17.548 -0.5180  3.3919 -2.9678
  546MPD2    H2 8159   3.492   2.675  17.588  0.9468 -2.3041 -1.9710
  546MPD2    H3 8160   3.667   2.832  17.675 -1.0950  0.0874 -0.0270
  546MPD2     N 8161   3.644   3.099  17.319  0.1407 -0.1338  0.7606
  546MPD2    H5 8162   3.710   3.157  17.370  1.0018 -0.5055  0.0669
  546MPD2    N1 8163   3.360   2.707  17.356 -0.2507  0.1723  0.4732
  546MPD2    H7 8164   3.333   2.623  17.407  1.6696 -0.1002  1.0496
  547TMC3    C1 8165   3.208   2.613  17.214 -0.3344  0.1091  0.2138
  547TMC3    C2 8166   3.103   2.629  17.129  0.1902 -0.5239  0.9047
  547TMC3    C3 8167   3.032   2.517  17.095  0.1122 -0.2001  0.0220
  547TMC3    C4 8168   3.253   2.493  17.264 -0.2404 -0.1879  0.0334
  547TMC3    C5 8169   3.185   2.385  17.218  0.3700  0.6647 -0.1070
  547TMC3    C6 8170   3.075   2.390  17.133  0.0266  0.0867  0.1020
  547TMC3     C 8171   3.280   2.732  17.251  0.4054 -0.8354  0.3870
  547TMC3     O 8172   3.237   2.837  17.206 -0.1130 -0.4392 -1.0645
  547TMC3     H 8173   3.081   2.726  17.084  2.6147 -0.8381 -0.9957
  547TMC3    H1 8174   3.334   2.472  17.332  2.1382 -0.9022 -3.0597
  547TMC3    H2 8175   3.012   2.303  17.118 -1.8976  0.9481  2.9679
  547TMC3    C7 8176   3.201   2.264  17.293 -0.1424  0.2539 -0.3945
  547TMC3    C8 8177   2.933   2.529  16.987 -0.5075  0.0381 -0.8282
  547TMC3    O1 8178   3.248   2.277  17.407  0.4192  0.1060 -0.0025
  547TMC3    O2 8179   2.870   2.628  16.978  0.0514  0.3798 -0.0830
  548MPD2     C 8180   3.203   2.514  12.843  0.1382 -0.0793  0.5441
  548MPD2    C1 8181   3.152   2.413  12.762  1.6710 -0.4027 -0.8356
  548MPD2    C2 8182   3.237   2.308  12.718  0.0360 -0.7450  0.0125
  548MPD2    C3 8183   3.372   2.318  12.745 -0.0996 -0.3242  0.0406
  548MPD2    C4 8184   3.421   2.411  12.829 -0.1086 -0.8404 -0.9012
  548MPD2    C5 8185   3.334   2.503  12.883  0.3169 -0.6375 -0.7951
  548MPD2     H 8186   3.202   2.232  12.649 -0.7605 -0.6014  0.2552
  548MPD2    H1 8187   3.527   2.421  12.847  0.0391 -1.0237 -1.6519
  548MPD2    H2 8188   3.156   2.607  12.873  2.1321  1.4625 -1.0489
  548MPD2    H3 8189   3.383   2.583  12.939 -2.0202  0.8320 -0.8430
  548MPD2     N 8190   3.462   2.223  12.679  0.2502  0.7784  0.0367
  548MPD2    H5 8191   3.431   2.135  12.638  1.2842 -0.8958  2.8674
  548MPD2    N1 8192   3.016   2.410  12.739  0.3876 -0.1724  0.3806
  548MPD2    H7 8193   2.962   2.483  12.785  1.0265  0.2475  0.4595
  549TMC3    C1 8194   2.806   2.367  12.645 -0.3025  0.3738 -0.1664
  549TMC3    C2 8195   2.795   2.495  12.601 -0.6072 -0.3055 -0.4460
  549TMC3    C3 8196   2.677   2.537  12.547  0.6905 -0.6042  0.1522
  549TMC3    C4 8197   2.704   2.282  12.628 -0.1638 -0.1986 -0.0299
  549TMC3    C5 8198   2.587   2.317  12.571  0.0346  0.6055  0.2054
  549TMC3    C6 8199   2.576   2.446  12.524 -0.7444 -0.6230  0.0012
  549TMC3     C 8200   2.937   2.317  12.676 -0.3042  0.4667 -0.1148
  549TMC3     O 8201   2.957   2.198  12.670  0.0326 -0.6690  0.2577
  549TMC3     H 8202   2.882   2.559  12.616  0.3316 -2.0086  1.3295
  549TMC3    H1 8203   2.715   2.181  12.666  1.3135 -0.1203 -0.2593
  549TMC3    H2 8204   2.486   2.479  12.473 -1.2933  1.0711  2.0762
  549TMC3    C7 8205   2.487   2.227  12.522 -0.0652  0.1661 -0.2570
  549TMC3    C8 8206   2.655   2.673  12.496 -0.2083  0.4533 -0.2463
  549TMC3    O1 8207   2.395   2.272  12.459 -0.3921  0.2403  0.2774
  549TMC3    O2 8208   2.540   2.702  12.465 -0.1822  0.6584  1.0760
  550TMC3    C1 8209   2.192   0.273  12.119 -0.0674 -0.3995  0.7698
  550TMC3    C2 8210   2.171   0.304  12.251  0.6783  0.1991  1.1507
  550TMC3    C3 8211   2.084   0.406  12.280  0.3097 -0.4139 -0.0912
  550TMC3    C4 8212   2.145   0.350  12.014  0.1290 -0.0284  0.9043
  550TMC3    C5 8213   2.065   0.457  12.051  0.2857  0.3655  0.2908
  550TMC3    C6 8214   2.034   0.486  12.176 -0.0898  0.2808  0.4733
  550TMC3     C 8215   2.275   0.161  12.089  0.5229 -0.2060  0.6030
  550TMC3     O 8216   2.295   0.072  12.169 -0.3933 -0.1675  0.3950
  550TMC3     H 8217   2.232   0.262  12.330 -0.5739 -2.1894  0.8422
  550TMC3    H1 8218   2.160   0.317  11.912 -1.3062 -0.9053  0.9814
  550TMC3    H2 8219   1.981   0.573  12.212 -0.0674  1.3693 -2.1153
  550TMC3    C7 8220   1.978   0.498  11.945  0.2496 -0.2727 -0.4655
  550TMC3    C8 8221   2.060   0.437  12.414 -0.2248  0.5039  0.2411
  550TMC3    O1 8222   2.011   0.476  11.831 -0.0614 -0.3199  0.1057
  550TMC3    O2 8223   2.146   0.381  12.486 -1.0212  0.7590  0.5991
  551TMC3    C1 8224   4.626   2.989  13.553  0.1578 -0.1145 -0.1037
  551TMC3    C2 8225   0.017   2.949  13.551 -0.4630 -0.5151  0.0361
  551TMC3    C3 8226   0.096   3.013  13.638  0.0281  0.2224  0.4828
  551TMC3    C4 8227   4.577   3.092  13.633 -0.3826 -0.2149  0.0868
  551TMC3    C5 8228   4.663   3.151  13.722  0.4946 -0.2725  0.0668
  551TMC3    C6 8229   0.057   3.114  13.725  0.1324  0.2637  0.1478
  551TMC3     C 8230   4.539   2.948  13.444  0.0090 -0.3706  0.2870
  551TMC3     O 8231   4.420   2.935  13.468 -0.4474  0.5930 -0.0089
  551TMC3     H 8232   0.055   2.877  13.480 -0.5248 -2.1108  1.6253
  551TMC3    H1 8233   4.474   3.125  13.623 -0.2147 -0.2259 -1.7743
  551TMC3    H2 8234   0.118   3.151  13.807  1.0413 -2.1297  0.5349
  551TMC3    C7 8235   4.628   3.259  13.800  0.0747  0.5428 -0.4710
  551TMC3    C8 8236   0.238   3.027  13.596 -0.0743 -0.4656  0.0334
  551TMC3    O1 8237   4.694   3.290  13.897  0.2565 -0.0573 -0.3082
  551TMC3    O2 8238   0.278   2.940  13.521  0.0264 -0.3324 -0.3414
  552MPD2     C 8239   2.199   0.816  14.260  0.8097  0.2208  0.1648
  552MPD2    C1 8240   2.148   0.762  14.381  0.1041  0.2502 -0.0675
  552MPD2    C2 8241   2.215   0.799  14.495  0.3685  0.3614 -0.2565
  552MPD2    C3 8242   2.334   0.872  14.498 -0.6286  0.3686 -0.1679
  552MPD2    C4 8243   2.385   0.916  14.378  0.8437  0.7973 -0.1636
  552MPD2    C5 8244   2.316   0.888  14.269 -0.0798  0.0453  0.6862
  552MPD2     H 8245   2.180   0.739  14.579  1.3919 -0.2977 -0.3005
  552MPD2    H1 8246   2.475   0.977  14.376  1.4347 -0.0481  0.6112
  552MPD2    H2 8247   2.148   0.799  14.165 -1.6757  0.6909  1.4096
  552MPD2    H3 8248   2.350   0.931  14.175 -1.1092 -1.1917 -0.2424
  552MPD2     N 8249   2.403   0.902  14.610  0.2857 -0.1702  0.0489
  552MPD2    H5 8250   2.494   0.946  14.594  0.2959 -0.5083 -0.8223
  552MPD2    N1 8251   2.038   0.675  14.384  0.0667 -0.1418 -0.1893
  552MPD2    H7 8252   2.022   0.626  14.471  1.8469 -0.0831  0.1647
  553TMC3    C1 8253   1.877   0.517  14.302 -0.1669  0.1246 -0.3321
  553TMC3    C2 8254   1.777   0.495  14.213 -0.4426 -0.1939  0.3242
  553TMC3    C3 8255   1.714   0.374  14.210  0.3890  0.4302  0.4149
  553TMC3    C4 8256   1.919   0.424  14.395 -0.7953 -0.2114  0.5577
  553TMC3    C5 8257   1.858   0.304  14.381  0.4862 -0.4071  0.9974
  553TMC3    C6 8258   1.755   0.274  14.291 -0.2876 -0.9507  0.8462
  553TMC3     C 8259   1.957   0.640  14.278  0.3350 -0.2457  0.9844
  553TMC3     O 8260   1.943   0.691  14.168  0.2710 -0.6872  0.0094
  553TMC3     H 8261   1.748   0.580  14.152 -2.2068 -1.1952 -0.2191
  553TMC3    H1 8262   1.987   0.445  14.476  0.5882 -0.0912 -0.6328
  553TMC3    H2 8263   1.710   0.176  14.300 -2.0280 -0.4128 -2.1614
  553TMC3    C7 8264   1.915   0.194  14.453 -0.1563  0.1057  0.1475
  553TMC3    C8 8265   1.675   0.311  14.083  0.7177 -0.6333 -0.1417
  553TMC3    O1 8266   1.856   0.085  14.464  0.0714 -0.3478  0.4571
  553TMC3    O2 8267   1.649   0.191  14.082  0.2638  0.2034 -1.2149
  554TMC3    C1 8268   3.462   3.871  11.783 -0.2159 -0.6304  0.0352
  554TMC3    C2 8269   3.446   3.821  11.655  0.4608 -0.2326 -0.6165
  554TMC3    C3 8270   3.544   3.847  11.564 -0.0319  0.8113  0.2944
  554TMC3    C4 8271   3.566   3.953  11.813 -0.0435 -0.1889  0.4709
  554TMC3    C5 8272   3.660   3.982  11.719 -0.5223  0.2650  0.0283
  554TMC3    C6 8273   3.658   3.919  11.596 -0.1541 -0.1122 -0.2829
  554TMC3     C 8274   3.376   3.830  11.887 -0.0337 -1.2226  0.4366
  554TMC3     O 8275   3.266   3.791  11.852  0.4956 -0.3914 -0.1046
  554TMC3     H 8276   3.369   3.745  11.644 -0.7392  0.7099  1.3580
  554TMC3    H1 8277   3.563   4.025  11.894  3.9205  0.5418 -0.0302
  554TMC3    H2 8278   3.733   3.938  11.520 -1.8895  0.3339 -1.8936
  554TMC3    C7 8279   3.728   4.111  11.710  0.2672 -0.1741  0.2301
  554TMC3    C8 8280   3.506   3.851  11.421  0.8361  0.1648  0.2256
  554TMC3    O1 8281   3.807   4.118  11.618  0.5044  0.3291  0.0561
  554TMC3    O2 8282   3.598   3.890  11.350  0.2860  0.3940 -0.1789
  555TMC3    C1 8283   2.077   4.137  15.470  0.4517  0.0158 -0.1794
  555TMC3    C2 8284   2.077   4.249  15.547 -1.1916 -0.0880 -0.5005
  555TMC3    C3 8285   2.139   4.247  15.669  0.6951  0.6790 -0.3516
  555TMC3    C4 8286   2.134   4.025  15.519 -0.1544 -0.1693  0.9899
  555TMC3    C5 8287   2.185   4.025  15.646 -0.2411 -0.0104 -0.0133
  555TMC3    C6 8288   2.195   4.138  15.723  0.1359 -0.6777 -0.4151
  555TMC3     C 8289   2.013   4.130  15.339  0.2964 -0.1228 -0.0776
  555TMC3     O 8290   1.952   4.028  15.306  0.4681 -0.0493 -0.7662
  555TMC3     H 8291   2.037   4.341  15.508 -1.4476  0.2952  0.6643
  555TMC3    H1 8292   2.123   3.934  15.460 -3.1752  1.4347 -0.8969
  555TMC3    H2 8293   2.210   4.142  15.830 -0.0069 -1.6913 -0.3609
  555TMC3    C7 8294   2.189   3.894  15.715  0.2480 -0.6255  0.0758
  555TMC3    C8 8295   2.161   4.372  15.738 -0.6482 -0.4207 -0.5220
  555TMC3    O1 8296   2.162   3.802  15.644 -0.0412 -0.1495 -0.1273
  555TMC3    O2 8297   2.091   4.468  15.720  0.4208  0.8262  0.2379
  556MPD2     C 8298   1.486   0.994  11.302 -0.8807  0.1061 -0.2635
  556MPD2    C1 8299   1.353   0.944  11.322  0.1398 -0.4215 -0.0771
  556MPD2    C2 8300   1.302   0.865  11.225  0.1144 -0.0728 -0.0942
  556MPD2    C3 8301   1.375   0.825  11.114  0.1175 -0.4590  0.4589
  556MPD2    C4 8302   1.511   0.861  11.107 -0.4702 -0.7004  0.2273
  556MPD2    C5 8303   1.559   0.946  11.198 -0.1143 -0.7715 -0.5930
  556MPD2     H 8304   1.199   0.834  11.234  0.2114 -0.0103  1.2351
  556MPD2    H1 8305   1.575   0.827  11.027  1.0645  1.5268  0.4936
  556MPD2    H2 8306   1.535   1.056  11.376 -0.1308 -0.3463 -0.3797
  556MPD2    H3 8307   1.663   0.974  11.193  0.1722 -1.6687  0.5560
  556MPD2     N 8308   1.309   0.754  11.016  0.0427  0.2559  0.1917
  556MPD2    H5 8309   1.213   0.729  11.036  0.2589 -0.2692  0.5912
  556MPD2    N1 8310   1.276   0.980  11.432  0.9429  0.0375 -0.4819
  556MPD2    H7 8311   1.182   0.941  11.426  0.9418  0.2839 -1.9499
  557TMC3    C1 8312   1.275   0.640  10.824 -0.1960  0.0964 -0.1581
  557TMC3    C2 8313   1.261   0.682  10.691 -0.1153 -0.2961  0.1071
  557TMC3    C3 8314   1.158   0.633  10.622  0.1039  0.5563 -0.6823
  557TMC3    C4 8315   1.185   0.565  10.885  1.0679  0.9020  0.2160
  557TMC3    C5 8316   1.083   0.514  10.813  0.2281  0.1997 -0.2520
  557TMC3    C6 8317   1.067   0.548  10.678  0.0506 -0.1964  0.3449
  557TMC3     C 8318   1.373   0.703  10.902  0.1867 -0.5815 -0.5077
  557TMC3     O 8319   1.486   0.720  10.850 -0.0747  0.4405  0.2534
  557TMC3     H 8320   1.330   0.747  10.637 -1.7822  0.7186 -0.7843
  557TMC3    H1 8321   1.205   0.534  10.987  0.2351  1.7767  0.6441
  557TMC3    H2 8322   1.005   0.479  10.621 -0.3651  0.6688 -0.2391
  557TMC3    C7 8323   1.002   0.404  10.872 -0.2372 -0.4614  0.2188
  557TMC3    C8 8324   1.181   0.627  10.478  0.1835  0.0259  0.1874
  557TMC3    O1 8325   0.886   0.384  10.828  0.3286  0.5785  0.1616
  557TMC3    O2 8326   1.301   0.637  10.450 -0.1166 -0.0340 -0.0752
  558TMC3    C1 8327   3.605   3.299  10.728  0.6177 -0.3276  0.7478
  558TMC3    C2 8328   3.482   3.307  10.787  0.4267  0.7282 -1.0648
  558TMC3    C3 8329   3.370   3.316  10.700  0.2466 -0.3098 -0.4157
  558TMC3    C4 8330   3.619   3.295  10.593  0.3149 -0.1764  1.1774
  558TMC3    C5 8331   3.511   3.303  10.516 -1.0031 -0.0047  0.3001
  558TMC3    C6 8332   3.383   3.319  10.561  0.5640  0.3660  0.6153
  558TMC3     C 8333   3.714   3.239  10.795 -0.7387 -0.0883  0.2220
  558TMC3     O 8334   3.822   3.275  10.756 -0.3504 -0.8556 -0.6042
  558TMC3     H 8335   3.478   3.317  10.895  2.2802  2.0626 -1.1174
  558TMC3    H1 8336   3.713   3.261  10.553  0.7965  1.1874  1.1291
  558TMC3    H2 8337   3.295   3.334  10.499  0.6736 -1.1642  0.0979
  558TMC3    C7 8338   3.538   3.314  10.372 -0.2814  0.2438 -0.3611
  558TMC3    C8 8339   3.230   3.320  10.750  0.0728  0.3036 -0.6116
  558TMC3    O1 8340   3.653   3.327  10.335 -0.7541  0.1230  0.1379
  558TMC3    O2 8341   3.146   3.339  10.663  0.1666 -0.0084  0.4601
  559MPD2     C 8342   3.415   3.670  10.850  0.1838 -1.0281  0.5901
  559MPD2    C1 8343   3.371   3.648  10.976 -0.1512 -0.5006 -0.3168
  559MPD2    C2 8344   3.468   3.628  11.078  0.4949  0.6303  0.4086
  559MPD2    C3 8345   3.600   3.627  11.049 -0.2242 -0.4641 -0.6018
  559MPD2    C4 8346   3.650   3.638  10.916  0.2097 -0.2879 -0.1308
  559MPD2    C5 8347   3.549   3.664  10.827 -0.2994 -0.0737 -0.3080
  559MPD2     H 8348   3.440   3.605  11.180 -1.3312  1.3382  0.0752
  559MPD2    H1 8349   3.750   3.624  10.877  0.4433  0.8909  0.0504
  559MPD2    H2 8350   3.349   3.685  10.765  0.5891 -0.1163  0.4352
  559MPD2    H3 8351   3.575   3.685  10.725 -1.8266  1.2775 -0.4231
  559MPD2     N 8352   3.690   3.619  11.165  0.1510 -0.0640 -0.4469
  559MPD2    H5 8353   3.640   3.609  11.253  1.9226 -2.0852  0.3169
  559MPD2    N1 8354   3.231   3.634  10.991  0.2641 -0.0285  0.7637
  559MPD2    H7 8355   3.164   3.657  10.918 -1.6976 -4.7916  1.0998
  560TMC3    C1 8356   3.879   3.539  11.267  0.7580 -0.6849  1.0717
  560TMC3    C2 8357   3.811   3.434  11.315 -0.4452  0.2077  0.4376
  560TMC3    C3 8358   3.876   3.343  11.401 -0.3941 -0.1324 -0.3918
  560TMC3    C4 8359   4.009   3.563  11.300  0.1731 -0.2176 -0.0519
  560TMC3    C5 8360   4.071   3.474  11.390 -0.3666 -0.5361 -0.0824
  560TMC3    C6 8361   4.000   3.365  11.452  1.2753 -0.0959 -0.1150
  560TMC3     C 8362   3.826   3.609  11.152 -0.0228 -0.0961 -0.1585
  560TMC3     O 8363   3.906   3.643  11.066  0.5570  0.6412  0.0664
  560TMC3     H 8364   3.703   3.428  11.309 -0.4966 -1.5900  3.2021
  560TMC3    H1 8365   4.067   3.635  11.243  1.7683 -1.4197  0.0443
  560TMC3    H2 8366   4.046   3.294  11.520  1.8764 -0.8085 -1.2732
  560TMC3    C7 8367   4.210   3.461  11.389  0.1733  0.2936 -0.2128
  560TMC3    C8 8368   3.785   3.258  11.464  0.0599  0.0500  0.2396
  560TMC3    O1 8369   4.243   3.345  11.400 -0.4496 -0.3293 -0.0243
  560TMC3    O2 8370   3.700   3.205  11.398 -0.2644  0.2768  0.7034
  561TMC3    C1 8371   1.158   2.518  11.604  0.3602 -0.7597  0.1597
  561TMC3    C2 8372   1.064   2.459  11.685  0.0672 -0.0908 -0.1762
  561TMC3    C3 8373   0.969   2.548  11.732  0.4354  0.3100 -1.0777
  561TMC3    C4 8374   1.169   2.657  11.576 -0.0651 -0.5100  0.4982
  561TMC3    C5 8375   1.064   2.728  11.607 -0.1694 -0.3875  0.6897
  561TMC3    C6 8376   0.958   2.671  11.675  0.2165  0.2054  0.7388
  561TMC3     C 8377   1.273   2.429  11.573 -0.1129  0.0906 -0.1003
  561TMC3     O 8378   1.283   2.337  11.652  0.3305  0.0505  0.1065
  561TMC3     H 8379   1.073   2.356  11.719 -0.8808 -0.1105  0.0169
  561TMC3    H1 8380   1.257   2.693  11.523  1.6217 -0.4132  3.3486
  561TMC3    H2 8381   0.875   2.731  11.710  0.5854  1.6838 -0.8688
  561TMC3    C7 8382   1.044   2.873  11.568 -0.5115  0.5802  0.2563
  561TMC3    C8 8383   0.856   2.498  11.804  0.3820  0.7004  0.1571
  561TMC3    O1 8384   0.936   2.927  11.587  0.3368 -0.4339 -0.2087
  561TMC3    O2 8385   0.819   2.386  11.771 -0.0099  0.1908  0.6130
  562TMC3    C1 8386   2.534   0.215  16.749 -0.0548  0.0081 -0.7597
  562TMC3    C2 8387   2.494   0.297  16.649  0.4418 -0.8375 -0.5791
  562TMC3    C3 8388   2.446   0.234  16.544  0.5252  0.5279 -0.0002
  562TMC3    C4 8389   2.535   0.075  16.737  0.0097  0.7057 -0.2103
  562TMC3    C5 8390   2.473   0.019  16.623  0.3261 -0.0567 -0.7661
  562TMC3    C6 8391   2.432   0.101  16.522  0.0570 -0.2323  0.3367
  562TMC3     C 8392   2.578   0.275  16.872 -0.2767  0.2284  0.5993
  562TMC3     O 8393   2.647   0.213  16.949  0.1536  0.1977 -0.0113
  562TMC3     H 8394   2.477   0.404  16.661  0.2319 -1.3190  3.4194
  562TMC3    H1 8395   2.556   0.008  16.820  1.5213 -0.5016 -1.5604
  562TMC3    H2 8396   2.375   0.062  16.438 -0.3134 -1.4376  1.1440
  562TMC3    C7 8397   2.464   4.614  16.605 -0.0610  0.1292  0.2035
  562TMC3    C8 8398   2.416   0.314  16.424  0.3117  0.2880 -0.2285
  562TMC3    O1 8399   2.377   4.575  16.528  0.2301  0.5822  0.2160
  562TMC3    O2 8400   2.393   0.429  16.442  0.3181  0.1200 -0.1257
  563MPD2     C 8401   4.622   1.621  16.089 -1.1883  0.2110 -0.2749
  563MPD2    C1 8402   4.625   1.646  16.222  0.3447 -0.3954  0.2996
  563MPD2    C2 8403   4.705   1.561  16.300  0.1571  0.2276  0.6235
  563MPD2    C3 8404   0.035   1.453  16.247  0.2637 -0.6112 -0.4877
  563MPD2    C4 8405   0.028   1.422  16.117  0.0295  0.3782  0.2164
  563MPD2    C5 8406   4.685   1.504  16.041 -0.2019 -0.0246 -0.6076
  563MPD2     H 8407   4.726   1.578  16.405  0.0375  1.2249  0.4928
  563MPD2    H1 8408   0.083   1.335  16.081 -1.2098  0.4817 -1.9244
  563MPD2    H2 8409   4.563   1.674  16.014  1.2553  2.6229 -0.4842
  563MPD2    H3 8410   4.670   1.476  15.938 -3.2685  1.5017 -0.6042
  563MPD2     N 8411   0.121   1.383  16.341  0.5695 -0.3672 -0.4173
  563MPD2    H5 8412   0.118   1.418  16.436 -1.2302  1.5544 -1.1957
  563MPD2    N1 8413   4.558   1.757  16.272  0.2959  0.6483 -0.7487
  563MPD2    H7 8414   4.520   1.820  16.202 -0.9881  0.2436 -0.4171
  564TMC3    C1 8415   4.492   1.677  16.484  0.1465  0.1461 -0.6446
  564TMC3    C2 8416   4.396   1.593  16.430  0.7343  0.1644  0.5344
  564TMC3    C3 8417   4.335   1.499  16.515 -0.4887 -0.2419 -0.1902
  564TMC3    C4 8418   4.548   1.648  16.608  0.2984 -0.4204  0.6590
  564TMC3    C5 8419   4.493   1.546  16.677 -0.3726 -0.7447 -0.0858
  564TMC3    C6 8420   4.382   1.483  16.640  0.1269 -0.6273  0.0052
  564TMC3     C 8421   4.549   1.788  16.406  0.3111  0.0334  0.2132
  564TMC3     O 8422   4.561   1.896  16.462  0.3049  0.3232 -0.0017
  564TMC3     H 8423   4.376   1.596  16.323  1.2469 -0.4872  0.4183
  564TMC3    H1 8424   4.638   1.695  16.646  0.3257 -0.4372  0.6158
  564TMC3    H2 8425   4.334   1.409  16.703 -0.6902  0.3448  0.5272
  564TMC3    C7 8426   4.589   1.465  16.745  0.1046 -0.0053 -0.3781
  564TMC3    C8 8427   4.303   1.369  16.449 -0.0792 -0.3335 -0.2832
  564TMC3    O1 8428   4.664   1.512  16.830  0.7606  0.0469 -0.2433
  564TMC3    O2 8429   4.357   1.271  16.505 -0.6740 -0.0234 -0.2209
  565TMC3    C1 8430   0.538   2.186  10.348  0.1193  0.5820  0.2861
  565TMC3    C2 8431   0.574   2.096  10.451 -0.0884  0.0225 -0.1893
  565TMC3    C3 8432   0.484   2.007  10.478  0.4284  0.3749  0.0767
  565TMC3    C4 8433   0.420   2.180  10.278  0.6148  0.3363 -0.3249
  565TMC3    C5 8434   0.331   2.095  10.323 -0.4876 -0.3965  0.3290
  565TMC3    C6 8435   0.360   2.005  10.421 -0.9926  0.0032 -0.8023
  565TMC3     C 8436   0.638   2.287  10.318  0.3279 -0.1277  0.7088
  565TMC3     O 8437   0.630   2.337  10.208  0.5346  0.1059  0.0976
  565TMC3     H 8438   0.674   2.093  10.491 -0.3877 -1.3409  0.4589
  565TMC3    H1 8439   0.407   2.219  10.177  2.3953  1.4750 -0.1201
  565TMC3    H2 8440   0.274   1.974  10.479 -0.5572  0.5243  0.1308
  565TMC3    C7 8441   0.202   2.079  10.256  0.0784 -0.3107 -0.0095
  565TMC3    C8 8442   0.527   1.888  10.543 -0.0447 -0.4205 -0.0381
  565TMC3    O1 8443   0.131   1.976  10.276  0.3197 -0.0511 -0.7703
  565TMC3    O2 8444   0.638   1.885  10.595  0.1332  0.0771 -0.6723
  566MPD2     C 8445   1.650   3.913  14.295 -0.1870  0.4712  0.4646
  566MPD2    C1 8446   1.718   3.819  14.233 -0.9442 -0.2029  0.3099
  566MPD2    C2 8447   1.672   3.731  14.136 -0.0533  0.2180  0.3805
  566MPD2    C3 8448   1.538   3.743  14.104 -0.0378  0.1795  0.7867
  566MPD2    C4 8449   1.462   3.836  14.173  0.2714 -0.9384 -0.2492
  566MPD2    C5 8450   1.519   3.928  14.262 -0.0009 -0.5440 -0.6816
  566MPD2     H 8451   1.741   3.662  14.089 -1.1831  0.0258 -1.0192
  566MPD2    H1 8452   1.361   3.852  14.136 -0.0675 -1.0647  0.6226
  566MPD2    H2 8453   1.697   3.973  14.372 -1.1882  0.0813  1.3723
  566MPD2    H3 8454   1.468   4.008  14.316  0.8711 -0.0846 -0.5353
  566MPD2     N 8455   1.468   3.660  14.011  0.0572 -0.3737 -0.4627
  566MPD2    H5 8456   1.371   3.640  14.032  0.6200 -1.5962  0.9336
  566MPD2    N1 8457   1.864   3.815  14.269 -0.1348 -0.0355  0.7785
  566MPD2    H7 8458   1.895   3.874  14.346 -2.8530  2.6928 -0.2245
  567TMC3    C1 8459   2.100   3.760  14.258  0.5220  0.3062  0.1691
  567TMC3    C2 8460   2.194   3.745  14.162  0.0336 -0.0232 -0.0190
  567TMC3    C3 8461   2.330   3.760  14.195  0.6133  0.5279 -0.9426
  567TMC3    C4 8462   2.117   3.800  14.384 -0.2919  0.1726 -0.4526
  567TMC3    C5 8463   2.251   3.811  14.418 -0.7938 -0.0431 -0.2616
  567TMC3    C6 8464   2.361   3.791  14.326  0.4330  0.1900 -1.1255
  567TMC3     C 8465   1.961   3.748  14.202  0.9261  0.3858  0.1302
  567TMC3     O 8466   1.958   3.709  14.086 -0.2500  0.1181  0.0344
  567TMC3     H 8467   2.168   3.718  14.060 -1.3652 -0.2194  0.3945
  567TMC3    H1 8468   2.034   3.797  14.453 -1.9265  1.0243 -2.3778
  567TMC3    H2 8469   2.461   3.788  14.368  0.0633 -2.5621 -0.4093
  567TMC3    C7 8470   2.291   3.840  14.555 -0.5256  0.7019  0.4460
  567TMC3    C8 8471   2.413   3.793  14.082  0.1948  0.3616 -0.0464
  567TMC3    O1 8472   2.407   3.880  14.571 -0.2819 -0.7098 -0.1136
  567TMC3    O2 8473   2.355   3.807  13.976 -0.4699 -0.1783  0.4241
  568MPD2     C 8474   4.627   4.695  16.353  0.1705 -0.2418  0.3036
  568MPD2    C1 8475   4.571   4.738  16.471 -0.2955 -0.0910 -0.1618
  568MPD2    C2 8476   4.486   0.108  16.460 -0.1318  0.2722  0.3669
  568MPD2    C3 8477   4.442   0.165  16.344 -0.3674 -0.9512 -0.1051
  568MPD2    C4 8478   4.488   0.103  16.226 -0.4005  0.0119 -0.3903
  568MPD2    C5 8479   4.579   0.002  16.234  0.0072  0.2461 -0.0752
  568MPD2     H 8480   4.448   0.140  16.556 -2.5072 -0.1257 -0.4361
  568MPD2    H1 8481   4.464   0.137  16.126 -0.1042 -1.0355 -0.8194
  568MPD2    H2 8482   4.701   4.615  16.352 -1.4373 -1.6878 -1.5447
  568MPD2    H3 8483   4.616   4.703  16.139 -0.1659  0.8362 -0.3783
  568MPD2     N 8484   4.345   0.269  16.349 -0.0582  0.1852  0.2681
  568MPD2    H5 8485   4.307   0.290  16.440 -0.1943 -1.5961  0.6268
  568MPD2    N1 8486   4.618   4.681  16.594  0.2353  0.2670 -0.5914
  568MPD2    H7 8487   4.689   4.610  16.573 -0.6784 -0.8263  0.0136
  569TMC3    C1 8488   4.210   0.445  16.256 -0.1015  0.0993  0.6553
  569TMC3    C2 8489   4.171   0.459  16.380  0.2920 -0.1918 -1.0193
  569TMC3    C3 8490   4.184   0.573  16.440  0.8489  0.1680  0.5465
  569TMC3    C4 8491   4.235   0.560  16.187 -0.4470  0.7342 -0.3491
  569TMC3    C5 8492   4.241   0.678  16.249 -0.2751 -0.5871  0.0168
  569TMC3    C6 8493   4.213   0.691  16.382  0.3794  0.6508  0.0127
  569TMC3     C 8494   4.314   0.343  16.234 -0.0662  0.1962 -0.0499
  569TMC3     O 8495   4.375   0.360  16.129  0.2307  0.1328  0.2229
  569TMC3     H 8496   4.124   0.373  16.427  0.0267  0.9323  0.7658
  569TMC3    H1 8497   4.256   0.554  16.081 -0.2972  2.7074 -0.4164
  569TMC3    H2 8498   4.202   0.785  16.435 -1.0191  0.7227 -0.3842
  569TMC3    C7 8499   4.264   0.789  16.166  0.5951  0.2842 -0.7182
  569TMC3    C8 8500   4.235   0.551  16.576  0.8020  0.0137  0.0001
  569TMC3    O1 8501   4.287   0.775  16.050 -0.6226  0.4133 -0.5033
  569TMC3    O2 8502   4.268   0.436  16.583 -0.4392 -0.0551 -0.3355
  570TMC3    C1 8503   3.595   3.521  16.290  0.1355  0.3507  0.2464
  570TMC3    C2 8504   3.619   3.496  16.156  0.2095  0.4950 -0.2800
  570TMC3    C3 8505   3.611   3.600  16.068 -0.4649 -0.1192  0.0342
  570TMC3    C4 8506   3.562   3.647  16.329  0.0435 -0.7591 -0.3189
  570TMC3    C5 8507   3.563   3.753  16.243  0.4214 -0.2482 -0.2042
  570TMC3    C6 8508   3.596   3.735  16.111  0.1224 -0.1181 -0.4419
  570TMC3     C 8509   3.565   3.417  16.382 -0.4919  0.2243  0.3362
  570TMC3     O 8510   3.529   3.307  16.343  0.3843 -0.4987 -0.4730
  570TMC3     H 8511   3.634   3.391  16.134 -2.0804  0.4701 -1.7587
  570TMC3    H1 8512   3.549   3.679  16.431  0.9120  0.5739 -0.6151
  570TMC3    H2 8513   3.599   3.820  16.044  0.6628 -0.8364 -1.3243
  570TMC3    C7 8514   3.600   3.883  16.298  0.0202 -0.1387  0.0052
  570TMC3    C8 8515   3.690   3.588  15.947 -0.6890  0.2378  0.3312
  570TMC3    O1 8516   3.663   3.882  16.404  0.3778 -0.3656  0.2131
  570TMC3    O2 8517   3.691   3.680  15.867 -0.3499  0.4870 -0.0424
  571MPD2     C 8518   1.620   0.355   0.085  0.2735 -0.4461 -0.4395
  571MPD2    C1 8519   1.621   0.361   0.219  0.0468  0.4442  0.1617
  571MPD2    C2 8520   1.693   0.457   0.285  0.3135 -0.4132  0.0083
  571MPD2    C3 8521   1.758   0.559   0.215 -0.3994  0.8249 -0.6450
  571MPD2    C4 8522   1.751   0.556   0.077  0.7599 -0.0972  0.3610
  571MPD2    C5 8523   1.684   0.452   0.013  0.2450 -0.4893  0.5258
  571MPD2     H 8524   1.694   0.469   0.393 -1.3985  2.2520 -0.2488
  571MPD2    H1 8525   1.798   0.633   0.017  0.7758 -0.5055 -0.1459
  571MPD2    H2 8526   1.564   0.281   0.028 -0.8482  1.4064 -1.7602
  571MPD2    H3 8527   1.685   0.462  17.659 -1.3870  0.6133  0.6226
  571MPD2     N 8528   1.827   0.660   0.281 -0.4971  0.1371 -0.3660
  571MPD2    H5 8529   1.826   0.661   0.382  3.3071  0.6458 -0.3223
  571MPD2    N1 8530   1.549   0.262   0.284 -0.0068  0.4708 -0.7763
  571MPD2    H7 8531   1.497   0.193   0.231  1.2015 -0.4754 -0.7189
  572TMC3    C1 8532   1.973   0.840   0.327 -0.5483  0.4581 -0.0198
  572TMC3    C2 8533   2.005   0.787   0.451  0.2014  1.2130  0.0753
  572TMC3    C3 8534   2.077   0.868   0.538 -0.8815 -0.5125 -0.6107
  572TMC3    C4 8535   2.012   0.969   0.299 -0.3166  0.2129 -0.5978
  572TMC3    C5 8536   2.081   1.049   0.389  0.7203 -0.0755 -0.1283
  572TMC3    C6 8537   2.119   0.993   0.508 -0.4455  0.1923  0.4080
  572TMC3     C 8538   1.910   0.756   0.223  0.1614 -0.0846  0.0801
  572TMC3     O 8539   1.925   0.788   0.105 -0.3126  0.4725 -0.9209
  572TMC3     H 8540   2.006   0.681   0.472  0.5821  1.1553 -0.2370
  572TMC3    H1 8541   1.995   1.007   0.199 -1.4946  0.1639 -0.4165
  572TMC3    H2 8542   2.197   1.042   0.565 -1.2142 -1.4629  2.8885
  572TMC3    C7 8543   2.057   1.198   0.388  0.4418  0.2077  0.2070
  572TMC3    C8 8544   2.166   0.793   0.632 -0.6654  0.8480  0.4191
  572TMC3    O1 8545   2.077   1.254   0.285 -0.6893 -0.3550  0.0938
  572TMC3    O2 8546   2.192   0.678   0.600  0.1760 -0.1124  0.4706
  573MPD2     C 8547   3.330   1.352   1.353  0.2219 -0.2452  0.0971
  573MPD2    C1 8548   3.238   1.459   1.348  0.3262 -0.1384  0.1449
  573MPD2    C2 8549   3.124   1.436   1.274  0.0206 -0.5336  0.3414
  573MPD2    C3 8550   3.104   1.324   1.197 -0.0459  0.6525  0.5853
  573MPD2    C4 8551   3.201   1.221   1.191 -0.2293 -0.3699  0.0743
  573MPD2    C5 8552   3.307   1.243   1.272 -0.0086  0.1183 -0.0380
  573MPD2     H 8553   3.043   1.508   1.283  2.9478  2.9317 -0.6863
  573MPD2    H1 8554   3.184   1.127   1.139 -3.3614 -1.6963  3.5063
  573MPD2    H2 8555   3.423   1.354   1.409  0.3798  0.1335 -0.1799
  573MPD2    H3 8556   3.378   1.162   1.275 -2.3795 -1.9996 -0.8366
  573MPD2     N 8557   2.985   1.311   1.118 -0.5181  0.5392 -0.1228
  573MPD2    H5 8558   2.965   1.224   1.068  0.8354 -0.0451  0.3503
  573MPD2    N1 8559   3.261   1.571   1.434 -0.0292 -0.1611  0.0494
  573MPD2    H7 8560   3.339   1.573   1.499 -0.0620 -0.4387  0.0949
  574TMC3    C1 8561   2.811   1.365   0.974 -0.1824  0.7832 -0.7033
  574TMC3    C2 8562   2.711   1.458   0.942 -0.0579  0.3828 -0.0704
  574TMC3    C3 8563   2.671   1.461   0.814 -0.3317  0.0310  0.6880
  574TMC3    C4 8564   2.862   1.274   0.888  0.1386  0.3785 -0.5804
  574TMC3    C5 8565   2.822   1.292   0.757 -0.4251  0.5193  0.7261
  574TMC3    C6 8566   2.720   1.375   0.715 -0.0538  0.0422 -0.8270
  574TMC3     C 8567   2.887   1.402   1.092 -0.3523  0.5671  0.3287
  574TMC3     O 8568   2.873   1.519   1.128  0.6423  0.6539 -0.0158
  574TMC3     H 8569   2.669   1.523   1.018 -1.1034 -1.0756  0.5838
  574TMC3    H1 8570   2.942   1.204   0.909 -0.2083  0.6651  1.7270
  574TMC3    H2 8571   2.689   1.389   0.612 -1.5587  3.1740  0.0439
  574TMC3    C7 8572   2.924   1.243   0.663  0.2937 -0.6696 -0.7033
  574TMC3    C8 8573   2.549   1.532   0.798 -0.6906  0.5184  0.7482
  574TMC3    O1 8574   3.013   1.171   0.703  0.1978 -0.3947 -0.8850
  574TMC3    O2 8575   2.476   1.540   0.896  0.4933 -0.0193 -0.0806
  575TMC3    C1 8576   1.007   1.386  11.075  0.1950  0.1305  0.2709
  575TMC3    C2 8577   0.962   1.267  11.113 -0.4004  0.2312 -0.0660
  575TMC3    C3 8578   0.853   1.212  11.049  0.1949  0.2838  0.0971
  575TMC3    C4 8579   0.945   1.463  10.979  0.1401  0.1393 -0.7263
  575TMC3    C5 8580   0.837   1.405  10.915 -0.4433  0.2284 -0.2624
  575TMC3    C6 8581   0.792   1.278  10.941  0.2293 -0.4246  0.7813
  575TMC3     C 8582   1.139   1.421  11.121  0.4268  0.0552 -0.1410
  575TMC3     O 8583   1.183   1.372  11.224  0.1682  0.1536 -0.0234
  575TMC3     H 8584   1.014   1.210  11.189  0.3620 -0.2990 -0.9757
  575TMC3    H1 8585   0.972   1.564  10.950  2.2036 -1.5773 -4.8545
  575TMC3    H2 8586   0.722   1.226  10.876 -2.2976 -0.2232  3.3059
  575TMC3    C7 8587   0.767   1.491  10.827 -0.4281 -0.7887  0.3999
  575TMC3    C8 8588   0.812   1.083  11.091 -0.6817  0.3560 -0.0750
  575TMC3    O1 8589   0.816   1.590  10.775 -0.4196  0.1371 -0.2415
  575TMC3    O2 8590   0.842   1.047  11.206 -0.7845  0.1220 -0.2943
  576MPD2     C 8591   0.316   2.897  13.121  1.7966  1.3267  0.4715
  576MPD2    C1 8592   0.333   2.998  13.024  0.5848 -0.4612 -0.2509
  576MPD2    C2 8593   0.290   3.127  13.044  0.2888 -0.2640  0.3355
  576MPD2    C3 8594   0.217   3.159  13.160 -0.5344  0.4328  0.3386
  576MPD2    C4 8595   0.199   3.063  13.253 -0.0001  0.0602 -0.1174
  576MPD2    C5 8596   0.242   2.928  13.229 -0.1426 -0.2941  0.7496
  576MPD2     H 8597   0.313   3.214  12.984  1.0577 -0.5129  0.2676
  576MPD2    H1 8598   0.158   3.084  13.351 -0.9904  2.3354 -1.0242
  576MPD2    H2 8599   0.347   2.798  13.090 -2.6606 -0.3081  1.2888
  576MPD2    H3 8600   0.200   2.853  13.295 -0.1074 -1.4558 -0.5476
  576MPD2     N 8601   0.180   3.299  13.172  0.5848 -0.7679  0.3224
  576MPD2    H5 8602   0.201   3.363  13.096 -1.3861  0.3148  0.6799
  576MPD2    N1 8603   0.391   2.970  12.902 -0.3247 -0.0056 -0.2769
  576MPD2    H7 8604   0.396   3.054  12.845 -0.1507  1.3302  1.7040
  577TMC3    C1 8605   0.472   2.871  12.721 -0.2725  1.0727  0.8029
  577TMC3    C2 8606   0.447   2.772  12.628  0.5645 -0.3196 -0.4250
  577TMC3    C3 8607   0.495   2.793  12.501 -0.0387  0.2484 -0.1599
  577TMC3    C4 8608   0.539   2.993  12.694 -0.0390  0.1194 -0.0123
  577TMC3    C5 8609   0.569   3.007  12.561  0.7893  0.3030 -0.6234
  577TMC3    C6 8610   0.549   2.913  12.465  0.1306  0.3492 -0.2027
  577TMC3     C 8611   0.426   2.846  12.847 -0.4267  0.7778  1.1729
  577TMC3     O 8612   0.403   2.729  12.879  0.1509 -0.3490 -0.3137
  577TMC3     H 8613   0.391   2.681  12.645  1.7498 -1.0514 -0.3586
  577TMC3    H1 8614   0.559   3.068  12.769 -0.5206 -0.7016  0.9409
  577TMC3    H2 8615   0.582   2.935  12.364 -1.5545 -1.6511 -1.2028
  577TMC3    C7 8616   0.619   3.132  12.520 -0.5807  0.7054 -0.2106
  577TMC3    C8 8617   0.488   2.675  12.416  0.5073  0.1025 -0.4957
  577TMC3    O1 8618   0.658   3.210  12.608  0.2557  0.0595  0.1765
  577TMC3    O2 8619   0.407   2.592  12.450 -0.4644 -0.9233 -0.2709
  578MPD2     C 8620   3.166   4.177   1.140  0.5372 -0.1811 -0.2574
  578MPD2    C1 8621   3.237   4.108   1.037 -0.0566  0.0122 -0.7949
  578MPD2    C2 8622   3.359   4.060   1.071 -0.1583  0.3302 -0.1992
  578MPD2    C3 8623   3.406   4.048   1.203  0.2301  0.2673 -0.6457
  578MPD2    C4 8624   3.334   4.109   1.301  0.0669  0.4641 -0.5796
  578MPD2    C5 8625   3.214   4.170   1.273 -0.5966 -0.0939 -0.8296
  578MPD2     H 8626   3.416   4.008   0.995 -2.3029 -1.7635 -0.3436
  578MPD2    H1 8627   3.369   4.102   1.404  1.4637 -0.4196 -1.1007
  578MPD2    H2 8628   3.076   4.236   1.123  0.8370  1.0938  2.6021
  578MPD2    H3 8629   3.166   4.211   1.361 -0.7056 -0.9874 -0.4691
  578MPD2     N 8630   3.518   3.976   1.227 -0.3465  0.4744 -0.1048
  578MPD2    H5 8631   3.564   3.934   1.147  1.0785  2.6180 -0.3924
  578MPD2    N1 8632   3.182   4.123   0.901 -0.9105 -0.3532 -0.5164
  578MPD2    H7 8633   3.103   4.184   0.885 -0.4406  0.0504 -1.2945
  579TMC3    C1 8634   3.692   3.878   1.339 -0.5776  0.5375  0.0906
  579TMC3    C2 8635   3.793   3.912   1.422 -0.3128 -0.3340 -0.1554
  579TMC3    C3 8636   3.905   3.837   1.417 -0.2745  0.1102  0.5250
  579TMC3    C4 8637   3.705   3.787   1.239  0.1940 -0.4618  0.3304
  579TMC3    C5 8638   3.818   3.705   1.242 -0.4966 -0.0109 -0.4039
  579TMC3    C6 8639   3.920   3.732   1.329 -0.1002 -0.2089  0.2313
  579TMC3     C 8640   3.571   3.955   1.351 -0.4955 -0.5870 -0.0694
  579TMC3     O 8641   3.553   4.007   1.460 -0.4343 -0.0860  0.2208
  579TMC3     H 8642   3.791   3.991   1.496 -1.1491 -0.9184  0.4516
  579TMC3    H1 8643   3.618   3.762   1.179 -1.0477  2.2682  0.9952
  579TMC3    H2 8644   4.004   3.663   1.332 -0.7975 -0.9168  3.3193
  579TMC3    C7 8645   3.833   3.589   1.154 -0.3667 -0.5310  0.2761
  579TMC3    C8 8646   3.996   3.860   1.529 -0.3728  0.1728  0.1604
  579TMC3    O1 8647   3.915   3.508   1.197  0.4131  0.3832 -0.3508
  579TMC3    O2 8648   3.956   3.939   1.613  0.2292  0.3107 -0.0527
  580TMC3    C1 8649   2.664   1.783  11.630 -0.1785  0.8207 -0.2328
  580TMC3    C2 8650   2.754   1.751  11.533  0.2470  0.1605 -0.0041
  580TMC3    C3 8651   2.769   1.615  11.513  0.2501  0.2681 -0.6218
  580TMC3    C4 8652   2.599   1.694  11.698  0.3993 -0.3636  0.9052
  580TMC3    C5 8653   2.642   1.563  11.697  0.3277  0.5936  0.1923
  580TMC3    C6 8654   2.712   1.520  11.591 -0.9910  0.6587  0.8288
  580TMC3     C 8655   2.691   1.908  11.703 -0.2298 -0.3003 -0.4321
  580TMC3     O 8656   2.764   1.987  11.639 -0.2120 -0.0246  0.1257
  580TMC3     H 8657   2.805   1.825  11.472  0.0157  0.7139  0.4726
  580TMC3    H1 8658   2.516   1.720  11.763 -0.7403 -0.2917 -0.5719
  580TMC3    H2 8659   2.739   1.415  11.582 -0.3769  1.1240 -2.7427
  580TMC3    C7 8660   2.623   1.485  11.827 -0.2418  0.2524 -0.2228
  580TMC3    C8 8661   2.889   1.576  11.440 -0.2752 -0.3815  0.3273
  580TMC3    O1 8662   2.616   1.558  11.929 -0.5473 -0.8590 -0.4819
  580TMC3    O2 8663   2.893   1.470  11.382 -0.5921 -0.3392  0.1215
  581MPD2     C 8664   1.124   2.299  15.275 -0.4421 -0.0388  0.4080
  581MPD2    C1 8665   1.032   2.232  15.352  0.8699  0.1249 -0.0974
  581MPD2    C2 8666   0.893   2.240  15.317 -0.3630  0.2991 -0.1223
  581MPD2    C3 8667   0.854   2.332  15.215  0.4666  0.4740 -0.6678
  581MPD2    C4 8668   0.956   2.404  15.148 -0.1367  0.5233 -0.1262
  581MPD2    C5 8669   1.086   2.390  15.180 -0.2717  0.6991 -0.7597
  581MPD2     H 8670   0.817   2.178  15.363 -0.8138  2.2147  1.7064
  581MPD2    H1 8671   0.932   2.482  15.077 -3.4422  0.1782  0.5901
  581MPD2    H2 8672   1.231   2.285  15.281 -0.5089 -0.6849  0.1130
  581MPD2    H3 8673   1.163   2.432  15.117  0.1166 -0.7253 -1.2277
  581MPD2     N 8674   0.719   2.360  15.188  0.2579  0.3861  0.1700
  581MPD2    H5 8675   0.698   2.437  15.126  2.1177  1.4280  0.8350
  581MPD2    N1 8676   1.079   2.162  15.460  0.0032  0.4955  0.2480
  581MPD2    H7 8677   1.177   2.141  15.472 -0.0316 -1.2360 -2.5819
  582TMC3    C1 8678   1.080   2.018  15.637  0.2364 -0.1231 -0.1542
  582TMC3    C2 8679   1.141   2.109  15.720 -0.3447 -0.3544 -0.1684
  582TMC3    C3 8680   1.115   2.104  15.850  0.2236 -0.3706  0.5635
  582TMC3    C4 8681   0.998   1.926  15.697  0.1395  0.0941  0.1226
  582TMC3    C5 8682   0.974   1.922  15.833  0.6849  0.2432 -0.3475
  582TMC3    C6 8683   1.040   2.008  15.910 -0.3791  0.4656  0.8039
  582TMC3     C 8684   1.001   2.083  15.531 -0.3101  0.5696  0.1542
  582TMC3     O 8685   0.882   2.082  15.547  0.3948  0.7060  0.3372
  582TMC3     H 8686   1.176   2.202  15.678  1.4270 -0.5291  0.9314
  582TMC3    H1 8687   0.941   1.859  15.633 -1.0223  0.9966  0.2061
  582TMC3    H2 8688   1.047   1.991  16.017 -2.5190 -0.5296  0.7882
  582TMC3    C7 8689   0.833   1.893  15.859  0.3869  0.9371  0.0137
  582TMC3    C8 8690   1.186   2.198  15.927 -0.2856  0.4684 -1.1109
  582TMC3    O1 8691   0.805   1.849  15.968  0.5922  0.1672 -0.1168
  582TMC3    O2 8692   1.303   2.210  15.891 -0.3762  0.2051 -0.5189
  583MPD2     C 8693   0.636   4.346  17.198 -0.0903 -0.0785 -0.0500
  583MPD2    C1 8694   0.617   4.425  17.087 -0.0008 -0.3062 -0.3917
  583MPD2    C2 8695   0.576   4.555  17.102 -0.0793  0.0433 -0.1885
  583MPD2    C3 8696   0.550   4.607  17.226  0.1127 -0.6673 -0.7411
  583MPD2    C4 8697   0.585   4.533  17.338 -0.0207 -0.6794 -0.4885
  583MPD2    C5 8698   0.602   4.397  17.321 -0.5320  0.3776  0.0496
  583MPD2     H 8699   0.563   4.625  17.020  0.1924  0.7020  0.3265
  583MPD2    H1 8700   0.576   4.566  17.442  0.1589  0.0670 -0.7070
  583MPD2    H2 8701   0.647   4.238  17.189  0.9421 -0.0431  0.7596
  583MPD2    H3 8702   0.599   4.333  17.408  0.0328  0.5291  0.1749
  583MPD2     N 8703   0.506   0.002  17.232 -0.5297  0.1660  0.1011
  583MPD2    H5 8704   0.490   0.048  17.143 -0.4227 -0.0177 -0.0130
  583MPD2    N1 8705   0.636   4.387  16.953  0.4924  0.5366 -0.8335
  583MPD2    H7 8706   0.614   4.458  16.884  0.3158  1.9941  0.7341
  584TMC3    C1 8707   0.409   0.196  17.334 -0.7441 -0.1823 -0.7263
  584TMC3    C2 8708   0.457   0.267  17.230  0.6351  0.5873 -0.4639
  584TMC3    C3 8709   0.466   0.401  17.245  0.3051 -0.4889  0.0064
  584TMC3    C4 8710   0.359   0.254  17.450  0.4997 -0.1610  0.4026
  584TMC3    C5 8711   0.363   0.396  17.453  0.0590 -0.2197 -0.0747
  584TMC3    C6 8712   0.421   0.473  17.354 -0.2457  0.1923  0.4433
  584TMC3     C 8713   0.465   0.058  17.348 -0.6743 -1.1555  0.2716
  584TMC3     O 8714   0.455   0.026  17.464 -0.1535 -0.3828  0.1827
  584TMC3     H 8715   0.525   0.224  17.157  0.1200  1.8591 -1.6730
  584TMC3    H1 8716   0.316   0.186  17.522  0.1741  0.9139  1.2285
  584TMC3    H2 8717   0.415   0.581  17.350  0.8534  0.1723 -1.3667
  584TMC3    C7 8718   0.264   0.472  17.531 -0.1011 -0.3415 -0.1327
  584TMC3    C8 8719   0.562   0.460  17.156  0.3737 -0.3897 -0.2748
  584TMC3    O1 8720   0.260   0.592  17.509  0.2669  0.1543  0.2741
  584TMC3    O2 8721   0.568   0.416  17.044  0.2289 -0.5296 -0.0440
  585MPD2     C 8722   4.709   3.475   0.002  0.2453 -0.3511  0.0055
  585MPD2    C1 8723   0.078   3.389  17.741  0.2317 -0.0987  0.1096
  585MPD2    C2 8724   0.110   3.358  17.615  0.4062 -0.3028 -0.0774
  585MPD2    C3 8725   0.055   3.415  17.504  0.0061  0.6475 -0.0686
  585MPD2    C4 8726   4.695   3.502  17.526 -1.0452 -0.4678  0.2789
  585MPD2    C5 8727   4.644   3.529  17.649 -0.5788 -0.8641  0.8864
  585MPD2     H 8728   0.206   3.307  17.609  1.3962  1.6637 -0.9674
  585MPD2    H1 8729   4.653   3.552  17.439  0.3202  1.2643  0.6261
  585MPD2    H2 8730   4.683   3.507   0.102  0.2182 -0.9269  0.1838
  585MPD2    H3 8731   4.559   3.596  17.652 -1.4750 -2.0437  1.6514
  585MPD2     N 8732   0.082   3.386  17.370 -0.1853 -0.4846  0.6207
  585MPD2    H5 8733   0.023   3.429  17.299  0.4277  0.9908  1.0197
  585MPD2    N1 8734   0.151   3.356   0.105 -0.0354  0.2146 -0.0730
  585MPD2    H7 8735   0.117   3.395   0.193 -0.0444 -1.5527  0.7128
  586TMC3    C1 8736   0.150   3.238  17.193 -0.4650 -0.7998 -0.1779
  586TMC3    C2 8737   0.239   3.143  17.159 -0.1783 -0.3123  0.9564
  586TMC3    C3 8738   0.194   3.041  17.080  0.3188  0.5925 -0.0780
  586TMC3    C4 8739   0.029   3.253  17.130  0.3124  0.0417 -0.0458
  586TMC3    C5 8740   4.728   3.148  17.050 -0.7434 -0.6909 -0.5109
  586TMC3    C6 8741   0.069   3.037  17.028  0.8470 -0.4166  0.7426
  586TMC3     C 8742   0.175   3.295  17.327 -0.1145  0.0356 -0.8011
  586TMC3     O 8743   0.270   3.246  17.386 -0.1638 -0.5136  0.3155
  586TMC3     H 8744   0.336   3.140  17.208  0.0079  3.0095  0.8421
  586TMC3    H1 8745   4.697   3.330  17.158 -0.4330 -0.4574 -0.5611
  586TMC3    H2 8746   0.037   2.955  16.965  1.4137  0.5272 -0.7752
  586TMC3    C7 8747   4.594   3.123  17.032 -0.6387 -0.0508 -0.5711
  586TMC3    C8 8748   0.293   2.974  16.999 -0.3874 -0.0804  0.2304
  586TMC3    O1 8749   4.567   3.005  17.047 -0.2340  0.5365  0.1343
  586TMC3    O2 8750   0.255   2.877  16.943  0.4877  0.2367  0.1710
  587TMC3    C1 8751   2.049   2.083  16.468 -0.5941 -0.3034  0.6103
  587TMC3    C2 8752   2.025   2.106  16.600  0.1634  0.3689 -0.1256
  587TMC3    C3 8753   2.124   2.067  16.689 -0.2267  0.2114 -0.0172
  587TMC3    C4 8754   2.161   2.030  16.423 -0.4488 -0.5702  0.0460
  587TMC3    C5 8755   2.253   1.984  16.512  0.1182 -0.0113 -0.4288
  587TMC3    C6 8756   2.242   2.001  16.644  0.6020 -0.0975 -0.0847
  587TMC3     C 8757   1.940   2.107  16.377 -0.1754  0.1367 -0.1245
  587TMC3     O 8758   1.973   2.136  16.260 -0.3447 -0.0698 -0.2196
  587TMC3     H 8759   1.929   2.144  16.634 -1.4377 -2.3414 -1.6586
  587TMC3    H1 8760   2.176   2.002  16.319 -1.0161  1.3067 -0.5278
  587TMC3    H2 8761   2.320   1.973  16.714  0.6252 -0.4293 -0.2398
  587TMC3    C7 8762   2.351   1.892  16.462  0.4379 -0.1522  0.0406
  587TMC3    C8 8763   2.119   2.118  16.821  0.0612 -0.4239 -0.9229
  587TMC3    O1 8764   2.458   1.939  16.430 -0.2421 -0.1095  0.3988
  587TMC3    O2 8765   2.191   2.069  16.907  0.2482  0.1431 -0.0402
  588TMC3    C1 8766   0.088   4.348  10.163  0.0335  1.4148 -0.2232
  588TMC3    C2 8767   0.033   4.241  10.099 -0.0397 -0.2342 -0.3456
  588TMC3    C3 8768   0.110   4.131  10.071 -0.7529 -0.0422 -0.7722
  588TMC3    C4 8769   0.219   4.346  10.212  0.0697  0.4460  0.3140
  588TMC3    C5 8770   0.296   4.238  10.181  0.6618 -0.2964 -0.1614
  588TMC3    C6 8771   0.248   4.129  10.116 -0.0003 -1.0303  0.0086
  588TMC3     C 8772   0.010   4.464  10.163 -0.1961 -0.1793 -0.0673
  588TMC3     O 8773   4.670   4.480  10.070 -0.0539  0.0195  0.8453
  588TMC3     H 8774   4.665   4.231  10.081 -0.0370 -1.0137  0.0695
  588TMC3    H1 8775   0.265   4.443  10.223 -0.9576  1.2087 -2.1268
  588TMC3    H2 8776   0.306   4.038  10.111 -0.3684 -1.2661 -0.0213
  588TMC3    C7 8777   0.434   4.241  10.214  0.3005  0.0386  0.0855
  588TMC3    C8 8778   0.048   4.005  10.018  0.4327 -0.5928  0.4668
  588TMC3    O1 8779   0.517   4.169  10.158  0.3801 -0.0673 -0.2877
  588TMC3    O2 8780   4.663   4.004  10.019  0.3422  0.3900 -0.9530
  589TMC3    C1 8781   3.983   1.687   1.047  0.2988  0.2166 -0.0599
  589TMC3    C2 8782   4.064   1.742   1.148 -0.5235 -0.0893 -0.4310
  589TMC3    C3 8783   4.180   1.678   1.181 -0.2032  0.8547  0.3510
  589TMC3    C4 8784   4.014   1.560   1.004  0.3435  0.8261 -0.1283
  589TMC3    C5 8785   4.129   1.495   1.041 -0.6096 -0.3864 -0.5012
  589TMC3    C6 8786   4.212   1.559   1.129 -0.3468  0.8650 -0.2714
  589TMC3     C 8787   3.871   1.756   0.989  0.4841 -0.6168  0.5627
  589TMC3     O 8788   3.796   1.685   0.921 -0.4909 -0.6595 -0.4856
  589TMC3     H 8789   4.022   1.824   1.205  1.0419  0.2350  0.2510
  589TMC3    H1 8790   3.955   1.518   0.923 -1.3212  0.4852  1.2556
  589TMC3    H2 8791   4.301   1.511   1.168 -0.1497  1.4815  0.0438
  589TMC3    C7 8792   4.150   1.368   0.982  0.0013  0.6416 -0.0575
  589TMC3    C8 8793   4.254   1.755   1.282  0.0148 -0.6191 -0.7388
  589TMC3    O1 8794   4.075   1.335   0.892 -0.2013 -0.2666 -0.1005
  589TMC3    O2 8795   4.201   1.844   1.346  0.2496 -0.0430  0.2499
  590MPD2     C 8796   3.452   0.240  16.865  0.2052  0.4902  0.0296
  590MPD2    C1 8797   3.355   0.319  16.807  0.4332 -0.2175 -0.0933
  590MPD2    C2 8798   3.388   0.428  16.736 -0.2942  0.5680  0.1327
  590MPD2    C3 8799   3.524   0.450  16.705 -0.4723  0.3740  0.1421
  590MPD2    C4 8800   3.619   0.367  16.766 -0.7368  0.5650  0.3991
  590MPD2    C5 8801   3.581   0.257  16.843 -0.1984 -0.1963  0.1520
  590MPD2     H 8802   3.312   0.501  16.711  1.3372  1.3719 -2.4486
  590MPD2    H1 8803   3.725   0.380  16.749 -0.3758 -0.3758  1.8263
  590MPD2    H2 8804   3.424   0.146  16.912  0.7270  0.8954  1.1498
  590MPD2    H3 8805   3.649   0.192  16.895  0.8107 -0.0838 -1.0227
  590MPD2     N 8806   3.552   0.560  16.619  0.2489  1.2602 -0.2910
  590MPD2    H5 8807   3.479   0.626  16.592 -0.4141  0.3266 -0.7930
  590MPD2    N1 8808   3.223   0.277  16.803 -0.0460  0.5541  0.0841
  590MPD2    H7 8809   3.196   0.211  16.875  1.4580  1.5467  1.5415
  591TMC3    C1 8810   3.681   0.709  16.489 -0.1479 -1.0447  0.0922
  591TMC3    C2 8811   3.766   0.701  16.382 -0.2340 -0.1118  0.4979
  591TMC3    C3 8812   3.761   0.778  16.273  0.3414 -0.1500 -0.0653
  591TMC3    C4 8813   3.584   0.802  16.485 -0.0061 -0.4603 -0.0703
  591TMC3    C5 8814   3.580   0.886  16.378  0.9983  0.4450 -0.1073
  591TMC3    C6 8815   3.659   0.868  16.261 -0.6445 -0.2030  0.8157
  591TMC3     C 8816   3.676   0.586  16.564  0.4172  0.6475  0.1219
  591TMC3     O 8817   3.774   0.518  16.576 -0.0325 -0.0282  0.9949
  591TMC3     H 8818   3.835   0.619  16.370 -0.5606 -0.6862  2.5685
  591TMC3    H1 8819   3.530   0.822  16.577 -0.8529  1.0349 -0.9004
  591TMC3    H2 8820   3.637   0.911  16.164 -0.9495 -0.7936  0.6247
  591TMC3    C7 8821   3.464   0.961  16.367  0.0225 -0.1183 -0.1291
  591TMC3    C8 8822   3.828   0.723  16.152 -0.9543  0.7632 -0.1168
  591TMC3    O1 8823   3.370   0.929  16.441  0.3640  0.1690 -0.4539
  591TMC3    O2 8824   3.830   0.601  16.147 -0.1639 -0.2898  0.7377
  592MPD2     C 8825   3.737   1.425  11.780 -0.6926  0.5242  0.2264
  592MPD2    C1 8826   3.754   1.477  11.907 -0.8324  0.5667  0.3154
  592MPD2    C2 8827   3.737   1.402  12.013 -0.2159  0.3175  0.3102
  592MPD2    C3 8828   3.697   1.272  12.007 -0.0858  0.1285  0.3657
  592MPD2    C4 8829   3.677   1.215  11.882  0.0455  0.4529 -0.1333
  592MPD2    C5 8830   3.701   1.294  11.776  0.5183 -0.6415 -0.5102
  592MPD2     H 8831   3.740   1.444  12.113 -1.9053 -0.2928  0.6209
  592MPD2    H1 8832   3.648   1.111  11.871  0.6210  0.4292 -1.3962
  592MPD2    H2 8833   3.749   1.481  11.688 -3.1293  0.8784  0.1084
  592MPD2    H3 8834   3.695   1.255  11.674 -0.7191  1.5130 -1.2569
  592MPD2     N 8835   3.676   1.197  12.123 -0.5890  0.5272  0.0659
  592MPD2    H5 8836   3.675   1.253  12.208 -0.6654 -1.2531  1.2457
  592MPD2    N1 8837   3.797   1.611  11.916 -0.1503 -0.6386 -0.1911
  592MPD2    H7 8838   3.797   1.655  11.824 -3.5715 -0.6373 -0.1987
  593TMC3    C1 8839   3.881   1.805  11.992 -0.1828  0.0305 -0.3968
  593TMC3    C2 8840   3.862   1.897  12.085  0.0698 -0.1878 -0.3318
  593TMC3    C3 8841   3.922   2.020  12.069 -0.2592  0.3098 -0.8731
  593TMC3    C4 8842   3.961   1.824  11.883  0.4904  0.0584  0.0672
  593TMC3    C5 8843   4.031   1.943  11.877  0.1969 -0.8221  0.1218
  593TMC3    C6 8844   4.011   2.038  11.971  0.0785  0.5194 -0.6685
  593TMC3     C 8845   3.828   1.679  12.029  0.0144 -0.4403  0.7595
  593TMC3     O 8846   3.817   1.661  12.149 -0.2115  0.3417  0.3562
  593TMC3     H 8847   3.785   1.873  12.157 -0.1903 -0.0473 -0.5586
  593TMC3    H1 8848   3.976   1.745  11.810  2.3075  1.8844 -1.5452
  593TMC3    H2 8849   4.046   2.137  11.942  0.8600  0.8736  1.4968
  593TMC3    C7 8850   4.135   1.976  11.778  0.1359 -0.0373  0.3623
  593TMC3    C8 8851   3.878   2.130  12.148  1.1508  0.5656 -0.0756
  593TMC3    O1 8852   4.219   2.064  11.803 -0.3227  0.8200 -0.0429
  593TMC3    O2 8853   3.771   2.112  12.207  0.1037  0.1122 -0.3540
  594MPD2     C 8854   3.135   0.960  14.724 -0.0458  1.0560  0.0491
  594MPD2    C1 8855   3.027   1.043  14.700  0.0022  0.1693  0.4854
  594MPD2    C2 8856   3.047   1.150  14.616 -0.0611 -0.1161 -0.0972
  594MPD2    C3 8857   3.173   1.180  14.568 -0.2885 -0.4819  0.5872
  594MPD2    C4 8858   3.286   1.109  14.605  0.0436 -0.0023  0.0674
  594MPD2    C5 8859   3.262   0.994  14.684 -0.1126 -0.3236  0.5235
  594MPD2     H 8860   2.964   1.213  14.588  1.0594  0.3370 -2.4549
  594MPD2    H1 8861   3.385   1.122  14.564 -0.5323  0.4120 -1.2155
  594MPD2    H2 8862   3.134   0.880  14.797 -1.6537  0.7202 -0.3244
  594MPD2    H3 8863   3.341   0.926  14.713 -0.0610  0.0719  1.3014
  594MPD2     N 8864   3.181   1.304  14.495 -0.2126 -0.1597  0.3906
  594MPD2    H5 8865   3.097   1.338  14.450 -0.8083 -2.1713 -0.0304
  594MPD2    N1 8866   2.911   1.007  14.771  0.6582  0.1005  0.1306
  594MPD2    H7 8867   2.914   0.914  14.810 -2.5034 -0.0038  0.1081
  595TMC3    C1 8868   3.353   1.713  14.371 -0.4224  0.5124 -0.0147
  595TMC3    C2 8869   3.369   1.581  14.391  0.0082 -0.4509  0.0218
  595TMC3    C3 8870   3.259   1.503  14.430  0.3091 -1.1210 -0.5090
  595TMC3    C4 8871   3.237   1.777  14.389 -0.2838 -0.1720  0.3253
  595TMC3    C5 8872   3.131   1.703  14.424 -1.0044 -0.0792 -0.3826
  595TMC3    C6 8873   3.148   1.574  14.458  0.4254  0.0189 -0.5492
  595TMC3     C 8874   3.478   1.792  14.374  0.0664 -0.0045 -0.0393
  595TMC3     O 8875   3.577   1.739  14.431 -0.5244 -0.5895  0.1459
  595TMC3     H 8876   3.461   1.524  14.385 -0.2696 -0.6973 -1.8649
  595TMC3    H1 8877   3.223   1.883  14.407 -1.0454 -0.1257 -0.5818
  595TMC3    H2 8878   3.064   1.523  14.503 -1.4928  3.6435 -0.0584
  595TMC3    C7 8879   3.027   1.778  14.501  0.0655 -0.0396  0.2144
  595TMC3    C8 8880   3.294   1.381  14.488 -1.3141  0.4551 -0.4283
  595TMC3    O1 8881   2.947   1.842  14.437 -0.5916 -0.0626 -0.6175
  595TMC3    O2 8882   3.410   1.364  14.520 -0.0740  0.8925 -0.6047
  596MPD2     C 8883   1.508   4.096  16.670  0.4853 -0.4700  0.6622
  596MPD2    C1 8884   1.479   4.196  16.584  0.1073 -0.2632  0.0528
  596MPD2    C2 8885   1.463   4.168  16.450  0.1656 -0.4857 -0.4667
  596MPD2    C3 8886   1.481   4.041  16.400 -0.2609 -0.3379  1.3228
  596MPD2    C4 8887   1.501   3.943  16.488  0.3999  0.0925  0.0789
  596MPD2    C5 8888   1.526   3.970  16.621 -0.1516 -0.0539  0.1255
  596MPD2     H 8889   1.434   4.255  16.391  1.9904  2.0576  2.3517
  596MPD2    H1 8890   1.501   3.840  16.453  0.9827  0.3291 -0.6364
  596MPD2    H2 8891   1.530   4.122  16.773  0.3912 -0.4407  0.6748
  596MPD2    H3 8892   1.547   3.885  16.685 -0.0574 -2.0515 -2.5380
  596MPD2     N 8893   1.445   4.006  16.267 -0.1538  0.1539  0.1658
  596MPD2    H5 8894   1.394   3.920  16.250 -0.1018  0.3879 -1.2193
  596MPD2    N1 8895   1.462   4.328  16.635 -0.8772 -0.0249  0.1952
  596MPD2    H7 8896   1.459   4.401  16.564  0.2943 -0.7685 -0.6069
  597TMC3    C1 8897   1.441   4.510  16.783  0.2589  0.4986 -0.2730
  597TMC3    C2 8898   1.514   4.589  16.703 -0.0790  0.0803  0.4613
  597TMC3    C3 8899   1.505   4.726  16.725  0.5825 -0.4600 -0.3054
  597TMC3    C4 8900   1.372   4.558  16.892 -0.5461 -0.3071 -0.5134
  597TMC3    C5 8901   1.379   4.695  16.918  0.6698  0.2436  0.7825
  597TMC3    C6 8902   1.439   0.037  16.835 -0.0314  0.1199  0.3596
  597TMC3     C 8903   1.441   4.369  16.765  0.0448  0.0484 -0.0156
  597TMC3     O 8904   1.432   4.308  16.871  0.3244  0.5926  0.4269
  597TMC3     H 8905   1.572   4.546  16.622  1.2719  1.9392  0.4495
  597TMC3    H1 8906   1.308   4.492  16.950 -0.0444  0.5377  1.0213
  597TMC3    H2 8907   1.450   0.144  16.854 -1.7703  0.6352 -1.5995
  597TMC3    C7 8908   1.331   0.008  17.041  0.2728 -0.3030  0.1112
  597TMC3    C8 8909   1.600   0.065  16.648  1.1602 -0.3877 -0.4572
  597TMC3    O1 8910   1.289   4.659  17.113  0.0681 -0.1224  0.2367
  597TMC3    O2 8911   1.578   0.186  16.642  0.1382 -0.2266  0.1749
  598TMC3    C1 8912   3.967   1.139  15.493  0.1448  0.1809 -0.0036
  598TMC3    C2 8913   3.870   1.051  15.457  0.1804  0.3110 -0.3543
  598TMC3    C3 8914   3.895   0.967  15.353  0.2194 -0.2034  0.0930
  598TMC3    C4 8915   4.088   1.134  15.437  0.3696  0.0765 -0.1163
  598TMC3    C5 8916   4.114   1.049  15.332  0.0786 -0.2332 -0.4643
  598TMC3    C6 8917   4.015   0.964  15.287 -0.4270 -0.4550 -0.5283
  598TMC3     C 8918   3.945   1.198  15.621 -0.4702  0.3967 -0.4981
  598TMC3     O 8919   3.858   1.146  15.687  0.2759  0.1442  0.5585
  598TMC3     H 8920   3.767   1.059  15.489  0.0210 -0.0798 -0.7669
  598TMC3    H1 8921   4.177   1.174  15.485  1.0475 -2.4102  0.7035
  598TMC3    H2 8922   4.040   0.884  15.218  2.4788  0.2740 -0.3492
  598TMC3    C7 8923   4.239   1.041  15.275 -0.5753 -0.2769  0.2114
  598TMC3    C8 8924   3.787   0.905  15.276  1.1483 -0.3136 -0.2352
  598TMC3    O1 8925   4.265   0.957  15.192  0.0744 -0.2233  0.2979
  598TMC3    O2 8926   3.813   0.874  15.160  0.5394  0.0114  0.1167
  599MPD2     C 8927   4.696   3.284  15.826  0.6965 -0.8172 -0.7699
  599MPD2    C1 8928   4.638   3.171  15.858  0.3389  0.2634 -0.0147
  599MPD2    C2 8929   4.552   3.162  15.968  0.5307 -0.3104  0.3797
  599MPD2    C3 8930   4.528   3.280  16.035 -0.0320 -0.3125 -0.0861
  599MPD2    C4 8931   4.601   3.394  16.010 -0.4631 -0.3683  0.4485
  599MPD2    C5 8932   4.684   3.394  15.905  0.5224 -0.5259 -0.6449
  599MPD2     H 8933   4.516   3.064  15.997 -0.1662 -0.1145  0.1574
  599MPD2    H1 8934   4.587   3.489  16.060  0.9247 -0.1929  0.5095
  599MPD2    H2 8935   0.024   3.299  15.742 -0.7908 -0.1641 -1.8661
  599MPD2    H3 8936   0.009   3.479  15.887 -1.0587  0.8075 -0.0202
  599MPD2     N 8937   4.437   3.288  16.141 -0.3937 -0.6397  0.2154
  599MPD2    H5 8938   4.424   3.380  16.181  0.5870 -0.1260 -0.6624
  599MPD2    N1 8939   4.675   3.061  15.780  0.5340 -0.6123  0.1795
  599MPD2    H7 8940   0.014   3.086  15.720  0.4212  2.4443  1.2680
  600TMC3    C1 8941   4.259   3.233  16.278 -0.0713 -0.0678  0.1832
  600TMC3    C2 8942   4.183   3.120  16.311 -0.6784  0.1795  0.4182
  600TMC3    C3 8943   4.057   3.138  16.343 -0.2044  0.0700 -0.6858
  600TMC3    C4 8944   4.205   3.362  16.284 -0.2003 -1.0715 -0.7194
  600TMC3    C5 8945   4.071   3.366  16.304 -0.2844 -0.1923  0.0762
  600TMC3    C6 8946   3.996   3.258  16.342 -0.0279  0.1422 -0.1006
  600TMC3     C 8947   4.350   3.189  16.176 -0.4845  0.0698  0.1799
  600TMC3     O 8948   4.319   3.089  16.112  0.1562  0.0457 -0.3263
  600TMC3     H 8949   4.228   3.022  16.319 -0.0098  0.5378  1.0614
  600TMC3    H1 8950   4.267   3.446  16.254 -3.0804  1.1634 -0.4355
  600TMC3    H2 8951   3.899   3.272  16.389  0.9793 -0.3964  2.1422
  600TMC3    C7 8952   3.996   3.489  16.291  0.2766  0.2745  0.0705
  600TMC3    C8 8953   3.975   3.027  16.387  0.0980 -0.4535 -0.6271
  600TMC3    O1 8954   3.879   3.473  16.255 -0.3519  0.0250 -0.4493
  600TMC3    O2 8955   4.040   2.931  16.431 -0.3819  0.6856  0.0086
  601MPD2     C 8956   1.860   1.641   0.566  0.2883  0.6943  0.0271
  601MPD2    C1 8957   1.905   1.608   0.436 -0.3340  0.3124  0.3077
  601MPD2    C2 8958   1.954   1.479   0.410  0.1555  0.1540  0.6127
  601MPD2    C3 8959   1.962   1.387   0.517  0.0030 -0.3214 -0.0535
  601MPD2    C4 8960   1.918   1.424   0.638  0.4277  0.7275 -0.3081
  601MPD2    C5 8961   1.865   1.547   0.665 -0.0630 -0.4737  0.2114
  601MPD2     H 8962   1.993   1.454   0.312 -0.7536 -0.8112  0.4984
  601MPD2    H1 8963   1.914   1.347   0.714  3.2508  0.7679 -0.1144
  601MPD2    H2 8964   1.817   1.739   0.584 -1.6790  0.0006 -0.8564
  601MPD2    H3 8965   1.813   1.576   0.755  0.1384 -0.0761  0.2000
  601MPD2     N 8966   2.012   1.256   0.503  0.2717 -0.2767  0.0396
  601MPD2    H5 8967   2.000   1.203   0.589  1.4231  0.2219  0.5171
  601MPD2    N1 8968   1.894   1.715   0.342  0.1628 -0.3795 -0.6345
  601MPD2    H7 8969   1.860   1.799   0.388  0.4992 -1.5997  1.8868
  602TMC3    C1 8970   1.856   1.814   0.130 -0.6077  0.0430  0.3676
  602TMC3    C2 8971   1.852   1.941   0.184  0.0417 -0.1611  0.2764
  602TMC3    C3 8972   1.760   2.031   0.133  0.2056 -0.5066 -0.6125
  602TMC3    C4 8973   1.761   1.767   0.043 -0.2944  0.5675 -0.1940
  602TMC3    C5 8974   1.678   1.861  17.745 -1.3173  0.1106  0.0893
  602TMC3    C6 8975   1.665   1.990   0.042  0.4377 -0.3167 -0.7512
  602TMC3     C 8976   1.920   1.706   0.205  0.2220  0.1122 -0.5676
  602TMC3     O 8977   1.962   1.614   0.142  0.5315  0.6462 -0.1581
  602TMC3     H 8978   1.920   1.964   0.265 -1.0405 -3.0036  1.9637
  602TMC3    H1 8979   1.746   1.663   0.016  0.0776  0.2991  0.6380
  602TMC3    H2 8980   1.585   2.056   0.010  1.0264 -0.2137 -2.0218
  602TMC3    C7 8981   1.572   1.822  17.655  0.7909  0.4444  0.2433
  602TMC3    C8 8982   1.810   2.168   0.125  0.5215  0.3212  0.0558
  602TMC3    O1 8983   1.514   1.716  17.682  0.3459  0.2689  0.2179
  602TMC3    O2 8984   1.924   2.194   0.166  0.1998 -0.3731  0.3136
  603TMC3    C1 8985   0.746   1.197  11.498 -0.1102 -0.6855 -0.4463
  603TMC3    C2 8986   0.764   1.204  11.633 -0.2692  0.6449 -0.2529
  603TMC3    C3 8987   0.815   1.316  11.680 -1.0943  0.3202  0.4754
  603TMC3    C4 8988   0.778   1.299  11.413  0.8690  0.9128  0.2457
  603TMC3    C5 8989   0.830   1.414  11.465  0.3258  0.3418  0.5518
  603TMC3    C6 8990   0.855   1.421  11.600 -0.3297 -0.0621 -0.2224
  603TMC3     C 8991   0.645   1.095  11.454 -0.1853 -0.7229  0.4328
  603TMC3     O 8992   0.579   1.115  11.352  0.5286 -0.5077  0.4502
  603TMC3     H 8993   0.716   1.140  11.707 -1.7568  1.8255 -0.1953
  603TMC3    H1 8994   0.771   1.282  11.306  0.8703  1.4250  0.1655
  603TMC3    H2 8995   0.883   1.512  11.652  0.3228 -0.4140  0.0454
  603TMC3    C7 8996   0.867   1.527  11.384  0.0692  0.1487 -0.2947
  603TMC3    C8 8997   0.783   1.344  11.822  0.5100  0.4951 -1.0147
  603TMC3    O1 8998   0.982   1.566  11.395  0.5821  0.1341  0.0272
  603TMC3    O2 8999   0.788   1.247  11.890  0.4837  0.6870  0.5019
  604MPD2     C 9000   0.887   0.853  16.682 -0.1397  0.3428  0.6178
  604MPD2    C1 9001   0.753   0.877  16.665 -0.4053  0.1560  0.2833
  604MPD2    C2 9002   0.676   0.808  16.568  0.3909  1.0569  1.0337
  604MPD2    C3 9003   0.747   0.744  16.471 -0.4086 -0.0578  0.4248
  604MPD2    C4 9004   0.884   0.721  16.480 -0.3399  1.1430 -0.6461
  604MPD2    C5 9005   0.954   0.770  16.591 -0.6702 -0.1945 -0.5635
  604MPD2     H 9006   0.569   0.813  16.553  0.8477  1.0317 -2.2425
  604MPD2    H1 9007   0.940   0.669  16.404  1.8594  0.6156  1.3465
  604MPD2    H2 9008   0.947   0.883  16.767 -1.6798  2.3294  0.9838
  604MPD2    H3 9009   1.062   0.756  16.594 -0.7913 -0.9655  0.2985
  604MPD2     N 9010   0.665   0.685  16.368 -0.1156  0.0705  0.2325
  604MPD2    H5 9011   0.574   0.730  16.364 -1.6194 -2.8300  2.2065
  604MPD2    N1 9012   0.688   0.964  16.763  0.1592 -0.5224 -0.1885
  604MPD2    H7 9013   0.750   1.020  16.820  0.9922 -1.6787  0.0422
  605TMC3    C1 9014   0.527   1.095  16.861  0.5432  0.2062 -0.5577
  605TMC3    C2 9015   0.615   1.195  16.894 -0.0645 -0.0332 -0.1846
  605TMC3    C3 9016   0.582   1.276  16.997  0.5509  0.2649  0.3668
  605TMC3    C4 9017   0.405   1.084  16.921  0.1372  0.9418  0.3655
  605TMC3    C5 9018   0.375   1.162  17.031  1.2545  0.2968  0.5921
  605TMC3    C6 9019   0.464   1.257  17.066  1.1986  1.0673  0.2615
  605TMC3     C 9020   0.552   1.002  16.758  0.4288 -0.2182 -0.4142
  605TMC3     O 9021   0.459   0.942  16.709 -0.3691  0.8498 -0.5745
  605TMC3     H 9022   0.704   1.208  16.833 -1.7633  1.8096 -2.2638
  605TMC3    H1 9023   0.342   1.000  16.895  1.5848 -0.0978  0.2118
  605TMC3    H2 9024   0.430   1.324  17.145 -1.8996 -0.6102  0.3717
  605TMC3    C7 9025   0.245   1.206  17.027 -0.0174 -0.7951  0.0624
  605TMC3    C8 9026   0.685   1.372  17.044  0.2571 -0.0836 -0.5829
  605TMC3    O1 9027   0.223   1.324  17.022  0.4867 -0.3338 -0.0654
  605TMC3    O2 9028   0.684   1.404  17.158 -0.2373  0.0161  0.2158
  606TMC3    C1 9029   1.453   4.345  17.343  0.2806  0.1178  0.0960
  606TMC3    C2 9030   1.440   4.343  17.480  0.3815 -0.2932  0.1515
  606TMC3    C3 9031   1.417   4.215  17.527 -0.8333  0.4437 -0.5634
  606TMC3    C4 9032   1.428   4.234  17.265  0.1230 -0.1752 -0.5905
  606TMC3    C5 9033   1.377   4.120  17.319  0.4426  0.0211  1.7191
  606TMC3    C6 9034   1.378   4.109  17.456 -0.2286  0.8238 -0.0982
  606TMC3     C 9035   1.532   4.454  17.299  0.2200 -0.6341 -0.0596
  606TMC3     O 9036   1.551   4.545  17.377  0.1920  0.3330  0.0596
  606TMC3     H 9037   1.478   4.416  17.550  0.1151 -0.1652  0.1616
  606TMC3    H1 9038   1.442   4.247  17.158 -0.7809 -2.3472 -0.9557
  606TMC3    H2 9039   1.363   4.016  17.510 -4.4738  0.8040 -1.3272
  606TMC3    C7 9040   1.385   4.008  17.225 -0.1726 -0.1737  0.5322
  606TMC3    C8 9041   1.412   4.191  17.663  0.7455  0.6638 -0.5197
  606TMC3    O1 9042   1.403   4.043  17.109 -0.2755  0.1759  0.1749
  606TMC3    O2 9043   1.328   4.249  17.731  0.2708  0.0068 -0.7794
  607MPD2     C 9044   4.134   1.540  11.596  0.5679  0.7192  0.1342
  607MPD2    C1 9045   4.218   1.624  11.673 -0.8903 -0.3263 -0.4058
  607MPD2    C2 9046   4.213   1.616  11.811  0.5397  0.1117  0.0775
  607MPD2    C3 9047   4.133   1.524  11.873  0.8043  0.8758  0.1778
  607MPD2    C4 9048   4.068   1.433  11.794 -0.5055 -0.0979 -0.3301
  607MPD2    C5 9049   4.059   1.447  11.662  0.9950  0.3170  0.6649
  607MPD2     H 9050   4.288   1.672  11.865  3.1018 -0.1697 -3.1789
  607MPD2    H1 9051   4.006   1.351  11.829  0.0096 -1.0450 -1.6212
  607MPD2    H2 9052   4.132   1.541  11.487 -1.8761 -1.4924  0.1620
  607MPD2    H3 9053   3.985   1.381  11.617  2.2770 -0.8658  0.2749
  607MPD2     N 9054   4.129   1.526  12.013 -1.0230  0.3436  0.0548
  607MPD2    H5 9055   4.194   1.589  12.058 -0.1702  0.1050 -0.8493
  607MPD2    N1 9056   4.322   1.697  11.621 -0.2707  0.7082  0.0466
  607MPD2    H7 9057   4.364   1.768  11.681  1.1187 -2.3253  2.6266
  608TMC3    C1 9058   4.517   1.714  11.490 -0.3505  0.4004 -0.3357
  608TMC3    C2 9059   4.585   1.682  11.608 -0.4292 -0.9525  0.0242
  608TMC3    C3 9060   4.718   1.714  11.615 -0.4357  0.4189  0.4796
  608TMC3    C4 9061   4.572   1.776  11.380 -0.3288 -0.4684 -0.0450
  608TMC3    C5 9062   4.709   1.795  11.397  0.0731 -0.3257  0.2772
  608TMC3    C6 9063   0.045   1.764  11.508  0.0058  0.1791 -0.0795
  608TMC3     C 9064   4.371   1.685  11.495 -0.1596 -0.0267  0.0468
  608TMC3     O 9065   4.328   1.634  11.389 -0.4897  0.2732  0.7504
  608TMC3     H 9066   4.542   1.609  11.676  2.2415 -2.4069  0.1897
  608TMC3    H1 9067   4.515   1.795  11.290  1.3456  0.3084 -0.9472
  608TMC3    H2 9068   0.148   1.794  11.520 -0.5510  2.2495 -0.5237
  608TMC3    C7 9069   0.036   1.863  11.289  0.9911 -0.7836 -0.2748
  608TMC3    C8 9070   0.036   1.682  11.744  0.7427  0.0959 -0.2815
  608TMC3    O1 9071   4.702   1.921  11.212  0.2417  0.3046 -0.4861
  608TMC3    O2 9072   0.158   1.676  11.749  0.1686 -0.0137 -0.4092
  609TMC3    C1 9073   2.628   0.743   8.863 -0.1361 -0.1825 -0.2226
  609TMC3    C2 9074   2.543   0.730   8.755  0.0852  0.1340  0.7381
  609TMC3    C3 9075   2.575   0.648   8.653  0.3990  0.1558 -0.4678
  609TMC3    C4 9076   2.738   0.663   8.878  0.4406  0.4684 -0.0001
  609TMC3    C5 9077   2.760   0.574   8.780 -0.2804  0.7040 -0.3521
  609TMC3    C6 9078   2.688   0.571   8.662  0.3969 -0.3689  0.2602
  609TMC3     C 9079   2.599   0.824   8.975 -0.3182 -0.2229 -0.8840
  609TMC3     O 9080   2.668   0.807   9.075 -0.2521  0.1030  0.6431
  609TMC3     H 9081   2.448   0.782   8.752  0.1884  0.2799 -0.1548
  609TMC3    H1 9082   2.803   0.657   8.965  0.2150  0.1767  0.1497
  609TMC3    H2 9083   2.732   0.518   8.579 -0.5965  0.0615 -0.5286
  609TMC3    C7 9084   2.890   0.506   8.792 -0.2536  0.6058  0.0002
  609TMC3    C8 9085   2.490   0.634   8.536 -0.4025 -0.5160 -0.5782
  609TMC3    O1 9086   2.975   0.563   8.858 -0.1744 -0.2246 -0.1737
  609TMC3    O2 9087   2.525   0.569   8.440  0.3648 -0.5472  0.1392
  610TMC3    C1 9088   4.315   2.176  12.801 -0.5665 -0.6065  0.5448
  610TMC3    C2 9089   4.423   2.256  12.779 -0.6402  0.1111  0.4333
  610TMC3    C3 9090   4.523   2.193  12.708 -0.3388 -0.2030 -0.5864
  610TMC3    C4 9091   4.295   2.049  12.752  0.1458  0.0232 -0.3272
  610TMC3    C5 9092   4.400   1.998  12.687 -0.3178 -0.7073 -0.5994
  610TMC3    C6 9093   4.512   2.063  12.665  0.2010 -0.0360  0.7279
  610TMC3     C 9094   4.227   2.209  12.913 -0.5480  0.6375  0.2988
  610TMC3     O 9095   4.135   2.128  12.931 -0.2306  0.2067  0.8059
  610TMC3     H 9096   4.419   2.365  12.782 -3.7344  0.0449 -1.3849
  610TMC3    H1 9097   4.199   2.001  12.766  0.9913 -0.9720  2.1519
  610TMC3    H2 9098   4.595   1.994  12.656 -1.1709 -1.5978  0.1393
  610TMC3    C7 9099   4.408   1.846  12.694  0.0595 -0.3010  0.7466
  610TMC3    C8 9100   4.613   2.278  12.633  0.8805 -0.4799 -0.4914
  610TMC3    O1 9101   4.517   1.806  12.727  0.6278  0.1399 -0.1089
  610TMC3    O2 9102   4.619   2.398  12.657 -0.3034 -0.9812 -0.0340
  611MPD2     C 9103   4.680   1.112  11.022 -0.0937 -0.1536 -0.0340
  611MPD2    C1 9104   4.605   1.211  10.966  0.5066  0.8657 -0.5401
  611MPD2    C2 9105   4.662   1.329  10.928  0.0650 -0.1633  0.0680
  611MPD2    C3 9106   0.051   1.365  10.956 -0.6316 -0.3494 -1.0984
  611MPD2    C4 9107   0.132   1.268  11.012 -0.7094 -0.3772 -0.7464
  611MPD2    C5 9108   0.070   1.148  11.052  0.2611 -0.1540 -0.5508
  611MPD2     H 9109   4.608   1.405  10.873  0.6930  1.8709  2.2673
  611MPD2    H1 9110   0.235   1.276  11.047 -1.0882  0.0511  0.2540
  611MPD2    H2 9111   4.640   1.017  11.053 -0.7146  0.4992  1.1795
  611MPD2    H3 9112   0.131   1.077  11.108  0.4554 -1.4610 -2.4091
  611MPD2     N 9113   0.107   1.496  10.939 -0.1650 -0.4581  0.5338
  611MPD2    H5 9114   0.200   1.502  10.979  0.4662 -2.0021 -0.7228
  611MPD2    N1 9115   4.462   1.188  10.951 -0.1125  0.1244 -0.1147
  611MPD2    H7 9116   4.427   1.100  10.987 -0.7959  0.6930  0.6080
  612TMC3    C1 9117   0.118   1.737  10.884 -0.3389  0.0252 -0.3625
  612TMC3    C2 9118   0.252   1.736  10.904 -0.1597  0.0651  0.2506
  612TMC3    C3 9119   0.318   1.860  10.870  0.7616 -0.7015 -0.3036
  612TMC3    C4 9120   0.053   1.849  10.855 -0.2643  0.1714  0.3242
  612TMC3    C5 9121   0.113   1.966  10.828  0.5185  0.7111 -0.9151
  612TMC3    C6 9122   0.251   1.975  10.836 -0.2589  0.4952 -0.2617
  612TMC3     C 9123   0.043   1.610  10.892  0.2852  0.5965  0.8304
  612TMC3     O 9124   4.660   1.624  10.879  0.5343  0.0523 -0.7429
  612TMC3     H 9125   0.307   1.643  10.912  0.0582  0.0461 -1.4584
  612TMC3    H1 9126   4.684   1.845  10.857 -0.3333  1.6179 -0.9086
  612TMC3    H2 9127   0.307   2.066  10.815  2.6148 -0.9685  1.1296
  612TMC3    C7 9128   0.052   2.062  10.727  0.4137 -0.4879 -0.2258
  612TMC3    C8 9129   0.461   1.876  10.902  0.2668 -0.0846  0.4168
  612TMC3    O1 9130   0.125   2.143  10.671  0.0212 -0.1077  0.0641
  612TMC3    O2 9131   0.516   1.978  10.863  0.4175  0.2089 -0.2413
  613MPD2     C 9132   3.265   4.655  16.787  0.3732  0.3527  0.4553
  613MPD2    C1 9133   3.129   4.612  16.776  0.2557  0.1023  0.6621
  613MPD2    C2 9134   3.079   4.540  16.884  0.5406  0.1299 -0.3318
  613MPD2    C3 9135   3.152   4.499  16.999  0.4807 -0.4360 -0.8441
  613MPD2    C4 9136   3.279   4.553  17.012 -0.1679  0.1666 -0.3114
  613MPD2    C5 9137   3.330   4.620  16.899 -0.4874  0.2553  0.2008
  613MPD2     H 9138   2.983   4.491  16.868  0.9996 -0.3873 -1.5015
  613MPD2    H1 9139   3.344   4.543  17.099 -0.3232  0.6435 -0.1447
  613MPD2    H2 9140   3.314   4.722  16.717  0.3522  0.3195  0.4084
  613MPD2    H3 9141   3.431   4.658  16.910 -0.7295 -0.3008  4.5943
  613MPD2     N 9142   3.100   4.417  17.101  0.2128  0.4018 -0.3343
  613MPD2    H5 9143   3.157   4.389  17.180  0.0891  1.4174  0.1109
  613MPD2    N1 9144   3.060   4.628  16.652  0.0136  0.4048 -0.3414
  613MPD2    H7 9145   3.116   4.654  16.572 -1.2778 -1.9748 -2.0048
  614TMC3    C1 9146   2.911   4.595  16.484 -0.6783  0.4616  0.5809
  614TMC3    C2 9147   2.986   4.487  16.432  0.2622 -0.5900  0.0603
  614TMC3    C3 9148   2.923   4.413  16.336 -0.3721  0.5393 -0.6975
  614TMC3    C4 9149   2.782   4.626  16.450 -0.5511 -0.3539  0.5849
  614TMC3    C5 9150   2.728   4.555  16.348  0.2568  0.1798  0.1908
  614TMC3    C6 9151   2.795   4.445  16.293  0.6975  0.0672  0.7810
  614TMC3     C 9152   2.928   4.604  16.631 -0.2140  0.5530  0.4899
  614TMC3     O 9153   2.828   4.625  16.699  0.1764  0.9437  0.0565
  614TMC3     H 9154   3.089   4.467  16.462  0.3582  0.0311  0.1305
  614TMC3    H1 9155   2.735   4.712  16.497  1.1047  0.4539  0.7356
  614TMC3    H2 9156   2.744   4.378  16.225 -0.6171 -0.1079  1.9306
  614TMC3    C7 9157   2.609   4.607  16.282 -0.1934  0.0051 -0.6779
  614TMC3    C8 9158   2.928   4.267  16.339  0.5512  0.1595 -0.3373
  614TMC3    O1 9159   2.579   4.726  16.296 -0.7129 -0.7256  0.2040
  614TMC3    O2 9160   2.880   4.206  16.242 -0.0745 -0.4299  0.2789
  615MPD2     C 9161   1.951   1.344  16.589  0.3226 -0.3339  1.4199
  615MPD2    C1 9162   1.902   1.446  16.657 -0.7446 -0.4364 -1.0287
  615MPD2    C2 9163   1.795   1.518  16.607  0.4521  0.4138  0.1915
  615MPD2    C3 9164   1.749   1.493  16.474  0.5193 -0.2536  0.2215
  615MPD2    C4 9165   1.810   1.387  16.404 -0.1839 -0.2509  0.6425
  615MPD2    C5 9166   1.908   1.315  16.466 -1.0148  0.2738 -0.2394
  615MPD2     H 9167   1.750   1.598  16.664  0.8031  0.8040 -0.0764
  615MPD2    H1 9168   1.785   1.352  16.305  0.0320  0.8866  0.1846
  615MPD2    H2 9169   2.039   1.290  16.621  1.5507  0.0928 -1.2414
  615MPD2    H3 9170   1.952   1.238  16.404 -1.0329 -0.6554  0.8998
  615MPD2     N 9171   1.656   1.574  16.407 -0.1632 -0.1402 -0.4475
  615MPD2    H5 9172   1.658   1.566  16.306  0.1993 -0.2635 -0.4323
  615MPD2    N1 9173   1.966   1.492  16.774 -0.1675  0.0148 -0.3225
  615MPD2    H7 9174   1.942   1.587  16.801  2.0598  0.6201 -0.4973
  616TMC3    C1 9175   2.139   1.539  16.932  0.4706 -0.6435  0.0434
  616TMC3    C2 9176   2.267   1.593  16.925 -0.5210  0.0863  0.1615
  616TMC3    C3 9177   2.295   1.703  16.997 -0.0793  0.2763  0.3420
  616TMC3    C4 9178   2.045   1.590  17.014  0.1643  1.0841 -0.3028
  616TMC3    C5 9179   2.078   1.701  17.081  0.4773 -0.4382  0.2477
  616TMC3    C6 9180   2.200   1.759  17.077 -0.8213 -0.0243  0.0482
  616TMC3     C 9181   2.086   1.443  16.829 -0.1003 -0.4921  0.4100
  616TMC3     O 9182   2.161   1.348  16.798 -0.1272 -0.5438  0.6752
  616TMC3     H 9183   2.335   1.556  16.849  2.9150  0.7815  2.9061
  616TMC3    H1 9184   1.950   1.537  17.018  2.1983 -2.3648  2.9420
  616TMC3    H2 9185   2.233   1.844  17.136 -2.4459  1.2679 -0.8876
  616TMC3    C7 9186   1.979   1.768  17.160  0.3670 -0.3249  0.3508
  616TMC3    C8 9187   2.406   1.792  16.957  0.7477 -0.1448 -0.3606
  616TMC3    O1 9188   1.864   1.782  17.114  0.3129 -0.0982  0.3313
  616TMC3    O2 9189   2.404   1.912  16.982 -0.6320  0.1717  0.1451
  617MPD2     C 9190   0.305   2.750  13.842 -0.5833 -0.8419  0.1744
  617MPD2    C1 9191   0.360   2.851  13.905  0.9552 -0.0853  0.2319
  617MPD2    C2 9192   0.289   2.932  13.993  0.4850  0.6005  0.5542
  617MPD2    C3 9193   0.154   2.909  14.007  0.1881 -0.0643 -0.6287
  617MPD2    C4 9194   0.102   2.801  13.948  0.3069 -0.2470 -0.3009
  617MPD2    C5 9195   0.177   2.721  13.865 -0.6576  0.4541  0.5821
  617MPD2     H 9196   0.337   3.015  14.044  1.7609  0.1955  0.0169
  617MPD2    H1 9197   4.736   2.776  13.956  1.3494 -3.7065  2.2795
  617MPD2    H2 9198   0.363   2.694  13.769 -0.4848 -1.7274  0.9275
  617MPD2    H3 9199   0.132   2.637  13.814 -2.1626  1.0851  0.8658
  617MPD2     N 9200   0.075   2.981  14.096 -0.1324 -0.0858  0.1101
  617MPD2    H5 9201   4.729   2.939  14.131  0.1920 -1.9586 -1.3065
  617MPD2    N1 9202   0.498   2.879  13.868 -0.1147 -0.2035  0.1476
  617MPD2    H7 9203   0.534   2.815  13.797 -0.9048 -1.9913  1.3754
  618TMC3    C1 9204   0.690   3.003  13.834 -0.3727  0.0785 -0.1527
  618TMC3    C2 9205   0.776   2.895  13.825  0.4278 -0.4221 -0.4293
  618TMC3    C3 9206   0.896   2.914  13.757  0.2868 -0.4448  0.0067
  618TMC3    C4 9207   0.718   3.120  13.775 -0.2979 -0.2921 -0.1268
  618TMC3    C5 9208   0.824   3.132  13.695  0.1204 -0.3294  0.3146
  618TMC3    C6 9209   0.918   3.027  13.690  0.6273 -0.6745  0.1395
  618TMC3     C 9210   0.576   2.990  13.913 -0.6174 -0.3200  0.8293
  618TMC3     O 9211   0.538   3.096  13.965 -0.4139 -0.2397  0.2194
  618TMC3     H 9212   0.752   2.798  13.866 -0.8639  0.4524  0.8715
  618TMC3    H1 9213   0.655   3.205  13.799  2.0060  1.8061 -1.5871
  618TMC3    H2 9214   0.997   3.032  13.616  0.7006  0.6363  0.3147
  618TMC3    C7 9215   0.844   3.266  13.640 -0.1303 -0.3564  1.2442
  618TMC3    C8 9216   0.952   2.788  13.707  0.4695 -0.3073  0.2308
  618TMC3    O1 9217   0.805   3.362  13.706 -0.4323  0.3216 -0.1739
  618TMC3    O2 9218   0.880   2.690  13.705 -0.2711 -0.7747 -0.5139
  619MPD2     C 9219   1.691   4.195  13.890 -0.7263 -0.2399 -0.2987
  619MPD2    C1 9220   1.693   4.323  13.829  0.3423 -0.6302 -0.0588
  619MPD2    C2 9221   1.571   4.395  13.824 -0.0031 -0.2868  0.1028
  619MPD2    C3 9222   1.448   4.345  13.870 -0.2989  0.1195  0.1636
  619MPD2    C4 9223   1.453   4.211  13.931 -0.4916 -0.2828 -0.0200
  619MPD2    C5 9224   1.573   4.146  13.939 -0.0671 -0.5575  0.0012
  619MPD2     H 9225   1.578   4.497  13.787  0.6198 -0.7434 -1.0305
  619MPD2    H1 9226   1.367   4.174  13.986 -1.6549  0.9877 -0.9794
  619MPD2    H2 9227   1.783   4.140  13.900  0.1164  1.5740  1.8089
  619MPD2    H3 9228   1.568   4.051  13.993 -0.2305 -0.6271 -0.1348
  619MPD2     N 9229   1.322   4.411  13.865 -0.3974  0.0242 -0.2209
  619MPD2    H5 9230   1.244   4.357  13.901  0.8660 -1.3061  0.5344
  619MPD2    N1 9231   1.809   4.381  13.773 -0.6809  0.4696  0.5219
  619MPD2    H7 9232   1.799   4.476  13.741 -1.3170  0.2846  0.1743
  620TMC3    C1 9233   2.025   4.435  13.709 -0.3919 -0.0922  0.6363
  620TMC3    C2 9234   1.955   4.502  13.608  0.0063  0.7196 -0.2015
  620TMC3    C3 9235   1.990   4.631  13.584 -0.4626  0.3029  0.5581
  620TMC3    C4 9236   2.119   4.491  13.790  0.7909  0.5640 -0.0367
  620TMC3    C5 9237   2.151   4.625  13.764  0.2732  0.2900 -0.4219
  620TMC3    C6 9238   2.085   4.685  13.657  0.5265 -0.3171 -0.1682
  620TMC3     C 9239   1.938   4.333  13.771  0.1127  0.3491 -0.4911
  620TMC3     O 9240   1.987   4.251  13.842 -0.7103 -0.2588  0.3464
  620TMC3     H 9241   1.883   4.447  13.550  0.4664 -0.0658 -0.0305
  620TMC3    H1 9242   2.158   4.445  13.880  0.1166  0.8109  0.3800
  620TMC3    H2 9243   2.117   0.043  13.622 -0.3901 -0.4343 -1.3268
  620TMC3    C7 9244   2.164   4.711  13.879  0.1288  0.6940  0.6582
  620TMC3    C8 9245   1.882   4.730  13.562 -0.1658  0.0041  0.1292
  620TMC3    O1 9246   2.208   4.663  13.983  0.3041 -0.1317  0.7556
  620TMC3    O2 9247   1.866   0.022  13.446  0.4089  0.2497 -0.1712
  621MPD2     C 9248   2.251   0.195   9.176 -0.0709 -0.8720 -0.6752
  621MPD2    C1 9249   2.221   0.273   9.286  0.1675 -0.1548  0.0504
  621MPD2    C2 9250   2.315   0.299   9.384  0.4406  0.6834 -0.4252
  621MPD2    C3 9251   2.442   0.248   9.367  0.4917 -0.0434 -0.2001
  621MPD2    C4 9252   2.473   0.184   9.246  0.5733  0.6461  0.6327
  621MPD2    C5 9253   2.382   0.157   9.155  0.0069 -0.5378  0.4954
  621MPD2     H 9254   2.298   0.364   9.470 -3.1827  0.7421 -1.2155
  621MPD2    H1 9255   2.574   0.163   9.213  0.4080  1.2297 -0.2328
  621MPD2    H2 9256   2.180   0.174   9.097 -0.7190 -0.1578 -0.2785
  621MPD2    H3 9257   2.416   0.117   9.061  0.2214 -0.5412  0.5751
  621MPD2     N 9258   2.543   0.272   9.464 -0.5268 -0.0661  0.1519
  621MPD2    H5 9259   2.528   0.343   9.535 -0.6297  1.5129 -1.4529
  621MPD2    N1 9260   2.086   0.315   9.314  0.5371 -0.2538 -0.4764
  621MPD2    H7 9261   2.062   0.345   9.408  1.5347  0.3549 -0.4218
  622TMC3    C1 9262   1.852   0.302   9.304 -0.1037 -0.6514  0.2837
  622TMC3    C2 9263   1.783   0.191   9.275 -0.3564  0.0886  1.0465
  622TMC3    C3 9264   1.703   0.131   9.366  0.7384 -0.9836 -0.6314
  622TMC3    C4 9265   1.843   0.363   9.426 -0.2476 -0.9743  0.0600
  622TMC3    C5 9266   1.760   0.294   9.514 -0.1611  0.0255  0.3914
  622TMC3    C6 9267   1.693   0.183   9.489  0.1753 -0.2347 -0.1698
  622TMC3     C 9268   1.981   0.302   9.229 -0.4519 -0.1186 -0.0272
  622TMC3     O 9269   1.982   0.280   9.111  0.0143  0.9675 -0.2009
  622TMC3     H 9270   1.802   0.142   9.180  0.4415  5.0665 -1.3497
  622TMC3    H1 9271   1.900   0.452   9.449 -0.6145 -0.3328 -1.5375
  622TMC3    H2 9272   1.632   0.130   9.563 -0.2470 -0.5438 -0.7327
  622TMC3    C7 9273   1.728   0.379   9.630  0.1738 -0.3890 -0.0973
  622TMC3    C8 9274   1.722   4.723   9.366 -0.5872 -0.1723  1.1554
  622TMC3    O1 9275   1.755   0.501   9.617  0.2160  0.0730 -0.0968
  622TMC3    O2 9276   1.663   4.659   9.278  0.4153 -0.2818  0.5271
  623MPD2     C 9277   0.789   0.990  16.226 -0.0200 -1.2794  0.0292
  623MPD2    C1 9278   0.782   1.073  16.338 -0.5987 -0.1483 -0.0353
  623MPD2    C2 9279   0.900   1.129  16.373  0.6186  0.5179  0.8553
  623MPD2    C3 9280   1.030   1.099  16.323  0.0155 -0.4162  0.0997
  623MPD2    C4 9281   1.035   1.008  16.226  0.3772  0.0253  0.6636
  623MPD2    C5 9282   0.917   0.957  16.174 -0.4687 -0.2220  0.2325
  623MPD2     H 9283   0.897   1.196  16.459  0.6903  2.4046 -0.6054
  623MPD2    H1 9284   1.130   0.993  16.175 -0.1847 -0.8865 -0.1230
  623MPD2    H2 9285   0.703   0.945  16.178 -0.8449 -2.8852  2.9964
  623MPD2    H3 9286   0.918   0.900  16.082  2.7460  1.2365 -0.6246
  623MPD2     N 9287   1.137   1.175  16.367 -0.3163 -0.3426  0.5384
  623MPD2    H5 9288   1.122   1.234  16.448 -0.2331  0.3586  0.0352
  623MPD2    N1 9289   0.655   1.109  16.390  0.0725 -0.6654 -0.2122
  623MPD2    H7 9290   0.575   1.054  16.358 -2.1556  3.8090 -2.3865
  624TMC3    C1 9291   1.511   1.261  16.548 -0.0377 -0.5537 -0.4374
  624TMC3    C2 9292   1.437   1.347  16.626  0.1047 -0.3694 -0.1737
  624TMC3    C3 9293   1.324   1.399  16.580  0.1049  0.0685  0.5620
  624TMC3    C4 9294   1.470   1.220  16.429 -0.1227  0.2667  0.4061
  624TMC3    C5 9295   1.350   1.267  16.388 -0.0263  0.4186 -0.1822
  624TMC3    C6 9296   1.277   1.361  16.459 -0.7542  0.0655  0.1955
  624TMC3     C 9297   1.612   1.184  16.618 -0.4557 -0.4516 -0.7138
  624TMC3     O 9298   1.632   1.206  16.738 -0.3752  0.1483  0.2002
  624TMC3     H 9299   1.461   1.357  16.731  1.3912 -0.9076 -0.4128
  624TMC3    H1 9300   1.505   1.131  16.377  0.7493  0.9100 -0.1211
  624TMC3    H2 9301   1.194   1.420  16.421  1.0764  1.8173 -1.0924
  624TMC3    C7 9302   1.267   1.164  16.324 -0.0624 -0.3419 -0.8946
  624TMC3    C8 9303   1.207   1.391  16.666 -0.4476  0.8756  0.7336
  624TMC3    O1 9304   1.321   1.093  16.239 -0.2435  0.1614  0.2565
  624TMC3    O2 9305   1.100   1.364  16.610 -0.4380  0.0076 -0.1428
  625MPD2     C 9306   2.018   2.898   1.084  0.2443  0.3754 -0.0360
  625MPD2    C1 9307   2.068   2.784   1.034 -0.9948 -0.7136  0.2603
  625MPD2    C2 9308   2.205   2.760   1.039  0.3189 -0.1491 -0.2448
  625MPD2    C3 9309   2.300   2.844   1.099 -0.1840  0.2428  0.2866
  625MPD2    C4 9310   2.251   2.959   1.158 -0.1120  0.1311  0.8168
  625MPD2    C5 9311   2.115   2.981   1.145  0.3917  0.2963 -0.0601
  625MPD2     H 9312   2.239   2.664   1.000  1.0819  0.3002 -0.6833
  625MPD2    H1 9313   2.310   3.025   1.221  0.4883 -0.4999  0.9105
  625MPD2    H2 9314   1.912   2.922   1.086  0.1792  0.0108  1.2145
  625MPD2    H3 9315   2.074   3.069   1.193 -1.9334  0.2041 -1.8809
  625MPD2     N 9316   2.443   2.811   1.096  0.9371 -0.1248  0.2344
  625MPD2    H5 9317   2.463   2.730   1.039  0.0120 -0.3769  0.2563
  625MPD2    N1 9318   1.982   2.679   0.989 -0.1041  0.5051  0.0275
  625MPD2    H7 9319   2.037   2.599   0.960  0.2060  0.5842  0.3964
  626TMC3    C1 9320   1.780   2.572   0.906  0.1154  1.0044 -0.2882
  626TMC3    C2 9321   1.658   2.589   0.844 -0.3056 -0.4966  0.0955
  626TMC3    C3 9322   1.600   2.484   0.790  0.8975  0.0287 -0.5904
  626TMC3    C4 9323   1.843   2.452   0.921  0.7201 -0.1960  0.3765
  626TMC3    C5 9324   1.776   2.346   0.867  0.1712  0.2559  0.1720
  626TMC3    C6 9325   1.659   2.361   0.796  0.3392 -0.0233 -0.0013
  626TMC3     C 9326   1.845   2.684   0.976 -0.1030  0.0746 -0.2777
  626TMC3     O 9327   1.762   2.767   1.007  0.0446 -0.2035 -0.1405
  626TMC3     H 9328   1.609   2.686   0.844 -1.2002 -0.9460 -1.5340
  626TMC3    H1 9329   1.933   2.434   0.979 -0.5639 -0.2443  2.3216
  626TMC3    H2 9330   1.627   2.274   0.740  0.8754 -1.3486  1.7697
  626TMC3    C7 9331   1.842   2.215   0.872 -0.2656  0.0813  0.1247
  626TMC3    C8 9332   1.483   2.502   0.714 -0.0796 -0.5726  0.3836
  626TMC3    O1 9333   1.957   2.203   0.843  0.1083  0.3299  0.4904
  626TMC3    O2 9334   1.444   2.618   0.693 -0.5544  0.4477 -0.3756
  627MPD2     C 9335   4.624   2.159  15.017  0.8994 -0.2418  0.3030
  627MPD2    C1 9336   0.017   2.145  14.977  0.8519  0.2181  0.0935
  627MPD2    C2 9337   0.051   2.069  14.869  0.3003 -0.1962 -0.0948
  627MPD2    C3 9338   4.688   2.002  14.805  0.3764 -0.3947 -0.0341
  627MPD2    C4 9339   4.556   2.020  14.838 -0.0781  0.3220 -0.9738
  627MPD2    C5 9340   4.525   2.091  14.954  0.0455 -0.3545 -0.2208
  627MPD2     H 9341   0.157   2.062  14.847  0.0529 -3.7311 -0.1759
  627MPD2    H1 9342   4.467   1.976  14.796 -1.1390 -0.1160  1.6982
  627MPD2    H2 9343   4.595   2.209  15.109  1.9267  0.2653  0.3446
  627MPD2    H3 9344   4.423   2.094  14.991 -0.4013  2.4637 -1.6950
  627MPD2     N 9345   4.733   1.923  14.697 -0.1445 -0.2608  0.0603
  627MPD2    H5 9346   0.094   1.908  14.688 -0.4822 -2.2824 -0.4342
  627MPD2    N1 9347   0.127   2.193  15.053  0.3178  0.1722 -0.5082
  627MPD2    H7 9348   0.216   2.145  15.055  0.6923  0.8342 -1.3597
  628TMC3    C1 9349   0.256   2.366  15.145  0.0698 -0.3134 -0.4902
  628TMC3    C2 9350   0.367   2.286  15.170 -0.5398  0.3160 -0.2892
  628TMC3    C3 9351   0.486   2.353  15.159 -0.4918  0.5361 -0.2338
  628TMC3    C4 9352   0.254   2.489  15.084 -0.0577 -0.4488 -0.3442
  628TMC3    C5 9353   0.372   2.543  15.065  0.2362 -0.4125 -0.4204
  628TMC3    C6 9354   0.488   2.479  15.104  0.5095 -0.1954  0.4127
  628TMC3     C 9355   0.121   2.308  15.136  0.0070  0.7089 -0.4765
  628TMC3     O 9356   0.022   2.371  15.178 -0.3846 -0.2130  0.1752
  628TMC3     H 9357   0.370   2.187  15.214 -0.8923  1.0625  1.3863
  628TMC3    H1 9358   0.162   2.536  15.051  1.2154  2.5247  0.3290
  628TMC3    H2 9359   0.582   2.510  15.060  0.2441  1.1732  0.8185
  628TMC3    C7 9360   0.380   2.682  15.035 -0.0173 -0.2056 -0.2083
  628TMC3    C8 9361   0.601   2.299  15.226  0.5371  0.1469  0.1894
  628TMC3    O1 9362   0.461   2.749  15.099  0.1513 -0.5537 -0.6649
  628TMC3    O2 9363   0.578   2.212  15.312  0.5179  0.0072  0.2010
  629MPD2     C 9364   2.772   1.875  16.606 -0.8935 -0.5980  0.5451
  629MPD2    C1 9365   2.788   1.744  16.647  0.6358 -0.1145  0.1068
  629MPD2    C2 9366   2.702   1.701  16.752 -0.4459  0.4320  0.0485
  629MPD2    C3 9367   2.598   1.783  16.796  0.0220 -0.5191  0.6786
  629MPD2    C4 9368   2.599   1.923  16.764 -0.5125  0.1875 -0.3884
  629MPD2    C5 9369   2.675   1.967  16.659 -0.2767  0.3661  0.2084
  629MPD2     H 9370   2.706   1.605  16.803 -0.1436  1.0777  1.2524
  629MPD2    H1 9371   2.522   1.993  16.792 -0.6122 -1.2574  2.9344
  629MPD2    H2 9372   2.835   1.911  16.525 -0.2638  0.7703  1.6483
  629MPD2    H3 9373   2.657   2.069  16.628 -1.6042  0.0852  0.0480
  629MPD2     N 9374   2.500   1.725  16.880 -0.0437  0.0608  0.2900
  629MPD2    H5 9375   2.493   1.624  16.886  0.3714  0.0294  0.2352
  629MPD2    N1 9376   2.896   1.673  16.597  0.0134 -0.4064 -0.6392
  629MPD2    H7 9377   2.961   1.732  16.545  0.4063 -1.2592 -1.1208
  630TMC3    C1 9378   3.074   1.508  16.571 -0.3902  0.4640 -0.1346
  630TMC3    C2 9379   3.139   1.587  16.480 -0.3415  0.4588 -0.0859
  630TMC3    C3 9380   3.272   1.563  16.455  0.2434  0.4175 -0.8757
  630TMC3    C4 9381   3.139   1.402  16.640  0.1605  0.3042 -0.5967
  630TMC3    C5 9382   3.276   1.393  16.622  0.2771 -0.7983  0.3746
  630TMC3    C6 9383   3.340   1.457  16.519 -0.5872  0.6605  0.4370
  630TMC3     C 9384   2.940   1.548  16.627 -0.3561 -0.7533  0.2668
  630TMC3     O 9385   2.879   1.463  16.692 -0.3330  0.2614  0.3160
  630TMC3     H 9386   3.088   1.663  16.422 -1.4688  1.0518  1.6722
  630TMC3    H1 9387   3.099   1.361  16.732  2.3064 -1.4713 -0.4419
  630TMC3    H2 9388   3.445   1.446  16.494 -0.5858 -3.5848  2.2144
  630TMC3    C7 9389   3.345   1.419  16.745  0.4354  0.7423  0.1937
  630TMC3    C8 9390   3.349   1.679  16.436 -0.7594 -0.2184 -0.0922
  630TMC3    O1 9391   3.311   1.362  16.846 -0.0153 -0.1292  0.1157
  630TMC3    O2 9392   3.460   1.670  16.486 -0.1427  0.0940  0.2722
  631MPD2     C 9393   1.844   1.665  15.582  0.3977  0.2324  0.2121
  631MPD2    C1 9394   1.713   1.721  15.583 -0.6837  0.2798  0.5398
  631MPD2    C2 9395   1.662   1.774  15.701 -0.1390 -0.8792  0.2727
  631MPD2    C3 9396   1.741   1.765  15.819  0.1275 -0.0505 -1.0946
  631MPD2    C4 9397   1.862   1.697  15.814 -0.0367  0.1698  0.5073
  631MPD2    C5 9398   1.916   1.652  15.702 -0.1255 -0.1530 -0.9053
  631MPD2     H 9399   1.560   1.810  15.709  0.6875  1.8213 -1.0485
  631MPD2    H1 9400   1.919   1.678  15.904 -0.2837 -2.4247  0.1099
  631MPD2    H2 9401   1.885   1.634  15.487  1.8261  1.0282  0.5750
  631MPD2    H3 9402   2.014   1.610  15.721 -0.8328 -1.7992 -0.9543
  631MPD2     N 9403   1.667   1.795  15.932 -0.0071  0.1830 -0.2519
  631MPD2    H5 9404   1.576   1.833  15.911 -0.7526 -0.1783  2.3478
  631MPD2    N1 9405   1.649   1.740  15.457  0.1812  0.3315  0.4992
  631MPD2    H7 9406   1.694   1.694  15.378 -1.7546  0.2536 -0.5672
  632TMC3    C1 9407   1.495   1.793  15.292 -0.2428 -0.4750  0.7760
  632TMC3    C2 9408   1.360   1.796  15.267 -0.0594  0.2219 -0.0685
  632TMC3    C3 9409   1.327   1.768  15.137  0.3036  0.0673  0.3748
  632TMC3    C4 9410   1.593   1.768  15.194  0.3377  0.6558  0.4143
  632TMC3    C5 9411   1.550   1.747  15.058 -0.1529  0.2805 -0.3692
  632TMC3    C6 9412   1.413   1.751  15.039 -0.3174  0.2461 -0.0342
  632TMC3     C 9413   1.526   1.802  15.435 -0.9810 -0.2213  0.0270
  632TMC3     O 9414   1.439   1.843  15.507  0.3168 -0.3320  0.1032
  632TMC3     H 9415   1.289   1.814  15.346 -0.5443  0.2602 -0.5152
  632TMC3    H1 9416   1.699   1.788  15.208  0.0661  1.3207  1.5543
  632TMC3    H2 9417   1.370   1.734  14.940 -0.6637 -0.2084  0.1944
  632TMC3    C7 9418   1.631   1.710  14.947 -0.5722 -0.0079 -0.2344
  632TMC3    C8 9419   1.187   1.794  15.103 -0.8752  0.4408  0.8285
  632TMC3    O1 9420   1.569   1.687  14.843 -0.1324  0.0506 -0.0312
  632TMC3    O2 9421   1.163   1.835  14.988 -0.4890 -0.4226 -0.0814
  633MPD2     C 9422   1.070   3.925  17.551 -0.3669 -0.2543  0.6205
  633MPD2    C1 9423   1.035   3.885  17.420 -0.4125 -0.2615  0.1418
  633MPD2    C2 9424   1.041   3.747  17.395 -0.1087  0.2318 -0.2949
  633MPD2    C3 9425   1.081   3.656  17.496  0.0926 -0.5918 -0.1928
  633MPD2    C4 9426   1.128   3.700  17.619  0.6440  0.2877 -0.0255
  633MPD2    C5 9427   1.120   3.836  17.644 -0.2453 -0.0825  0.3314
  633MPD2     H 9428   1.015   3.715  17.295  2.5229  0.9102 -1.1930
  633MPD2    H1 9429   1.173   3.640  17.698 -2.2125  0.9234  2.0841
  633MPD2    H2 9430   1.061   4.030  17.577 -1.4981  0.2469 -1.7549
  633MPD2    H3 9431   1.158   3.877  17.737  1.5833  1.6919 -1.1919
  633MPD2     N 9432   1.067   3.512  17.494  0.2149 -0.0108  0.7369
  633MPD2    H5 9433   1.087   3.457  17.577 -0.2464 -1.2243  0.0463
  633MPD2    N1 9434   1.009   3.972  17.309  0.3932 -0.4844 -0.1458
  633MPD2    H7 9435   1.015   3.921  17.221  0.1657 -0.2602 -0.2916
  634TMC3    C1 9436   1.034   4.164  17.177  0.1209  0.9227  0.1574
  634TMC3    C2 9437   1.095   4.092  17.076 -0.1524  0.0859 -0.1366
  634TMC3    C3 9438   1.138   4.156  16.964 -0.3102 -0.0105 -0.3811
  634TMC3    C4 9439   1.001   4.295  17.162 -0.2481 -0.9895 -0.2913
  634TMC3    C5 9440   1.045   4.350  17.044  0.2740 -0.0012 -0.1801
  634TMC3    C6 9441   1.117   4.289  16.947 -0.0045  0.4122  0.3661
  634TMC3     C 9442   1.025   4.104  17.309 -0.4255  0.5667 -0.3925
  634TMC3     O 9443   0.997   4.179  17.407 -0.4223  0.2365 -0.0093
  634TMC3     H 9444   1.117   3.986  17.083  1.4867  0.4338  0.0989
  634TMC3    H1 9445   0.944   4.338  17.243  0.0810  1.8807 -1.5632
  634TMC3    H2 9446   1.162   4.339  16.863  1.1672 -2.7907 -0.9143
  634TMC3    C7 9447   0.981   4.465  16.992  0.1059 -0.7953 -0.7078
  634TMC3    C8 9448   1.142   4.074  16.844 -0.3521 -0.8173 -0.4127
  634TMC3    O1 9449   0.981   4.471  16.868 -0.1825  0.3712  0.6757
  634TMC3    O2 9450   1.122   3.956  16.863  0.0090  0.2096 -0.4951
  635TMC3    C1 9451   1.429   0.152   0.458 -0.2502  0.0235 -0.0641
  635TMC3    C2 9452   1.371   0.064   0.372  0.5515  0.1013  0.3150
  635TMC3    C3 9453   1.259   0.001   0.411 -0.2782  0.2698 -0.6806
  635TMC3    C4 9454   1.381   0.179   0.584  0.2421 -0.2309 -0.2415
  635TMC3    C5 9455   1.263   0.114   0.620  0.6578  0.4028 -0.3987
  635TMC3    C6 9456   1.204   0.026   0.536 -0.8652  0.2634  0.1474
  635TMC3     C 9457   1.536   0.240   0.417  0.5386  0.3589 -0.6843
  635TMC3     O 9458   1.603   0.289   0.507 -0.0130  0.5789  0.1121
  635TMC3     H 9459   1.399   0.057   0.268  1.8677 -1.8724  0.7996
  635TMC3    H1 9460   1.431   0.254   0.644 -0.1542  1.4143 -2.0141
  635TMC3    H2 9461   1.107   4.728   0.569 -0.5472 -0.4114  0.3170
  635TMC3    C7 9462   1.225   0.122   0.757  0.0737 -0.1486 -0.1547
  635TMC3    C8 9463   1.209   4.630   0.332  0.1555 -0.5223  0.0477
  635TMC3    O1 9464   1.109   0.140   0.784  0.1069  0.4764  0.5896
  635TMC3    O2 9465   1.278   4.582   0.243  0.7001  0.1374 -0.4932
  636MPD2     C 9466   2.458   4.321  16.645  0.0667 -0.2314 -0.0689
  636MPD2    C1 9467   2.536   4.408  16.715 -0.3119 -0.5156  0.1523
  636MPD2    C2 9468   2.601   4.361  16.832  0.2693  0.1625 -0.3039
  636MPD2    C3 9469   2.594   4.231  16.869 -0.5206  0.5250 -0.5303
  636MPD2    C4 9470   2.524   4.142  16.795  0.1812 -0.4157  0.3743
  636MPD2    C5 9471   2.463   4.188  16.682  0.1995  0.3240 -0.3112
  636MPD2     H 9472   2.659   4.431  16.891 -0.7094  0.1585  0.6610
  636MPD2    H1 9473   2.529   4.035  16.808 -3.9992 -0.8720 -1.6538
  636MPD2    H2 9474   2.416   4.346  16.548 -2.1985 -0.5157  0.8531
  636MPD2    H3 9475   2.424   4.115  16.611 -0.4127 -0.6104  0.9894
  636MPD2     N 9476   2.677   4.198  16.975 -0.2112  0.2485 -0.2521
  636MPD2    H5 9477   2.730   4.278  17.009  1.3183 -0.3319 -1.2436
  636MPD2    N1 9478   2.551   4.546  16.687 -0.8983 -0.6388  0.2649
  636MPD2    H7 9479   2.632   4.588  16.731  0.0696 -0.5850 -1.5530
  637TMC3    C1 9480   2.785   4.073  17.138 -0.3557  0.8603 -0.4649
  637TMC3    C2 9481   2.824   4.198  17.183 -0.0205 -0.0108 -0.5072
  637TMC3    C3 9482   2.957   4.234  17.168 -0.1767  0.0938  0.1434
  637TMC3    C4 9483   2.879   3.980  17.099  0.3433  0.3224  0.0624
  637TMC3    C5 9484   3.006   4.022  17.077  0.4910  0.0859 -0.2148
  637TMC3    C6 9485   3.054   4.143  17.126  0.9211 -0.2411 -0.2145
  637TMC3     C 9486   2.681   4.077  17.038  0.0915  0.6372 -0.4504
  637TMC3     O 9487   2.622   3.976  17.003 -0.2039 -0.4551 -0.3165
  637TMC3     H 9488   2.745   4.267  17.211 -1.8370 -2.3008  0.0205
  637TMC3    H1 9489   2.839   3.887  17.060  2.3320  0.1220 -1.5278
  637TMC3    H2 9490   3.154   4.175  17.100  1.6417 -1.0276  1.6134
  637TMC3    C7 9491   3.045   4.014  16.932  0.1425 -0.4186 -0.5778
  637TMC3    C8 9492   2.974   4.362  17.102  0.3199 -0.3475  0.5186
  637TMC3    O1 9493   3.120   4.098  16.891 -0.1879 -0.3544  0.9518
  637TMC3    O2 9494   2.871   4.412  17.062  0.5183 -0.3361 -0.3228
  638MPD2     C 9495   2.028   3.092  14.414  0.2595  0.5418 -0.7160
  638MPD2    C1 9496   2.077   2.961  14.418 -0.6342 -0.6787 -0.4746
  638MPD2    C2 9497   2.036   2.884  14.532  0.0848 -0.1789  0.0886
  638MPD2    C3 9498   1.931   2.924  14.611 -0.3858  0.2289  0.0100
  638MPD2    C4 9499   1.881   3.051  14.600 -0.9792  0.1892 -0.6737
  638MPD2    C5 9500   1.932   3.134  14.498 -0.3920  0.1861  0.8804
  638MPD2     H 9501   2.077   2.784  14.543 -0.0930 -0.1424  1.0560
  638MPD2    H1 9502   1.800   3.089  14.660 -0.9208 -0.7102 -0.0268
  638MPD2    H2 9503   2.063   3.163  14.340  1.3241  2.2332  1.3964
  638MPD2    H3 9504   1.903   3.238  14.492 -0.9617 -0.0058  0.2402
  638MPD2     N 9505   1.902   2.839  14.723  0.5834 -0.3009 -0.1729
  638MPD2    H5 9506   1.945   2.747  14.717 -0.7477 -0.9309 -0.0752
  638MPD2    N1 9507   2.176   2.908  14.332 -0.0943 -0.6212  0.0073
  638MPD2    H7 9508   2.208   2.815  14.356 -0.2185  0.0384  2.7272
  639TMC3    C1 9509   1.821   2.733  14.917 -0.5168 -0.0835  0.0196
  639TMC3    C2 9510   1.804   2.610  14.849  0.3021  0.1327  0.0910
  639TMC3    C3 9511   1.872   2.503  14.889 -0.2107 -0.0558  0.1371
  639TMC3    C4 9512   1.894   2.736  15.034  0.0651 -0.4013 -0.1368
  639TMC3    C5 9513   1.970   2.623  15.068 -0.0020 -0.1560  0.2624
  639TMC3    C6 9514   1.951   2.508  14.997 -0.2596 -0.0549  1.4713
  639TMC3     C 9515   1.820   2.849  14.831 -0.8967 -0.0442  0.3493
  639TMC3     O 9516   1.744   2.944  14.857 -0.0074  0.0443 -0.4431
  639TMC3     H 9517   1.746   2.609  14.757  0.9126  1.2385 -0.3052
  639TMC3    H1 9518   1.920   2.835  15.068  0.6278 -0.7244  0.3767
  639TMC3    H2 9519   1.999   2.414  15.023  1.2591 -0.0318 -1.1918
  639TMC3    C7 9520   2.098   2.642  15.113  0.9340  0.7766  0.3244
  639TMC3    C8 9521   1.866   2.375  14.821 -0.2795  0.2774 -0.8378
  639TMC3    O1 9522   2.117   2.744  15.175 -0.3055 -0.2971  0.1721
  639TMC3    O2 9523   1.974   2.319  14.795 -0.2685  0.3511 -0.2413
  640MPD2     C 9524   3.069   1.271  10.069 -0.1582  0.1969 -0.7866
  640MPD2    C1 9525   3.016   1.330   9.958  0.8524 -0.0951 -0.2031
  640MPD2    C2 9526   2.935   1.441   9.981  0.2705  0.6232  0.1360
  640MPD2    C3 9527   2.911   1.493  10.105 -0.4529  0.6926  0.0011
  640MPD2    C4 9528   2.977   1.434  10.215 -0.4124 -0.8243 -0.3649
  640MPD2    C5 9529   3.062   1.330  10.195 -0.8352  0.2577 -0.4077
  640MPD2     H 9530   2.887   1.489   9.896  0.5735 -0.1405 -0.4670
  640MPD2    H1 9531   2.960   1.472  10.315  0.5391 -1.5762  0.0788
  640MPD2    H2 9532   3.126   1.179  10.061  0.5700  0.5338  0.4174
  640MPD2    H3 9533   3.122   1.290  10.276 -0.6968  1.6665  0.1934
  640MPD2     N 9534   2.820   1.599  10.112  0.1893  0.0211 -0.3584
  640MPD2    H5 9535   2.756   1.622  10.037  0.8109  0.2370 -0.8206
  640MPD2    N1 9536   3.025   1.264   9.834  0.0960 -0.9558  0.0152
  640MPD2    H7 9537   3.071   1.173   9.828  3.0037  0.4322  1.3813
  641TMC3    C1 9538   2.984   1.220   9.605  0.1671  0.1383 -0.2746
  641TMC3    C2 9539   3.038   1.091   9.622  0.5876  0.0003 -0.6136
  641TMC3    C3 9540   3.046   1.015   9.511 -0.0865  0.9191 -0.0774
  641TMC3    C4 9541   2.930   1.257   9.485  0.7342 -0.5370  0.1468
  641TMC3    C5 9542   2.936   1.165   9.379 -0.2294  0.1041  0.2990
  641TMC3    C6 9543   2.989   1.044   9.399  0.1166 -0.5367 -0.4440
  641TMC3     C 9544   2.975   1.314   9.716  0.0371 -0.2503 -0.4960
  641TMC3     O 9545   2.930   1.427   9.697  0.0243  0.4874  0.1539
  641TMC3     H 9546   3.058   1.046   9.719  3.1539  0.4484 -0.9415
  641TMC3    H1 9547   2.916   1.364   9.467 -1.5386 -0.8644 -0.0943
  641TMC3    H2 9548   2.982   0.963   9.327 -0.9810  0.4068 -1.4040
  641TMC3    C7 9549   2.865   1.187   9.254 -0.0707 -0.1107 -0.1943
  641TMC3    C8 9550   3.143   0.908   9.502  0.0656 -0.3960  0.8320
  641TMC3    O1 9551   2.894   1.117   9.162 -0.1612  0.5208  0.5722
  641TMC3    O2 9552   3.156   0.853   9.390  0.4232  0.1877 -0.3408
  642TMC3    C1 9553   3.670   2.130  12.626  0.0424  0.0900 -0.1737
  642TMC3    C2 9554   3.806   2.142  12.599 -0.5755 -0.7822 -0.3845
  642TMC3    C3 9555   3.880   2.029  12.583 -0.0625 -0.1464  0.6471
  642TMC3    C4 9556   3.607   2.006  12.645 -0.0095  0.4635 -0.3145
  642TMC3    C5 9557   3.694   1.896  12.636 -0.0902  0.7849 -0.4892
  642TMC3    C6 9558   3.823   1.904  12.604  0.0009  0.0687  0.3333
  642TMC3     C 9559   3.600   2.243  12.675 -0.7958  0.8474  0.0916
  642TMC3     O 9560   3.664   2.351  12.681 -0.2279  0.4052 -0.0711
  642TMC3     H 9561   3.842   2.235  12.556 -0.1107 -0.0397  1.6503
  642TMC3    H1 9562   3.502   1.994  12.669 -0.1143  0.2193 -0.8806
  642TMC3    H2 9563   3.883   1.817  12.579  0.6767  0.4400  0.6580
  642TMC3    C7 9564   3.640   1.757  12.644  0.2942 -0.6111 -0.8484
  642TMC3    C8 9565   4.019   2.020  12.520 -0.5613 -0.1057  0.0151
  642TMC3    O1 9566   3.718   1.664  12.643  0.5358 -0.2409  0.5556
  642TMC3    O2 9567   4.075   1.913  12.526 -0.8851  0.4128 -0.2600
  643TMC3    C1 9568   3.096   2.118   0.256 -0.8938  0.6462 -0.3878
  643TMC3    C2 9569   2.966   2.120   0.220  0.6093  0.2677  0.5935
  643TMC3    C3 9570   2.916   2.010   0.149 -0.6366  0.4813  0.0213
  643TMC3    C4 9571   3.188   2.026   0.209 -0.9708 -0.2118 -0.3270
  643TMC3    C5 9572   3.135   1.929   0.123 -0.2864  0.7031 -0.1297
  643TMC3    C6 9573   3.005   1.915   0.108 -0.1517  0.5144  0.3946
  643TMC3     C 9574   3.142   2.226   0.349  0.5241 -0.8539  0.0787
  643TMC3     O 9575   3.055   2.304   0.384 -0.2417  0.1959  0.0028
  643TMC3     H 9576   2.904   2.202   0.252  1.1036  0.9327 -0.1503
  643TMC3    H1 9577   3.296   2.034   0.207 -0.9217 -0.8073 -0.0563
  643TMC3    H2 9578   2.963   1.832   0.052 -0.6287  1.0025  0.0292
  643TMC3    C7 9579   3.192   1.942  17.740  0.0025  0.2393 -0.8041
  643TMC3    C8 9580   2.849   2.046   0.022 -0.4816  0.2405 -0.3522
  643TMC3    O1 9581   3.260   2.043  17.721 -0.3603  0.1420  0.0346
  643TMC3    O2 9582   2.780   1.969  17.711 -0.1155 -0.0294 -0.4396
  644MPD2     C 9583   3.380   2.084   9.958  0.1312  0.9494  0.9681
  644MPD2    C1 9584   3.282   1.994   9.933 -0.6613 -0.2143 -0.0505
  644MPD2    C2 9585   3.154   2.031   9.886 -0.0898  0.1499 -0.1991
  644MPD2    C3 9586   3.133   2.164   9.866  0.0660 -0.0231  0.8013
  644MPD2    C4 9587   3.231   2.259   9.889 -0.8972  0.1892  0.8014
  644MPD2    C5 9588   3.357   2.216   9.937 -0.2175 -0.3357 -0.3915
  644MPD2     H 9589   3.069   1.965   9.876  1.5931 -2.0334 -0.1027
  644MPD2    H1 9590   3.224   2.367   9.880  0.2706  0.1483 -0.4800
  644MPD2    H2 9591   3.482   2.062   9.990  0.3297 -2.3977 -1.9732
  644MPD2    H3 9592   3.436   2.284   9.965 -0.3828 -0.7032  0.9842
  644MPD2     N 9593   3.006   2.200   9.824 -0.8727 -0.3526  0.2314
  644MPD2    H5 9594   2.950   2.118   9.803  0.4803 -1.1618 -0.2001
  644MPD2    N1 9595   3.319   1.861   9.974  0.5880  0.2382  0.2014
  644MPD2    H7 9596   3.417   1.849   9.998 -0.1835  0.7357  3.6351
  645TMC3    C1 9597   2.807   2.329   9.787 -0.6145  0.2703 -0.1973
  645TMC3    C2 9598   2.704   2.420   9.827 -0.5747 -0.1588  0.2302
  645TMC3    C3 9599   2.573   2.403   9.783  0.2188 -0.1398  0.0656
  645TMC3    C4 9600   2.776   2.232   9.691  0.1905  0.0742  0.3336
  645TMC3    C5 9601   2.644   2.230   9.647  0.1052  0.0668 -0.2961
  645TMC3    C6 9602   2.543   2.319   9.679  0.6452 -0.7997  0.0914
  645TMC3     C 9603   2.951   2.328   9.823  0.1956  0.1058 -0.9699
  645TMC3     O 9604   2.989   2.424   9.886 -0.6288 -0.1920 -0.1850
  645TMC3     H 9605   2.741   2.491   9.901 -0.9166  1.3359 -1.0434
  645TMC3    H1 9606   2.850   2.172   9.640  0.5940  0.7153  0.1597
  645TMC3    H2 9607   2.443   2.307   9.639  0.4943  0.5115  0.0757
  645TMC3    C7 9608   2.608   2.146   9.535  0.8235 -0.0883  0.5202
  645TMC3    C8 9609   2.468   2.468   9.854 -0.1473  0.2452 -0.1436
  645TMC3    O1 9610   2.504   2.174   9.480  0.3961  0.0859 -0.3080
  645TMC3    O2 9611   2.508   2.552   9.934  0.3187 -0.2521  0.0320
  646MPD2     C 9612   2.656   1.628  14.499  0.0382  0.3661  0.3106
  646MPD2    C1 9613   2.549   1.597  14.581 -0.1138  0.5332  0.4221
  646MPD2    C2 9614   2.419   1.634  14.544 -0.5941 -0.6401 -0.3151
  646MPD2    C3 9615   2.404   1.704  14.428  0.1081 -0.5855  0.3955
  646MPD2    C4 9616   2.513   1.754  14.359 -0.4583 -0.0514  0.0215
  646MPD2    C5 9617   2.640   1.703  14.387 -0.2946 -0.3224 -0.1812
  646MPD2     H 9618   2.328   1.593  14.586 -0.4559 -1.6397 -0.9767
  646MPD2    H1 9619   2.507   1.835  14.288  1.3600 -1.6397 -1.9738
  646MPD2    H2 9620   2.757   1.595  14.522 -0.1626  0.5634  1.4482
  646MPD2    H3 9621   2.727   1.749  14.341 -2.0072  2.8529 -0.2030
  646MPD2     N 9622   2.270   1.728  14.394  0.0653 -0.2400  0.1596
  646MPD2    H5 9623   2.203   1.672  14.445 -0.9063 -1.0876 -2.0106
  646MPD2    N1 9624   2.578   1.508  14.685  0.2180 -0.3467  0.5872
  646MPD2    H7 9625   2.672   1.471  14.692  2.2740  4.4960 -1.2922
  647TMC3    C1 9626   2.563   1.397  14.880  0.2840  0.4965  0.6289
  647TMC3    C2 9627   2.483   1.345  14.985 -0.6495  0.3800  0.1142
  647TMC3    C3 9628   2.544   1.291  15.097 -0.6924  0.6395 -0.2305
  647TMC3    C4 9629   2.702   1.408  14.894  0.0112 -0.5678 -0.3879
  647TMC3    C5 9630   2.757   1.359  15.012 -0.5707 -1.3204 -0.3382
  647TMC3    C6 9631   2.682   1.301  15.110 -0.5034 -0.3291 -0.0726
  647TMC3     C 9632   2.490   1.474  14.780  0.1240 -0.0188  0.3792
  647TMC3     O 9633   2.374   1.511  14.800 -0.2633  0.0944  0.2963
  647TMC3     H 9634   2.374   1.346  14.988 -0.6842 -1.0559 -0.8215
  647TMC3    H1 9635   2.763   1.483  14.846 -1.6819  0.4236 -0.9781
  647TMC3    H2 9636   2.728   1.250  15.194 -0.8503  0.1659  0.4189
  647TMC3    C7 9637   2.897   1.348  15.029  0.0549 -0.1967  0.9121
  647TMC3    C8 9638   2.490   1.199  15.193  0.7198 -0.0261 -0.0984
  647TMC3    O1 9639   2.941   1.296  15.133 -0.0630  0.4608  0.1580
  647TMC3    O2 9640   2.541   1.195  15.306  0.5498 -0.2717  0.5192
  648TMC3    C1 9641   1.360   4.065  16.044  0.0235 -0.2665 -0.2432
  648TMC3    C2 9642   1.355   3.943  15.990 -0.2394  0.7299 -0.6828
  648TMC3    C3 9643   1.245   3.910  15.918 -0.2670 -0.6444  0.0905
  648TMC3    C4 9644   1.256   4.154  16.027 -0.5115  0.0472 -0.2082
  648TMC3    C5 9645   1.151   4.118  15.936 -0.6524  0.6182 -0.0751
  648TMC3    C6 9646   1.149   3.996  15.878 -0.0297 -0.4922 -0.3156
  648TMC3     C 9647   1.443   4.097  16.155 -0.3228 -0.1272  0.1309
  648TMC3     O 9648   1.485   4.215  16.155  0.4265  0.0204  0.0363
  648TMC3     H 9649   1.423   3.870  16.033 -1.0074  1.8273  2.3952
  648TMC3    H1 9650   1.249   4.247  16.082  2.5283 -0.7086  1.4277
  648TMC3    H2 9651   1.071   3.969  15.808  0.1344  0.3763 -0.8343
  648TMC3    C7 9652   1.035   4.210  15.914 -0.3781 -0.0537 -0.1713
  648TMC3    C8 9653   1.219   3.771  15.896 -0.7969  0.4189  0.5931
  648TMC3    O1 9654   0.960   4.171  15.823 -0.2462  0.2110 -0.1987
  648TMC3    O2 9655   1.101   3.737  15.872 -0.5040 -0.2323  0.0845
  649TMC3    C1 9656   4.643   4.613  12.543  0.5572  0.5497  0.0818
  649TMC3    C2 9657   4.611   4.508  12.452  0.6450 -0.7883 -0.3705
  649TMC3    C3 9658   4.706   4.417  12.428  0.0133  0.0889  0.5906
  649TMC3    C4 9659   0.023   4.619  12.613 -0.0882 -0.4824 -0.7460
  649TMC3    C5 9660   0.109   4.522  12.585  0.5118  0.2939 -0.2289
  649TMC3    C6 9661   0.087   4.421  12.493 -0.1935 -0.1946  0.4720
  649TMC3     C 9662   4.532   4.695  12.592  0.0587 -0.0219 -0.9659
  649TMC3     O 9663   4.548   0.049  12.669 -0.0677 -0.4008 -0.3198
  649TMC3     H 9664   4.523   4.517  12.389  1.0413  2.3747 -0.4351
  649TMC3    H1 9665   0.049   4.704  12.676  1.8944 -1.6454  0.0127
  649TMC3    H2 9666   0.149   4.333  12.483 -2.2625 -1.5176 -0.5650
  649TMC3    C7 9667   0.226   4.526  12.679 -0.1979  0.2907  0.2882
  649TMC3    C8 9668   4.668   4.312  12.338  0.2271  0.3288  0.4215
  649TMC3    O1 9669   0.239   4.627  12.746 -0.0365  0.5679  0.0091
  649TMC3    O2 9670   4.552   4.315  12.299 -0.2405 -0.0709 -0.0295
  650TMC3    C1 9671   2.732   1.279  12.746 -0.7488  0.5892  0.0917
  650TMC3    C2 9672   2.672   1.398  12.751  0.1547 -0.2615  0.1571
  650TMC3    C3 9673   2.614   1.444  12.627  0.4050 -0.0648 -0.2911
  650TMC3    C4 9674   2.750   1.207  12.631  0.4463  0.0303 -0.1991
  650TMC3    C5 9675   2.703   1.259  12.515  0.0237  0.1498  0.7835
  650TMC3    C6 9676   2.641   1.379  12.510  1.3007  0.2816  0.3688
  650TMC3     C 9677   2.780   1.233  12.876 -0.4300 -0.1053 -0.5904
  650TMC3     O 9678   2.735   1.283  12.980 -0.5549  0.2919 -0.3663
  650TMC3     H 9679   2.675   1.452  12.845 -0.9629 -0.1506  0.1314
  650TMC3    H1 9680   2.794   1.109  12.619 -0.4490 -0.1773 -1.8277
  650TMC3    H2 9681   2.618   1.428  12.416  2.7660  0.0763 -0.0994
  650TMC3    C7 9682   2.705   1.179  12.392  1.1894 -0.4757 -0.5724
  650TMC3    C8 9683   2.596   1.588  12.621  0.0521  0.0246  0.6752
  650TMC3    O1 9684   2.713   1.057  12.410 -0.3458  0.2033 -0.4979
  650TMC3    O2 9685   2.661   1.660  12.696  0.3032 -0.0428 -0.0933
  651MPD2     C 9686   2.336   3.216  11.465  0.1845 -0.4392  0.1560
  651MPD2    C1 9687   2.309   3.255  11.339  0.2288 -0.1170  0.3545
  651MPD2    C2 9688   2.414   3.301  11.265 -0.0774 -0.0666 -0.7434
  651MPD2    C3 9689   2.541   3.329  11.314  0.7023 -0.6663  0.0074
  651MPD2    C4 9690   2.560   3.293  11.448  0.4598  0.5347 -0.2014
  651MPD2    C5 9691   2.458   3.228  11.521  0.4302  0.0800  0.1365
  651MPD2     H 9692   2.395   3.314  11.159 -2.3663  2.2126 -0.0649
  651MPD2    H1 9693   2.656   3.316  11.493  0.7265  0.3148 -0.6638
  651MPD2    H2 9694   2.251   3.190  11.527  0.9578 -1.3884  0.8372
  651MPD2    H3 9695   2.486   3.196  11.620 -3.4004 -0.2469  1.0939
  651MPD2     N 9696   2.638   3.395  11.230 -0.4743 -0.1313  0.1911
  651MPD2    H5 9697   2.629   3.385  11.129  0.8119  2.8863 -0.2001
  651MPD2    N1 9698   2.172   3.264  11.291 -0.0274 -0.1677  0.7824
  651MPD2    H7 9699   2.163   3.310  11.201  1.7316  1.1515  1.2779
  652TMC3    C1 9700   3.031   3.610  11.104 -0.1665  0.5982 -0.6625
  652TMC3    C2 9701   2.960   3.539  11.193 -0.4835 -0.2812  0.1192
  652TMC3    C3 9702   2.825   3.513  11.169 -0.2387 -0.0587  0.9444
  652TMC3    C4 9703   2.970   3.668  10.993 -0.7286  0.1287 -0.3531
  652TMC3    C5 9704   2.835   3.659  10.978  0.2733  0.4576  0.2175
  652TMC3    C6 9705   2.764   3.571  11.059  0.6559 -0.3611 -0.1035
  652TMC3     C 9706   3.173   3.594  11.112 -0.3829 -0.6367  0.0238
  652TMC3     O 9707   3.226   3.542  11.207 -0.1340 -0.3167 -0.1791
  652TMC3     H 9708   3.013   3.486  11.270  1.6610 -0.4914 -1.4933
  652TMC3    H1 9709   3.035   3.723  10.926 -1.1482 -1.5878 -2.1820
  652TMC3    H2 9710   2.659   3.560  11.034  0.7801 -2.7931  0.4237
  652TMC3    C7 9711   2.791   3.704  10.839 -0.1547  0.3505 -0.5416
  652TMC3    C8 9712   2.750   3.456  11.278 -0.3693  0.7709  0.2648
  652TMC3    O1 9713   2.698   3.641  10.787 -0.3942 -0.0588 -0.0536
  652TMC3    O2 9714   2.810   3.440  11.385  0.1333  0.2900 -0.0036
  653MPD2     C 9715   0.702   4.327   0.135  0.5101  0.6710  0.4947
  653MPD2    C1 9716   0.754   4.359   0.010 -0.1851  0.0213 -0.3060
  653MPD2    C2 9717   0.768   4.249  17.679  1.1263 -0.4896 -0.5652
  653MPD2    C3 9718   0.719   4.120  17.695 -0.1990 -0.3977 -0.1055
  653MPD2    C4 9719   0.660   4.096   0.063 -0.7364  0.2917 -1.0602
  653MPD2    C5 9720   0.647   4.202   0.157 -0.4700 -0.5287 -1.1752
  653MPD2     H 9721   0.834   4.261  17.594  1.6691  1.4926  0.1288
  653MPD2    H1 9722   0.625   3.999   0.098 -0.9954  0.5866 -0.5138
  653MPD2    H2 9723   0.702   4.403   0.213 -1.9170 -0.1240  1.2667
  653MPD2    H3 9724   0.593   4.171   0.246 -1.1773 -0.1684 -1.4833
  653MPD2     N 9725   0.746   4.025  17.598  0.2615  0.6118  0.1233
  653MPD2    H5 9726   0.771   4.065  17.509  2.2609  1.2126  0.9502
  653MPD2    N1 9727   0.824   4.478  17.738  0.1587 -0.7692  0.3645
  653MPD2    H7 9728   0.882   4.475  17.655 -2.0126 -1.6807 -1.0884
  654TMC3    C1 9729   0.704   3.836  17.473  0.0638 -0.2452  0.3211
  654TMC3    C2 9730   0.656   3.920  17.366  0.9031 -0.0515  0.8851
  654TMC3    C3 9731   0.616   3.862  17.251 -0.3312  0.2145  0.4497
  654TMC3    C4 9732   0.702   3.704  17.455 -0.6000  0.1514  0.3659
  654TMC3    C5 9733   0.671   3.652  17.339 -0.5529 -0.0717  0.6487
  654TMC3    C6 9734   0.627   3.726  17.230 -0.2170 -0.0793 -0.1473
  654TMC3     C 9735   0.716   3.894  17.601  0.2308 -0.3080  0.4144
  654TMC3     O 9736   0.712   3.821  17.696  0.3987 -0.2717  0.0328
  654TMC3     H 9737   0.639   4.026  17.378 -1.4665 -0.0190 -2.8631
  654TMC3    H1 9738   0.749   3.648  17.535 -0.6196  1.2081  1.1151
  654TMC3    H2 9739   0.592   3.678  17.139 -1.3702 -0.9984  0.7799
  654TMC3    C7 9740   0.642   3.509  17.335 -0.2103  0.5171 -0.2544
  654TMC3    C8 9741   0.502   3.935  17.195 -0.2591 -0.1903  0.4899
  654TMC3    O1 9742   0.585   3.459  17.238 -0.7249  0.1241 -0.1279
  654TMC3    O2 9743   0.454   4.027  17.265 -0.3749  0.5116 -0.2547
  655MPD2     C 9744   1.715   4.195  15.827  0.5900  0.6105 -0.0248
  655MPD2    C1 9745   1.610   4.215  15.746 -0.7064  0.4698 -0.6118
  655MPD2    C2 9746   1.600   4.150  15.628  0.7782 -0.5314  0.7565
  655MPD2    C3 9747   1.694   4.065  15.579 -0.1848 -0.2237  0.2931
  655MPD2    C4 9748   1.805   4.051  15.663 -0.6395  0.1773  0.2618
  655MPD2    C5 9749   1.818   4.111  15.784  0.2176 -0.1271 -0.4008
  655MPD2     H 9750   1.512   4.176  15.570  0.8035 -1.3884  0.3387
  655MPD2    H1 9751   1.882   3.979  15.637 -1.7894 -1.6665  1.9298
  655MPD2    H2 9752   1.720   4.231  15.929  2.8850  0.5513 -0.1166
  655MPD2    H3 9753   1.904   4.091  15.847  1.5043  0.7211 -1.8857
  655MPD2     N 9754   1.678   3.987  15.459  0.3603 -0.4046 -0.5525
  655MPD2    H5 9755   1.752   3.922  15.435  0.8019  0.7187 -2.2570
  655MPD2    N1 9756   1.512   4.311  15.788  0.0910  0.5132  1.0733
  655MPD2    H7 9757   1.434   4.333  15.725 -0.4902 -0.6743  1.3776
  656TMC3    C1 9758   1.434   4.513  15.896  0.3423  0.9290 -0.0036
  656TMC3    C2 9759   1.424   4.558  16.020  0.0025  0.1434 -0.5765
  656TMC3    C3 9760   1.347   4.668  16.054 -0.3420  0.3712 -0.0987
  656TMC3    C4 9761   1.363   4.566  15.795 -0.3167 -0.1217 -0.1859
  656TMC3    C5 9762   1.281   4.676  15.828 -0.4137  0.0735  0.4524
  656TMC3    C6 9763   1.282   4.729  15.956 -0.1236 -0.2049  0.8711
  656TMC3     C 9764   1.535   4.412  15.875  0.0942  0.0846  0.2824
  656TMC3     O 9765   1.631   4.423  15.952  0.1317 -0.4812 -0.0167
  656TMC3     H 9766   1.473   4.495  16.093  0.1235  1.0189  0.0848
  656TMC3    H1 9767   1.385   4.540  15.692  0.1671  0.7144 -0.2946
  656TMC3    H2 9768   1.220   0.074  15.983  1.1933  0.5087  1.6717
  656TMC3    C7 9769   1.211   0.003  15.718 -0.0365 -0.9065 -0.3023
  656TMC3    C8 9770   1.268   4.642  16.174  0.3137  0.4906  0.3856
  656TMC3    O1 9771   1.246   4.720  15.602 -0.1151 -0.1525 -0.4361
  656TMC3    O2 9772   1.215   4.527  16.176 -0.3666 -0.7408  0.2794
  657TMC3    C1 9773   0.845   3.279  14.795  0.0549  0.0349 -0.1899
  657TMC3    C2 9774   0.871   3.322  14.921 -0.5945  0.0340 -0.7902
  657TMC3    C3 9775   0.803   3.437  14.957 -0.1228  0.7270  0.7593
  657TMC3    C4 9776   0.764   3.344  14.707  0.0641  0.4673  0.9515
  657TMC3    C5 9777   0.698   3.458  14.749  0.3869 -0.1630  0.1116
  657TMC3    C6 9778   0.721   3.507  14.874  0.0566  0.3788 -0.3664
  657TMC3     C 9779   0.937   3.181  14.734 -0.1875 -0.3239  0.8093
  657TMC3     O 9780   0.906   3.113  14.633 -0.0344 -0.0021  0.0818
  657TMC3     H 9781   0.915   3.253  14.991 -1.6837 -1.4547 -1.5763
  657TMC3    H1 9782   0.745   3.305  14.608 -1.9611  1.4693  0.9261
  657TMC3    H2 9783   0.642   3.572  14.909 -0.2924 -1.4696  2.2920
  657TMC3    C7 9784   0.605   3.520  14.648  0.2871  0.4022  0.2269
  657TMC3    C8 9785   0.800   3.464  15.099  0.4067  1.2497  0.4844
  657TMC3    O1 9786   0.561   3.436  14.573 -0.0114 -0.3902 -0.0072
  657TMC3    O2 9787   0.711   3.536  15.135 -0.3830  0.4369  0.0176
  658MPD2     C 9788   2.171   3.932  15.042  0.0909 -0.4761 -0.0444
  658MPD2    C1 9789   2.059   3.878  14.980 -0.1668  0.3111 -0.2661
  658MPD2    C2 9790   2.070   3.837  14.843 -0.0164  0.2018  0.0774
  658MPD2    C3 9791   2.186   3.851  14.773 -0.1946 -0.5518 -0.1908
  658MPD2    C4 9792   2.292   3.910  14.838  0.6068 -0.2015  0.3773
  658MPD2    C5 9793   2.291   3.953  14.973  0.4004 -0.4279  0.5630
  658MPD2     H 9794   1.992   3.795  14.781 -2.0751  2.9990  0.7522
  658MPD2    H1 9795   2.386   3.923  14.786  0.7488 -1.6212  0.2833
  658MPD2    H2 9796   2.158   3.952  15.147  0.3076 -1.6066  0.2025
  658MPD2    H3 9797   2.368   4.014  15.020 -0.6668  0.7596  0.7688
  658MPD2     N 9798   2.188   3.806  14.641 -0.1596 -0.2405 -0.4592
  658MPD2    H5 9799   2.106   3.759  14.604 -1.2831  2.8570 -1.8595
  658MPD2    N1 9800   1.949   3.853  15.068 -0.7697 -0.9125 -0.8877
  658MPD2    H7 9801   1.945   3.907  15.153 -0.3057  2.2200 -2.8611
  659TMC3    C1 9802   1.717   3.807  15.092 -0.4817  0.8650  0.2490
  659TMC3    C2 9803   1.721   3.881  15.206 -0.0188  0.9773 -0.2533
  659TMC3    C3 9804   1.606   3.938  15.247 -0.2955 -1.0441 -0.4891
  659TMC3    C4 9805   1.613   3.793  15.006 -0.7575 -0.5241  0.3900
  659TMC3    C5 9806   1.501   3.855  15.046  0.3498 -0.2281  0.1462
  659TMC3    C6 9807   1.498   3.923  15.165  0.5824  0.2314  0.1172
  659TMC3     C 9808   1.846   3.763  15.042 -0.3176 -0.3719 -0.0927
  659TMC3     O 9809   1.849   3.672  14.959  0.3511  0.1792  0.1308
  659TMC3     H 9810   1.802   3.870  15.277 -1.9783 -0.2969  1.7995
  659TMC3    H1 9811   1.629   3.738  14.914  0.2962  0.1006  0.1925
  659TMC3    H2 9812   1.403   3.962  15.199  1.8943  2.7746  0.8488
  659TMC3    C7 9813   1.372   3.822  14.994  0.0230 -0.1516 -0.4115
  659TMC3    C8 9814   1.583   4.015  15.369  0.2807 -0.3750  0.0961
  659TMC3    O1 9815   1.278   3.893  15.016  0.2658  0.2896 -0.1378
  659TMC3    O2 9816   1.494   4.099  15.370  0.0609  0.4070 -0.3708
  660MPD2     C 9817   0.095   2.630  13.036  0.3105  0.1382  0.5523
  660MPD2    C1 9818   4.710   2.580  13.008  0.5055  0.0409  0.0135
  660MPD2    C2 9819   4.669   2.461  13.066 -0.6434 -0.1986  0.0151
  660MPD2    C3 9820   0.015   2.389  13.153 -0.3667 -0.0533 -0.1448
  660MPD2    C4 9821   0.135   2.443  13.182 -0.0141 -0.1992  0.1306
  660MPD2    C5 9822   0.169   2.571  13.137 -0.1397  0.5088  0.4493
  660MPD2     H 9823   4.577   2.409  13.041 -0.3132 -0.7890  0.0351
  660MPD2    H1 9824   0.207   2.397  13.248 -0.2039  2.2595  2.0566
  660MPD2    H2 9825   0.128   2.724  12.992  0.0818 -0.2900 -0.5139
  660MPD2    H3 9826   0.271   2.602  13.156  0.7981 -0.6492 -2.6620
  660MPD2     N 9827   4.707   2.273  13.219  0.8824  0.6861 -0.1270
  660MPD2    H5 9828   4.617   2.236  13.190  0.1697  1.7506  0.7349
  660MPD2    N1 9829   4.640   2.645  12.900 -0.4723  0.9974  0.1773
  660MPD2    H7 9830   4.682   2.713  12.837  1.2089 -2.2963 -2.2782
  661TMC3    C1 9831   4.469   2.662  12.742 -0.3106  1.2018 -0.3399
  661TMC3    C2 9832   4.549   2.709  12.640 -0.1736 -0.0313 -0.4486
  661TMC3    C3 9833   4.500   2.740  12.518 -0.1469 -0.2475  0.1922
  661TMC3    C4 9834   4.335   2.651  12.711  0.2394 -0.5049  0.1188
  661TMC3    C5 9835   4.286   2.686  12.592  0.5688  0.4394  0.5304
  661TMC3    C6 9836   4.371   2.720  12.490  0.1087  0.0166 -0.3328
  661TMC3     C 9837   4.517   2.603  12.866  0.0054  0.2603 -0.1971
  661TMC3     O 9838   4.436   2.539  12.929 -0.3963  0.1111 -0.3486
  661TMC3     H 9839   4.655   2.689  12.647 -0.3315 -0.3320  1.1660
  661TMC3    H1 9840   4.270   2.614  12.790  1.1699 -0.1780  1.0359
  661TMC3    H2 9841   4.335   2.763  12.398  0.2002  1.1189  0.1431
  661TMC3    C7 9842   4.155   2.640  12.566  0.2175 -0.4455  0.6521
  661TMC3    C8 9843   4.589   2.808  12.419  0.6316  0.7072 -0.4390
  661TMC3    O1 9844   4.079   2.622  12.657  0.5122 -0.7904 -0.4073
  661TMC3    O2 9845   4.552   2.788  12.303  0.5150 -0.3719 -0.0956
  662MPD2     C 9846   0.771   2.873  16.864 -0.0386  0.1554 -0.3876
  662MPD2    C1 9847   0.667   2.792  16.888  0.2971 -0.1967  0.4247
  662MPD2    C2 9848   0.547   2.850  16.919  0.0180 -0.4849 -0.8081
  662MPD2    C3 9849   0.531   2.988  16.932  0.3809 -1.0002  0.2166
  662MPD2    C4 9850   0.642   3.062  16.926  0.0104  0.4499 -0.3441
  662MPD2    C5 9851   0.757   3.007  16.876  0.5733  0.3066 -0.7016
  662MPD2     H 9852   0.462   2.785  16.940  0.5386 -1.4444 -1.6794
  662MPD2    H1 9853   0.652   3.160  16.971 -1.1424  0.5000 -0.2126
  662MPD2    H2 9854   0.868   2.834  16.834  0.4176  0.0997  1.1781
  662MPD2    H3 9855   0.848   3.066  16.867  1.7173 -1.2611  0.7069
  662MPD2     N 9856   0.410   3.043  16.986 -0.4628  0.2009  0.3552
  662MPD2    H5 9857   0.405   3.141  17.012 -1.3414  0.5134 -1.0153
  662MPD2    N1 9858   0.677   2.651  16.905  0.6762 -0.4444 -0.1172
  662MPD2    H7 9859   0.593   2.597  16.926  0.1898  1.0906  1.8703
  663TMC3    C1 9860   0.762   2.454  16.971  0.2351  0.3687  0.1276
  663TMC3    C2 9861   0.825   2.426  17.089  0.0357  0.3779 -0.5836
  663TMC3    C3 9862   0.751   2.374  17.193 -0.4689  0.1159 -0.1466
  663TMC3    C4 9863   0.641   2.394  16.943 -0.1835 -0.0768  0.1462
  663TMC3    C5 9864   0.575   2.317  17.038  0.7685  0.2208  0.2619
  663TMC3    C6 9865   0.633   2.302  17.163  0.3397  0.0914 -0.5490
  663TMC3     C 9866   0.793   2.580  16.911 -0.1037 -0.7068 -0.1217
  663TMC3     O 9867   0.912   2.612  16.919 -0.2531 -0.6638 -0.2676
  663TMC3     H 9868   0.908   2.491  17.113 -0.7675  0.9622  0.5777
  663TMC3    H1 9869   0.596   2.417  16.848  0.8374  0.7679 -0.1280
  663TMC3    H2 9870   0.576   2.266  17.248  0.1913 -0.0918 -0.7243
  663TMC3    C7 9871   0.457   2.243  17.004 -0.0408  0.0495  0.5345
  663TMC3    C8 9872   0.834   2.303  17.295  0.5094 -0.1805  0.6268
  663TMC3    O1 9873   0.421   2.258  16.887 -0.2480 -0.1705 -0.0685
  663TMC3    O2 9874   0.941   2.260  17.256  0.4146  0.2048 -0.4959
  664MPD2     C 9875   3.013   1.205  17.489 -0.0462 -0.2773  0.8992
  664MPD2    C1 9876   3.126   1.190  17.567  0.0525 -0.1306 -0.7356
  664MPD2    C2 9877   3.136   1.084  17.659  0.3290  0.6825  0.2585
  664MPD2    C3 9878   3.027   1.006  17.689 -0.3106  0.4300  0.1458
  664MPD2    C4 9879   2.915   1.031  17.613  0.3867 -0.0033 -0.4241
  664MPD2    C5 9880   2.915   1.126  17.509 -0.3541  0.1941  0.3129
  664MPD2     H 9881   3.227   1.083  17.718  0.2923 -0.2848  0.3000
  664MPD2    H1 9882   2.821   0.984  17.642  0.2623 -0.3238 -1.3522
  664MPD2    H2 9883   3.000   1.275  17.407  0.2564  1.1232  2.0365
  664MPD2    H3 9884   2.825   1.129  17.448  0.4602  0.0348 -0.9013
  664MPD2     N 9885   3.026   0.952   0.062  0.1240  0.4096 -0.2545
  664MPD2    H5 9886   3.112   0.953   0.116 -0.9673  4.1182  1.4283
  664MPD2    N1 9887   3.233   1.282  17.561 -0.1621  0.1700  0.4078
  664MPD2    H7 9888   3.304   1.266  17.631 -2.0557  1.2415  2.5628
  665TMC3    C1 9889   2.935   0.872   0.263  0.2213 -0.1136 -0.5216
  665TMC3    C2 9890   2.820   0.873   0.333 -0.1504 -0.0460 -0.2623
  665TMC3    C3 9891   2.828   0.898   0.468  0.1410  0.0035 -0.4423
  665TMC3    C4 9892   3.058   0.894   0.321  0.4653 -0.1684  0.2223
  665TMC3    C5 9893   3.062   0.900   0.459  0.2361 -0.3546 -0.2689
  665TMC3    C6 9894   2.950   0.912   0.534 -0.3278  0.1399  0.2549
  665TMC3     C 9895   2.925   0.871   0.117  0.4540  0.0809 -0.2965
  665TMC3     O 9896   2.813   0.846   0.074 -0.1058 -0.4049  0.6584
  665TMC3     H 9897   2.725   0.858   0.284 -0.3503 -0.6580  0.3037
  665TMC3    H1 9898   3.151   0.896   0.265 -0.4531 -0.9441 -1.3376
  665TMC3    H2 9899   2.959   0.929   0.641  0.0568  1.1246  0.0641
  665TMC3    C7 9900   3.192   0.889   0.514 -0.3606 -0.3184 -0.6752
  665TMC3    C8 9901   2.726   0.968   0.537 -0.4996  0.3242  0.1266
  665TMC3    O1 9902   3.271   0.819   0.449 -0.1020  0.2252 -0.3699
  665TMC3    O2 9903   2.742   0.963   0.657 -0.1055 -0.4444  0.2611
  666TMC3    C1 9904   2.769   0.272   9.539 -0.5447 -0.4601  0.1675
  666TMC3    C2 9905   2.868   0.196   9.603  0.2341 -0.4016  0.0341
  666TMC3    C3 9906   2.974   0.259   9.665  0.6199  0.2750  0.3225
  666TMC3    C4 9907   2.785   0.410   9.528 -0.7606  0.5625  0.5643
  666TMC3    C5 9908   2.900   0.468   9.579 -0.8658  0.2537  0.7939
  666TMC3    C6 9909   2.996   0.395   9.645 -0.5787 -0.2459 -0.4194
  666TMC3     C 9910   2.666   0.206   9.461 -0.0755  0.5056  0.3741
  666TMC3     O 9911   2.682   0.097   9.415 -0.1590  0.2466 -0.4510
  666TMC3     H 9912   2.857   0.089   9.612  0.9985 -0.5553 -0.9039
  666TMC3    H1 9913   2.714   0.474   9.477 -1.2342 -0.2303  0.2207
  666TMC3    H2 9914   3.074   0.448   9.699 -1.5240 -0.8084  1.4883
  666TMC3    C7 9915   2.902   0.611   9.611  0.2933  0.4871 -0.0899
  666TMC3    C8 9916   3.048   0.186   9.767  0.5838  0.3094  0.3086
  666TMC3    O1 9917   2.985   0.656   9.691  0.1239  0.2870 -0.4265
  666TMC3    O2 9918   3.016   0.072   9.796 -0.3908 -0.7179 -0.0349
  667MPD2     C 9919   4.038   0.629  14.755 -0.1911 -0.2315 -0.5133
  667MPD2    C1 9920   3.976   0.695  14.860 -0.8377  0.1232 -0.6373
  667MPD2    C2 9921   3.873   0.640  14.925  0.5907 -0.3479  0.4019
  667MPD2    C3 9922   3.811   0.528  14.883  0.1938  0.4153 -0.2315
  667MPD2    C4 9923   3.854   0.475  14.765 -0.1856  0.3825  0.5219
  667MPD2    C5 9924   3.969   0.515  14.709  0.4173  0.2219 -0.6588
  667MPD2     H 9925   3.839   0.701  15.009  0.3585 -0.0425  0.0869
  667MPD2    H1 9926   3.800   0.392  14.720 -0.4939  1.2963 -0.7770
  667MPD2    H2 9927   4.135   0.660  14.719 -0.4149  0.8478 -0.1826
  667MPD2    H3 9928   4.009   0.451  14.631 -1.3782  2.7376 -3.6709
  667MPD2     N 9929   3.703   0.475  14.947  0.6849  0.3054 -0.0697
  667MPD2    H5 9930   3.642   0.407  14.902 -0.8369  1.5624  0.0804
  667MPD2    N1 9931   4.009   0.821  14.915  0.7699 -0.2599 -0.3603
  667MPD2    H7 9932   3.939   0.861  14.977 -0.5944 -1.7404 -0.9328
  668TMC3    C1 9933   4.099   1.034  14.927  0.0547  0.2304  0.7121
  668TMC3    C2 9934   4.214   1.114  14.936 -0.3079 -0.6551  0.1652
  668TMC3    C3 9935   4.198   1.247  14.977 -0.4212  0.0597  0.0861
  668TMC3    C4 9936   3.975   1.087  14.955 -0.3180  0.0904  0.0075
  668TMC3    C5 9937   3.970   1.215  15.006 -0.6959 -0.7718  0.0968
  668TMC3    C6 9938   4.074   1.292  15.020 -0.3764 -0.3541 -0.4595
  668TMC3     C 9939   4.120   0.894  14.886  0.8181  0.7598  0.2302
  668TMC3     O 9940   4.218   0.858  14.822 -0.3297 -0.2635 -0.1978
  668TMC3     H 9941   4.308   1.068  14.906  0.1680  0.7451 -0.4663
  668TMC3    H1 9942   3.882   1.032  14.966  1.7691 -3.3941  0.0611
  668TMC3    H2 9943   4.065   1.398  15.039 -0.9449 -0.5446  0.2946
  668TMC3    C7 9944   3.853   1.256  15.079  0.2621  0.4263 -0.6136
  668TMC3    C8 9945   4.302   1.353  14.968  0.5003  0.7964  0.5012
  668TMC3    O1 9946   3.859   1.329  15.181 -0.8288 -0.0440  0.6647
  668TMC3    O2 9947   4.279   1.458  15.024  0.3473  0.4029  0.6107
  669TMC3    C1 9948   2.625   0.830  14.996 -0.1588  0.3004 -0.5602
  669TMC3    C2 9949   2.502   0.832  14.937 -0.0172  0.5576 -0.0199
  669TMC3    C3 9950   2.473   0.922  14.837  0.5972  1.1292 -0.1073
  669TMC3    C4 9951   2.730   0.905  14.944  0.5066 -0.1629 -0.9861
  669TMC3    C5 9952   2.697   0.997  14.850 -0.4686  0.7319 -0.1019
  669TMC3    C6 9953   2.572   1.011  14.796  0.1719 -0.3368  0.5168
  669TMC3     C 9954   2.659   0.702  15.051  0.4522  0.4550 -0.5340
  669TMC3     O 9955   2.579   0.612  15.025 -0.6503 -0.3177 -0.2508
  669TMC3     H 9956   2.426   0.762  14.967 -0.5438  2.2074  2.4655
  669TMC3    H1 9957   2.834   0.878  14.957 -0.1847 -2.0294  0.6571
  669TMC3    H2 9958   2.554   1.083  14.716  0.1546 -1.7553 -0.7534
  669TMC3    C7 9959   2.789   1.074  14.776 -0.5990  0.3558 -0.4733
  669TMC3    C8 9960   2.364   0.886  14.741 -0.0843 -0.7557 -0.0664
  669TMC3    O1 9961   2.759   1.178  14.716 -1.1083  0.2371 -0.3379
  669TMC3    O2 9962   2.262   0.845  14.783  0.1084  0.4820 -0.2181
  670MPD2     C 9963   0.480   2.339  13.774  0.0088  0.5156 -0.6282
  670MPD2    C1 9964   0.574   2.434  13.795  0.0095  0.5936 -0.4794
  670MPD2    C2 9965   0.562   2.519  13.905  1.0790  0.0887 -0.2582
  670MPD2    C3 9966   0.457   2.486  13.992  0.4015 -0.2160  0.9595
  670MPD2    C4 9967   0.361   2.386  13.968 -0.5983  0.2150 -0.1870
  670MPD2    C5 9968   0.370   2.321  13.849 -0.2420  0.7627 -0.3795
  670MPD2     H 9969   0.634   2.600  13.916  1.6072 -0.3942 -0.1719
  670MPD2    H1 9970   0.280   2.375  14.039 -1.4388  0.4125 -1.1080
  670MPD2    H2 9971   0.480   2.265  13.696 -1.8467 -1.5870  1.3635
  670MPD2    H3 9972   0.315   2.229  13.834 -2.9952  1.8796  2.9238
  670MPD2     N 9973   0.450   2.564  14.109  0.1658  0.1389 -0.6976
  670MPD2    H5 9974   0.527   2.626  14.130 -1.0191  1.5147 -0.4344
  670MPD2    N1 9975   0.662   2.473  13.691 -0.2436  0.2927  0.5033
  670MPD2    H7 9976   0.721   2.555  13.702  0.7152 -0.1807 -1.1068
  671TMC3    C1 9977   0.394   2.643  14.325  0.1900 -0.1398  0.2685
  671TMC3    C2 9978   0.523   2.634  14.368  0.3361  0.2812 -0.2174
  671TMC3    C3 9979   0.537   2.602  14.496 -0.0785  0.2626 -0.3038
  671TMC3    C4 9980   0.292   2.649  14.412  0.0923 -0.0550  0.2519
  671TMC3    C5 9981   0.312   2.626  14.545  0.3487 -0.3083  0.3429
  671TMC3    C6 9982   0.434   2.596  14.585  0.3426 -0.6597  1.0282
  671TMC3     C 9983   0.357   2.555  14.211  0.3180 -0.3772  0.2123
  671TMC3     O 9984   0.256   2.485  14.235  0.4925  0.0363  0.0696
  671TMC3     H 9985   0.600   2.608  14.297  0.5837  0.6498 -0.0848
  671TMC3    H1 9986   0.195   2.681  14.376  0.9171 -0.2052 -2.1276
  671TMC3    H2 9987   0.449   2.560  14.686  1.3725  2.1088  1.8571
  671TMC3    C7 9988   0.211   2.557  14.604 -0.4513 -1.0657 -1.0984
  671TMC3    C8 9989   0.662   2.530  14.528 -0.0319  0.7746  0.6352
  671TMC3    O1 9990   0.209   2.523  14.726 -0.2368 -0.8332 -0.4623
  671TMC3    O2 9991   0.744   2.511  14.434 -0.2387 -0.1230 -0.1066
  672MPD2     C 9992   0.527   4.360   1.343  0.0802 -0.8717 -0.3917
  672MPD2    C1 9993   0.637   4.291   1.305  0.1683  0.2653  0.3458
  672MPD2    C2 9994   0.756   4.311   1.368  0.2788 -0.5183  0.4428
  672MPD2    C3 9995   0.764   4.409   1.467  1.0251 -0.0325  0.3725
  672MPD2    C4 9996   0.660   4.481   1.499  0.4470  0.2685  0.0479
  672MPD2    C5 9997   0.545   4.462   1.431 -0.4178 -0.2861 -0.0800
  672MPD2     H 9998   0.837   4.240   1.351  0.7150  0.8112 -3.0519
  672MPD2    H1 9999   0.663   4.566   1.566  1.8205 -1.2433  1.8650
  672MPD2    H210000   0.429   4.353   1.297 -0.8770 -1.2183  1.7168
  672MPD2    H310001   0.454   4.513   1.462 -0.8072 -1.1479  0.1778
  672MPD2     N10002   0.881   4.437   1.540 -0.0286 -0.8484 -0.2219
  672MPD2    H510003   0.872   4.521   1.597  0.7003 -0.9718  0.0756
  672MPD2    N110004   0.627   4.185   1.215  0.1256  0.3174  0.8436
  672MPD2    H710005   0.710   4.141   1.177  1.1794  0.4172  2.9765
  673TMC3    C110006   0.543   4.029   1.069  0.0757 -0.6738  0.4536
  673TMC3    C210007   0.657   3.950   1.086 -0.7223 -0.4857  0.2224
  673TMC3    C310008   0.697   3.890   0.967 -0.4646 -0.9315 -0.2610
  673TMC3    C410009   0.468   4.040   0.952 -0.0844  0.1746 -0.0287
  673TMC3    C510010   0.529   3.995   0.841  0.9757 -0.5148 -0.0880
  673TMC3    C610011   0.645   3.919   0.843 -1.0328  0.6575  0.0271
  673TMC3     C10012   0.513   4.132   1.164 -0.5268 -0.2200 -0.4227
  673TMC3     O10013   0.393   4.162   1.179  0.4455 -0.3240  0.1726
  673TMC3     H10014   0.693   3.926   1.185 -0.0042 -0.3646 -0.0121
  673TMC3    H110015   0.378   4.100   0.956 -0.7446 -0.9514  1.7038
  673TMC3    H210016   0.696   3.880   0.755  0.6952 -0.2711  1.4342
  673TMC3    C710017   0.476   4.033   0.707  0.1092 -0.6724 -0.3332
  673TMC3    C810018   0.772   3.765   0.977 -0.2316  0.4823  0.1004
  673TMC3    O110019   0.519   3.966   0.613  0.2859 -0.0564 -0.2306
  673TMC3    O210020   0.770   3.692   0.876  0.6853 -0.5619  0.7939
  674MPD2     C10021   0.936   2.758   0.566 -0.0608 -0.5636  0.2084
  674MPD2    C110022   0.818   2.706   0.617  0.4106 -0.5223 -0.3714
  674MPD2    C210023   0.695   2.771   0.588  0.5500  0.1219  0.7883
  674MPD2    C310024   0.702   2.887   0.517  0.1003  0.6765 -0.4416
  674MPD2    C410025   0.819   2.937   0.476 -0.3072 -0.2360  0.1367
  674MPD2    C510026   0.936   2.875   0.500  0.4807  0.1041 -0.4991
  674MPD2     H10027   0.597   2.744   0.625 -0.5563  1.4687 -1.1603
  674MPD2    H110028   0.825   3.032   0.424  0.2986  0.2601  1.0961
  674MPD2    H210029   1.029   2.703   0.577 -1.7206 -3.6604 -1.5399
  674MPD2    H310030   1.029   2.906   0.454 -0.4021  1.1474 -1.5623
  674MPD2     N10031   0.584   2.953   0.483 -0.1225 -0.5887  0.0635
  674MPD2    H510032   0.494   2.922   0.520  0.0793 -0.3033  0.8082
  674MPD2    N110033   0.819   2.585   0.681 -0.5044 -0.3337  0.3748
  674MPD2    H710034   0.911   2.542   0.688 -0.3580 -0.5405 -2.6346
  675TMC3    C110035   0.753   2.393   0.774  0.5679  0.4133 -0.1327
  675TMC3    C210036   0.710   2.336   0.892  0.4743 -0.8222  0.4420
  675TMC3    C310037   0.712   2.201   0.897  0.2657 -0.1926 -0.6434
  675TMC3    C410038   0.809   2.321   0.671 -0.5312  0.4604  0.0741
  675TMC3    C510039   0.811   2.184   0.683  0.6431 -0.0754  0.1603
  675TMC3    C610040   0.757   2.128   0.792  0.6319  0.4862  0.7764
  675TMC3     C10041   0.718   2.529   0.750  0.1850  0.3727  0.3048
  675TMC3     O10042   0.614   2.579   0.793 -0.0102 -0.4779  0.0251
  675TMC3     H10043   0.659   2.393   0.969 -1.5096 -1.7224 -0.1944
  675TMC3    H110044   0.839   2.375   0.583  0.5546 -1.0265 -0.4719
  675TMC3    H210045   0.751   2.020   0.796 -0.2413  0.5035 -0.1524
  675TMC3    C710046   0.865   2.110   0.570  0.2722 -0.2362  0.0328
  675TMC3    C810047   0.703   2.142   1.031 -0.0265 -0.4931  0.1316
  675TMC3    O110048   0.883   2.171   0.465 -0.2500 -0.2076  0.5848
  675TMC3    O210049   0.660   2.219   1.117 -0.2846 -0.0255 -0.3512
  676MPD2     C10050   3.457   1.072  11.398 -0.0615  0.7888  0.2491
  676MPD2    C110051   3.440   0.996  11.507  0.2209  0.0472 -0.4603
  676MPD2    C210052   3.476   0.860  11.493  0.4192  0.5045 -0.3661
  676MPD2    C310053   3.524   0.808  11.375  0.0556 -0.0743  0.3082
  676MPD2    C410054   3.549   0.894  11.269  0.5360 -0.3627  0.1960
  676MPD2    C510055   3.509   1.025  11.281 -0.4832  0.5097  0.4624
  676MPD2     H10056   3.459   0.793  11.576  0.5991 -0.5481 -1.1808
  676MPD2    H110057   3.603   0.858  11.182 -2.1194 -2.5867 -0.5399
  676MPD2    H210058   3.426   1.176  11.402 -0.3828  0.6762  0.7291
  676MPD2    H310059   3.525   1.090  11.196  4.8262  1.0316  1.8775
  676MPD2     N10060   3.563   0.671  11.360 -0.5209  0.0106 -0.1667
  676MPD2    H510061   3.609   0.647  11.273  0.0834 -1.0875  0.4495
  676MPD2    N110062   3.404   1.047  11.637 -0.4906  0.6171  0.7425
  676MPD2    H710063   3.423   0.983  11.714 -0.1945 -1.2751 -0.8893
  677TMC3    C110064   3.339   1.200  11.796  0.2790  0.3597  0.4031
  677TMC3    C210065   3.293   1.098  11.873  0.7524  0.7378 -0.8287
  677TMC3    C310066   3.266   1.120  12.006 -0.4223 -0.2665  0.4376
  677TMC3    C410067   3.365   1.327  11.853  1.1549 -1.0038 -0.2893
  677TMC3    C510068   3.348   1.333  11.990  0.5144  0.4569 -0.0513
  677TMC3    C610069   3.306   1.234  12.069 -0.6458 -0.2635 -0.3977
  677TMC3     C10070   3.375   1.180  11.661 -1.1915  0.5340 -0.0148
  677TMC3     O10071   3.367   1.285  11.593  0.7102 -0.2267  0.2471
  677TMC3     H10072   3.274   0.998  11.834 -1.0433 -0.1013  2.1767
  677TMC3    H110073   3.410   1.410  11.798 -0.3932  0.0580  0.0564
  677TMC3    H210074   3.281   1.246  12.173  3.0269  1.6525  0.2537
  677TMC3    C710075   3.398   1.440  12.073 -0.7849  0.2226  0.5963
  677TMC3    C810076   3.252   0.992  12.073 -0.0621  0.4101 -0.1687
  677TMC3    O110077   3.439   1.412  12.185 -0.2656 -0.2498 -0.0057
  677TMC3    O210078   3.311   0.892  12.028  0.3829 -0.0564 -0.2051
  678MPD2     C10079   4.699   1.888   1.481 -0.0822 -0.3397 -0.1099
  678MPD2    C110080   4.733   1.795   1.373  0.0173 -0.9314  0.0951
  678MPD2    C210081   4.621   1.734   1.318 -0.3811  0.1960 -0.2377
  678MPD2    C310082   4.486   1.764   1.354 -0.2787 -0.3666 -0.1444
  678MPD2    C410083   4.461   1.851   1.458 -0.1792 -0.2054  0.2776
  678MPD2    C510084   4.569   1.917   1.515 -0.1247 -0.1131 -0.0273
  678MPD2     H10085   4.644   1.655   1.247  0.4899  0.1409  0.0996
  678MPD2    H110086   4.366   1.881   1.501  0.7632 -2.9381  4.3081
  678MPD2    H210087   0.033   1.950   1.532 -1.0110  1.3645 -0.8503
  678MPD2    H310088   4.562   1.971   1.609 -1.9598 -0.1063 -0.1663
  678MPD2     N10089   4.383   1.705   1.278 -0.2475 -0.5333  0.3633
  678MPD2    H510090   4.406   1.630   1.214 -0.6322  0.8586 -1.4006
  678MPD2    N110091   0.123   1.779   1.316  0.3132 -0.7133 -0.3450
  678MPD2    H710092   0.125   1.726   1.230 -1.0120  0.0943 -0.8621
  679TMC3    C110093   0.506   1.648   1.200 -0.3228 -0.0090 -0.3888
  679TMC3    C210094   0.412   1.683   1.296  0.1792 -0.4300 -0.0974
  679TMC3    C310095   0.359   1.805   1.282 -0.2570  0.1567  0.1515
  679TMC3    C410096   0.536   1.714   1.092  0.4586 -1.1945  0.1284
  679TMC3    C510097   0.462   1.826   1.069  0.4677 -0.5756  0.5160
  679TMC3    C610098   0.370   1.870   1.165 -0.0270 -0.5564 -0.4481
  679TMC3     C10099   0.618   1.570   1.253  0.3992 -0.7552  0.3579
  679TMC3     O10100   0.700   1.541   1.163  0.3269  0.1352 -0.1412
  679TMC3     H10101   0.405   1.624   1.387  0.0885  0.5062  0.5059
  679TMC3    H110102   0.597   1.678   1.010  0.9300  1.5812 -0.7449
  679TMC3    H210103   0.287   1.932   1.134  1.0763  0.2600 -1.7746
  679TMC3    C710104   0.452   1.896   0.945  0.0422 -0.3151 -0.6070
  679TMC3    C810105   0.243   1.831   1.363  0.9633  0.3618  0.5154
  679TMC3    O110106   0.406   2.010   0.958  0.3182 -0.4718 -0.0715
  679TMC3    O210107   0.264   1.905   1.462 -0.2690  0.3226 -0.2250
  680MPD2     C10108   0.075   0.313  13.437  0.3674 -0.4113  1.0604
  680MPD2    C110109   0.183   0.294  13.516 -0.4965  0.2311 -0.2737
  680MPD2    C210110   0.226   0.395  13.599  0.1658  0.5713  0.0645
  680MPD2    C310111   0.160   0.519  13.595 -0.1600 -0.5754  0.4700
  680MPD2    C410112   0.056   0.537  13.507  0.8237  0.4910  0.1472
  680MPD2    C510113   0.015   0.438  13.428 -0.1811 -0.7924  0.6295
  680MPD2     H10114   0.309   0.382  13.666  0.9396  1.8786 -0.6327
  680MPD2    H110115   4.739   0.629  13.505  1.0802  0.6960  2.0568
  680MPD2    H210116   0.031   0.232  13.380  2.3900 -0.8571  0.1475
  680MPD2    H310117   4.680   0.453  13.351 -0.7234  1.0261  1.5058
  680MPD2     N10118   0.197   0.625  13.684 -0.5270 -0.9846 -0.4231
  680MPD2    H510119   0.149   0.713  13.671 -1.1592 -0.9685  1.9650
  680MPD2    N110120   0.249   0.166  13.518 -1.1298  0.5831 -0.1679
  680MPD2    H710121   0.324   0.155  13.585  1.7259  1.3002 -3.2111
  681TMC3    C110122   0.306   4.690  13.457  1.0714  0.7494 -0.7937
  681TMC3    C210123   0.277   4.635  13.581  0.2587  0.8287 -0.3409
  681TMC3    C310124   0.305   4.509  13.613  0.1609 -0.0279  0.2330
  681TMC3    C410125   0.343   4.606  13.357 -0.6158  0.2524  0.8247
  681TMC3    C510126   0.366   4.470  13.384 -0.2458 -0.2413  0.5797
  681TMC3    C610127   0.359   4.428  13.514  0.0125  0.6158  0.2219
  681TMC3     C10128   0.229   0.063  13.429  0.3972  0.4505  0.3056
  681TMC3     O10129   0.146   0.047  13.341 -0.2291  0.5997  0.1834
  681TMC3     H10130   0.220   4.699  13.648  1.1663  0.9392  0.3149
  681TMC3    H110131   0.368   4.653  13.262 -1.1853  1.5232  1.3009
  681TMC3    H210132   0.389   4.329  13.546  0.2416  0.7907  0.5461
  681TMC3    C710133   0.433   4.384  13.290  0.0193  0.3467 -0.6037
  681TMC3    C810134   0.217   4.445  13.706 -0.0184 -0.1496  0.2079
  681TMC3    O110135   0.465   4.273  13.324  0.1871 -0.1337 -0.1966
  681TMC3    O210136   0.183   4.333  13.665 -0.6242  0.2872  0.1734
  682MPD2     C10137   2.508   1.581  10.552  0.8732  0.0810 -0.2991
  682MPD2    C110138   2.524   1.448  10.587 -0.2173 -0.5889  0.3873
  682MPD2    C210139   2.494   1.410  10.720 -0.2137 -0.0755 -0.1334
  682MPD2    C310140   2.462   1.498  10.818  0.2843  0.0202  0.2822
  682MPD2    C410141   2.453   1.631  10.774  0.1212 -0.3281  0.5793
  682MPD2    C510142   2.471   1.669  10.647 -0.1749 -0.0894 -0.4848
  682MPD2     H10143   2.514   1.308  10.748 -0.2511  0.0425  0.3219
  682MPD2    H110144   2.418   1.715  10.834 -0.9557 -0.3998  0.0605
  682MPD2    H210145   2.511   1.614  10.448  2.9798  0.4750 -0.1147
  682MPD2    H310146   2.438   1.762  10.601 -2.2003 -0.3957  0.3335
  682MPD2     N10147   2.417   1.463  10.952  0.3897  0.4481 -0.3513
  682MPD2    H510148   2.366   1.537  11.000  0.8557  1.4280 -1.3676
  682MPD2    N110149   2.560   1.342  10.492  0.5767  0.0532 -0.4535
  682MPD2    H710150   2.555   1.248  10.531  0.6396 -0.6873 -2.2616
  683TMC3    C110151   2.367   1.495  11.341  0.3012  0.2961 -0.5562
  683TMC3    C210152   2.414   1.391  11.418 -0.4415 -0.2745  0.6350
  683TMC3    C310153   2.448   1.272  11.361 -0.0102  0.9182 -0.2571
  683TMC3    C410154   2.361   1.481  11.207 -0.3691 -0.0676  0.0429
  683TMC3    C510155   2.403   1.360  11.155 -0.7792  0.4857  0.2058
  683TMC3    C610156   2.451   1.258  11.227  0.3592  0.2779  0.2673
  683TMC3     C10157   2.354   1.627  11.411  0.1042 -0.6948 -0.2938
  683TMC3     O10158   2.356   1.618  11.532  0.2677 -0.6338  0.2243
  683TMC3     H10159   2.413   1.397  11.526  2.6877 -0.2070  0.6436
  683TMC3    H110160   2.291   1.546  11.156  1.4254  1.3572 -0.6321
  683TMC3    H210161   2.480   1.166  11.179 -1.4743  0.2597 -0.8179
  683TMC3    C710162   2.448   1.349  11.016  0.0019  0.4577 -0.6272
  683TMC3    C810163   2.506   1.174  11.457 -0.5350 -0.6752 -0.2614
  683TMC3    O110164   2.531   1.266  10.979  0.1709 -0.5087  0.4416
  683TMC3    O210165   2.536   1.212  11.570  0.5458 -0.1083  0.2012
  684MPD2     C10166   0.396   1.594  17.007  0.2718  0.6041  0.0938
  684MPD2    C110167   0.357   1.581  16.878 -0.3928  0.1123  0.4866
  684MPD2    C210168   0.357   1.696  16.799 -0.2873 -0.0091 -0.3265
  684MPD2    C310169   0.412   1.815  16.848  0.8304 -1.6665  0.6819
  684MPD2    C410170   0.456   1.826  16.977 -0.6849 -0.2368  0.3979
  684MPD2    C510171   0.447   1.710  17.057  0.0716 -0.6095  0.4625
  684MPD2     H10172   0.337   1.693  16.692  1.7917  1.6451 -0.7585
  684MPD2    H110173   0.489   1.921  17.016 -1.0970 -0.5071  1.4138
  684MPD2    H210174   0.389   1.512  17.076  1.0993  0.5184  0.0806
  684MPD2    H310175   0.473   1.718  17.162  0.8298  1.1518  0.1522
  684MPD2     N10176   0.423   1.936  16.779  0.1530  1.0603  0.2077
  684MPD2    H510177   0.479   2.010  16.820  2.3268 -0.2631 -0.3466
  684MPD2    N110178   0.328   1.456  16.820  0.2688  0.3049  0.5902
  684MPD2    H710179   0.349   1.375  16.877  0.5944 -1.1239 -1.5597
  685TMC3    C110180   0.320   1.310  16.647 -0.9600  0.2931 -0.2187
  685TMC3    C210181   0.224   1.267  16.559 -0.1296  0.8708 -0.3568
  685TMC3    C310182   0.259   1.217  16.439  0.4517 -0.8941  0.1824
  685TMC3    C410183   0.447   1.302  16.615  0.1490 -0.3032  0.4109
  685TMC3    C510184   0.485   1.234  16.498  0.3482 -0.1827  0.1103
  685TMC3    C610185   0.394   1.193  16.407 -0.0171  0.4917  0.1573
  685TMC3     C10186   0.276   1.434  16.696 -0.0462 -0.2387  0.0902
  685TMC3     O10187   0.227   1.505  16.607 -0.1714  0.0281 -0.0290
  685TMC3     H10188   0.119   1.293  16.569 -0.0790  1.2149 -0.7219
  685TMC3    H110189   0.526   1.349  16.672 -0.2043 -1.0732  1.5309
  685TMC3    H210190   0.423   1.164  16.307 -0.8966 -2.7104  0.8254
  685TMC3    C710191   0.625   1.205  16.485  0.6043  0.3367  0.7828
  685TMC3    C810192   0.197   1.263  16.322  0.3046  0.1130 -0.5234
  685TMC3    O110193   0.706   1.252  16.568  0.3848 -0.6552  0.3622
  685TMC3    O210194   0.211   1.196  16.219 -0.1743  0.2253  0.0355
  686MPD2     C10195   0.920   1.313  16.092  0.1656 -0.0375  0.0960
  686MPD2    C110196   1.035   1.329  16.023  0.4555 -0.1981  0.8040
  686MPD2    C210197   1.113   1.434  16.064  0.6729 -0.0650  0.1319
  686MPD2    C310198   1.077   1.530  16.158 -0.2656 -0.0811  0.1459
  686MPD2    C410199   0.962   1.516  16.225 -0.5616 -0.0863  0.5339
  686MPD2    C510200   0.890   1.403  16.192  0.3618  0.8605 -0.0263
  686MPD2     H10201   1.214   1.429  16.023  0.2224  0.6576 -1.0842
  686MPD2    H110202   0.931   1.570  16.314  1.6955 -0.4437  1.5341
  686MPD2    H210203   0.860   1.222  16.086 -0.8816  0.5454  1.8949
  686MPD2    H310204   0.818   1.365  16.263  1.0771 -1.2833 -0.4512
  686MPD2     N10205   1.172   1.631  16.197  0.3320 -0.5157  0.4456
  686MPD2    H510206   1.148   1.684  16.280 -2.8750  1.1724 -1.5678
  686MPD2    N110207   1.077   1.241  15.924 -0.4163 -0.4389  0.1710
  686MPD2    H710208   1.038   1.147  15.922 -0.7595 -0.2974  0.2976
  687TMC3    C110209   1.371   1.760  16.182  0.2718 -0.5593 -0.2382
  687TMC3    C210210   1.469   1.813  16.106 -0.5342 -0.5619 -0.6063
  687TMC3    C310211   1.601   1.825  16.149 -0.0021  0.2596 -0.1825
  687TMC3    C410212   1.399   1.730  16.317 -0.0243 -0.1106  0.6091
  687TMC3    C510213   1.528   1.748  16.352  0.3675 -0.0932  0.4648
  687TMC3    C610214   1.631   1.780  16.273 -0.3124 -0.7764  0.9181
  687TMC3     C10215   1.271   1.685  16.116 -0.7252 -0.9367  0.1921
  687TMC3     O10216   1.294   1.653  16.000  0.2558 -0.3983  0.1279
  687TMC3     H10217   1.445   1.827  16.001  1.4666  2.1340 -0.6980
  687TMC3    H110218   1.327   1.689  16.388 -1.2581 -0.2882 -0.7411
  687TMC3    H210219   1.728   1.807  16.314  0.0611  0.2198 -0.6462
  687TMC3    C710220   1.576   1.671  16.458 -0.3289 -0.2291 -0.1453
  687TMC3    C810221   1.707   1.808  16.056 -0.8070 -0.4358  0.7784
  687TMC3    O110222   1.537   1.682  16.574 -0.1948  0.2913 -0.0002
  687TMC3    O210223   1.809   1.779  16.105 -0.3553 -0.1067 -1.5048
  688MPD2     C10224   1.113   0.371  17.327  0.5073 -0.7609  0.1903
  688MPD2    C110225   1.126   0.234  17.344 -0.2818  0.3333  0.2496
  688MPD2    C210226   1.206   0.158  17.254  0.5331  0.5581  0.7814
  688MPD2    C310227   1.267   0.220  17.150  0.3954  0.0473  0.1315
  688MPD2    C410228   1.247   0.359  17.136 -0.0112  0.4334 -0.7579
  688MPD2    C510229   1.173   0.431  17.227 -0.4464 -0.3463 -0.2891
  688MPD2     H10230   1.220   0.052  17.271  1.5063  0.6888  0.8157
  688MPD2    H110231   1.276   0.409  17.044  1.3216  0.3883 -0.3586
  688MPD2    H210232   1.072   0.431  17.408 -1.6397  0.0681 -1.5173
  688MPD2    H310233   1.170   0.538  17.212 -0.5040 -0.3181 -0.0776
  688MPD2     N10234   1.320   0.148  17.045 -0.7359  0.8829 -0.5216
  688MPD2    H510235   1.329   0.199  16.958 -1.8378  0.4536 -0.8929
  688MPD2    N110236   1.069   0.166  17.453  0.3535 -0.2562 -0.5704
  688MPD2    H710237   1.084   0.066  17.457 -2.5646 -0.7645 -1.8099
  689TMC3    C110238   0.962   0.135  17.655 -0.0065 -0.2877 -0.3075
  689TMC3    C210239   0.980   0.205   0.014  0.2947  0.1923 -0.5250
  689TMC3    C310240   0.967   0.142   0.134  0.2274  0.0667  0.3745
  689TMC3    C410241   0.931   0.001  17.656 -0.3925  0.0611  0.1375
  689TMC3    C510242   0.919   4.689   0.029 -0.1961 -0.2308 -0.0642
  689TMC3    C610243   0.946   0.010   0.153 -0.7988 -0.4615  0.0774
  689TMC3     C10244   0.972   0.214  17.540 -0.4510  0.6274  0.1021
  689TMC3     O10245   0.929   0.329  17.555 -0.7661  0.9336 -0.4847
  689TMC3     H10246   1.003   0.310   0.008  1.0423  0.0053 -0.9774
  689TMC3    H110247   0.930   4.680  17.566 -1.3374  1.4363 -0.7780
  689TMC3    H210248   0.938   4.705   0.252 -0.3404  0.8163  0.6721
  689TMC3    C710249   0.821   4.588   0.061 -0.0707  0.3453  0.5412
  689TMC3    C810250   1.004   0.216   0.258 -0.2206 -0.7202 -0.2851
  689TMC3    O110251   0.757   4.605   0.166  0.0614  0.3715  0.2404
  689TMC3    O210252   0.975   0.171   0.366 -0.6899  0.1241 -0.2742
  690MPD2     C10253   3.128   2.019  15.751  0.4359  0.2594  0.0663
  690MPD2    C110254   3.152   2.001  15.619 -0.2318  0.2584 -0.4027
  690MPD2    C210255   3.267   2.060  15.571 -0.3643 -0.4659  0.1100
  690MPD2    C310256   3.355   2.132  15.643  0.5904  0.4823 -0.3846
  690MPD2    C410257   3.326   2.144  15.780 -0.3505 -0.0863  0.1722
  690MPD2    C510258   3.214   2.092  15.832 -0.1716  0.4808 -0.2431
  690MPD2     H10259   3.298   2.039  15.469  2.7982  2.6588  0.4554
  690MPD2    H110260   3.386   2.210  15.841 -1.8432  0.9225  0.5413
  690MPD2    H210261   3.038   1.978  15.796  1.3094 -2.2978 -0.5454
  690MPD2    H310262   3.199   2.096  15.940  0.2799  4.0803 -0.3331
  690MPD2     N10263   3.466   2.192  15.586  0.1372  0.1645  0.1021
  690MPD2    H510264   3.456   2.206  15.486 -0.2474 -1.5613 -0.0868
  690MPD2    N110265   3.080   1.916  15.534  0.0868  0.3610  0.7711
  690MPD2    H710266   3.111   1.902  15.438  0.6716  1.8834  0.7381
  691TMC3    C110267   2.925   1.759  15.474  0.1480 -0.2466 -0.2785
  691TMC3    C210268   2.794   1.741  15.469  0.3646 -0.5974 -0.1943
  691TMC3    C310269   2.736   1.631  15.417  0.0395  0.7398 -0.8593
  691TMC3    C410270   3.011   1.657  15.437 -0.2037  0.1645  0.4121
  691TMC3    C510271   2.956   1.539  15.394  0.2216  0.6263  0.1284
  691TMC3    C610272   2.814   1.526  15.383  1.0233  0.5084 -0.2461
  691TMC3     C10273   2.976   1.844  15.578 -0.1543 -0.0329 -0.3706
  691TMC3     O10274   2.907   1.851  15.675  0.2132 -0.0417 -0.1127
  691TMC3     H10275   2.745   1.824  15.518  0.3570 -1.4396  1.2004
  691TMC3    H110276   3.107   1.652  15.486 -0.2042 -1.7530  0.2317
  691TMC3    H210277   2.760   1.438  15.349  0.3810  1.0327 -0.5905
  691TMC3    C710278   3.036   1.420  15.411 -0.3586 -0.3449 -0.2995
  691TMC3    C810279   2.622   1.580  15.489  0.1460  0.0094 -0.2968
  691TMC3    O110280   3.156   1.438  15.401  0.1675  0.3664 -0.6220
  691TMC3    O210281   2.627   1.463  15.530  0.4687  0.4899  0.5718
  692TMC3    C110282   4.719   2.849  15.702 -0.5630  0.3154 -0.9292
  692TMC3    C210283   0.108   2.890  15.678  0.1344  0.6048 -0.2599
  692TMC3    C310284   0.215   2.810  15.688 -0.0185  0.0534  0.3979
  692TMC3    C410285   4.700   2.717  15.738 -0.7918 -0.1898 -0.0241
  692TMC3    C510286   0.072   2.647  15.764 -0.4075  1.4584  0.2271
  692TMC3    C610287   0.201   2.692  15.748  0.2671  0.3984  0.4053
  692TMC3     C10288   4.626   2.931  15.779  0.2782  0.3478  0.2306
  692TMC3     O10289   4.539   2.873  15.844  0.2200 -0.1127  0.2668
  692TMC3     H10290   0.120   2.982  15.622  0.5354  1.0172  0.4978
  692TMC3    H110291   4.601   2.673  15.748 -0.5009 -0.9993 -0.7798
  692TMC3    H210292   0.285   2.624  15.752 -0.5866 -0.7174 -0.7326
  692TMC3    C710293   0.061   2.507  15.792 -0.5274  0.2682 -0.2350
  692TMC3    C810294   0.336   2.874  15.737  0.3034 -0.4920  0.0153
  692TMC3    O110295   4.699   2.448  15.746  0.5847 -0.4748  0.2515
  692TMC3    O210296   0.414   2.934  15.666 -0.5289  0.4893  0.5857
  693MPD2     C10297   4.509   0.217  10.984  0.0415  0.6634 -0.2356
  693MPD2    C110298   4.489   0.157  11.106 -0.1586 -0.6410  0.3443
  693MPD2    C210299   4.600   0.106  11.177  0.6839  0.3714  0.1163
  693MPD2    C310300   4.728   0.131  11.131 -0.1628 -0.7959  0.2425
  693MPD2    C410301   0.008   0.189  11.011  0.7466 -0.2224  0.0551
  693MPD2    C510302   4.639   0.227  10.934  0.4699  1.3146 -0.0660
  693MPD2     H10303   4.587   0.056  11.272 -1.1480  4.6669  2.1390
  693MPD2    H110304   0.097   0.210  10.953 -0.8440 -0.6766 -2.5832
  693MPD2    H210305   4.420   0.251  10.931 -1.0547 -0.4732  0.8995
  693MPD2    H310306   4.652   0.258  10.831 -0.9062 -3.3505 -1.6483
  693MPD2     N10307   0.097   0.086  11.207  0.2416 -0.3959  0.2680
  693MPD2    H510308   0.075   0.038  11.294  1.2162  0.3409  0.9227
  693MPD2    N110309   4.360   0.154  11.151  0.1543 -0.6437 -0.7462
  693MPD2    H710310   4.290   0.165  11.078 -1.2656 -0.5398  0.6440
  694TMC3    C110311   4.174   0.083  11.286  0.2289 -1.3689 -0.1094
  694TMC3    C210312   4.111   0.033  11.172  0.0785 -0.3340  0.1626
  694TMC3    C310313   4.011   4.684  11.185 -0.2974  0.6690 -0.1628
  694TMC3    C410314   4.129   0.050  11.411 -0.1036  0.4523 -0.1931
  694TMC3    C510315   4.023   4.707  11.416  0.3137  0.1209  0.1695
  694TMC3    C610316   3.960   4.656  11.308  0.2679 -0.3573  0.0089
  694TMC3     C10317   4.318   0.115  11.279 -0.2249 -0.6656 -0.4505
  694TMC3     O10318   4.387   0.107  11.380  0.2028  0.1677 -0.3997
  694TMC3     H10319   4.165   0.036  11.078  0.1845  0.4319  0.2438
  694TMC3    H110320   4.163   0.102  11.499 -0.5697 -1.0474  0.8693
  694TMC3    H210321   3.870   4.595  11.318 -0.3439  0.5349 -0.0346
  694TMC3    C710322   3.962   4.686  11.548 -0.2437 -0.3707  0.0629
  694TMC3    C810323   3.942   4.636  11.067 -0.0908  0.2308 -0.2890
  694TMC3    O110324   3.997   0.029  11.630 -0.4645 -0.5440 -0.0089
  694TMC3    O210325   3.869   4.537  11.088 -0.0462 -0.2200  0.1272
  695MPD2     C10326   0.571   1.994  13.703  0.2681 -0.1844 -0.8339
  695MPD2    C110327   0.533   1.958  13.831  0.6435  0.2355 -0.1413
  695MPD2    C210328   0.395   1.948  13.861  0.9103 -0.2157  0.1420
  695MPD2    C310329   0.302   1.988  13.770  0.2371 -0.0252 -0.5182
  695MPD2    C410330   0.342   2.033  13.645 -0.5091  0.2144  0.4624
  695MPD2    C510331   0.472   2.029  13.608  0.1541  0.7158  0.2479
  695MPD2     H10332   0.361   1.925  13.961  0.7898 -0.7073 -0.0094
  695MPD2    H110333   0.282   2.060  13.559 -0.5461 -1.2471  0.0415
  695MPD2    H210334   0.670   2.023  13.671 -0.1967  1.4202 -0.8520
  695MPD2    H310335   0.490   2.059  13.505  0.3350 -1.3687 -0.3284
  695MPD2     N10336   0.169   1.990  13.816  0.3954 -0.8974 -0.3396
  695MPD2    H510337   0.160   1.926  13.894  1.6917 -0.4819  0.1414
  695MPD2    N110338   0.629   1.941  13.932  0.4403 -0.0167 -0.3011
  695MPD2    H710339   0.597   1.937  14.028  0.6664  2.0295 -0.1252
  696TMC3    C110340   4.690   2.058  13.866 -0.0269 -0.4808  0.0431
  696TMC3    C210341   4.720   2.033  13.993  0.6807 -0.6570 -1.1567
  696TMC3    C310342   4.621   2.052  14.087 -0.5896  0.1366  0.4530
  696TMC3    C410343   4.574   2.126  13.827 -0.2270 -0.6602  0.0662
  696TMC3    C510344   4.482   2.148  13.925 -0.1845  0.0949 -0.1575
  696TMC3    C610345   4.500   2.113  14.056 -0.2933 -0.8719 -0.3699
  696TMC3     C10346   0.058   2.050  13.768  0.0953  0.6811  0.8196
  696TMC3     O10347   0.042   2.113  13.667  0.3044  0.6667  0.3396
  696TMC3     H10348   0.073   1.987  14.025  0.1216 -0.1554  1.1812
  696TMC3    H110349   4.547   2.145  13.724  1.0967  1.3937  0.1134
  696TMC3    H210350   4.427   2.144  14.131 -0.2155 -0.5925 -0.4066
  696TMC3    C710351   4.399   2.266  13.902 -0.1377  0.2131 -0.1911
  696TMC3    C810352   4.687   2.114  14.202  0.5113  0.0974  0.4146
  696TMC3    O110353   4.353   2.283  13.789  0.4976  0.5217 -0.9125
  696TMC3    O210354   0.065   2.136  14.194 -0.1571 -0.1553 -0.1783
  697MPD2     C10355   4.279   4.623  15.821 -0.4369  0.6054 -0.2726
  697MPD2    C110356   4.317   4.561  15.701 -0.0559  0.2585  0.4449
  697MPD2    C210357   4.370   4.639  15.604  0.0304 -1.0074  0.6217
  697MPD2    C310358   4.398   0.039  15.623  0.1513  0.1287  0.0213
  697MPD2    C410359   4.366   0.096  15.750 -0.4683  0.0297 -0.1866
  697MPD2    C510360   4.299   0.020  15.843 -0.0365  0.9382 -0.3919
  697MPD2     H10361   4.394   4.586  15.513  0.2763 -3.3084  2.0248
  697MPD2    H110362   4.374   0.198  15.788  1.9024 -0.6627  1.2061
  697MPD2    H210363   4.227   4.570  15.900 -0.3463  1.1448  0.1502
  697MPD2    H310364   4.259   0.066  15.933  1.3935  0.6796  0.3679
  697MPD2     N10365   4.454   0.112  15.522 -0.5598  0.5973  0.0435
  697MPD2    H510366   4.491   0.050  15.451 -0.8794  1.4764 -0.8981
  697MPD2    N110367   4.293   4.423  15.680 -0.5899 -0.7572  0.0004
  697MPD2    H710368   4.297   4.392  15.583 -0.4695 -1.4809  0.2361
  698TMC3    C110369   4.506   0.290  15.376 -0.0810 -0.6913 -0.1514
  698TMC3    C210370   4.554   0.415  15.358 -0.7307 -0.2145 -0.2841
  698TMC3    C310371   4.625   0.441  15.248 -0.1459  0.0332  0.5517
  698TMC3    C410372   4.524   0.192  15.287 -0.0040  0.1154 -0.0116
  698TMC3    C510373   4.581   0.224  15.167 -0.4309 -0.2925 -0.2317
  698TMC3    C610374   4.633   0.347  15.145  0.0276 -0.1431  0.5535
  698TMC3     C10375   4.472   0.244  15.515 -1.0899  0.0895 -0.0029
  698TMC3     O10376   4.446   0.334  15.588  0.3118 -1.0070 -0.0137
  698TMC3     H10377   4.548   0.479  15.445  0.1592 -1.2168  0.5165
  698TMC3    H110378   4.487   0.092  15.303 -1.1220  0.4030 -0.7861
  698TMC3    H210379   4.675   0.379  15.050  0.0271 -1.2920  0.1735
  698TMC3    C710380   4.586   0.112  15.080  0.3639  0.1434  0.1274
  698TMC3    C810381   4.710   0.560  15.246 -0.1390  0.6065  0.1407
  698TMC3    O110382   4.490   0.037  15.091  0.4084  0.3504  0.1821
  698TMC3    O210383   4.686   0.642  15.336 -0.2762 -0.2491 -0.2119
  699TMC3    C110384   4.729   2.062  13.318 -0.0427 -0.1948 -0.3253
  699TMC3    C210385   0.065   1.954  13.358  0.2967 -0.5282  0.0002
  699TMC3    C310386   0.005   1.842  13.411  0.6640 -0.1454  0.1449
  699TMC3    C410387   4.590   2.060  13.337 -0.0378  0.2989  0.0760
  699TMC3    C510388   4.539   1.942  13.391  0.3864  0.4496  0.0593
  699TMC3    C610389   4.613   1.827  13.416 -0.2225 -0.4660  0.5373
  699TMC3     C10390   0.054   2.183  13.277 -0.1725  0.9242  0.8358
  699TMC3     O10391   0.177   2.190  13.284  0.0991 -0.1624  0.7230
  699TMC3     H10392   0.172   1.963  13.347  0.3181  0.9639  1.2767
  699TMC3    H110393   4.539   2.155  13.331 -0.3309  0.0669 -1.1653
  699TMC3    H210394   4.571   1.743  13.471 -0.7226 -1.1410 -0.8887
  699TMC3    C710395   4.398   1.942  13.421  0.1244 -0.9154  0.1178
  699TMC3    C810396   0.079   1.763  13.506  0.8004 -0.2701 -0.1988
  699TMC3    O110397   4.352   2.051  13.411 -0.0009  0.3056  0.1034
  699TMC3    O210398   0.014   1.701  13.590 -0.5841  0.5451  0.1486
  700TMC3    C110399   3.891   0.427  17.384 -0.2678 -0.6478  0.1088
  700TMC3    C210400   3.958   0.310  17.384  0.2668  1.1189 -0.7464
  700TMC3    C310401   4.065   0.284  17.465 -0.0988 -0.7859 -0.0397
  700TMC3    C410402   3.936   0.528  17.471  0.2192 -0.1780  1.0529
  700TMC3    C510403   4.040   0.497  17.556 -0.0449  0.2469 -0.1634
  700TMC3    C610404   4.106   0.382  17.560 -0.0392  0.0361  0.1316
  700TMC3     C10405   3.808   0.458  17.268 -0.3721  0.1972 -0.0245
  700TMC3     O10406   3.760   0.368  17.196  0.2419 -0.2013  0.1697
  700TMC3     H10407   3.932   0.236  17.309 -1.3785  0.6342  0.3038
  700TMC3    H110408   3.891   0.627  17.476 -1.6590 -1.0490  1.7843
  700TMC3    H210409   4.191   0.367  17.626 -0.6018 -0.3121  0.7834
  700TMC3    C710410   4.070   0.591  17.657  0.4128  0.0226  1.1620
  700TMC3    C810411   4.151   0.178  17.425  0.2337 -0.1046 -0.0524
  700TMC3    O110412   4.183   0.589  17.703  0.0109 -0.2603  0.1802
  700TMC3    O210413   4.146   0.139  17.311 -0.6678 -0.8357  0.3139
  701TMC3    C110414   3.525   3.923  15.628  0.8573 -0.3413  0.0981
  701TMC3    C210415   3.572   3.827  15.543 -0.3724 -0.6451  0.3052
  701TMC3    C310416   3.692   3.834  15.481  0.1515 -0.3844 -0.1425
  701TMC3    C410417   3.607   4.037  15.640 -0.7814  0.7278 -0.5391
  701TMC3    C510418   3.727   4.043  15.575 -0.1925  0.6296  0.7252
  701TMC3    C610419   3.780   3.936  15.503 -0.1412 -0.0012 -0.2261
  701TMC3     C10420   3.425   3.893  15.735  0.0834  0.4725 -0.8455
  701TMC3     O10421   3.409   3.981  15.819  0.6430 -0.1106  0.6331
  701TMC3     H10422   3.520   3.732  15.533  3.1433 -2.6263  1.1017
  701TMC3    H110423   3.566   4.122  15.694  0.3550 -0.1207  1.6397
  701TMC3    H210424   3.883   3.937  15.472 -0.4097  0.8117 -1.0862
  701TMC3    C710425   3.822   4.140  15.608  0.7410 -0.3266 -0.5996
  701TMC3    C810426   3.750   3.709  15.428 -0.1315 -0.1133 -0.1543
  701TMC3    O110427   3.907   4.167  15.524  0.3216 -0.5791 -0.5942
  701TMC3    O210428   3.862   3.681  15.467 -0.2677 -0.5890 -0.5241
  702MPD2     C10429   4.074   0.404  10.975 -0.1867 -0.3455 -0.5465
  702MPD2    C110430   3.991   0.496  11.034  0.1639  0.5815  0.5121
  702MPD2    C210431   4.005   0.629  11.004 -0.1948 -0.8136 -0.2488
  702MPD2    C310432   4.113   0.675  10.935  0.2882 -0.6119  0.6515
  702MPD2    C410433   4.202   0.582  10.886 -0.0203 -0.2096 -0.1562
  702MPD2    C510434   4.183   0.448  10.910 -0.1489 -0.6240 -0.6196
  702MPD2     H10435   3.932   0.697  11.046  0.6154  0.0186 -0.1828
  702MPD2    H110436   4.290   0.612  10.829 -0.6540 -0.7297 -1.3998
  702MPD2    H210437   4.058   0.296  10.976  2.1649 -0.6790  3.7177
  702MPD2    H310438   4.259   0.378  10.875  0.6721 -0.2401  0.4174
  702MPD2     N10439   4.143   0.814  10.913  0.5578 -0.1513 -0.5769
  702MPD2    H510440   4.235   0.846  10.885  0.3256  2.3501  1.5980
  702MPD2    N110441   3.884   0.462  11.120  0.0822 -0.5192 -0.0744
  702MPD2    H710442   3.816   0.534  11.143  1.2221  0.2974  0.7222
  703TMC3    C110443   4.080   1.048  10.891  0.3342 -0.4207 -0.4618
  703TMC3    C210444   3.979   1.126  10.837  1.0598 -0.0679 -0.3013
  703TMC3    C310445   4.011   1.261  10.815  0.4474 -0.2103 -0.8774
  703TMC3    C410446   4.205   1.096  10.927  0.7070  0.5894  0.3431
  703TMC3    C510447   4.227   1.229  10.910  0.3012  0.4839 -0.3470
  703TMC3    C610448   4.132   1.310  10.851  0.0982  0.1520  0.2085
  703TMC3     C10449   4.047   0.913  10.931  0.1044 -0.0627  0.1569
  703TMC3     O10450   3.930   0.901  10.967  0.1267 -0.5250  0.0921
  703TMC3     H10451   3.882   1.083  10.813  1.7717 -1.5641 -0.4363
  703TMC3    H110452   4.279   1.026  10.963 -1.5331 -1.3388  1.2282
  703TMC3    H210453   4.148   1.417  10.853  2.7093 -0.2578  0.2190
  703TMC3    C710454   4.365   1.275  10.900 -0.1668 -0.3492  1.1942
  703TMC3    C810455   3.908   1.364  10.797 -0.2828  0.1221  0.2329
  703TMC3    O110456   4.379   1.379  10.842 -0.6850 -0.2940 -0.0327
  703TMC3    O210457   3.944   1.479  10.791 -0.2569 -0.1709  0.2589
  704TMC3    C110458   1.084   3.739  12.788  0.8315 -0.2786  0.4883
  704TMC3    C210459   1.214   3.750  12.745 -0.8932 -0.1744  0.5064
  704TMC3    C310460   1.306   3.655  12.783 -0.1498  0.1671 -0.3956
  704TMC3    C410461   1.048   3.641  12.873 -0.5800  0.2844  0.6536
  704TMC3    C510462   1.144   3.547  12.909  0.3748  0.3648 -0.0571
  704TMC3    C610463   1.270   3.547  12.858  0.0373 -0.0786 -0.0158
  704TMC3     C10464   0.980   3.790  12.698 -0.5421  0.0424 -0.2585
  704TMC3     O10465   0.875   3.831  12.744 -0.1339 -0.3313 -0.1069
  704TMC3     H10466   1.245   3.838  12.690  1.5478  0.3782  2.7335
  704TMC3    H110467   0.946   3.636  12.910 -0.5841 -0.7299  0.5024
  704TMC3    H210468   1.330   3.468  12.903  2.0940  1.9588  0.7926
  704TMC3    C710469   1.100   3.411  12.916 -0.1017 -0.1832 -0.5010
  704TMC3    C810470   1.405   3.635  12.680 -0.1113 -0.1604 -0.9653
  704TMC3    O110471   1.178   3.326  12.875  0.5363  0.2498  0.2559
  704TMC3    O210472   1.394   3.711  12.584 -0.2192 -0.1110  0.0635
  705MPD2     C10473   0.332   2.474  16.655 -0.0524  0.2287 -0.3791
  705MPD2    C110474   0.320   2.615  16.638  0.5568 -0.2642  0.4899
  705MPD2    C210475   0.200   2.668  16.667  0.8180  0.0463  0.2337
  705MPD2    C310476   0.093   2.593  16.718 -0.2272 -0.4091 -0.3761
  705MPD2    C410477   0.108   2.462  16.727  0.0401 -0.2674  0.7263
  705MPD2    C510478   0.231   2.404  16.704  0.3572  0.3375 -0.2662
  705MPD2     H10479   0.202   2.776  16.665 -0.5722  0.0621  0.1065
  705MPD2    H110480   0.030   2.392  16.756  1.7444 -2.6671 -0.4022
  705MPD2    H210481   0.428   2.423  16.645 -0.9469 -1.4797 -0.2889
  705MPD2    H310482   0.236   2.296  16.701 -1.7598  0.2043  0.4103
  705MPD2     N10483   4.706   2.645  16.757 -0.2302  0.1210 -0.3690
  705MPD2    H510484   4.652   2.575  16.806  2.5003 -0.2338  2.1527
  705MPD2    N110485   0.432   2.693  16.604  0.6780 -0.3603 -0.0753
  705MPD2    H710486   0.413   2.793  16.600  1.9373 -0.1914 -1.6756
  706TMC3    C110487   0.866   2.799  16.434  0.3560 -0.1847 -0.3662
  706TMC3    C210488   0.834   2.927  16.420  0.0877 -0.2279 -0.5938
  706TMC3    C310489   0.711   2.967  16.469  0.0020 -0.1787  0.9618
  706TMC3    C410490   0.777   2.710  16.481 -0.8021 -0.2847  1.0037
  706TMC3    C510491   0.652   2.754  16.518  0.4740 -0.1444 -0.2780
  706TMC3    C610492   0.618   2.883  16.516  0.2101 -0.5619  0.4533
  706TMC3     C10493   0.996   2.754  16.378 -0.0542  0.7475 -0.1561
  706TMC3     O10494   1.090   2.826  16.413  0.2217 -0.2928 -0.5310
  706TMC3     H10495   0.902   2.997  16.373 -0.3019  0.4393 -0.1683
  706TMC3    H110496   0.797   2.604  16.476  1.2480  0.1457  0.0915
  706TMC3    H210497   0.513   2.910  16.526  0.0683 -0.5707 -1.0016
  706TMC3    C710498   0.556   2.651  16.568 -0.2852  0.0332  0.4415
  706TMC3    C810499   0.664   3.101  16.437 -0.3985  0.2870 -0.1742
  706TMC3    O110500   0.602   2.538  16.573  0.2676 -0.1274 -0.5384
  706TMC3    O210501   0.721   3.174  16.359  0.9213 -0.1790  0.3259
  707TMC3    C110502   2.512   2.395   1.488 -0.4348 -0.2517 -0.1941
  707TMC3    C210503   2.437   2.291   1.436 -0.1160 -0.3192 -0.1675
  707TMC3    C310504   2.332   2.332   1.357  0.1789 -0.2619 -0.7165
  707TMC3    C410505   2.485   2.529   1.472  0.1824  0.3473 -1.0177
  707TMC3    C510506   2.385   2.554   1.388 -0.0482 -0.1182  0.0488
  707TMC3    C610507   2.307   2.463   1.322  0.5396  0.1702 -0.1845
  707TMC3     C10508   2.634   2.354   1.551 -0.7757 -0.7736  0.4010
  707TMC3     O10509   2.652   2.234   1.549  0.2303 -0.5272  0.0647
  707TMC3     H10510   2.458   2.187   1.456 -2.7050 -1.1431 -1.7617
  707TMC3    H110511   2.536   2.609   1.524 -0.6970 -0.5489  1.2373
  707TMC3    H210512   2.233   2.484   1.246  0.8819 -1.1745 -0.8924
  707TMC3    C710513   2.313   2.677   1.417  0.2915 -0.5252  0.2778
  707TMC3    C810514   2.224   2.236   1.348  0.1301 -0.6357 -0.2715
  707TMC3    O110515   2.374   2.765   1.467 -0.6690  0.0853 -0.1855
  707TMC3    O210516   2.114   2.281   1.336 -0.0446 -0.1868 -0.4638
  708MPD2     C10517   3.688   0.951  13.831  0.0655 -0.0925 -0.2909
  708MPD2    C110518   3.614   0.898  13.934  0.6375  0.1065  0.5236
  708MPD2    C210519   3.662   0.894  14.064 -0.3810 -0.5502  0.5955
  708MPD2    C310520   3.782   0.950  14.094  0.0024 -1.1975 -0.3164
  708MPD2    C410521   3.847   1.024  13.994 -0.6701  0.5174  0.7860
  708MPD2    C510522   3.801   1.023  13.868  0.9916  1.2540  0.4748
  708MPD2     H10523   3.603   0.849  14.143 -3.9816  1.6252 -0.8157
  708MPD2    H110524   3.947   1.060  14.012 -0.1803 -0.2683 -0.3865
  708MPD2    H210525   3.653   0.965  13.729  3.3923  0.4261 -1.3654
  708MPD2    H310526   3.852   1.076  13.788  0.5581 -2.7932 -2.5183
  708MPD2     N10527   3.835   0.932  14.220 -0.7926 -0.3588  0.3655
  708MPD2    H510528   3.922   0.981  14.235 -0.7667 -0.5285  0.7858
  708MPD2    N110529   3.485   0.846  13.910 -0.1355  0.2190 -1.0631
  708MPD2    H710530   3.445   0.798  13.989  1.5343  1.0393  0.2757
  709TMC3    C110531   3.290   0.783  13.822 -1.3403 -0.4281  0.3698
  709TMC3    C210532   3.288   0.660  13.762 -0.5204  0.1021 -0.5656
  709TMC3    C310533   3.262   0.550  13.850  0.4449 -0.1302  0.0666
  709TMC3    C410534   3.247   0.798  13.953 -0.1658  0.3588  0.0763
  709TMC3    C510535   3.215   0.688  14.027 -0.7650 -0.1482 -0.7661
  709TMC3    C610536   3.226   0.558  13.980  0.6074  0.6432  0.6306
  709TMC3     C10537   3.412   0.857  13.800 -0.0020  0.5788  0.5414
  709TMC3     O10538   3.444   0.874  13.688  0.2733 -0.0401 -0.2031
  709TMC3     H10539   3.326   0.645  13.662 -0.2311  0.5816 -0.5293
  709TMC3    H110540   3.261   0.894  14.001  3.8353  0.3101 -0.9447
  709TMC3    H210541   3.203   0.477  14.048  1.3240 -0.1137 -0.0315
  709TMC3    C710542   3.253   0.720  14.161 -0.2594 -0.2346 -0.1796
  709TMC3    C810543   3.276   0.410  13.796 -0.5690 -0.0290  0.2754
  709TMC3    O110544   3.364   0.774  14.157  0.8638  0.8738  0.2877
  709TMC3    O210545   3.310   0.329  13.879 -0.2306 -0.1865  0.4328
  710TMC3    C110546   0.474   2.591   0.392  0.9920  0.0152 -0.5932
  710TMC3    C210547   0.574   2.583   0.299 -1.0511 -0.5271  0.0146
  710TMC3    C310548   0.641   2.469   0.287  0.0788  0.0852  0.2925
  710TMC3    C410549   0.445   2.492   0.480  0.4137  0.3376 -0.0582
  710TMC3    C510550   0.525   2.383   0.468  0.7622 -0.1329 -0.1622
  710TMC3    C610551   0.618   2.367   0.371  0.1510  0.2471  0.0581
  710TMC3     C10552   0.377   2.703   0.363 -0.7693  0.1826  0.3690
  710TMC3     O10553   0.398   2.766   0.260  0.1607  0.1591  0.0651
  710TMC3     H10554   0.591   2.660   0.225 -0.0544 -1.3814 -0.6479
  710TMC3    H110555   0.372   2.502   0.560  2.7372  1.3951  1.9490
  710TMC3    H210556   0.682   2.279   0.372  0.3000  0.3806  1.3462
  710TMC3    C710557   0.486   2.262   0.537  0.1871  0.0969 -0.2728
  710TMC3    C810558   0.687   2.447   0.152 -0.4978 -0.5887 -0.1308
  710TMC3    O110559   0.445   2.278   0.654 -0.2097 -0.3879  0.3985
  710TMC3    O210560   0.648   2.517   0.059  0.3466 -0.5349  0.1786
  711TMC3    C110561   4.386   3.431  15.259 -0.2742 -0.7654 -0.0262
  711TMC3    C210562   4.401   3.528  15.356  0.2093 -0.0530  0.2756
  711TMC3    C310563   4.487   3.507  15.459 -0.1263 -0.4983 -0.4408
  711TMC3    C410564   4.446   3.307  15.264  0.7349 -1.0009 -0.2016
  711TMC3    C510565   4.532   3.294  15.368  0.4210 -0.2640  0.1394
  711TMC3    C610566   4.557   3.387  15.467  0.1251  0.7629  0.0692
  711TMC3     C10567   4.286   3.456  15.149 -0.2840  1.0435 -0.6376
  711TMC3     O10568   4.295   3.387  15.051  0.0977  0.1452 -0.4075
  711TMC3     H10569   4.347   3.622  15.362  1.0040  0.4800 -0.9661
  711TMC3    H110570   4.428   3.234  15.187  1.6464  0.1585 -1.5092
  711TMC3    H210571   4.631   3.366  15.544 -0.0990  0.3744  0.1794
  711TMC3    C710572   4.600   3.159  15.382  0.1771  0.0580  0.1727
  711TMC3    C810573   4.515   3.623  15.548 -0.2256 -0.7093 -0.0190
  711TMC3    O110574   4.713   3.153  15.433  0.0750 -0.4515 -0.2640
  711TMC3    O210575   4.412   3.676  15.586  0.0841 -0.2310  0.2319
  712MPD2     C10576   0.408   4.388  14.170 -0.2668  0.3956 -0.0631
  712MPD2    C110577   0.505   4.314  14.108 -0.6158 -0.1063 -0.4803
  712MPD2    C210578   0.596   4.374  14.024 -0.3089  0.6322 -0.0826
  712MPD2    C310579   0.606   4.509  14.021  0.3937 -0.1969  0.0259
  712MPD2    C410580   0.505   4.590  14.078  0.6166 -0.5125  0.1485
  712MPD2    C510581   0.409   4.526  14.152 -0.1940 -0.3179  0.2870
  712MPD2     H10582   0.666   4.311  13.971  1.3196  2.6825 -0.3841
  712MPD2    H110583   0.519   4.697  14.079 -0.9257 -0.3274  1.9303
  712MPD2    H210584   0.321   4.342  14.217 -0.8695  1.7588  0.1354
  712MPD2    H310585   0.326   4.582  14.192 -0.0007  0.7179 -0.7179
  712MPD2     N10586   0.718   4.569  13.954 -0.1390  0.6960  0.2493
  712MPD2    H510587   0.708   4.666  13.925  1.3518 -0.1259 -2.9665
  712MPD2    N110588   0.516   4.181  14.128 -0.3239 -0.8401  0.2382
  712MPD2    H710589   0.586   4.138  14.068  1.9593  2.7468  0.3214
  713TMC3    C110590   0.934   4.571  13.842 -0.0020  0.3948 -0.3501
  713TMC3    C210591   1.065   4.519  13.853 -0.6108  0.4206 -0.1346
  713TMC3    C310592   1.170   4.578  13.788  0.0239  0.0243 -0.4437
  713TMC3    C410593   0.909   4.684  13.776 -0.6491 -0.4118 -0.2048
  713TMC3    C510594   1.019   0.008  13.718  0.4380  0.9213  0.2433
  713TMC3    C610595   1.148   4.696  13.719  0.1901  0.1056 -0.1407
  713TMC3     C10596   0.834   4.501  13.923 -0.0308 -0.1565 -0.0924
  713TMC3     O10597   0.867   4.385  13.940  0.6239 -0.3180  0.0618
  713TMC3     H10598   1.079   4.430  13.913 -0.1420 -1.6130 -3.2286
  713TMC3    H110599   0.812   4.731  13.762 -0.4018 -0.6109 -2.5925
  713TMC3    H210600   1.233   0.009  13.676  1.2826 -1.4227  0.1731
  713TMC3    C710601   0.994   0.122  13.635 -0.1820  0.1296  0.3587
  713TMC3    C810602   1.305   4.540  13.816  0.2155 -0.3458 -0.6872
  713TMC3    O110603   1.101   0.175  13.606 -0.0061 -0.3618 -0.1172
  713TMC3    O210604   1.395   4.617  13.788  0.3062 -0.1616  0.4870
  714MPD2     C10605   3.354   3.621   1.030  0.1956 -1.0181 -0.9844
  714MPD2    C110606   3.337   3.487   1.053  1.0492  0.1660 -0.8266
  714MPD2    C210607   3.206   3.437   1.046 -0.0861 -0.2800 -0.8065
  714MPD2    C310608   3.098   3.515   1.021  0.1870 -0.0329 -0.3170
  714MPD2    C410609   3.121   3.648   0.991 -0.6982 -0.0327 -0.2208
  714MPD2    C510610   3.247   3.693   0.993  1.1231 -0.2238  0.5501
  714MPD2     H10611   3.180   3.334   1.068 -0.8960  0.1525  0.2717
  714MPD2    H110612   3.044   3.718   0.962  0.8298  2.1503  0.9941
  714MPD2    H210613   3.450   3.670   1.040 -0.1163 -0.7033  0.4089
  714MPD2    H310614   3.262   3.797   0.965 -0.7945  0.3302  1.5386
  714MPD2     N10615   2.973   3.450   1.027  0.1759 -0.3993 -0.0873
  714MPD2    H510616   2.978   3.349   1.037  1.1772 -0.3221  0.1931
  714MPD2    N110617   3.444   3.402   1.096  0.0498  0.0921  0.0943
  714MPD2    H710618   3.532   3.451   1.110  0.6009 -0.5830 -1.0211
  715TMC3    C110619   3.559   3.214   1.172  0.1450  0.1698 -0.4152
  715TMC3    C210620   3.580   3.084   1.138  1.0318  0.0684 -0.4297
  715TMC3    C310621   3.698   3.031   1.193 -0.7140  0.0922 -0.0830
  715TMC3    C410622   3.639   3.288   1.254 -0.1232  0.5535 -0.9304
  715TMC3    C510623   3.750   3.229   1.305 -0.4464 -0.0121  0.0738
  715TMC3    C610624   3.786   3.104   1.266  0.5137  0.1231  0.4099
  715TMC3     C10625   3.435   3.272   1.118 -0.1208  0.0862 -0.2442
  715TMC3     O10626   3.351   3.188   1.080 -0.8861  0.4224 -0.5623
  715TMC3     H10627   3.502   3.024   1.093  2.3312 -1.4809 -0.6052
  715TMC3    H110628   3.625   3.395   1.259 -1.5078  0.3460 -0.3121
  715TMC3    H210629   3.885   3.072   1.295  0.0965  0.7829  2.5496
  715TMC3    C710630   3.836   3.296   1.396 -0.0271  0.4986 -0.1294
  715TMC3    C810631   3.746   2.905   1.147 -0.5195 -0.0478 -0.1823
  715TMC3    O110632   3.937   3.243   1.429  0.0664 -0.2570  0.4549
  715TMC3    O210633   3.703   2.861   1.044 -0.1342  0.2910 -0.1211
  716MPD2     C10634   3.452   0.862   9.687  0.4823 -0.0047  0.7639
  716MPD2    C110635   3.352   0.830   9.606  0.0379 -0.6683  0.3865
  716MPD2    C210636   3.380   0.728   9.517 -0.5815  0.5370 -0.4524
  716MPD2    C310637   3.509   0.673   9.497 -0.5842  0.5943 -0.4844
  716MPD2    C410638   3.606   0.711   9.584  0.0259  0.4152  0.6970
  716MPD2    C510639   3.580   0.806   9.681  0.4459 -1.0766 -0.5158
  716MPD2     H10640   3.301   0.701   9.447 -2.2057 -1.0457  1.9990
  716MPD2    H110641   3.707   0.671   9.578  0.1608  0.6636  1.2396
  716MPD2    H210642   3.431   0.943   9.756  2.6573  0.8230  0.4574
  716MPD2    H310643   3.658   0.835   9.751  0.4884 -0.0154 -1.0149
  716MPD2     N10644   3.533   0.584   9.385  0.1590 -0.2905 -0.4100
  716MPD2    H510645   3.464   0.581   9.311 -0.1464  0.9087 -0.1707
  716MPD2    N110646   3.227   0.909   9.613  0.2810 -0.6534  0.5814
  716MPD2    H710647   3.206   0.958   9.700  1.7577  1.2620 -0.1328
  717TMC3    C110648   3.610   0.408   9.248 -0.2464 -0.3072 -0.0961
  717TMC3    C210649   3.488   0.417   9.191  0.0157 -0.1183 -0.0286
  717TMC3    C310650   3.438   0.306   9.124 -0.3992 -0.0675 -0.3962
  717TMC3    C410651   3.684   0.297   9.248 -0.3747 -0.0856 -0.8137
  717TMC3    C510652   3.629   0.185   9.198  0.2776  0.4814 -0.2302
  717TMC3    C610653   3.510   0.188   9.129  0.3214 -0.5044  0.0175
  717TMC3     C10654   3.646   0.507   9.350 -0.4650 -0.5731  0.2307
  717TMC3     O10655   3.747   0.485   9.411 -0.1558  0.0601  0.0840
  717TMC3     H10656   3.432   0.510   9.186  1.0695  0.4422 -1.4471
  717TMC3    H110657   3.779   0.297   9.301 -0.9196  1.8137  0.1745
  717TMC3    H210658   3.467   0.099   9.084  2.7670 -1.2899 -0.7841
  717TMC3    C710659   3.696   0.055   9.214  0.3915  0.0108  0.5301
  717TMC3    C810660   3.328   0.322   9.023  0.0925  0.7899 -0.0708
  717TMC3    O110661   3.638   4.703   9.155  0.2635 -0.3725 -0.8590
  717TMC3    O210662   3.263   0.423   9.032  0.9822  0.5451  0.2951
  718MPD2     C10663   1.936   0.010  12.076  0.0838 -0.5435  0.4412
  718MPD2    C110664   1.982   4.704  12.198  0.1483 -0.3188 -0.6655
  718MPD2    C210665   1.939   0.024  12.319 -0.1147  0.1886  1.2350
  718MPD2    C310666   1.845   0.123  12.325  0.1963 -0.0633  0.0949
  718MPD2    C410667   1.802   0.169  12.205  0.2453 -0.1432  0.0960
  718MPD2    C510668   1.850   0.114  12.093 -0.2022  0.0241  0.5642
  718MPD2     H10669   1.970   4.721  12.414  1.8991  0.0366  0.4926
  718MPD2    H110670   1.731   0.249  12.189 -0.5433 -0.5293  1.7691
  718MPD2    H210671   1.962   4.699  11.984 -0.2209 -0.1076  0.1201
  718MPD2    H310672   1.796   0.140  12.004  0.1984 -1.4959 -0.1309
  718MPD2     N10673   1.799   0.165  12.451 -0.3393  0.0590  0.5341
  718MPD2    H510674   1.850   0.114  12.523 -0.7488 -1.8074 -0.4979
  718MPD2    N110675   2.075   4.587  12.202  0.1510  0.0882  0.4396
  718MPD2    H710676   2.089   4.550  12.295  0.2074  2.8008  1.5139
  719TMC3    C110677   2.170   4.388  12.151 -0.1660 -0.3326  0.4929
  719TMC3    C210678   2.089   4.341  12.246  0.4739 -0.6693  0.4388
  719TMC3    C310679   2.139   4.305  12.365 -0.1313 -0.2697 -0.2713
  719TMC3    C410680   2.304   4.395  12.183  0.5185  0.1170  0.1722
  719TMC3    C510681   2.352   4.333  12.295 -0.6978 -0.5777  0.1363
  719TMC3    C610682   2.270   4.288  12.390  0.2284 -0.2608  0.2869
  719TMC3     C10683   2.109   4.506  12.097 -0.0425 -0.7035  0.1600
  719TMC3     O10684   2.111   4.522  11.974 -0.3054 -0.5211 -0.9225
  719TMC3     H10685   1.983   4.358  12.230  0.0752 -1.8345  1.8177
  719TMC3    H110686   2.367   4.442  12.108 -0.2253 -0.5095 -0.8506
  719TMC3    H210687   2.299   4.238  12.481  0.1765  0.0619  0.4817
  719TMC3    C710688   2.492   4.333  12.320 -0.1681  0.2196 -0.2653
  719TMC3    C810689   2.066   4.372  12.471  0.5364 -0.4916 -0.8492
  719TMC3    O110690   2.567   4.320  12.228  0.4066 -0.0162  0.2231
  719TMC3    O210691   1.983   4.446  12.425 -0.4053  0.3318  0.1648
  720MPD2     C10692   1.245   0.953  14.092  0.0099 -0.2494  0.0395
  720MPD2    C110693   1.317   0.996  13.983  0.1185  0.5357 -0.3059
  720MPD2    C210694   1.441   1.048  13.996 -0.1688 -0.3378 -0.1893
  720MPD2    C310695   1.496   1.071  14.121 -0.2403 -0.2776 -0.7975
  720MPD2    C410696   1.421   1.033  14.230 -0.4051 -0.2250 -0.3764
  720MPD2    C510697   1.301   0.970  14.214  0.6938  0.4041  0.0478
  720MPD2     H10698   1.494   1.077  13.906  2.6907 -0.4996  1.4444
  720MPD2    H110699   1.436   1.050  14.336 -0.5643 -0.0147 -0.3853
  720MPD2    H210700   1.147   0.907  14.082 -0.0302  0.1597 -1.4922
  720MPD2    H310701   1.247   0.938  14.302  1.0117 -0.8405 -0.2064
  720MPD2     N10702   1.619   1.140  14.134 -0.5906 -0.1285  0.5306
  720MPD2    H510703   1.667   1.178  14.052 -2.5971  0.4689 -0.3676
  720MPD2    N110704   1.257   0.971  13.861  0.4401  0.0377 -0.5164
  720MPD2    H710705   1.166   0.932  13.880  0.9652 -0.9862 -0.0776
  721TMC3    C110706   1.793   1.264  14.245 -0.4209  0.0147 -0.5458
  721TMC3    C210707   1.828   1.336  14.350  0.3305  0.2558 -0.0873
  721TMC3    C310708   1.937   1.414  14.339  0.2734 -0.2697  0.1199
  721TMC3    C410709   1.869   1.257  14.132 -0.2088 -0.1304  0.0397
  721TMC3    C510710   1.982   1.333  14.131  0.1545  0.1601 -0.2620
  721TMC3    C610711   2.018   1.423  14.228 -0.0361  0.0013 -0.2857
  721TMC3     C10712   1.669   1.189  14.253 -0.1368  0.0309  0.3777
  721TMC3     O10713   1.634   1.166  14.363  0.2764 -0.1233 -0.1130
  721TMC3     H10714   1.765   1.346  14.438  0.0169 -1.1713 -0.1531
  721TMC3    H110715   1.839   1.203  14.043 -3.1223  0.6160  0.5697
  721TMC3    H210716   2.106   1.486  14.229 -2.2232  3.1772 -3.2602
  721TMC3    C710717   2.100   1.290  14.050  0.0875 -0.3728  0.8184
  721TMC3    C810718   1.992   1.467  14.461  0.0406  0.2126  0.0749
  721TMC3    O110719   2.204   1.347  14.080  0.1019  0.2565 -0.0893
  721TMC3    O210720   2.114   1.489  14.466 -0.0613 -0.1134  0.1264
  722MPD2     C10721   4.739   4.504  12.974  0.6319  0.0826 -0.6496
  722MPD2    C110722   4.672   4.627  12.989 -0.0775  0.5070 -0.7931
  722MPD2    C210723   4.535   4.635  12.979 -0.3638  0.0890  0.2562
  722MPD2    C310724   4.457   4.524  12.940 -0.5079 -0.0877 -0.3690
  722MPD2    C410725   4.527   4.406  12.923  0.1289 -0.0973 -0.0125
  722MPD2    C510726   4.666   4.401  12.934 -0.3663  0.3528 -0.5383
  722MPD2     H10727   4.485   4.727  13.008 -1.1059 -0.4061  0.5373
  722MPD2    H110728   4.485   4.317  12.879 -1.6051  1.5577 -1.7392
  722MPD2    H210729   0.107   4.494  12.972  0.5911 -0.7616  1.1625
  722MPD2    H310730   4.719   4.309  12.908  1.7781  1.1075  1.1165
  722MPD2     N10731   4.315   4.531  12.919 -0.1956 -0.5878 -0.2553
  722MPD2    H510732   4.267   4.619  12.940  1.7212  0.1632  0.9119
  722MPD2    N110733   0.005   0.005  13.016  0.1590  0.7068 -0.3563
  722MPD2    H710734   4.687   0.088  13.026  0.2454  0.7664 -0.3630
  723TMC3    C110735   4.095   4.462  12.909  0.2383  0.0660 -0.3572
  723TMC3    C210736   4.020   4.355  12.947  0.7928 -0.0809  0.0969
  723TMC3    C310737   3.886   4.364  12.968  0.2323 -0.0651 -0.7056
  723TMC3    C410738   4.041   4.581  12.883 -0.2936  0.7367 -0.6738
  723TMC3    C510739   3.908   4.587  12.908 -0.4873 -0.2275  0.2511
  723TMC3    C610740   3.826   4.482  12.956  0.5022  0.2689 -0.4059
  723TMC3     C10741   4.234   4.426  12.887  0.2366  0.6299 -0.4874
  723TMC3     O10742   4.263   4.316  12.842  0.1222  0.4808 -0.7040
  723TMC3     H10743   4.070   4.260  12.966  0.3787 -0.6851 -1.8506
  723TMC3    H110744   4.101   4.661  12.842 -0.0230  1.6152  1.4259
  723TMC3    H210745   3.720   4.499  12.968  0.5455  0.3329 -0.1135
  723TMC3    C710746   3.831   4.699  12.860 -0.2636  0.1273  0.0071
  723TMC3    C810747   3.827   4.261  13.054 -0.1105  0.2221  0.5417
  723TMC3    O110748   3.738   4.663  12.792  0.4951  0.3390 -0.0009
  723TMC3    O210749   3.770   4.311  13.144 -0.3874 -0.9911 -0.8820
  724TMC3    C110750   0.694   2.889  10.516  0.6525 -0.8629  0.0404
  724TMC3    C210751   0.687   2.854  10.376 -0.3824 -0.0631 -0.2133
  724TMC3    C310752   0.784   2.901  10.294 -0.1619 -0.1894  0.1864
  724TMC3    C410753   0.778   2.984  10.561 -0.0930 -0.2141  0.1299
  724TMC3    C510754   0.869   3.029  10.467  0.1497  0.0668  0.3822
  724TMC3    C610755   0.884   2.985  10.340  0.6478 -0.2003 -0.0252
  724TMC3     C10756   0.621   2.812  10.612  0.1162  0.1309  0.0538
  724TMC3     O10757   0.664   2.818  10.724  0.0428  0.5213 -0.4023
  724TMC3     H10758   0.633   2.766  10.342 -0.2629  0.1668 -0.9818
  724TMC3    H110759   0.767   3.026  10.661 -3.5271  0.9371 -0.7500
  724TMC3    H210760   0.951   3.033  10.270  0.4231 -0.6162 -0.5269
  724TMC3    C710761   0.992   3.093  10.504  0.0004 -0.2489  0.4029
  724TMC3    C810762   0.786   2.888  10.149 -0.2820  0.4627 -0.0798
  724TMC3    O110763   1.092   3.039  10.459 -0.4702  0.4584  0.3713
  724TMC3    O210764   0.680   2.866  10.095 -0.2850 -0.0443  0.2458
  725TMC3    C110765   1.487   1.156  12.705  0.2620  0.6547  0.1999
  725TMC3    C210766   1.470   1.156  12.571 -0.0885 -0.4908  0.1833
  725TMC3    C310767   1.449   1.031  12.515  0.7335 -0.4661  0.9354
  725TMC3    C410768   1.501   1.041  12.777 -0.1533 -0.8245 -0.5916
  725TMC3    C510769   1.475   0.925  12.719  0.4165  0.0589  0.0001
  725TMC3    C610770   1.450   0.910  12.587 -0.2748  0.4661  0.7073
  725TMC3     C10771   1.525   1.293  12.754  0.1666  0.1042 -0.1084
  725TMC3     O10772   1.573   1.371  12.677  0.0425  0.0253 -0.0986
  725TMC3     H10773   1.460   1.251  12.520 -0.1071 -0.3396  0.4686
  725TMC3    H110774   1.544   1.033  12.876  1.1437  0.8699 -1.0121
  725TMC3    H210775   1.416   0.815  12.549  0.6137 -0.0030  1.0865
  725TMC3    C710776   1.559   0.815  12.773 -0.1828  0.1083  0.2891
  725TMC3    C810777   1.453   1.014  12.362  0.5579  0.0870  0.3008
  725TMC3    O110778   1.563   0.796  12.895  0.1316  0.6502 -0.0364
  725TMC3    O210779   1.487   0.902  12.332  0.2814  0.3674  0.4730
  726MPD2     C10780   4.738   3.036  10.837  0.5357 -0.0718 -0.2934
  726MPD2    C110781   4.630   3.074  10.760 -0.0929  0.2060  0.2637
  726MPD2    C210782   4.511   3.010  10.779 -0.9849 -0.1925 -0.3110
  726MPD2    C310783   4.491   2.920  10.888 -0.3302 -0.3768 -0.1708
  726MPD2    C410784   4.602   2.887  10.967 -0.0865 -0.1743 -0.4471
  726MPD2    C510785   4.723   2.944  10.942  0.5761  0.3362 -0.4617
  726MPD2     H10786   4.429   3.043  10.717 -0.3402 -0.4200 -1.2836
  726MPD2    H110787   4.603   2.819  11.051 -2.0996  1.7891  1.1296
  726MPD2    H210788   0.095   3.085  10.827 -0.8372  2.6058 -0.4164
  726MPD2    H310789   0.073   2.916  10.996  0.8463  3.6391  0.7862
  726MPD2     N10790   4.368   2.857  10.911  0.0679 -0.1971 -0.4777
  726MPD2    H510791   4.378   2.793  10.990 -0.4126 -0.5620 -0.7122
  726MPD2    N110792   4.642   3.172  10.663 -0.4178  0.0003  0.1244
  726MPD2    H710793   4.569   3.195  10.596  0.8385  4.3493  0.2439
  727TMC3    C110794   0.007   3.325  10.510 -0.1784 -0.0004 -0.1757
  727TMC3    C210795   0.105   3.418  10.489 -0.6519 -0.6747 -0.7198
  727TMC3    C310796   0.092   3.496  10.376 -0.1268  0.2060  0.7427
  727TMC3    C410797   4.646   3.308  10.416 -0.0230  0.0279 -0.4722
  727TMC3    C510798   4.633   3.389  10.308 -0.4101  0.0272  0.7573
  727TMC3    C610799   4.723   3.489  10.289 -0.2439  1.0301  0.3874
  727TMC3     C10800   0.020   3.239  10.630  0.8406 -1.1294  0.2607
  727TMC3     O10801   0.124   3.261  10.694 -0.0800 -0.0511 -0.3787
  727TMC3     H10802   0.192   3.429  10.554 -1.3394 -1.8771  0.3952
  727TMC3    H110803   4.575   3.226  10.421 -0.1245  0.1724  0.3757
  727TMC3    H210804   4.723   3.548  10.198  1.4625 -0.4805 -0.5878
  727TMC3    C710805   4.550   3.334  10.198 -0.4549 -0.4015 -0.1465
  727TMC3    C810806   0.157   3.628  10.401 -0.2730  0.4573  0.3152
  727TMC3    O110807   4.545   3.215  10.192 -0.5903 -0.5769 -0.1343
  727TMC3    O210808   0.262   3.625  10.464 -0.3481  0.4905 -0.2285
  728TMC3    C110809   3.667   2.325  15.580  0.5766  0.2273 -0.5111
  728TMC3    C210810   3.723   2.435  15.643 -0.0171  0.7285  0.1737
  728TMC3    C310811   3.783   2.525  15.559  0.0428  0.9156 -0.4249
  728TMC3    C410812   3.652   2.322  15.446  1.0638 -0.9707 -0.0022
  728TMC3    C510813   3.696   2.429  15.367 -0.5698  0.2042 -0.8989
  728TMC3    C610814   3.771   2.532  15.424 -0.4942  0.0016 -0.2397
  728TMC3     C10815   3.579   2.241  15.656  0.9649  0.2641  0.1860
  728TMC3     O10816   3.599   2.242  15.778  0.2638 -0.0048 -0.4294
  728TMC3     H10817   3.706   2.459  15.747 -1.0923  0.5183  0.0458
  728TMC3    H110818   3.621   2.232  15.396  0.2780 -0.8675  0.3042
  728TMC3    H210819   3.837   2.595  15.365 -1.1881 -1.1650 -2.2730
  728TMC3    C710820   3.678   2.427  15.222 -0.2238 -0.1034  0.3835
  728TMC3    C810821   3.837   2.644  15.622  0.5949  0.5877 -0.4892
  728TMC3    O110822   3.647   2.318  15.173 -0.1144 -0.2224 -0.5731
  728TMC3    O210823   3.841   2.749  15.552 -0.4341  0.4831 -0.0419
  729MPD2     C10824   0.809   3.437  16.658 -0.1669  0.4140 -0.2441
  729MPD2    C110825   0.930   3.365  16.665  0.2039  0.0250 -0.0802
  729MPD2    C210826   0.976   3.313  16.787 -0.8109  0.2490  0.5742
  729MPD2    C310827   0.900   3.329  16.901  0.6128 -0.2038 -0.3634
  729MPD2    C410828   0.786   3.413  16.893 -0.3578 -0.3210  0.0417
  729MPD2    C510829   0.738   3.458  16.771  0.0675 -0.4639 -0.3011
  729MPD2     H10830   1.068   3.256  16.788 -1.2875 -0.5251 -0.6086
  729MPD2    H110831   0.732   3.434  16.985 -1.5833  1.1105 -1.0097
  729MPD2    H210832   0.765   3.484  16.570  2.1292  1.3087 -0.9124
  729MPD2    H310833   0.651   3.523  16.769  0.7067  0.4730  1.6024
  729MPD2     N10834   0.939   3.272  17.030  0.2497 -0.1951  0.0006
  729MPD2    H510835   0.879   3.294  17.109  0.3360  3.1901 -0.8425
  729MPD2    N110836   1.003   3.367  16.548 -0.6346  0.0748 -0.0405
  729MPD2    H710837   0.968   3.430  16.476 -0.1748  0.5363  0.1374
  730TMC3    C110838   1.067   3.166  17.191  0.0417  0.0307 -0.1013
  730TMC3    C210839   1.194   3.129  17.206  0.5698  0.2091  0.3436
  730TMC3    C310840   1.257   3.201  17.314  0.4107  0.5231  0.3229
  730TMC3    C410841   0.989   3.241  17.279  0.2985  0.1729 -0.0105
  730TMC3    C510842   1.056   3.305  17.384 -0.6081  0.1015  0.0842
  730TMC3    C610843   1.190   3.278  17.408  0.1323 -0.1119  0.3905
  730TMC3     C10844   1.034   3.176  17.053  0.1903  0.4793  0.5251
  730TMC3     O10845   1.109   3.123  16.971 -0.2328 -0.3169  0.6929
  730TMC3     H10846   1.257   3.090  17.127 -1.9923 -0.2925 -1.4487
  730TMC3    H110847   0.882   3.258  17.272  0.2098 -0.4883 -0.2349
  730TMC3    H210848   1.234   3.310  17.502 -0.3173 -0.5971  0.7628
  730TMC3    C710849   1.019   3.444  17.384 -0.0270  0.2806  0.2704
  730TMC3    C810850   1.371   3.278  17.256 -0.1347  0.3260  0.7903
  730TMC3    O110851   0.971   3.494  17.281 -0.0092  0.1001 -0.0764
  730TMC3    O210852   1.424   3.239  17.152 -0.1620  0.1497  0.7518
  731MPD2     C10853   1.090   1.050  12.505 -0.5031  0.1368 -0.0927
  731MPD2    C110854   1.097   0.912  12.490 -0.4094 -0.0495 -0.6434
  731MPD2    C210855   1.128   0.836  12.600 -0.2435 -0.6602 -0.3052
  731MPD2    C310856   1.130   0.893  12.727 -0.2207 -0.5512 -0.3647
  731MPD2    C410857   1.117   1.023  12.741 -0.6608  0.7118  0.0262
  731MPD2    C510858   1.093   1.103  12.632 -0.7854 -0.1435  0.1050
  731MPD2     H10859   1.160   0.733  12.588  0.4465 -0.6629  1.4042
  731MPD2    H110860   1.125   1.062  12.842  2.2445  2.2489 -0.8047
  731MPD2    H210861   1.065   1.111  12.419 -0.7236 -0.4432 -0.4351
  731MPD2    H310862   1.081   1.211  12.636  1.6692  0.1249  0.1067
  731MPD2     N10863   1.178   0.806  12.827  0.2116 -0.0468  0.7176
  731MPD2    H510864   1.186   0.709  12.797  2.2709  0.6142 -0.8860
  731MPD2    N110865   1.082   0.849  12.365  0.5886 -0.8720  0.3144
  731MPD2    H710866   1.090   0.913  12.287  1.2182 -0.1311  0.9926
  732TMC3    C110867   1.060   0.688  12.206  0.0930  0.2014 -0.0067
  732TMC3    C210868   0.957   0.613  12.161 -0.1439  0.0045 -0.7222
  732TMC3    C310869   0.952   0.582  12.027 -0.5969  0.3997  0.6526
  732TMC3    C410870   1.163   0.744  12.120  0.0667  0.1287  0.0097
  732TMC3    C510871   1.155   0.700  11.992  0.5400  0.2898 -0.8214
  732TMC3    C610872   1.050   0.629  11.943  0.7575  0.1299  0.2079
  732TMC3     C10873   1.083   0.711  12.345  0.2046 -0.4691 -0.0654
  732TMC3     O10874   1.056   0.620  12.424 -0.1849  0.2364  0.3485
  732TMC3     H10875   0.896   0.560  12.233  0.2343  0.9041  0.2545
  732TMC3    H110876   1.251   0.789  12.164 -0.5702  1.9748 -0.6058
  732TMC3    H210877   1.060   0.592  11.842 -0.1286  0.3533  0.0391
  732TMC3    C710878   1.274   0.699  11.900  0.5831  0.2794  0.3806
  732TMC3    C810879   0.885   0.462  11.970  0.3553 -0.4629 -0.2434
  732TMC3    O110880   1.248   0.723  11.781  0.2236  0.0349 -0.6120
  732TMC3    O210881   0.908   0.441  11.849  0.2710 -0.7485 -0.2730
  733TMC3    C110882   1.504   0.222  12.789  0.1361 -0.2612  0.8696
  733TMC3    C210883   1.538   0.263  12.659  0.4386  0.0886 -0.0544
  733TMC3    C310884   1.664   0.240  12.623  0.9939  0.5473  0.9042
  733TMC3    C410885   1.586   0.164  12.883 -0.1633 -1.1144 -0.0298
  733TMC3    C510886   1.714   0.157  12.837 -0.1354  0.7872 -0.1003
  733TMC3    C610887   1.759   0.196  12.716  0.1732 -0.2838 -0.4758
  733TMC3     C10888   1.366   0.233  12.825  0.1767  0.9751  0.5510
  733TMC3     O10889   1.290   0.311  12.762  0.0485  0.7768 -0.2662
  733TMC3     H10890   1.467   0.295  12.582 -0.1233 -0.0787  0.3929
  733TMC3    H110891   1.564   0.143  12.987 -1.3334  1.1180  0.1554
  733TMC3    H210892   1.864   0.186  12.692  0.1451  0.2998 -0.8535
  733TMC3    C710893   1.791   0.051  12.892 -0.5556  0.3240 -0.9557
  733TMC3    C810894   1.691   0.243  12.479 -0.1715  0.2880  0.3659
  733TMC3    O110895   1.784   0.041  13.013 -0.5383 -0.0048  0.2297
  733TMC3    O210896   1.603   0.295  12.408 -0.3304  0.4331 -0.0868
  734MPD2     C10897   4.698   1.510  12.224 -0.5632  0.1447 -1.3130
  734MPD2    C110898   4.584   1.575  12.180 -0.1729 -0.1148 -0.4743
  734MPD2    C210899   4.589   1.624  12.054 -0.2666 -0.6085 -0.2855
  734MPD2    C310900   4.702   1.616  11.972  0.1162 -0.0079  0.8261
  734MPD2    C410901   0.079   1.556  12.015 -0.5533  0.1714  0.2215
  734MPD2    C510902   0.071   1.504  12.141 -0.1148  0.5618 -0.3421
  734MPD2     H10903   4.501   1.672  12.013  0.9511  2.6235  0.8756
  734MPD2    H110904   0.172   1.551  11.959 -0.1125  1.0786  0.8753
  734MPD2    H210905   4.695   1.460  12.320  0.4736  0.0030 -1.3582
  734MPD2    H310906   0.168   1.477  12.180 -0.1459 -0.7728 -1.1785
  734MPD2     N10907   4.682   1.670  11.842  0.0338 -0.5815  0.2379
  734MPD2    H510908   4.588   1.702  11.820  1.7317  2.7354 -2.0305
  734MPD2    N110909   4.470   1.596  12.268  0.4065  0.0492  0.1942
  734MPD2    H710910   4.465   1.543  12.354  0.1712  1.6453  1.1612
  735TMC3    C110911   4.241   1.630  12.323  0.3873 -0.1155  0.1823
  735TMC3    C210912   4.127   1.609  12.248 -0.1778 -0.1439 -0.2205
  735TMC3    C310913   4.079   1.481  12.235  0.5291  0.7303 -0.3659
  735TMC3    C410914   4.278   1.537  12.412 -0.4228  0.0508 -0.1859
  735TMC3    C510915   4.236   1.412  12.394  0.0237  0.4421  0.5502
  735TMC3    C610916   4.140   1.382  12.307 -0.4472 -0.0183  0.3704
  735TMC3     C10917   4.350   1.659  12.232 -0.0754 -0.0844  0.0917
  735TMC3     O10918   4.316   1.702  12.123 -0.2799 -0.1565  0.0638
  735TMC3     H10919   4.086   1.687  12.185 -0.9403 -0.3396  0.0379
  735TMC3    H110920   4.353   1.563  12.487 -2.1226  0.2508  1.4630
  735TMC3    H210921   4.135   1.281  12.268  1.4853  1.2358 -3.1576
  735TMC3    C710922   4.344   1.323  12.412 -0.4949 -0.1642 -0.8578
  735TMC3    C810923   4.063   1.438  12.096  0.3923 -0.0143 -0.2564
  735TMC3    O110924   4.443   1.366  12.464 -0.4228  0.3188 -0.1531
  735TMC3    O210925   4.021   1.323  12.073 -0.4317  0.3595 -0.2777
  736MPD2     C10926   4.343   0.954  12.372 -0.4976 -0.0836 -0.3820
  736MPD2    C110927   4.401   1.075  12.396 -0.1394 -0.1181 -0.0833
  736MPD2    C210928   4.542   1.080  12.405 -0.4869 -0.1777 -0.3251
  736MPD2    C310929   4.617   0.962  12.393 -0.6905  0.5097 -0.3778
  736MPD2    C410930   4.551   0.839  12.382 -0.0335  0.1170  1.0636
  736MPD2    C510931   4.417   0.837  12.372 -0.0413 -0.6017 -0.0601
  736MPD2     H10932   4.600   1.169  12.427  0.0872 -1.0901  1.8095
  736MPD2    H110933   4.613   0.750  12.376 -1.3726 -0.9780  3.7246
  736MPD2    H210934   4.237   0.933  12.359 -0.3195 -1.2973  0.1231
  736MPD2    H310935   4.378   0.736  12.361  0.7865 -0.8333 -0.8302
  736MPD2     N10936   0.017   0.966  12.396 -0.3837 -0.4341 -0.3487
  736MPD2    H510937   0.065   0.877  12.411 -0.2844 -0.0186  1.7743
  736MPD2    N110938   4.314   1.189  12.398  0.1066  0.3795 -0.4987
  736MPD2    H710939   4.214   1.179  12.380  0.0221  1.3683 -0.5880
  737TMC3    C110940   0.238   1.066  12.416  0.2233  0.5298  0.0019
  737TMC3    C210941   0.316   1.169  12.373 -0.6332 -0.5324 -0.0942
  737TMC3    C310942   0.451   1.165  12.388 -0.6322 -0.3945 -0.0687
  737TMC3    C410943   0.296   0.953  12.472 -0.1936  0.0307 -0.3292
  737TMC3    C510944   0.432   0.946  12.469  0.1729  0.6900  0.3400
  737TMC3    C610945   0.510   1.053  12.439 -0.1542 -0.4815  0.0497
  737TMC3     C10946   0.094   1.078  12.381  0.4369  0.3268  0.9788
  737TMC3     O10947   0.061   1.184  12.324 -0.1534  0.2249  0.1299
  737TMC3     H10948   0.276   1.249  12.312 -0.4845  0.1155  0.6639
  737TMC3    H110949   0.234   0.871  12.506  0.7026  0.0506  1.3352
  737TMC3    H210950   0.612   1.059  12.473 -0.7418 -0.6686  1.8243
  737TMC3    C710951   0.464   0.835  12.374 -0.2891  0.3425  0.3747
  737TMC3    C810952   0.533   1.234  12.287  0.0211  0.0413 -0.3907
  737TMC3    O110953   0.380   0.750  12.349  0.2351 -1.0012  0.6278
  737TMC3    O210954   0.637   1.175  12.262 -0.0269 -0.1038 -0.2500
  738MPD2     C10955   0.207   0.737  15.248 -0.2676 -0.3163  0.1047
  738MPD2    C110956   0.186   0.639  15.155 -0.2111  0.8032  0.1135
  738MPD2    C210957   0.277   0.616  15.057  0.3185  0.1110  0.0485
  738MPD2    C310958   0.400   0.678  15.065  0.0347 -0.0034  0.8193
  738MPD2    C410959   0.422   0.768  15.159 -0.4297  0.0150 -0.6508
  738MPD2    C510960   0.330   0.800  15.253  0.5441 -0.0721  0.7515
  738MPD2     H10961   0.272   0.535  14.986 -3.0783  0.5707 -0.2591
  738MPD2    H110962   0.512   0.828  15.174  0.3555 -0.7905 -2.2140
  738MPD2    H210963   0.126   0.762  15.317 -0.1143 -2.6952  1.1523
  738MPD2    H310964   0.357   0.874  15.328  0.3915 -0.8163  1.5407
  738MPD2     N10965   0.502   0.668  14.968  0.2222  0.6493  0.0263
  738MPD2    H510966   0.593   0.696  15.003  0.4770 -1.4904  1.0587
  738MPD2    N110967   0.081   0.550  15.163  0.5148 -0.0734 -0.7558
  738MPD2    H710968   0.083   0.463  15.110 -0.3816 -0.4301 -0.2033
  739TMC3    C110969   0.635   0.584  14.804  0.0597  0.6634  0.2799
  739TMC3    C210970   0.654   0.583  14.667  0.0310 -0.2496 -0.2842
  739TMC3    C310971   0.775   0.607  14.614  0.5442  0.3300 -0.2627
  739TMC3    C410972   0.738   0.624  14.885 -0.4568  0.1056 -0.3112
  739TMC3    C510973   0.865   0.642  14.822  0.5209  0.4831  0.0287
  739TMC3    C610974   0.884   0.640  14.691  0.0150 -0.6591 -0.5426
  739TMC3     C10975   0.498   0.602  14.848 -0.1121 -0.8488  0.2621
  739TMC3     O10976   0.401   0.574  14.779 -0.7297 -0.1203 -0.0721
  739TMC3     H10977   0.564   0.576  14.607 -0.6001 -0.5189  0.6917
  739TMC3    H110978   0.724   0.603  14.991  0.8668  0.9800  0.0290
  739TMC3    H210979   0.977   0.656  14.637  0.2369 -0.3573 -0.0730
  739TMC3    C710980   0.979   0.676  14.910 -0.3007  0.0694 -0.3821
  739TMC3    C810981   0.777   0.621  14.467  0.2280 -0.0858 -0.1866
  739TMC3    O110982   0.954   0.662  15.027 -0.0361  0.4364  0.7236
  739TMC3    O210983   0.664   0.616  14.414  0.4671  0.3642  0.0356
  740TMC3    C110984   0.969   1.596  14.623 -0.1747  0.5242 -0.2512
  740TMC3    C210985   1.012   1.552  14.748 -0.1061 -0.3862 -0.3312
  740TMC3    C310986   1.139   1.489  14.752 -0.0455  0.0134 -0.2981
  740TMC3    C410987   1.050   1.583  14.515  0.4481 -0.7271 -0.3910
  740TMC3    C510988   1.178   1.535  14.526 -0.5018  0.0571  0.0318
  740TMC3    C610989   1.217   1.474  14.642  0.1531 -0.9517  0.4794
  740TMC3     C10990   0.847   1.677  14.607 -0.6466 -0.1232  0.0071
  740TMC3     O10991   0.835   1.749  14.506  0.1816  0.0205 -0.4270
  740TMC3     H10992   0.968   1.596  14.836  2.4474  0.8322  0.3381
  740TMC3    H110993   1.019   1.627  14.421 -0.1986 -0.8123 -0.2176
  740TMC3    H210994   1.313   1.424  14.651  1.0139  0.4231 -1.1833
  740TMC3    C710995   1.259   1.488  14.411 -0.2368 -0.3419  0.0749
  740TMC3    C810996   1.197   1.461  14.880 -0.4214 -0.2029  0.0246
  740TMC3    O110997   1.366   1.437  14.437 -0.8311 -0.7573  0.2862
  740TMC3    O210998   1.320   1.442  14.888 -0.2089 -0.1755  0.1605
  741TMC3    C110999   0.650   0.954  14.461 -0.5263  0.4708 -0.1772
  741TMC3    C211000   0.535   0.885  14.430  0.2131  0.6436  0.2333
  741TMC3    C311001   0.447   0.878  14.532 -0.5206  0.5159  0.0340
  741TMC3    C411002   0.694   0.991  14.584 -0.2612  0.9426  0.4177
  741TMC3    C511003   0.603   0.973  14.684 -0.4072 -0.0091 -0.4979
  741TMC3    C611004   0.476   0.925  14.655 -0.3411 -0.4685 -0.7191
  741TMC3     C11005   0.749   0.983  14.365 -0.1108  0.2296  0.6186
  741TMC3     O11006   0.861   0.978  14.404 -0.2694  0.0449 -0.1486
  741TMC3     H11007   0.519   0.848  14.330  3.0372 -2.7005  1.0384
  741TMC3    H111008   0.791   1.038  14.599  0.6797 -0.9011  0.1585
  741TMC3    H211009   0.403   0.892  14.729 -1.7329  1.9428 -1.0167
  741TMC3    C711010   0.638   1.001  14.824 -0.5565 -0.6157  0.7323
  741TMC3    C811011   0.332   0.792  14.517  0.2914 -0.0742  0.2060
  741TMC3    O111012   0.542   0.990  14.895  0.4083  0.0966 -0.4863
  741TMC3    O211013   0.241   0.795  14.599 -0.4538 -0.2751  0.6320
  742TMC3    C111014   0.033   4.570  15.226  0.3041  0.3173 -0.3626
  742TMC3    C211015   4.684   4.507  15.152 -0.3662  0.7427 -0.4765
  742TMC3    C311016   4.734   4.428  15.047 -0.3591  0.8208 -0.5379
  742TMC3    C411017   0.171   4.559  15.207  0.6139 -0.0614  0.0692
  742TMC3    C511018   0.215   4.498  15.091 -0.5475 -0.5314  0.5090
  742TMC3    C611019   0.132   4.422  15.013 -0.1736 -0.7446 -0.2309
  742TMC3     C11020   4.728   4.647  15.342  0.3352 -0.5593 -0.2289
  742TMC3     O11021   4.628   4.617  15.403  0.6391 -0.0799 -0.0666
  742TMC3     H11022   4.585   4.486  15.191 -1.5046  3.3396 -1.9160
  742TMC3    H111023   0.247   4.585  15.280  1.8397 -0.7420 -0.9667
  742TMC3    H211024   0.169   4.363  14.930  2.1294  3.0384 -1.8720
  742TMC3    C711025   0.359   4.481  15.067 -0.9712 -0.5508 -0.0326
  742TMC3    C811026   4.650   4.329  14.984  0.0230 -0.4733 -1.4650
  742TMC3    O111027   0.386   4.404  14.977  0.4359 -0.0691  0.2150
  742TMC3    O211028   4.714   4.227  14.955 -0.3431 -0.3414 -0.3146
  743MPD2     C11029   2.761   1.579   1.560  0.7386 -0.0851 -0.2123
  743MPD2    C111030   2.759   1.452   1.512 -0.8442 -0.2644 -0.2349
  743MPD2    C211031   2.855   1.358   1.535  0.2199 -0.1368 -0.0065
  743MPD2    C311032   2.964   1.396   1.612 -0.0558  0.6473 -0.0170
  743MPD2    C411033   2.968   1.523   1.667 -0.3439  0.1938  0.8778
  743MPD2    C511034   2.869   1.617   1.635  0.0156  0.9463  0.1324
  743MPD2     H11035   2.845   1.258   1.495 -1.9941 -0.0886  0.4214
  743MPD2    H111036   3.066   1.552   1.703  0.9845 -1.1838 -1.5964
  743MPD2    H211037   2.694   1.654   1.520 -0.4934 -2.0919 -1.9583
  743MPD2    H311038   2.877   1.720   1.666 -2.3812  1.3504 -0.5938
  743MPD2     N11039   3.068   1.299   1.626  0.2537  0.1811  0.7052
  743MPD2    H511040   3.055   1.212   1.576  0.0235  0.6644 -0.0784
  743MPD2    N111041   2.656   1.440   1.425  0.6837  0.2185 -0.4064
  743MPD2    H711042   2.590   1.517   1.421 -1.0248 -1.1817  1.1952
  744TMC3    C111043   2.517   1.347   1.248 -0.1573  0.1193 -0.6894
  744TMC3    C211044   2.411   1.423   1.282  0.4298 -0.8914  0.0753
  744TMC3    C311045   2.302   1.426   1.192  0.0863 -0.0396 -0.1647
  744TMC3    C411046   2.513   1.268   1.138  0.2605  0.0529 -0.4409
  744TMC3    C511047   2.400   1.263   1.062  0.0652 -0.0798 -0.0792
  744TMC3    C611048   2.290   1.344   1.085 -0.7135 -0.9643  0.1728
  744TMC3     C11049   2.640   1.346   1.330  0.4626 -0.0587  0.5421
  744TMC3     O11050   2.705   1.245   1.315 -0.2043  0.1621  0.7844
  744TMC3     H11051   2.410   1.482   1.373  0.9928 -0.1176 -0.4264
  744TMC3    H111052   2.604   1.216   1.109  1.1284  1.3974 -0.0966
  744TMC3    H211053   2.206   1.355   1.018 -1.6350 -0.6594  1.3741
  744TMC3    C711054   2.430   1.200   0.939 -0.0140 -0.0793  0.3757
  744TMC3    C811055   2.200   1.522   1.210 -0.1785 -0.0531 -0.1196
  744TMC3    O111056   2.500   1.101   0.943  0.0898 -0.2376  0.0890
  744TMC3    O211057   2.088   1.503   1.167 -0.5423 -0.4735 -0.5459
  745TMC3    C111058   0.526   3.963  14.219 -0.0759  0.8635 -0.0226
  745TMC3    C211059   0.575   3.905  14.338  0.6208 -0.0224 -0.1452
  745TMC3    C311060   0.651   3.791  14.336  0.1431 -0.6357 -0.7736
  745TMC3    C411061   0.571   3.917  14.104 -0.4216  0.5335  0.0510
  745TMC3    C511062   0.631   3.795  14.103  0.5712  0.0484 -0.7214
  745TMC3    C611063   0.682   3.729  14.216  0.3148 -0.4582  0.1578
  745TMC3     C11064   0.460   4.101  14.223  0.7858 -0.8982 -0.3071
  745TMC3     O11065   0.395   4.135  14.320 -0.8065  0.0366 -0.2644
  745TMC3     H11066   0.540   3.952  14.429 -1.0910  1.0791 -1.3777
  745TMC3    H111067   0.524   3.950  14.013  1.2725 -0.1218 -1.0548
  745TMC3    H211068   0.740   3.638  14.201 -0.7635 -1.2818  0.9455
  745TMC3    C711069   0.690   3.748  13.976  0.1037  0.1780  0.1400
  745TMC3    C811070   0.763   3.794  14.428  0.6405 -0.0141  0.6565
  745TMC3    O111071   0.713   3.627  13.964 -0.6831 -0.3784  0.4685
  745TMC3    O211072   0.821   3.686  14.443  0.2517  0.0992 -0.6482
  746TMC3    C111073   3.594   0.447  11.398 -0.5252 -0.4102  0.3551
  746TMC3    C211074   3.710   0.456  11.325 -0.8692  0.0977 -0.0291
  746TMC3    C311075   3.734   0.347  11.240 -0.2882 -0.2853 -0.3406
  746TMC3    C411076   3.508   0.342  11.404  0.0062  0.4832 -0.1242
  746TMC3    C511077   3.526   0.241  11.313 -0.6147  0.2702  0.1656
  746TMC3    C611078   3.640   0.241  11.236 -1.1386 -0.3913  0.1534
  746TMC3     C11079   3.532   0.567  11.445 -0.4093 -0.6895  0.3056
  746TMC3     O11080   3.463   0.561  11.549  0.1029 -0.0302  0.4751
  746TMC3     H11081   3.775   0.541  11.339  0.3010 -0.7001 -0.5316
  746TMC3    H111082   3.411   0.364  11.448  0.2240 -0.9210  1.0782
  746TMC3    H211083   3.657   0.160  11.166  0.2913 -1.0492  1.2815
  746TMC3    C711084   3.406   0.217  11.241  0.2547  0.9646  0.7111
  746TMC3    C811085   3.841   0.341  11.153 -0.5020 -0.9362  0.1291
  746TMC3    O111086   3.395   0.280  11.134 -0.0117 -0.0291 -0.0026
  746TMC3    O211087   3.872   0.230  11.115 -0.5102 -0.9611  0.0475
  747TMC3    C111088   1.204   1.084  11.622 -0.0979 -0.7257  0.8153
  747TMC3    C211089   1.107   0.984  11.656 -0.0698 -0.5862  1.0615
  747TMC3    C311090   1.041   1.005  11.777 -0.6128  0.1641  0.4560
  747TMC3    C411091   1.218   1.200  11.693 -0.4772  0.5150 -0.2063
  747TMC3    C511092   1.151   1.216  11.811 -0.2356 -0.0463 -0.1167
  747TMC3    C611093   1.060   1.121  11.846 -0.0882  0.2169 -0.0536
  747TMC3     C11094   1.316   1.055  11.537  0.3165  0.0471  0.1965
  747TMC3     O11095   1.413   1.119  11.555  0.1840  0.5907  0.1884
  747TMC3     H11096   1.103   0.890  11.602 -0.6399  0.8134 -1.2953
  747TMC3    H111097   1.292   1.277  11.671 -0.3288  0.0774 -1.2354
  747TMC3    H211098   1.000   1.137  11.935 -1.6012 -0.4056 -0.9623
  747TMC3    C711099   1.125   1.339  11.876  0.1803 -0.6673  0.1519
  747TMC3    C811100   0.922   0.918  11.805 -0.2600  0.0447  0.4158
  747TMC3    O111101   1.102   1.331  11.997 -0.5684 -0.1586 -0.1614
  747TMC3    O211102   0.889   0.841  11.718 -0.8065  0.6168  0.0118
  748MPD2     C11103   2.884   3.038   1.701 -0.3684 -0.1537  0.2341
  748MPD2    C111104   2.798   2.923   1.692  1.0977 -0.2008  0.3225
  748MPD2    C211105   2.798   2.843   1.582  0.5085  0.1647 -0.5608
  748MPD2    C311106   2.882   2.875   1.477  0.2549 -0.2041 -0.6842
  748MPD2    C411107   2.970   2.981   1.486  0.1819 -0.8137 -0.5788
  748MPD2    C511108   2.973   3.058   1.603 -0.9378 -0.4251 -0.0716
  748MPD2     H11109   2.737   2.753   1.578 -0.2977  0.5653  2.8372
  748MPD2    H111110   3.049   2.996   1.414  1.7109  1.2052  1.5451
  748MPD2    H211111   2.884   3.095   1.793 -0.6433 -0.6810  0.5640
  748MPD2    H311112   3.045   3.138   1.612 -3.0354  1.3872  0.4569
  748MPD2     N11113   2.901   2.774   1.375 -0.0119  0.0736  0.3309
  748MPD2    H511114   2.856   2.685   1.390  1.1534 -0.9620 -2.2860
  748MPD2    N111115   2.719   2.894   1.800 -0.5689  0.4002 -0.3261
  748MPD2    H711116   2.726   2.955   1.882 -1.4478  0.1281 -0.0441
  749TMC3    C111117   3.037   2.664   1.203  0.6830 -0.6781 -0.4345
  749TMC3    C211118   3.035   2.548   1.269  0.6862  0.6258  0.4619
  749TMC3    C311119   3.102   2.442   1.202  0.1153 -0.0190 -0.5482
  749TMC3    C411120   3.076   2.676   1.072  0.1360  0.0753 -0.0710
  749TMC3    C511121   3.127   2.569   1.001 -0.1135 -0.3123  0.4537
  749TMC3    C611122   3.149   2.451   1.069 -0.2190 -0.5727 -0.2470
  749TMC3     C11123   2.980   2.784   1.264 -0.4268 -0.5641 -0.3069
  749TMC3     O11124   3.019   2.890   1.215  0.1527  0.5876  0.3117
  749TMC3     H11125   3.009   2.537   1.374  0.0570 -0.7339  0.1554
  749TMC3    H111126   3.062   2.775   1.031  0.8025  0.1459 -0.1235
  749TMC3    H211127   3.183   2.367   1.010 -1.0626  0.4249 -2.1397
  749TMC3    C711128   3.112   2.578   0.850 -0.2359 -0.0718  0.2514
  749TMC3    C811129   3.196   2.377   1.290 -0.2561 -1.0040 -0.5150
  749TMC3    O111130   3.082   2.472   0.790 -0.2934  0.5620  0.1434
  749TMC3    O211131   3.194   2.415   1.408  0.2597 -0.3685  0.2144
  750MPD2     C11132   3.601   2.572  11.604  0.4919 -0.1081 -0.4818
  750MPD2    C111133   3.480   2.503  11.619 -0.0050 -0.1809 -0.0484
  750MPD2    C211134   3.435   2.425  11.512 -0.7508  0.5555 -0.3000
  750MPD2    C311135   3.503   2.416  11.393 -0.6769  0.1300  0.2548
  750MPD2    C411136   3.627   2.482  11.383  0.1278  0.0895  0.2767
  750MPD2    C511137   3.673   2.560  11.490  0.3883 -0.6799  0.4851
  750MPD2     H11138   3.336   2.383  11.525 -0.3992  0.1459  1.0432
  750MPD2    H111139   3.688   2.476  11.294  0.2929  0.4908  0.3629
  750MPD2    H211140   3.641   2.627  11.689  0.0330 -0.1253 -0.2523
  750MPD2    H311141   3.771   2.602  11.469 -1.3793  0.7997 -4.7599
  750MPD2     N11142   3.460   2.341  11.279 -0.0825 -0.2202  0.6002
  750MPD2    H511143   3.522   2.336  11.199 -0.6643 -2.6685  0.3010
  750MPD2    N111144   3.404   2.515  11.738 -0.3421  0.2391 -0.0885
  750MPD2    H711145   3.442   2.572  11.813 -0.3477  0.3789 -0.1905
  751TMC3    C111146   3.320   2.205  11.150 -0.5359  0.5435 -0.0917
  751TMC3    C211147   3.248   2.090  11.150 -0.0646 -0.2816 -0.8619
  751TMC3    C311148   3.229   2.023  11.033 -0.7736  0.1427  0.3705
  751TMC3    C411149   3.373   2.252  11.032  0.4669  0.4104 -0.3422
  751TMC3    C511150   3.360   2.175  10.917 -0.0722  0.4807  0.1745
  751TMC3    C611151   3.279   2.062  10.914  0.3077 -0.6221  0.3109
  751TMC3     C11152   3.357   2.258  11.280 -0.5756 -0.8469  0.8463
  751TMC3     O11153   3.279   2.226  11.369 -0.2310  0.0121 -0.0633
  751TMC3     H11154   3.224   2.049  11.247 -0.4654  1.9651 -0.0172
  751TMC3    H111155   3.443   2.334  11.041  0.5007  0.4642 -1.1698
  751TMC3    H211156   3.249   2.002  10.829 -0.0856  0.2856 -0.1850
  751TMC3    C711157   3.430   2.230  10.796 -1.1377  0.2146 -0.2664
  751TMC3    C811158   3.153   1.900  11.022 -0.9947  0.8844  0.1960
  751TMC3    O111159   3.487   2.336  10.803 -0.4810  0.1696 -0.2717
  751TMC3    O211160   3.186   1.820  10.935  0.2242  0.3739 -0.0257
  752TMC3    C111161   1.735   3.561  17.229  0.6366 -0.3343  0.8600
  752TMC3    C211162   1.740   3.426  17.241 -0.5458  0.4932 -0.5488
  752TMC3    C311163   1.725   3.369  17.365 -0.1445  0.2255 -0.4332
  752TMC3    C411164   1.690   3.634  17.336 -0.0732  0.3188 -0.2251
  752TMC3    C511165   1.656   3.570  17.453 -0.2314  0.1861  0.0963
  752TMC3    C611166   1.685   3.440  17.475 -1.0952 -1.4211 -0.3207
  752TMC3     C11167   1.755   3.630  17.103  0.2790 -0.9695 -0.0647
  752TMC3     O11168   1.799   3.744  17.115 -0.5203  0.1827 -0.4980
  752TMC3     H11169   1.797   3.377  17.162 -0.1253 -0.4585  0.3419
  752TMC3    H111170   1.665   3.739  17.318  0.1472  0.4866  0.4514
  752TMC3    H211171   1.678   3.392  17.572 -0.3324 -0.3052  0.2955
  752TMC3    C711172   1.589   3.647  17.554 -0.7643 -0.4421  0.1681
  752TMC3    C811173   1.785   3.235  17.378 -0.0114  0.0564 -0.7000
  752TMC3    O111174   1.547   3.757  17.518  0.4903 -0.2399 -0.2828
  752TMC3    O211175   1.845   3.187  17.283  0.2507 -0.2438 -0.5664
  753TMC3    C111176   4.332   4.026  13.490  0.5416 -0.7612 -0.3739
  753TMC3    C211177   4.246   4.024  13.598 -0.2343 -0.2528 -0.1595
  753TMC3    C311178   4.156   3.920  13.608  0.2714  0.6872 -0.1780
  753TMC3    C411179   4.335   3.931  13.391  0.0253 -0.3107  0.9490
  753TMC3    C511180   4.249   3.825  13.409  0.7317 -0.3288  0.0387
  753TMC3    C611181   4.156   3.821  13.513  0.2122  0.2805  0.4689
  753TMC3     C11182   4.410   4.148  13.481 -0.6476 -0.0190 -0.5328
  753TMC3     O11183   4.387   4.237  13.556 -0.0827  0.3304 -0.0007
  753TMC3     H11184   4.262   4.105  13.669 -1.3703 -0.3832  0.2324
  753TMC3    H111185   4.410   3.927  13.313 -0.6217 -0.4915  0.3381
  753TMC3    H211186   4.090   3.736  13.526 -0.6075  1.0054  1.0559
  753TMC3    C711187   4.290   3.709  13.339 -0.2204 -0.1424  0.4476
  753TMC3    C811188   4.063   3.916  13.719 -0.5184 -0.2795  0.2044
  753TMC3    O111189   4.390   3.711  13.268 -0.4185 -0.2941  0.2075
  753TMC3    O211190   3.975   3.838  13.704  0.2569  0.4638 -0.3190
  754MPD2     C11191   2.670   1.594  13.225  0.0124  0.7690 -0.8419
  754MPD2    C111192   2.674   1.721  13.176  0.4692  0.7625  0.0205
  754MPD2    C211193   2.600   1.759  13.067  0.0618  1.1399 -0.4918
  754MPD2    C311194   2.506   1.675  13.017  0.0598 -0.8088  0.2782
  754MPD2    C411195   2.493   1.545  13.070 -1.0742 -0.1904 -0.0887
  754MPD2    C511196   2.579   1.504  13.172 -0.2381 -0.2629 -0.4843
  754MPD2     H11197   2.609   1.862  13.033 -3.9351  1.1432 -1.4564
  754MPD2    H111198   2.411   1.480  13.039 -0.2148 -2.4623  2.4107
  754MPD2    H211199   2.730   1.570  13.312 -0.5749  0.2308 -0.5856
  754MPD2    H311200   2.565   1.405  13.214  0.5939 -0.9814 -1.9038
  754MPD2     N11201   2.396   1.711  12.931 -0.0210  0.2328 -0.3656
  754MPD2    H511202   2.331   1.637  12.908  1.7564 -1.4848  0.1443
  754MPD2    N111203   2.766   1.811  13.236 -0.4494  0.0266  0.0113
  754MPD2    H711204   2.826   1.777  13.311  0.1722  1.8117  0.3270
  755MPD2     C11205   2.152   2.325  13.483 -0.6083  0.0928 -0.5124
  755MPD2    C111206   2.061   2.367  13.385  0.9292  0.6699 -0.2048
  755MPD2    C211207   2.044   2.302  13.265 -0.2318 -0.0002  0.2274
  755MPD2    C311208   2.122   2.198  13.235 -0.2661 -0.8724 -0.1437
  755MPD2    C411209   2.212   2.153  13.332  0.3038 -0.2458 -0.7561
  755MPD2    C511210   2.218   2.205  13.459  0.0545 -0.4282 -0.7806
  755MPD2     H11211   1.979   2.342  13.187 -1.2842 -1.9695  0.1123
  755MPD2    H111212   2.271   2.064  13.312  1.1863  0.0924  0.3820
  755MPD2    H211213   2.156   2.371  13.582 -2.2430 -0.1675 -0.3292
  755MPD2    H311214   2.287   2.170  13.536 -1.1436  0.4108  0.6669
  755MPD2     N11215   2.115   2.116  13.121  0.1757 -0.2599 -0.4033
  755MPD2    H511216   2.178   2.036  13.126  1.0692  0.3336 -2.4190
  755MPD2    N111217   1.976   2.480  13.416  0.1734  0.1556 -0.5432
  755MPD2    H711218   1.897   2.495  13.354  0.6265 -1.1890 -1.4465
  756MPD2     C11219   3.522   3.396  10.090 -0.2351  0.5322 -0.2561
  756MPD2    C111220   3.420   3.333  10.160 -0.1978 -0.2756 -0.2191
  756MPD2    C211221   3.301   3.309  10.100 -0.5901 -0.0932  0.5954
  756MPD2    C311222   3.281   3.357   9.970 -0.0373  0.1220  0.1905
  756MPD2    C411223   3.379   3.434   9.909 -0.0814  0.0677 -0.3370
  756MPD2    C511224   3.498   3.449   9.966  0.1396 -0.0050 -0.5443
  756MPD2     H11225   3.228   3.242  10.145  0.6412 -0.9214  1.3570
  756MPD2    H111226   3.364   3.482   9.813  0.5059  0.1786 -0.3718
  756MPD2    H211227   3.617   3.426  10.133 -1.0087 -0.8525  2.4479
  756MPD2    H311228   3.584   3.501   9.924 -0.7393  2.1549  0.3476
  756MPD2     N11229   3.157   3.333   9.903 -0.7502  0.1250 -0.5612
  756MPD2    H511230   3.079   3.293   9.954 -0.1385 -0.8811 -0.4034
  756MPD2    N111231   3.434   3.294  10.293  0.1609  0.0578  0.2146
  756MPD2    H711232   3.360   3.245  10.343 -0.4177 -1.5810 -2.2081
  757MPD2     C11233   2.414   3.056  10.214 -0.5439  0.2858 -0.2456
  757MPD2    C111234   2.533   2.995  10.204  0.4385  0.3094  0.3935
  757MPD2    C211235   2.639   3.059  10.147 -0.4104 -0.4953  0.3530
  757MPD2    C311236   2.617   3.181  10.085 -0.3655  0.1212  0.2503
  757MPD2    C411237   2.494   3.243  10.108 -0.4713 -0.3008 -0.5934
  757MPD2    C511238   2.392   3.182  10.170 -0.2900 -0.2067 -0.5908
  757MPD2     H11239   2.736   3.012  10.133 -0.2015  0.4304 -1.2788
  757MPD2    H111240   2.473   3.344  10.075 -0.1244  0.8080  2.5694
  757MPD2    H211241   2.339   2.998  10.267 -1.9448  2.3580  0.0458
  757MPD2    H311242   2.296   3.230  10.187  0.2529  0.7255 -0.1757
  757MPD2     N11243   2.704   3.228   9.988 -0.3011  0.7362  0.7460
  757MPD2    H511244   2.798   3.190   9.998 -0.7246 -0.4392  0.3045
  757MPD2    N111245   2.530   2.859  10.245 -0.0097  0.4800  0.2066
  757MPD2    H711246   2.440   2.824  10.275 -0.2125  2.1523  1.5242
  758MPD2     C11247   2.221   2.521  15.748  0.0849  0.6499 -0.2153
  758MPD2    C111248   2.318   2.477  15.838  0.7287  0.4974 -0.0692
  758MPD2    C211249   2.340   2.532  15.962 -0.4356 -0.7632 -0.3295
  758MPD2    C311250   2.282   2.656  15.983 -0.2167  0.0812 -0.6956
  758MPD2    C411251   2.205   2.719  15.887  0.3722 -0.1433 -0.3382
  758MPD2    C511252   2.167   2.643  15.781  0.6207 -0.2606  0.2658
  758MPD2     H11253   2.404   2.481  16.033 -1.6692 -0.1565  1.2394
  758MPD2    H111254   2.163   2.818  15.902 -0.9870 -0.7814  0.0315
  758MPD2    H211255   2.185   2.472  15.659  1.5811 -1.1654  0.1725
  758MPD2    H311256   2.087   2.689  15.723 -1.1489 -1.2957  1.9066
  758MPD2     N11257   2.304   2.732  16.104  0.5657 -0.1770  0.3121
  758MPD2    H511258   2.271   2.828  16.104  0.1336 -0.3354 -1.5951
  758MPD2    N111259   2.396   2.363  15.811  0.0321  0.2067 -0.4529
  758MPD2    H711260   2.466   2.345  15.882 -0.7488  2.6226  0.9122
  759MPD2     C11261   2.771   0.178   9.961  0.6561  0.1587  0.4315
  759MPD2    C111262   2.653   0.162   9.888 -0.0844 -0.0433 -0.2475
  759MPD2    C211263   2.602   0.278   9.827  0.8333  0.2342  0.0497
  759MPD2    C311264   2.659   0.401   9.874  0.6518 -0.5071 -0.5119
  759MPD2    C411265   2.767   0.416   9.953 -0.0019  0.2378 -0.9836
  759MPD2    C511266   2.829   0.303   9.989  0.2669  0.2841  0.7675
  759MPD2     H11267   2.511   0.286   9.770 -0.3142  1.6610  2.0719
  759MPD2    H111268   2.815   0.512   9.966  1.2723 -0.2792 -1.7694
  759MPD2    H211269   2.822   0.086   9.986 -0.9416 -0.5118  1.2543
  759MPD2    H311270   2.926   0.311  10.037  0.6213  0.7198 -0.0408
  759MPD2     N11271   2.602   0.527   9.846  0.1846  0.8953 -0.2184
  759MPD2    H511272   2.628   0.604   9.907 -0.8423  1.2958 -0.2927
  759MPD2    N111273   2.601   0.039   9.844 -0.0410  0.2887 -0.1587
  759MPD2    H711274   2.523   0.048   9.780  0.7807  0.1461 -1.1926
  760MPD2     C11275   1.073   2.327  12.080  0.0665  0.5553 -0.1219
  760MPD2    C111276   1.190   2.340  12.012  0.1894  0.2773  0.2509
  760MPD2    C211277   1.260   2.232  11.950  0.9049 -0.5478 -0.5170
  760MPD2    C311278   1.198   2.110  11.968  0.4017  0.1599  0.0461
  760MPD2    C411279   1.080   2.095  12.035  0.1364 -0.1008 -0.2461
  760MPD2    C511280   1.025   2.203  12.090  0.4354  0.7439  0.2165
  760MPD2     H11281   1.353   2.246  11.896  0.0991 -0.2653 -1.8361
  760MPD2    H111282   1.035   1.996  12.040 -1.8270  0.8386  0.7439
  760MPD2    H211283   1.017   2.403  12.134  1.0696  1.9449 -1.0334
  760MPD2    H311284   0.937   2.185  12.151 -0.4263  0.5137 -1.1076
  760MPD2     N11285   1.247   1.994  11.908 -1.0740 -0.2015  0.9594
  760MPD2    H511286   1.189   1.911  11.907  1.1916 -1.7381 -1.2219
  760MPD2    N111287   1.261   2.460  12.010 -0.6306 -0.3787 -0.0869
  760MPD2    H711288   1.344   2.466  11.953  0.0321  1.2188  1.0497
  761MPD2     C11289   2.730   1.634  11.095  0.1979 -0.1609 -0.3826
  761MPD2    C111290   2.841   1.597  11.026 -0.0247  0.4790  0.0995
  761MPD2    C211291   2.944   1.691  11.025  0.4016  0.4510 -0.4328
  761MPD2    C311292   2.933   1.816  11.084  0.2358  0.1925 -0.4942
  761MPD2    C411293   2.823   1.849  11.153 -0.1776 -0.4246  0.3374
  761MPD2    C511294   2.726   1.757  11.158 -0.6104 -0.2037  0.3677
  761MPD2     H11295   3.038   1.663  10.978  1.2567  1.2087  0.8436
  761MPD2    H111296   2.803   1.936  11.214  2.2433  0.8226 -0.6689
  761MPD2    H211297   2.641   1.572  11.095 -0.5219  0.8676 -2.1351
  761MPD2    H311298   2.634   1.776  11.214 -0.2857  1.8626  0.1881
  761MPD2     N11299   3.038   1.907  11.093  0.1489 -0.4136 -0.9433
  761MPD2    H511300   3.027   1.988  11.153 -0.3836 -1.2273  0.0529
  761MPD2    N111301   2.850   1.469  10.964 -0.5840  0.1384  0.0262
  761MPD2    H711302   2.771   1.409  10.984 -0.2463 -0.0464  0.7998
  762MPD2     C11303   3.428   1.521  10.865 -0.3337  0.5174 -0.3855
  762MPD2    C111304   3.435   1.383  10.884 -0.0826  0.2393 -0.3596
  762MPD2    C211305   3.558   1.322  10.879  0.0865 -0.1548 -0.7871
  762MPD2    C311306   3.667   1.392  10.840  0.1599 -0.2907  0.1609
  762MPD2    C411307   3.659   1.523  10.815  0.1182  0.3534 -0.1441
  762MPD2    C511308   3.546   1.590  10.839 -0.1347 -0.8609  0.4462
  762MPD2     H11309   3.566   1.214  10.892 -0.2203 -0.0191  0.5544
  762MPD2    H111310   3.751   1.578  10.798  0.3368 -1.3836 -4.4390
  762MPD2    H211311   3.331   1.569  10.854 -0.5864  0.2287  0.5314
  762MPD2    H311312   3.545   1.694  10.810 -0.7288 -0.8556  0.4818
  762MPD2     N11313   3.780   1.315  10.818  0.0432 -0.2277 -0.6920
  762MPD2    H511314   3.775   1.219  10.852 -0.5561  1.0087  2.7708
  762MPD2    N111315   3.319   1.314  10.916 -0.2445  0.1525  0.5838
  762MPD2    H711316   3.235   1.366  10.892 -0.4471 -0.5236 -0.1942
  763MPD2     C11317   4.625   2.451  16.099  0.2265 -0.1168  0.5265
  763MPD2    C111318   4.550   2.569  16.079  0.9961 -0.3543  0.5418
  763MPD2    C211319   4.573   2.680  16.153  0.5109  0.9057  0.0197
  763MPD2    C311320   4.664   2.680  16.256  0.4194 -0.2420  0.2874
  763MPD2    C411321   4.731   2.561  16.286  0.8345 -0.5899 -0.2124
  763MPD2    C511322   4.713   2.451  16.202 -0.3134  0.1399 -0.1943
  763MPD2     H11323   4.507   2.765  16.133 -6.4817 -4.2865  0.9981
  763MPD2    H111324   0.043   2.544  16.380 -1.1152 -0.7960  0.8164
  763MPD2    H211325   4.616   2.357  16.045 -1.0130 -0.2333  0.9309
  763MPD2    H311326   0.018   2.354  16.222 -0.8514  0.0778  0.7223
  763MPD2     N11327   4.680   2.787  16.345 -0.8407  0.0365  0.4938
  763MPD2    H511328   0.018   2.772  16.408 -1.2386  2.7062  1.6031
  763MPD2    N111329   4.449   2.576  15.973  0.1289 -0.6272  0.3378
  763MPD2    H711330   4.396   2.661  15.959 -0.8758 -1.2091  0.5494
  764MPD2     C11331   2.606   4.243  17.460  0.0795  0.1203 -0.1739
  764MPD2    C111332   2.501   4.164  17.411  0.3660 -0.1854  0.1213
  764MPD2    C211333   2.459   4.057  17.489 -0.4211  0.6795  0.7841
  764MPD2    C311334   2.510   4.037  17.617 -0.3740  0.5514  0.3329
  764MPD2    C411335   2.613   4.114  17.663  0.7019  0.1554 -0.0799
  764MPD2    C511336   2.665   4.212  17.582  0.2818  0.5820  0.0391
  764MPD2     H11337   2.392   3.986  17.440  0.3836 -0.2728  1.0617
  764MPD2    H111338   2.652   4.109   0.010 -1.1852 -2.3537  0.5157
  764MPD2    H211339   2.629   4.334  17.406  4.8300 -1.2236 -0.3736
  764MPD2    H311340   2.747   4.274  17.616  0.7895 -0.7021  1.1239
  764MPD2     N11341   2.441   3.945  17.703  0.1171 -0.3542  0.4981
  764MPD2    H511342   2.366   3.889  17.662 -0.5716 -0.6312  2.1396
  764MPD2    N111343   2.422   4.194  17.300 -0.2301  0.7638  0.2810
  764MPD2    H711344   2.335   4.142  17.289 -0.1897  0.8975 -0.7334
  765MPD2     C11345   2.270   1.701  15.859  0.3460  0.1041 -0.1655
  765MPD2    C111346   2.257   1.795  15.753  0.1831 -0.6717 -0.2799
  765MPD2    C211347   2.348   1.787  15.640  0.8323  0.4787  0.5460
  765MPD2    C311348   2.439   1.680  15.634  0.2860  0.3951  0.0582
  765MPD2    C411349   2.439   1.585  15.738  0.3081 -0.0094 -0.1908
  765MPD2    C511350   2.354   1.595  15.844  0.6413  0.2385  0.1176
  765MPD2     H11351   2.356   1.866  15.566  2.0924  1.1849  1.4541
  765MPD2    H111352   2.518   1.510  15.740  0.9526  0.5965 -2.6778
  765MPD2    H211353   2.208   1.702  15.948  0.8438 -0.1723  0.1867
  765MPD2    H311354   2.352   1.516  15.919  1.1442 -0.8862 -1.0476
  765MPD2     N11355   2.530   1.682  15.524  0.3301  0.5555  0.0582
  765MPD2    H511356   2.539   1.764  15.466  2.2347  0.2758 -0.0535
  765MPD2    N111357   2.175   1.905  15.762  1.1913  0.1777  0.2413
  765MPD2    H711358   2.166   1.971  15.685 -0.0279 -0.2089  0.0428
  766MPD2     C11359   1.653   2.103  15.303 -0.2357  0.5953  0.1689
  766MPD2    C111360   1.786   2.073  15.341  0.0570  0.2783  0.5664
  766MPD2    C211361   1.881   2.052  15.246 -0.7030  0.0550  0.0317
  766MPD2    C311362   1.847   2.055  15.110 -0.2983  0.0568  0.6093
  766MPD2    C411363   1.724   2.100  15.081 -0.2079  0.4742  0.0634
  766MPD2    C511364   1.624   2.113  15.172 -0.0414 -0.3514  0.3371
  766MPD2     H11365   1.982   2.031  15.281  0.0111  2.2624 -0.7029
  766MPD2    H111366   1.696   2.110  14.976  1.1948  0.1320 -0.3447
  766MPD2    H211367   1.569   2.112  15.370  1.7300  0.3412  2.6349
  766MPD2    H311368   1.519   2.118  15.147  0.2034  2.5936 -0.0280
  766MPD2     N11369   1.937   2.034  15.005 -0.0730 -0.3294 -0.0814
  766MPD2    H511370   1.920   2.069  14.911 -0.2374  1.3615  0.5816
  766MPD2    N111371   1.820   2.064  15.477 -0.0911 -0.1756 -0.0597
  766MPD2    H711372   1.918   2.043  15.495 -0.5490 -2.6190 -0.3783
  767MPD2     C11373   1.570   2.170  14.759  0.8448 -0.3932 -0.5038
  767MPD2    C111374   1.703   2.200  14.750 -0.0667  0.5172  0.2995
  767MPD2    C211375   1.786   2.110  14.687 -0.4789 -0.0256 -0.3135
  767MPD2    C311376   1.739   1.985  14.648  0.3092 -0.2359  0.1553
  767MPD2    C411377   1.604   1.949  14.670  0.4494 -0.6012  0.2324
  767MPD2    C511378   1.520   2.047  14.722  0.0081 -0.1381 -0.0600
  767MPD2     H11379   1.887   2.141  14.664 -0.5535 -0.8629 -1.7263
  767MPD2    H111380   1.562   1.851  14.650  0.5978 -0.7735  0.7624
  767MPD2    H211381   1.494   2.240  14.794  2.3180  0.7584  0.3624
  767MPD2    H311382   1.414   2.032  14.732  0.0752 -0.2435  0.4926
  767MPD2     N11383   1.819   1.909  14.565 -0.5326  0.1651 -0.5210
  767MPD2    H511384   1.908   1.952  14.541 -0.8606  0.9926 -0.2496
  767MPD2    N111385   1.741   2.329  14.806  0.8311 -0.6155 -0.2556
  767MPD2    H711386   1.667   2.392  14.837  1.1568 -0.3703  0.0233
  768MPD2     C11387   3.300   0.014  10.692 -0.1738 -0.3218  0.4833
  768MPD2    C111388   3.194   4.697  10.767  0.2799 -0.0918  0.5427
  768MPD2    C211389   3.218   4.627  10.883  0.6519 -0.4716  0.4088
  768MPD2    C311390   3.344   4.607  10.928 -0.6898 -0.1551 -0.0653
  768MPD2    C411391   3.448   4.641  10.843 -0.4704  0.8655 -0.2092
  768MPD2    C511392   3.429   4.716  10.727 -0.2372 -0.4125 -0.1218
  768MPD2     H11393   3.137   4.586  10.942  1.1188  0.4929  1.7131
  768MPD2    H111394   3.547   4.606  10.869 -0.9262 -0.4499 -0.2331
  768MPD2    H211395   3.291   0.081  10.607  1.1620 -1.7271 -0.7384
  768MPD2    H311396   3.516   0.013  10.673 -1.4909  0.7029 -1.3774
  768MPD2     N11397   3.373   4.543  11.050 -0.0780 -0.2984 -0.6990
  768MPD2    H511398   3.468   4.555  11.086 -0.4302 -0.0829  0.1555
  768MPD2    N111399   3.057   4.713  10.735  0.2438  1.0130  0.2403
  768MPD2    H711400   2.994   4.669  10.801  1.6786 -2.3164 -0.6264
  769MPD2     C11401   3.719   3.274  15.183  0.1216 -0.7074  0.6866
  769MPD2    C111402   3.607   3.344  15.141 -0.2876 -0.2854  0.4925
  769MPD2    C211403   3.588   3.470  15.197  0.4576  0.2119  0.2496
  769MPD2    C311404   3.677   3.520  15.290  0.5210  0.3666  0.4057
  769MPD2    C411405   3.784   3.447  15.325  0.0850 -0.1531  0.5829
  769MPD2    C511406   3.806   3.321  15.272  0.1796 -0.0200 -0.3469
  769MPD2     H11407   3.500   3.532  15.184  0.4321 -0.4324 -2.5379
  769MPD2    H111408   3.860   3.481  15.394  1.7058 -3.6591  0.4932
  769MPD2    H211409   3.737   3.176  15.141 -0.2381 -0.2257 -0.6102
  769MPD2    H311410   3.897   3.269  15.300  1.0484  1.9252  0.4635
  769MPD2     N11411   3.659   3.651  15.341  0.8357 -0.1633 -0.1033
  769MPD2    H511412   3.573   3.702  15.325  1.1830  0.1363 -1.0074
  769MPD2    N111413   3.521   3.289  15.047 -0.2143 -0.2893  0.0630
  769MPD2    H711414   3.524   3.194  15.011  1.4198  0.2916 -1.3464
  770MPD2     C11415   3.256   2.423  14.707  0.1735 -0.1424 -0.0766
  770MPD2    C111416   3.149   2.488  14.657  0.3230 -0.2000 -0.3431
  770MPD2    C211417   3.143   2.624  14.659 -0.3799 -0.4719 -0.1206
  770MPD2    C311418   3.248   2.697  14.718 -0.1834 -0.2274  0.3816
  770MPD2    C411419   3.357   2.626  14.762 -0.5301  0.8883 -0.4140
  770MPD2    C511420   3.361   2.491  14.744  0.1169  0.3557 -0.1568
  770MPD2     H11421   3.058   2.682  14.624  0.3681  1.1192  0.7037
  770MPD2    H111422   3.449   2.670  14.798 -0.6784  0.6121  0.2962
  770MPD2    H211423   3.266   2.315  14.699  2.1362  0.1523 -1.6973
  770MPD2    H311424   3.452   2.443  14.779  0.1998  1.8669  1.7348
  770MPD2     N11425   3.252   2.842  14.724 -0.1843  0.1565 -0.1318
  770MPD2    H511426   3.167   2.889  14.696 -0.3438  0.1724  0.3681
  770MPD2    N111427   3.047   2.414  14.604  0.1139 -0.0258 -0.3572
  770MPD2    H711428   3.061   2.317  14.632  1.3768  0.3269  0.2296
  771MPD2     C11429   4.547   0.760  13.680  0.1058 -0.6850 -0.2777
  771MPD2    C111430   4.522   0.889  13.633 -0.5930  0.2115 -0.0594
  771MPD2    C211431   4.420   0.904  13.542 -1.3346 -1.0137  0.3628
  771MPD2    C311432   4.343   0.796  13.495  0.3566 -0.6422 -0.4541
  771MPD2    C411433   4.372   0.670  13.540  0.5112  0.0068 -0.4615
  771MPD2    C511434   4.464   0.656  13.642  0.0940 -0.0158 -0.2560
  771MPD2     H11435   4.400   1.000  13.497 -1.4838 -0.8609  0.7550
  771MPD2    H111436   4.313   0.582  13.514 -0.7801  1.1007 -1.2679
  771MPD2    H211437   4.629   0.742  13.749  0.9737  0.5576 -0.9888
  771MPD2    H311438   4.493   0.560  13.681 -1.9284 -0.0958  1.0343
  771MPD2     N11439   4.235   0.820  13.400 -0.3112  0.2094  0.4031
  771MPD2    H511440   4.208   0.914  13.374 -1.4776 -1.1588 -3.2333
  771MPD2    N111441   4.596   1.004  13.676  0.2446 -0.1859  0.3090
  771MPD2    H711442   4.568   1.098  13.648  1.7257  0.3873  0.7330
  772MPD2     C11443   4.525   1.677  13.831  0.5255 -0.2322  0.8048
  772MPD2    C111444   4.465   1.557  13.841 -0.5902  0.3252 -0.1103
  772MPD2    C211445   4.327   1.533  13.830 -0.4413 -0.3367 -0.3363
  772MPD2    C311446   4.252   1.652  13.828  0.4909  0.3692  0.3587
  772MPD2    C411447   4.314   1.770  13.793 -0.3415  0.2144 -0.2050
  772MPD2    C511448   4.449   1.776  13.792  0.0788  0.5901 -0.4525
  772MPD2     H11449   4.279   1.440  13.859  0.2625 -0.2138  1.1904
  772MPD2    H111450   4.268   1.865  13.769  0.1070  0.4583 -0.0968
  772MPD2    H211451   4.632   1.692  13.838  0.6939 -0.7003 -1.0372
  772MPD2    H311452   4.494   1.874  13.778  2.2730 -0.4288 -0.4605
  772MPD2     N11453   4.113   1.658  13.850 -0.1202  0.2379  0.7115
  772MPD2    H511454   4.066   1.748  13.857 -0.5427  0.0647  0.0954
  772MPD2    N111455   4.542   1.447  13.876  0.7301 -0.0510  0.2095
  772MPD2    H711456   4.492   1.360  13.868 -0.6989  0.9548 -1.9029
  773MPD2     C11457   3.309   2.910   0.179  0.8306 -0.4859 -0.1877
  773MPD2    C111458   3.294   2.808   0.086 -0.3690  0.6864 -0.1190
  773MPD2    C211459   3.343   2.682   0.124  0.2098  0.1903  0.8730
  773MPD2    C311460   3.433   2.666   0.229 -0.0003 -1.3151 -0.3563
  773MPD2    C411461   3.438   2.768   0.324  0.1157 -0.3868  0.5129
  773MPD2    C511462   3.379   2.889   0.297 -0.6203 -0.1224 -0.0826
  773MPD2     H11463   3.323   2.601   0.054  1.6184  2.1626 -1.8148
  773MPD2    H111464   3.505   2.774   0.409  0.1837  1.0497  0.3563
  773MPD2    H211465   3.265   3.006   0.155  1.8464  0.7464  2.9147
  773MPD2    H311466   3.385   2.970   0.368 -1.2689 -0.2081  0.0630
  773MPD2     N11467   3.518   2.552   0.235  0.2028 -0.4923 -0.1960
  773MPD2    H511468   3.511   2.479   0.164  0.6099 -2.4657  1.7959
  773MPD2    N111469   3.227   2.822  17.714 -0.2862  0.3859 -0.6506
  773MPD2    H711470   3.222   2.737  17.658 -0.1867 -0.2442  0.2842
  774MPD2     C11471   3.298   1.497  13.726  0.6329  0.7270  0.3419
  774MPD2    C111472   3.164   1.491  13.708  0.1294 -0.2172 -0.2349
  774MPD2    C211473   3.109   1.603  13.648  0.0980  0.7147 -0.2107
  774MPD2    C311474   3.182   1.709  13.604  0.9244  0.2088 -0.0891
  774MPD2    C411475   3.317   1.704  13.618  0.5871 -0.7119  0.3174
  774MPD2    C511476   3.373   1.599  13.680 -0.4434 -0.1057  0.9612
  774MPD2     H11477   3.004   1.601  13.621  0.0239 -2.8936  0.3889
  774MPD2    H111478   3.389   1.773  13.576  3.4964 -2.7816  1.8946
  774MPD2    H211479   3.350   1.424  13.787 -2.0778 -1.9921 -0.6180
  774MPD2    H311480   3.481   1.594  13.690 -0.5399 -0.7020  1.6683
  774MPD2     N11481   3.112   1.818  13.536  0.7498  0.1985 -0.5301
  774MPD2    H511482   3.011   1.818  13.539  0.7972 -3.2732  1.8801
  774MPD2    N111483   3.097   1.380  13.756  0.8605  0.2343 -0.6690
  774MPD2    H711484   3.157   1.299  13.767 -0.1952 -0.5210 -0.3990
  775MPD2     C11485   4.019   3.413  15.961  0.3221 -0.1076  0.7662
  775MPD2    C111486   3.927   3.514  15.924  0.2404  0.0580  0.0667
  775MPD2    C211487   3.971   3.618  15.841 -0.5995  0.0786 -0.0053
  775MPD2    C311488   4.102   3.631  15.808  0.2401 -0.2346  0.0616
  775MPD2    C411489   4.192   3.543  15.853 -0.2037 -1.3629  0.8186
  775MPD2    C511490   4.152   3.425  15.922  0.1462 -0.0465  0.0807
  775MPD2     H11491   3.909   3.699  15.803  1.7238  0.3536 -3.2219
  775MPD2    H111492   4.298   3.557  15.837 -0.8106 -0.8007 -2.7329
  775MPD2    H211493   3.987   3.327  16.019 -0.8146 -0.6108 -0.5919
  775MPD2    H311494   4.217   3.347  15.960  1.4416  1.8872  1.8238
  775MPD2     N11495   4.154   3.744  15.733 -0.1915 -0.2497  0.3619
  775MPD2    H511496   4.249   3.735  15.698  0.2811 -1.8977  2.0448
  775MPD2    N111497   3.794   3.502  15.970  0.3224 -0.0187 -0.3350
  775MPD2    H711498   3.784   3.435  16.046 -1.3442  1.2973  0.6135
  776MPD2     C11499   2.859   3.087  11.904  0.4935 -0.6596  0.1662
  776MPD2    C111500   2.988   3.044  11.935  0.1585  0.4380 -0.1269
  776MPD2    C211501   3.088   3.139  11.938 -1.0057  0.4967 -0.1518
  776MPD2    C311502   3.068   3.265  11.891 -0.5450  0.0301  0.7249
  776MPD2    C411503   2.940   3.316  11.872 -0.0581 -0.0023 -0.3756
  776MPD2    C511504   2.841   3.224  11.878  0.3168 -0.1079  0.2622
  776MPD2     H11505   3.191   3.119  11.966 -1.7774 -1.4156  1.3583
  776MPD2    H111506   2.923   3.418  11.840 -0.8015  0.5786  1.8790
  776MPD2    H211507   2.770   3.025  11.908 -0.7978  1.2083  0.6499
  776MPD2    H311508   2.740   3.265  11.871  0.0884 -0.8139 -0.5601
  776MPD2     N11509   3.178   3.350  11.868  0.3274  0.2339 -0.0709
  776MPD2    H511510   3.157   3.438  11.822  0.9214  0.9887  1.1060
  776MPD2    N111511   3.014   2.906  11.959 -0.1850  0.3288 -0.2111
  776MPD2    H711512   2.936   2.841  11.959 -0.7257  0.9809  0.4802
  777MPD2     C11513   3.573   1.009   0.834  0.3040 -0.6208  0.1379
  777MPD2    C111514   3.467   1.096   0.868 -0.2439  0.0376 -0.0050
  777MPD2    C211515   3.345   1.067   0.807  0.1888 -0.8235 -0.6463
  777MPD2    C311516   3.334   0.965   0.706 -0.1496  0.2225  0.7462
  777MPD2    C411517   3.451   0.886   0.671  0.1912  0.0652  0.2285
  777MPD2    C511518   3.567   0.915   0.738  0.3584  0.5936 -0.0355
  777MPD2     H11519   3.259   1.128   0.833  0.4141 -0.8060  0.0586
  777MPD2    H111520   3.446   0.816   0.588 -0.4916 -0.8652  1.0663
  777MPD2    H211521   3.672   1.034   0.871  0.1073 -0.6833  0.7194
  777MPD2    H311522   3.657   0.858   0.717  1.0646  1.7242 -0.0375
  777MPD2     N11523   3.202   0.954   0.640 -0.0775 -0.3411  0.5220
  777MPD2    H511524   3.128   1.020   0.660 -2.3953 -2.7555 -0.0600
  777MPD2    N111525   3.496   1.204   0.956 -0.0691 -0.4759  0.2413
  777MPD2    H711526   3.585   1.199   1.003  0.3622 -0.6223 -0.5824
  778MPD2     C11527   4.508   1.565  14.887 -0.3545  0.7237  0.4742
  778MPD2    C111528   4.520   1.425  14.876  0.4354  1.0755  0.1400
  778MPD2    C211529   4.642   1.381  14.819  0.1699  0.7185 -0.5601
  778MPD2    C311530   0.011   1.467  14.802  0.1109  0.4850 -0.1470
  778MPD2    C411531   0.004   1.602  14.832 -0.3446 -0.6881  0.2459
  778MPD2    C511532   4.618   1.644  14.869 -0.9249  0.2963  0.4907
  778MPD2     H11533   4.649   1.274  14.801  1.3447  1.0328 -1.9550
  778MPD2    H111534   0.082   1.672  14.804 -1.3009  1.3309  2.6265
  778MPD2    H211535   4.414   1.611  14.912 -1.1562 -1.2529  1.1058
  778MPD2    H311536   4.603   1.752  14.875 -1.0293  0.3885 -1.6999
  778MPD2     N11537   0.121   1.402  14.744  0.6601 -0.5980 -0.2693
  778MPD2    H511538   0.113   1.304  14.718 -0.2578 -0.0450 -2.0852
  778MPD2    N111539   4.420   1.327  14.895 -0.1719  0.5099 -0.0724
  778MPD2    H711540   4.435   1.231  14.864  0.2651  0.1299  1.3402
  779MPD2     C11541   3.906   0.064  14.447  0.3450 -0.0409 -0.0262
  779MPD2    C111542   4.046   0.055  14.425  0.0613  0.3807  0.3317
  779MPD2    C211543   4.114   0.172  14.401 -0.5328 -0.2931  0.1713
  779MPD2    C311544   4.050   0.300  14.402  0.3985 -0.2088 -0.1608
  779MPD2    C411545   3.915   0.311  14.418  0.7451 -0.0206 -0.0049
  779MPD2    C511546   3.844   0.190  14.448 -0.5205 -0.5148  0.0299
  779MPD2     H11547   4.220   0.166  14.380 -0.2576  1.2941  1.0749
  779MPD2    H111548   3.863   0.407  14.411 -0.7337 -0.7722  0.6530
  779MPD2    H211549   3.848   4.717  14.477 -1.3429  0.7895 -0.9084
  779MPD2    H311550   3.737   0.194  14.467 -0.7070  1.4298 -1.4650
  779MPD2     N11551   4.131   0.412  14.379 -0.3659 -0.7516  0.4133
  779MPD2    H511552   4.228   0.389  14.359 -0.8839 -2.1263 -0.5202
  779MPD2    N111553   4.122   4.678  14.450 -0.5468  0.1762 -0.0967
  779MPD2    H711554   4.221   4.698  14.452 -0.6456  0.5860  0.6394
  780MPD2     C11555   4.406   0.074   0.932 -0.3439 -0.4155 -0.2201
  780MPD2    C111556   4.304   0.155   0.938  0.6706  0.7793  0.2915
  780MPD2    C211557   4.273   0.225   0.821 -0.7245 -0.1377 -0.0575
  780MPD2    C311558   4.342   0.205   0.710  0.2876  0.2810  0.1457
  780MPD2    C411559   4.439   0.112   0.700  0.6343  0.4101  0.4267
  780MPD2    C511560   4.474   0.056   0.814  0.3370  0.1133  0.4577
  780MPD2     H11561   4.198   0.303   0.828 -0.1148  0.4428 -0.0035
  780MPD2    H111562   4.489   0.082   0.608 -0.0933  0.0968  0.1386
  780MPD2    H211563   4.441   0.029   1.024 -2.8472 -3.1269 -0.6089
  780MPD2    H311564   4.559   4.727   0.817 -1.2684 -1.9156 -0.1954
  780MPD2     N11565   4.296   0.283   0.605 -0.2980  0.8141 -0.1663
  780MPD2    H511566   4.215   0.343   0.616 -0.9514 -0.1023  0.0185
  780MPD2    N111567   4.221   0.157   1.056  0.8571  0.0343  0.0051
  780MPD2    H711568   4.231   0.083   1.126  4.6977  2.1457  1.6734
  781MPD2     C11569   0.271   1.238  12.718 -0.5963 -0.0431 -0.5557
  781MPD2    C111570   0.404   1.260  12.721  0.6578 -0.7368  0.2407
  781MPD2    C211571   0.465   1.366  12.657 -0.9135 -0.0987 -0.1508
  781MPD2    C311572   0.390   1.454  12.584  0.1970 -0.2454 -0.6971
  781MPD2    C411573   0.254   1.439  12.588 -0.2093 -0.1640  0.6542
  781MPD2    C511574   0.197   1.327  12.651  0.6677 -0.5597  0.2963
  781MPD2     H11575   0.573   1.376  12.665 -0.9696 -0.1500  0.6712
  781MPD2    H111576   0.190   1.515  12.544  1.8088 -0.1001 -2.1748
  781MPD2    H211577   0.216   1.156  12.762  0.4756 -1.5284 -2.0050
  781MPD2    H311578   0.090   1.308  12.649  0.4899  0.5226 -0.8829
  781MPD2     N11579   0.442   1.572  12.522 -0.1579 -0.2416 -0.4975
  781MPD2    H511580   0.371   1.630  12.479  0.1752 -0.6502 -1.5936
  781MPD2    N111581   0.492   1.177  12.792  0.3359  0.5624  0.6104
  781MPD2    H711582   0.590   1.200  12.781 -0.4170  3.3143 -0.2615
  782MPD2     C11583   3.509   2.951  10.381 -0.8327  0.4802 -0.5588
  782MPD2    C111584   3.645   2.941  10.352 -0.6858 -0.3317 -0.3057
  782MPD2    C211585   3.739   2.926  10.452 -0.0366  0.4307 -0.0297
  782MPD2    C311586   3.697   2.902  10.585 -0.5133  0.4564 -0.2339
  782MPD2    C411587   3.565   2.908  10.610 -0.4680  0.3670  0.1364
  782MPD2    C511588   3.469   2.940  10.515 -0.4623 -0.1067 -0.1332
  782MPD2     H11589   3.841   2.953  10.428  0.3760  0.2785  1.5470
  782MPD2    H111590   3.538   2.878  10.711 -1.8211 -1.0046 -0.6318
  782MPD2    H211591   3.430   2.957  10.307 -0.9183 -2.8056 -0.7324
  782MPD2    H311592   3.363   2.923  10.535 -0.5503  0.0109 -0.5141
  782MPD2     N11593   3.798   2.876  10.681 -0.2748 -0.3119 -0.5174
  782MPD2    H511594   3.893   2.885  10.647 -0.1117  1.0391  0.2809
  782MPD2    N111595   3.685   2.948  10.221  0.0672 -0.1288 -0.9338
  782MPD2    H711596   3.617   2.973  10.150 -1.2423 -4.0937 -1.0897
  783MPD2     C11597   3.444   2.087  10.457 -0.2115 -0.5014  0.2264
  783MPD2    C111598   3.479   2.171  10.561 -0.2866 -0.3416  0.5246
  783MPD2    C211599   3.561   2.277  10.529 -0.2715  0.1263 -0.7899
  783MPD2    C311600   3.597   2.311  10.400 -0.3161 -0.0247  0.4854
  783MPD2    C411601   3.578   2.215  10.306  0.6497  0.2943 -0.0003
  783MPD2    C511602   3.509   2.101  10.335  0.5004 -0.2213  1.0630
  783MPD2     H11603   3.587   2.350  10.605 -2.8999  1.5791 -1.3073
  783MPD2    H111604   3.599   2.234  10.202 -1.9706 -0.2390 -0.6242
  783MPD2    H211605   3.379   2.000  10.469 -1.0192  0.0327 -0.2396
  783MPD2    H311606   3.469   2.046  10.250 -0.1029  0.4683  0.8886
  783MPD2     N11607   3.669   2.436  10.373  0.1691  0.2666  0.3662
  783MPD2    H511608   3.714   2.477  10.454  0.9385  0.5471 -0.2060
  783MPD2    N111609   3.427   2.146  10.689  1.0073  0.2356 -0.1932
  783MPD2    H711610   3.365   2.068  10.706  0.2638  0.9304  0.3074
  784MPD2     C11611   0.975   3.390   1.258 -0.6262 -0.2776 -0.8679
  784MPD2    C111612   1.020   3.515   1.314 -0.7984  0.5104  0.0489
  784MPD2    C211613   0.981   3.627   1.247  0.4179 -0.2692 -0.0061
  784MPD2    C311614   0.900   3.623   1.131  0.3023 -0.3926 -0.2619
  784MPD2    C411615   0.861   3.502   1.084 -0.0641  0.0303 -0.2359
  784MPD2    C511616   0.895   3.386   1.151  0.2529 -0.6690  0.5366
  784MPD2     H11617   1.003   3.729   1.277 -1.2114  0.0969 -0.0208
  784MPD2    H111618   0.797   3.496   0.997 -1.0688  0.9653  0.4351
  784MPD2    H211619   1.000   3.290   1.294  2.4900  0.6941 -0.3228
  784MPD2    H311620   0.850   3.291   1.124  0.5176 -0.9952  1.2263
  784MPD2     N11621   0.842   3.746   1.091 -0.8937  0.4608 -0.3900
  784MPD2    H511622   0.857   3.832   1.142 -0.2836 -1.0446  2.0047
  784MPD2    N111623   1.121   3.524   1.413  0.2389 -0.4573  0.0577
  784MPD2    H711624   1.167   3.613   1.428 -2.7028  0.9602  0.6629
  785MPD2     C11625   1.667   0.891  10.066  0.3967  0.3921  0.5415
  785MPD2    C111626   1.633   0.898  10.202 -0.4526 -0.1572  0.6984
  785MPD2    C211627   1.492   0.896  10.232  0.5363  0.1290 -0.1311
  785MPD2    C311628   1.402   0.897  10.130  0.4613 -0.2357 -0.8655
  785MPD2    C411629   1.446   0.883   9.998  0.3152  0.2505  1.1943
  785MPD2    C511630   1.577   0.877   9.966  0.9247  0.3305 -0.4003
  785MPD2     H11631   1.456   0.905  10.334 -2.3668 -1.3986 -1.0287
  785MPD2    H111632   1.371   0.877   9.920  0.1121  0.1627  1.3984
  785MPD2    H211633   1.774   0.881  10.050 -0.1022 -0.3808 -2.1726
  785MPD2    H311634   1.623   0.855   9.871 -1.2217 -1.7754 -0.9422
  785MPD2     N11635   1.263   0.902  10.162  0.2894 -0.3323 -0.1400
  785MPD2    H511636   1.250   0.914  10.262 -0.4762  1.8202 -0.4849
  785MPD2    N111637   1.719   0.893  10.312  0.9878 -0.1205 -0.2822
  785MPD2    H711638   1.667   0.886  10.399 -1.0137  0.4014 -1.4340
  786MPD2     C11639   4.261   4.126  14.724  0.4925 -0.4315 -0.5075
  786MPD2    C111640   4.396   4.118  14.699 -0.6326  0.7093 -0.5767
  786MPD2    C211641   4.478   4.194  14.785  0.2023  0.0071  0.7336
  786MPD2    C311642   4.431   4.277  14.886  0.3221  0.8982 -0.0561
  786MPD2    C411643   4.301   4.294  14.893 -0.1193 -0.2451 -0.0569
  786MPD2    C511644   4.213   4.212  14.819  0.4973  1.3111 -0.1292
  786MPD2     H11645   4.585   4.197  14.767  0.5264  1.3838  2.8195
  786MPD2    H111646   4.265   4.362  14.969 -2.6644 -1.3749 -0.2436
  786MPD2    H211647   4.188   4.072  14.665 -0.0211 -0.3766  0.0831
  786MPD2    H311648   4.105   4.221  14.826  0.4020  0.1444 -0.0445
  786MPD2     N11649   4.517   4.358  14.969  0.2740  0.1243 -0.3169
  786MPD2    H511650   4.477   4.439  15.016 -0.7109  0.2561 -1.3889
  786MPD2    N111651   4.452   4.038  14.601 -0.1915  0.1969  0.2730
  786MPD2    H711652   4.552   4.047  14.590 -0.2520  2.1542  1.3172
  787MPD2     C11653   0.165   3.799  14.879 -0.1774 -0.2294  0.0310
  787MPD2    C111654   0.138   3.699  14.783 -0.2177  0.0347  0.6638
  787MPD2    C211655   0.205   3.577  14.804 -0.3491 -0.6444 -0.0946
  787MPD2    C311656   0.288   3.559  14.915  0.1749  0.5551 -0.1212
  787MPD2    C411657   0.308   3.657  15.007 -0.2462  0.0866  1.1044
  787MPD2    C511658   0.245   3.780  14.991  0.1418 -0.1094 -0.1252
  787MPD2     H11659   0.189   3.496  14.734  1.6817  0.6641 -2.0907
  787MPD2    H111660   0.369   3.645  15.095  3.1872  2.6710 -0.9100
  787MPD2    H211661   0.113   3.892  14.863  1.6584  0.4349 -2.0871
  787MPD2    H311662   0.253   3.847  15.075  1.5334  1.6466 -1.6709
  787MPD2     N11663   0.348   3.438  14.936  0.0218 -0.9011 -0.3623
  787MPD2    H511664   0.317   3.376  14.862 -0.2513 -0.9096 -0.2416
  787MPD2    N111665   0.048   3.718  14.678 -0.0136 -0.6276  0.1882
  787MPD2    H711666   0.019   3.815  14.667  1.1506 -0.1783  1.0647
  788MPD2     C11667   2.932   3.304   0.709  0.2185 -0.4074 -0.0737
  788MPD2    C111668   2.816   3.237   0.704 -0.5317  0.5387 -0.0186
  788MPD2    C211669   2.709   3.277   0.634 -0.4008  0.4494  0.4451
  788MPD2    C311670   2.717   3.389   0.556  0.0291  0.0352  0.4173
  788MPD2    C411671   2.834   3.462   0.563  0.1488 -0.2529 -0.6886
  788MPD2    C511672   2.939   3.418   0.639  0.2996  0.3318  0.2366
  788MPD2     H11673   2.628   3.205   0.627  0.3470 -0.2571 -1.0898
  788MPD2    H111674   2.849   3.555   0.510 -3.5460  1.1768  0.7965
  788MPD2    H211675   3.010   3.270   0.777 -0.0923 -1.8185 -0.4139
  788MPD2    H311676   3.017   3.485   0.676 -0.0453 -0.0984  1.7523
  788MPD2     N11677   2.613   3.431   0.476  0.4184 -0.3187 -0.3769
  788MPD2    H511678   2.624   3.504   0.407  3.4531 -1.3131 -0.9619
  788MPD2    N111679   2.797   3.120   0.787 -0.1594  0.4208  0.2007
  788MPD2    H711680   2.706   3.077   0.774  0.1041 -0.4133  1.1076
  789MPD2     C11681   2.005   2.228  17.077  0.3911  0.0010  0.7188
  789MPD2    C111682   2.011   2.293  16.955  0.2946  0.3454  0.2993
  789MPD2    C211683   1.959   2.425  16.953 -0.5379  0.5375  0.5412
  789MPD2    C311684   1.913   2.485  17.066 -0.7966  0.2106  0.4047
  789MPD2    C411685   1.909   2.422  17.188  0.7621 -0.0859 -0.3845
  789MPD2    C511686   1.958   2.295  17.186  0.1895  0.0033  0.3979
  789MPD2     H11687   1.962   2.480  16.859  0.6903  1.6021  1.2099
  789MPD2    H111688   1.877   2.465  17.282  0.6987  0.2847 -0.5763
  789MPD2    H211689   2.041   2.130  17.105  0.5326  0.6106  2.6811
  789MPD2    H311690   1.982   2.243  17.278 -1.8334  0.3757  1.1356
  789MPD2     N11691   1.847   2.607  17.066  0.0593 -0.3341 -0.1683
  789MPD2    H511692   1.787   2.629  17.145  2.0155  1.6744  0.7661
  789MPD2    N111693   2.045   2.234  16.831 -0.5719  0.0271 -0.1215
  789MPD2    H711694   2.055   2.292  16.749 -0.6881 -2.3551 -1.8172
  790MPD2     C11695   3.133   3.880  13.308  0.6073 -0.8000 -0.9683
  790MPD2    C111696   3.182   3.778  13.379 -0.0980  0.1403  0.1249
  790MPD2    C211697   3.161   3.647  13.347 -0.2645 -0.1892  0.2508
  790MPD2    C311698   3.078   3.615  13.237  0.0799  0.0156  0.6117
  790MPD2    C411699   3.033   3.717  13.157 -0.2456  0.2120  0.5788
  790MPD2    C511700   3.063   3.846  13.194  0.4544 -0.4238 -0.1300
  790MPD2     H11701   3.205   3.566  13.404  1.8830 -0.1853 -1.4442
  790MPD2    H111702   2.987   3.698  13.061  0.6275 -0.4305  0.2860
  790MPD2    H211703   3.151   3.982  13.338  0.7085 -0.8973 -0.6970
  790MPD2    H311704   3.028   3.922  13.126 -1.5877 -2.0179 -0.8841
  790MPD2     N11705   3.063   3.472  13.209 -0.3179  0.2261  0.1711
  790MPD2    H511706   3.107   3.410  13.276  1.4517 -0.0651 -1.2582
  790MPD2    N111707   3.232   3.809  13.512  0.3497  0.0644  0.0314
  790MPD2    H711708   3.234   3.905  13.543  0.5320  0.9150 -2.6189
  791MPD2     C11709   2.611   3.165  12.656  1.6322 -0.3031 -0.7451
  791MPD2    C111710   2.644   3.076  12.754  0.4247 -0.3218 -0.5546
  791MPD2    C211711   2.556   2.968  12.768  0.0762 -0.4240  0.0073
  791MPD2    C311712   2.432   2.961  12.710  0.5140  0.2079  0.1654
  791MPD2    C411713   2.403   3.053  12.612  0.6203 -0.1047 -0.1834
  791MPD2    C511714   2.488   3.157  12.589  0.2550 -0.2998 -0.6151
  791MPD2     H11715   2.580   2.887  12.836  1.6534  0.5578  0.6148
  791MPD2    H111716   2.306   3.048  12.563 -0.8943  0.4528  2.7353
  791MPD2    H211717   2.670   3.253  12.630 -0.3614  0.5055 -2.5237
  791MPD2    H311718   2.467   3.239  12.521  1.5589  0.7698  0.2912
  791MPD2     N11719   2.347   2.851  12.742 -0.1282  0.0114  0.0822
  791MPD2    H511720   2.380   2.792  12.818 -0.7271  0.7664  0.9336
  791MPD2    N111721   2.747   3.100  12.840  0.1420 -0.3954 -0.1273
  791MPD2    H711722   2.808   3.178  12.817  0.3267 -0.5393 -0.1314
  792MPD2     C11723   3.752   3.168  11.817 -0.2381 -0.0115  0.3448
  792MPD2    C111724   3.712   3.179  11.688  0.1710  0.1714 -0.6188
  792MPD2    C211725   3.575   3.152  11.656  0.2023  0.3800  0.4861
  792MPD2    C311726   3.491   3.103  11.750  0.1697  0.0429 -0.2519
  792MPD2    C411727   3.542   3.074  11.872 -0.9263  1.0480  0.2762
  792MPD2    C511728   3.658   3.129  11.910 -0.1153  0.2023  0.7084
  792MPD2     H11729   3.536   3.162  11.556 -1.2554  3.0666  1.3209
  792MPD2    H111730   3.478   3.035  11.951 -2.1087  1.6287 -0.4120
  792MPD2    H211731   3.848   3.203  11.853 -1.2587  1.2528  1.8069
  792MPD2    H311732   3.678   3.121  12.016 -0.1249  0.5396  0.7348
  792MPD2     N11733   3.354   3.071  11.738  0.4227 -0.3893 -0.0824
  792MPD2    H511734   3.314   3.020  11.816  0.5732  1.9250  1.5156
  792MPD2    N111735   3.795   3.249  11.599  0.3417  0.6129 -0.1531
  792MPD2    H711736   3.871   3.294  11.649  0.0040  1.0938 -0.0684
  793MPD2     C11737   2.971   3.297  10.890 -0.1548 -0.4180  0.4921
  793MPD2    C111738   3.098   3.260  10.950  0.0696 -0.7769 -0.1197
  793MPD2    C211739   3.099   3.208  11.076  0.0281  0.2879 -0.2897
  793MPD2    C311740   2.985   3.181  11.147  0.2357  0.2786  0.7972
  793MPD2    C411741   2.857   3.198  11.085  0.3787 -0.1761  0.5312
  793MPD2    C511742   2.856   3.268  10.961  0.6098  0.3473 -0.3789
  793MPD2     H11743   3.197   3.192  11.119  0.5753  2.2951 -0.7599
  793MPD2    H111744   2.761   3.171  11.127 -0.7512  2.5057 -0.3194
  793MPD2    H211745   2.958   3.354  10.799 -2.8194 -0.9433  0.5573
  793MPD2    H311746   2.758   3.288  10.920 -0.2348 -1.8579  0.5416
  793MPD2     N11747   2.998   3.141  11.279 -0.2986  0.8857  0.3337
  793MPD2    H511748   3.092   3.133  11.318  0.2710  1.3259 -0.9531
  793MPD2    N111749   3.220   3.284  10.885  0.0235 -0.9414  0.1293
  793MPD2    H711750   3.308   3.271  10.933  0.8379  0.7470 -0.9192
  794MPD2     C11751   2.723   3.381  17.232 -0.2589 -0.0188 -0.2926
  794MPD2    C111752   2.707   3.258  17.179 -0.6129 -0.0323 -0.8929
  794MPD2    C211753   2.617   3.225  17.080 -0.5482  0.6406 -0.4578
  794MPD2    C311754   2.538   3.334  17.039 -0.0711  0.0434 -0.1894
  794MPD2    C411755   2.551   3.458  17.097 -0.8409 -0.0449  0.4676
  794MPD2    C511756   2.642   3.479  17.193 -0.1824 -0.0876  0.9396
  794MPD2     H11757   2.626   3.130  17.029 -0.7608 -0.2431  1.1278
  794MPD2    H111758   2.492   3.541  17.058 -0.9062 -1.0234 -1.5079
  794MPD2    H211759   2.788   3.410  17.314  2.5924  0.7447 -2.8054
  794MPD2    H311760   2.651   3.578  17.237 -1.6591 -0.3100  1.7682
  794MPD2     N11761   2.448   3.332  16.935 -0.7632  0.2996 -0.5382
  794MPD2    H511762   2.401   3.417  16.905  4.4875  3.5881  0.5779
  794MPD2    N111763   2.788   3.151  17.232 -0.3741 -0.4524  0.0311
  794MPD2    H711764   2.781   3.061  17.185  2.0984 -0.0248 -1.1054
  795MPD2     C11765   0.772   0.438  13.312  0.2157  0.7057 -0.1869
  795MPD2    C111766   0.689   0.332  13.323  0.0149 -0.2982 -0.2402
  795MPD2    C211767   0.721   0.229  13.416  0.2511 -0.2937 -0.1399
  795MPD2    C311768   0.835   0.238  13.491  0.4194  0.6786  0.2713
  795MPD2    C411769   0.908   0.348  13.487 -0.0394 -0.2340  0.5210
  795MPD2    C511770   0.875   0.444  13.396  0.3656 -0.5601 -0.3901
  795MPD2     H11771   0.667   0.137  13.397  3.6182 -2.1944 -0.4929
  795MPD2    H111772   0.986   0.368  13.560  0.4635 -1.6425  0.3659
  795MPD2    H211773   0.742   0.525  13.256 -1.2444 -2.2037 -3.8952
  795MPD2    H311774   0.922   0.541  13.408  1.6183 -1.1283 -0.6986
  795MPD2     N11775   0.870   0.131  13.575  0.1108  0.3814  0.3001
  795MPD2    H511776   0.813   0.047  13.581 -0.0348  0.5460  1.1205
  795MPD2    N111777   0.580   0.337  13.239 -0.3933 -0.1262 -0.1790
  795MPD2    H711778   0.557   0.421  13.186  0.3576 -0.6874 -1.3855
  796MPD2     C11779   0.176   2.102  16.070 -0.3862 -0.4129 -0.1141
  796MPD2    C111780   0.253   2.207  16.117 -0.2854 -0.5589  0.2036
  796MPD2    C211781   0.247   2.326  16.051 -0.1087  0.3974 -0.3596
  796MPD2    C311782   0.158   2.343  15.950 -0.8710 -0.3621 -0.2100
  796MPD2    C411783   0.076   2.236  15.912 -0.6726  0.6781  0.3204
  796MPD2    C511784   0.088   2.113  15.970  0.7896 -0.6970 -0.3709
  796MPD2     H11785   0.305   2.414  16.076  2.6724 -1.4852 -0.2093
  796MPD2    H111786   0.008   2.247  15.828 -2.2010 -0.1365  1.4810
  796MPD2    H211787   0.186   2.006  16.120  0.4445  1.0512  2.5561
  796MPD2    H311788   0.048   2.023  15.924  1.8133 -1.4549  0.2114
  796MPD2     N11789   0.150   2.467  15.889 -0.5342 -0.6393 -0.1809
  796MPD2    H511790   0.208   2.541  15.927 -0.4049 -0.1390 -1.3682
  796MPD2    N111791   0.341   2.176  16.222  0.4010 -0.1845 -0.6696
  796MPD2    H711792   0.346   2.079  16.253 -0.7715  0.1109  0.4228
  797MPD2     C11793   1.341   1.828  17.458  0.1566 -0.3096 -0.4583
  797MPD2    C111794   1.417   1.938  17.491 -0.1643  0.5037  0.4776
  797MPD2    C211795   1.381   2.061  17.433 -0.6488  0.4448 -0.6049
  797MPD2    C311796   1.261   2.075  17.359 -0.0949 -0.2734 -0.4216
  797MPD2    C411797   1.191   1.962  17.322  0.3492 -0.0011 -0.2092
  797MPD2    C511798   1.235   1.845  17.363  0.2557  0.3158  0.2458
  797MPD2     H11799   1.444   2.147  17.450 -0.2672  0.3208 -1.4241
  797MPD2    H111800   1.102   1.974  17.261  1.4694  0.4076 -1.7717
  797MPD2    H211801   1.358   1.728  17.495  0.8715  0.0646  0.2318
  797MPD2    H311802   1.182   1.755  17.335  1.0440  0.1164 -0.6082
  797MPD2     N11803   1.218   2.200  17.309  0.3013 -0.4042 -0.1242
  797MPD2    H511804   1.139   2.198  17.245 -0.9951  1.1934  1.4350
  797MPD2    N111805   1.534   1.929  17.579  0.3037  0.3908 -0.2763
  797MPD2    H711806   1.601   2.004  17.580 -1.8233  2.3031 -0.2725
  798MPD2     C11807   1.777   2.508  17.513 -0.9216 -0.0122 -0.0231
  798MPD2    C111808   1.650   2.454  17.532  0.0171 -0.1306 -0.9938
  798MPD2    C211809   1.630   2.371  17.639 -0.3250  0.6674  0.2830
  798MPD2    C311810   1.735   2.342  17.724 -0.5620  0.0970 -0.1111
  798MPD2    C411811   1.860   2.388  17.696 -0.1272  1.0182 -0.0117
  798MPD2    C511812   1.877   2.477  17.596  0.5455  0.3285  0.4096
  798MPD2     H11813   1.531   2.329  17.656  0.4130 -0.1593  2.5598
  798MPD2    H111814   1.941   2.365   0.010  0.2456  0.0360 -0.8003
  798MPD2    H211815   1.795   2.579  17.433 -0.2375 -0.7801 -0.5483
  798MPD2    H311816   1.980   2.503  17.576  0.5678 -1.2231 -1.5890
  798MPD2     N11817   1.712   2.243   0.068 -0.1237 -0.4690  0.2501
  798MPD2    H511818   1.617   2.208   0.070  0.4705 -1.9741  1.5837
  798MPD2    N111819   1.543   2.470  17.438 -0.0857  0.0401 -0.2356
  798MPD2    H711820   1.455   2.426  17.464  1.3824 -2.0853  1.1656
  799MPD2     C11821   0.276   2.946  15.005 -0.0463 -0.2890 -0.2969
  799MPD2    C111822   0.258   2.844  14.910 -0.4741 -0.7009  0.8302
  799MPD2    C211823   0.188   2.874  14.787 -0.1986 -0.3971 -0.2341
  799MPD2    C311824   0.132   2.996  14.768 -0.5231 -0.2326  1.1931
  799MPD2    C411825   0.158   3.095  14.857 -0.0364  0.5914  0.4803
  799MPD2    C511826   0.227   3.068  14.978  0.0534 -0.1032  0.7269
  799MPD2     H11827   0.183   2.792  14.717  1.2427  2.1612 -3.3058
  799MPD2    H111828   0.127   3.198  14.839 -1.2089  0.6009  2.5225
  799MPD2    H211829   0.311   2.930  15.106  0.2829  0.4369 -0.2986
  799MPD2    H311830   0.232   3.139  15.059  1.1773  0.4815  0.1439
  799MPD2     N11831   0.050   3.035  14.655 -0.0192 -0.4576  0.0932
  799MPD2    H511832   0.025   3.133  14.642  2.0733  0.0185 -0.3025
  799MPD2    N111833   0.298   2.711  14.934 -0.2103 -0.1497  0.2263
  799MPD2    H711834   0.274   2.637  14.869  0.3524 -1.2045  1.2275
  800MPD2     C11835   1.151   4.043  14.630  0.8051  0.6891 -0.2646
  800MPD2    C111836   1.039   4.120  14.645  0.3089  0.8390 -0.8477
  800MPD2    C211837   0.923   4.088  14.571 -0.0874 -0.0467 -0.1720
  800MPD2    C311838   0.916   3.967  14.502 -0.1584 -0.3823 -0.1994
  800MPD2    C411839   1.028   3.879  14.507  0.2171 -0.4427  0.0710
  800MPD2    C511840   1.143   3.924  14.560 -0.4722  0.1880 -0.4871
  800MPD2     H11841   0.832   4.147  14.571  1.0697  1.7214 -0.0860
  800MPD2    H111842   1.027   3.780  14.463  1.7990  0.2370 -1.4965
  800MPD2    H211843   1.251   4.061  14.669  0.6098  1.4973 -0.1336
  800MPD2    H311844   1.239   3.874  14.553 -0.1875  0.3046  2.5444
  800MPD2     N11845   0.785   3.921  14.466 -0.6599 -0.2969  0.1777
  800MPD2    H511846   0.717   3.996  14.459 -0.8920 -0.4756  0.5106
  800MPD2    N111847   1.054   4.232  14.729 -0.0737  0.4327 -0.0669
  800MPD2    H711848   1.147   4.238  14.771  1.2974  0.2322 -3.1120
  801MPD2     C11849   0.590   0.181  14.969 -0.1364 -0.1220 -0.2123
  801MPD2    C111850   0.596   0.082  14.877  0.4998 -0.4419  0.1025
  801MPD2    C211851   0.497   0.079  14.782 -0.0292 -0.2763 -0.9596
  801MPD2    C311852   0.401   0.179  14.764  0.1909 -0.6341 -0.3666
  801MPD2    C411853   0.405   0.282  14.855 -0.4370  0.0308  0.6126
  801MPD2    C511854   0.501   0.279  14.959  0.3773 -0.5311 -0.2532
  801MPD2     H11855   0.507   0.009  14.700  1.5806 -3.3097  1.8399
  801MPD2    H111856   0.347   0.373  14.847 -0.0260  0.4609  2.4147
  801MPD2    H211857   0.655   0.191  15.056 -0.7732  0.4710  0.2005
  801MPD2    H311858   0.499   0.353  15.038 -0.2900  1.7540 -2.4223
  801MPD2     N11859   0.298   0.169  14.660 -0.3194  0.1169 -0.5167
  801MPD2    H511860   0.307   0.095  14.592 -0.8905 -1.0119  0.6314
  801MPD2    N111861   0.696   4.723  14.873 -0.2546  0.1116 -0.8233
  801MPD2    H711862   0.689   4.644  14.810  1.3461 -1.2832  0.7555
  802MPD2     C11863   0.429   1.163   0.741  0.2471  0.1408  0.4485
  802MPD2    C111864   0.328   1.166   0.650  0.5639 -0.0512 -0.6216
  802MPD2    C211865   0.345   1.114   0.525  0.5769 -0.6293 -0.4227
  802MPD2    C311866   0.465   1.060   0.490 -0.2450 -0.4992  0.1434
  802MPD2    C411867   0.566   1.049   0.587  0.6076 -0.3812  0.6234
  802MPD2    C511868   0.540   1.102   0.709 -0.2776 -0.5294  0.6927
  802MPD2     H11869   0.259   1.109   0.459  1.8880 -3.9791 -1.8540
  802MPD2    H111870   0.661   1.006   0.557  0.2054 -1.3288  0.7193
  802MPD2    H211871   0.419   1.190   0.845 -0.1328  2.9698 -0.3221
  802MPD2    H311872   0.616   1.105   0.786  1.0439  2.0869 -0.7187
  802MPD2     N11873   0.482   1.011   0.360  0.0317 -0.6426  0.2825
  802MPD2    H511874   0.426   1.058   0.289  2.4402 -0.6924 -1.6561
  802MPD2    N111875   0.197   1.217   0.685  0.2972  0.2391 -0.2470
  802MPD2    H711876   0.128   1.191   0.615  0.4185 -2.6869  0.7502
  803MPD2     C11877   1.073   3.326  12.086  0.3663 -0.7871  0.4684
  803MPD2    C111878   1.182   3.256  12.112  0.4340 -0.4837  0.0476
  803MPD2    C211879   1.172   3.156  12.210 -0.6954  0.2228  0.2951
  803MPD2    C311880   1.060   3.122  12.281 -0.0145  0.2850 -1.1004
  803MPD2    C411881   0.950   3.195  12.247  0.5806 -0.2129 -0.1324
  803MPD2    C511882   0.958   3.296  12.155  0.1269  0.2684 -0.5095
  803MPD2     H11883   1.255   3.087  12.214  0.7299  1.8062 -2.2987
  803MPD2    H111884   0.854   3.170  12.290 -0.3901  1.2926 -1.4406
  803MPD2    H211885   1.054   3.405  12.014 -0.3210 -1.3063  0.0762
  803MPD2    H311886   0.883   3.372  12.136  0.7017  1.4020  1.7764
  803MPD2     N11887   1.044   3.016  12.377 -0.0887 -0.6143  0.1491
  803MPD2    H511888   0.955   3.011  12.424 -0.8676  1.1707 -1.1653
  803MPD2    N111889   1.304   3.277  12.035 -0.8696 -0.5983 -0.5235
  803MPD2    H711890   1.383   3.220  12.064 -1.3091  0.0294  1.9528
  804MPD2     C11891   0.797   0.602  17.037  0.1450 -0.6511  0.1893
  804MPD2    C111892   0.762   0.616  17.161  0.2102 -0.1798 -0.4999
  804MPD2    C211893   0.837   0.686  17.245 -0.0456 -0.2456 -0.4241
  804MPD2    C311894   0.958   0.740  17.201  0.6465  0.4717  0.6481
  804MPD2    C411895   1.000   0.711  17.073 -0.1750  0.1117 -0.3697
  804MPD2    C511896   0.916   0.643  16.991 -0.7813 -0.5655 -0.3972
  804MPD2     H11897   0.817   0.693  17.351 -1.3563  0.9692 -0.7552
  804MPD2    H111898   1.094   0.749  17.035 -0.2020  0.4547 -0.0939
  804MPD2    H211899   0.736   0.545  16.967  0.3613 -0.4341 -0.1808
  804MPD2    H311900   0.954   0.628  16.890  2.1301  1.6535  0.3794
  804MPD2     N11901   1.031   0.806  17.303  0.6470 -0.6752 -0.0605
  804MPD2    H511902   1.000   0.812  17.399 -1.7999 -3.4068 -0.6789
  804MPD2    N111903   0.647   0.550  17.218  0.8805 -0.4314 -0.4481
  804MPD2    H711904   0.643   0.559  17.319  0.5079 -1.0723 -0.4054
  805MPD2     C11905   4.605   3.780  15.776 -0.3108  0.1158  0.2868
  805MPD2    C111906   4.698   3.711  15.698 -0.4467 -0.1827 -0.0931
  805MPD2    C211907   0.098   3.721  15.728 -0.3076  0.5371 -0.4523
  805MPD2    C311908   0.139   3.798  15.831  0.6962  0.1742 -0.3380
  805MPD2    C411909   0.044   3.874  15.897  0.2720 -0.0785 -0.5321
  805MPD2    C511910   4.656   3.862  15.872 -0.0664 -0.1286 -0.3147
  805MPD2     H11911   0.168   3.655  15.679 -0.5722 -0.8325  1.0195
  805MPD2    H111912   0.058   3.943  15.980 -3.8114 -0.7515  0.6977
  805MPD2    H211913   4.498   3.777  15.766 -0.1597 -0.8894 -0.9737
  805MPD2    H311914   4.585   3.913  15.936  1.5061  0.6051  0.8337
  805MPD2     N11915   0.274   3.802  15.862  0.2893 -0.1784 -0.2924
  805MPD2    H511916   0.331   3.727  15.823  1.0612  0.0490  0.4204
  805MPD2    N111917   4.645   3.621  15.597  0.2752  0.6632  0.4261
  805MPD2    H711918   4.716   3.564  15.553  0.5975  0.2117  1.5241
  806MPD2     C11919   0.833   1.821   1.406  1.0124  0.2778  0.4382
  806MPD2    C111920   0.915   1.793   1.289  0.2806  0.1719 -0.0102
  806MPD2    C211921   0.885   1.852   1.163  0.4026 -0.4598  0.2557
  806MPD2    C311922   0.803   1.959   1.161  0.4387  0.3205  0.3020
  806MPD2    C411923   0.740   1.991   1.276 -0.1063 -0.2335  0.7278
  806MPD2    C511924   0.743   1.924   1.388 -0.4726 -0.9241 -0.8808
  806MPD2     H11925   0.932   1.819   1.071 -2.4091 -1.7399 -0.7140
  806MPD2    H111926   0.672   2.075   1.286 -0.4078 -0.3849 -0.0523
  806MPD2    H211927   0.856   1.770   1.499  0.8943  0.7186  0.7077
  806MPD2    H311928   0.677   1.963   1.464 -0.1889  0.1976 -1.2153
  806MPD2     N11929   0.774   2.031   1.043 -0.7311 -0.0070 -0.2877
  806MPD2    H511930   0.833   2.008   0.963 -1.2554  1.7283 -1.1919
  806MPD2    N111931   1.023   1.707   1.300  0.1370  0.7564  0.5281
  806MPD2    H711932   1.031   1.657   1.388 -0.0449 -0.2035  0.0026
  807MPD2     C11933   1.360   1.274   1.810 -0.3198 -0.5694  0.1005
  807MPD2    C111934   1.266   1.363   1.763  0.6126  0.4680 -0.1544
  807MPD2    C211935   1.156   1.387   1.849 -0.3425  0.5581  0.0683
  807MPD2    C311936   1.135   1.304   1.963  0.2660 -0.4453 -0.6947
  807MPD2    C411937   1.225   1.206   1.990 -0.5203  0.0584  0.4649
  807MPD2    C511938   1.340   1.198   1.919  0.1345  0.3341 -0.8248
  807MPD2     H11939   1.078   1.458   1.826  0.0576  0.8101 -0.5018
  807MPD2    H111940   1.225   1.135   2.071 -0.6327  0.3517  0.7243
  807MPD2    H211941   1.458   1.252   1.770 -0.3465 -3.2055  1.4659
  807MPD2    H311942   1.420   1.132   1.951  0.0147 -0.7645 -2.8629
  807MPD2     N11943   1.015   1.307   2.034  0.1422  0.0323 -0.2397
  807MPD2    H511944   0.945   1.376   2.011  1.6368  1.4495 -0.5478
  807MPD2    N111945   1.269   1.424   1.633  0.3963  0.1076  0.3621
  807MPD2    H711946   1.188   1.480   1.609  0.2517 -0.1822  0.1739
  808MPD2     C11947   2.042   3.308   9.910 -0.4320 -0.4084 -0.3016
  808MPD2    C111948   1.912   3.320   9.942 -0.0998  0.1595  0.4358
  808MPD2    C211949   1.879   3.427  10.029 -0.3541 -0.1181 -0.2031
  808MPD2    C311950   1.975   3.516  10.078  0.1700  0.3455 -0.6038
  808MPD2    C411951   2.106   3.503  10.032  0.4757  0.4819 -0.2887
  808MPD2    C511952   2.142   3.396   9.954 -0.1729 -0.0219  0.3666
  808MPD2     H11953   1.774   3.453  10.038 -0.5831 -0.3911 -2.1760
  808MPD2    H111954   2.178   3.579  10.062  1.3856 -1.0869  1.4966
  808MPD2    H211955   2.071   3.226   9.846 -2.2669 -0.8152 -0.6205
  808MPD2    H311956   2.247   3.384   9.934 -0.2200  0.1189  0.0411
  808MPD2     N11957   1.949   3.613  10.177 -0.0402 -0.2332  0.7358
  808MPD2    H511958   2.032   3.670  10.196  0.0348  0.0173 -0.3533
  808MPD2    N111959   1.803   3.250   9.887 -1.0809 -0.1259  0.3135
  808MPD2    H711960   1.708   3.275   9.914 -0.7405  2.4052 -0.7921
  809MPD2     C11961   1.142   4.206  10.345  0.6972  0.0847 -0.1524
  809MPD2    C111962   1.265   4.274  10.344  0.2571  0.3192  0.3485
  809MPD2    C211963   1.384   4.203  10.345 -0.1019  0.6820  0.5072
  809MPD2    C311964   1.384   4.063  10.363  0.1254 -0.2254 -1.0193
  809MPD2    C411965   1.267   3.992  10.359 -0.0334  0.3483 -0.3334
  809MPD2    C511966   1.147   4.072  10.352  0.6619  0.1139  0.2447
  809MPD2     H11967   1.472   4.264  10.355 -0.3711  1.1830 -0.1492
  809MPD2    H111968   1.270   3.885  10.346 -0.2703  0.2840  0.1367
  809MPD2    H211969   1.044   4.251  10.347  0.9330  0.6186 -0.4786
  809MPD2    H311970   1.059   4.009  10.350 -0.3882  1.5423  1.3546
  809MPD2     N11971   1.497   3.992  10.392 -1.0715  0.3381  0.2553
  809MPD2    H511972   1.492   3.892  10.410  1.9255  0.4326  1.5957
  809MPD2    N111973   1.270   4.420  10.328  0.0794 -0.0453  0.3351
  809MPD2    H711974   1.362   4.459  10.311 -0.2898 -0.3050 -2.2935
  810MPD2     C11975   1.004   3.520  10.377 -0.4725 -0.0748  0.6522
  810MPD2    C111976   0.872   3.558  10.362 -0.9260 -0.2989  0.4427
  810MPD2    C211977   0.828   3.676  10.426  0.1660 -0.6359  0.3067
  810MPD2    C311978   0.925   3.764  10.482  0.0605 -0.5675  0.1358
  810MPD2    C411979   1.053   3.731  10.492  0.7755  0.9112  0.1717
  810MPD2    C511980   1.093   3.609  10.437 -0.2242  0.9351  1.0037
  810MPD2     H11981   0.723   3.700  10.420  0.3917 -0.2059 -2.0457
  810MPD2    H111982   1.128   3.796  10.536  0.7409 -0.1302  1.7839
  810MPD2    H211983   1.042   3.423  10.346  1.9295  0.3815  2.1697
  810MPD2    H311984   1.191   3.567  10.456  0.2267  1.2667 -0.6138
  810MPD2     N11985   0.880   3.881  10.540 -0.0964 -0.0730  0.0516
  810MPD2    H511986   0.951   3.926  10.596 -1.2615 -0.3884  1.8177
  810MPD2    N111987   0.775   3.479  10.293  0.3649  0.0585  0.1333
  810MPD2    H711988   0.677   3.504  10.302  0.2408  0.6550 -2.7897
  811MPD2     C11989   0.041   3.498   9.941  0.2843 -0.0770  0.2787
  811MPD2    C111990   0.164   3.537   9.986  0.6040  0.4327  0.2688
  811MPD2    C211991   0.190   3.668  10.020  0.5500  0.4482  0.2374
  811MPD2    C311992   0.095   3.768   9.988  0.0728 -0.3603  0.6338
  811MPD2    C411993   4.713   3.732   9.929  0.4300 -0.4188 -0.5057
  811MPD2    C511994   4.693   3.598   9.905 -0.4898  0.4973 -0.3901
  811MPD2     H11995   0.276   3.699  10.078  0.5238  1.7513 -0.3976
  811MPD2    H111996   4.650   3.810   9.887  1.2655  0.4647 -0.1221
  811MPD2    H211997   0.010   3.397   9.916 -2.5016  0.4240  1.7931
  811MPD2    H311998   4.603   3.569   9.852 -1.4137 -0.2424  1.5586
  811MPD2     N11999   0.134   3.905  10.007  0.2632 -0.0493  0.0142
  811MPD2    H512000   0.232   3.927  10.024  0.1574  1.3934 -1.2137
  811MPD2    N112001   0.257   3.443  10.013 -0.3223  0.5369 -0.3070
  811MPD2    H712002   0.228   3.346  10.025 -1.2508  0.8035 -0.4008
  812MPD2     C12003   3.481   3.179  12.594  0.5268 -0.5990  0.4322
  812MPD2    C112004   3.583   3.222  12.669 -0.4151  0.5342 -0.3312
  812MPD2    C212005   3.667   3.138  12.736 -0.0264  0.9680  0.3799
  812MPD2    C312006   3.640   3.002  12.747 -0.1725 -0.1896 -0.1202
  812MPD2    C412007   3.537   2.951  12.661  0.4462 -0.5793  0.0975
  812MPD2    C512008   3.461   3.042  12.593 -0.1319 -0.0998  0.1809
  812MPD2     H12009   3.744   3.184  12.797 -1.0397  0.7238  1.8485
  812MPD2    H112010   3.514   2.846  12.652 -1.4289 -0.3531  2.1563
  812MPD2    H212011   3.412   3.249  12.547  2.6186  1.0014 -0.2247
  812MPD2    H312012   3.386   3.004  12.524 -1.0432 -0.4149  1.3433
  812MPD2     N12013   3.723   2.915  12.822  0.4445 -0.6341 -0.7178
  812MPD2    H512014   3.807   2.947  12.870  1.2689 -1.0199 -1.9097
  812MPD2    N112015   3.592   3.365  12.685  0.1469  0.0532  0.4030
  812MPD2    H712016   3.532   3.421  12.625 -0.4515 -2.1198 -1.0003
  813MPD2     C12017   3.158   4.737  12.999 -0.3101 -0.0917 -0.4860
  813MPD2    C112018   3.105   0.126  13.007  0.3371 -0.5547 -0.5068
  813MPD2    C212019   3.044   0.169  13.123 -0.1798  0.6641 -0.3960
  813MPD2    C312020   3.049   0.098  13.237 -0.0861 -0.8253  0.1566
  813MPD2    C412021   3.107   4.712  13.230 -0.6270 -0.0196  0.0426
  813MPD2    C512022   3.164   4.661  13.116 -0.0817 -0.9966 -0.8251
  813MPD2     H12023   3.002   0.268  13.135 -1.2332  0.0929  0.6582
  813MPD2    H112024   3.113   4.647  13.317 -1.0344 -0.1107  0.0018
  813MPD2    H212025   3.198   4.700  12.905 -1.0488 -0.1068 -0.7947
  813MPD2    H312026   3.220   4.568  13.110 -1.8671 -2.0075 -1.5734
  813MPD2     N12027   3.001   0.160  13.350  0.3070  0.1176  0.0064
  813MPD2    H512028   2.975   0.257  13.341  1.6045  0.1410 -3.5935
  813MPD2    N112029   3.114   0.235  12.907 -0.5422 -0.1644 -0.0554
  813MPD2    H712030   3.083   0.323  12.948 -0.3907  0.1248 -0.5652
  814MPD2     C12031   3.279   1.389  12.671  0.8846  0.0523 -0.1661
  814MPD2    C112032   3.403   1.388  12.613  0.6259  0.3985 -0.4340
  814MPD2    C212033   3.477   1.511  12.612 -0.2030 -0.9000  0.9021
  814MPD2    C312034   3.423   1.628  12.665 -0.6716 -0.5947 -0.0451
  814MPD2    C412035   3.298   1.623  12.725 -0.1610  0.2304 -0.3957
  814MPD2    C512036   3.228   1.505  12.728 -0.0185  0.1568 -0.2041
  814MPD2     H12037   3.579   1.518  12.576 -1.7222 -2.0578 -3.6021
  814MPD2    H112038   3.266   1.712  12.778  2.0560  0.8655 -0.1351
  814MPD2    H212039   3.221   1.297  12.666  2.3931 -0.9202  0.0723
  814MPD2    H312040   3.131   1.506  12.777 -0.2178 -0.3287 -0.5841
  814MPD2     N12041   3.506   1.750  12.664  0.0446  0.0148 -0.5607
  814MPD2    H512042   3.457   1.835  12.690  0.0521  0.1055 -0.8481
  814MPD2    N112043   3.451   1.273  12.561  0.0549  0.1031 -0.3765
  814MPD2    H712044   3.528   1.287  12.496  0.1384 -0.7496 -0.4712
  815MPD2     C12045   4.041   4.520  12.113  0.5432  0.7737  0.1583
  815MPD2    C112046   4.000   4.396  12.062  0.3345 -0.2999  0.4842
  815MPD2    C212047   3.888   4.340  12.111  0.1463 -0.2287  0.1702
  815MPD2    C312048   3.814   4.399  12.212  0.5540  0.7476 -1.1654
  815MPD2    C412049   3.854   4.523  12.264  0.1089 -0.2400 -0.2474
  815MPD2    C512050   3.967   4.572  12.213  0.3450  0.4380 -0.5194
  815MPD2     H12051   3.855   4.245  12.073 -1.2628 -0.4423  1.9011
  815MPD2    H112052   3.805   4.581  12.341 -0.8513  0.5800 -1.4735
  815MPD2    H212053   4.128   4.571  12.073  1.1283 -1.0577 -0.9189
  815MPD2    H312054   4.003   4.665  12.256  0.2535  0.9191 -1.4747
  815MPD2     N12055   3.694   4.336  12.257 -0.4211  0.1070  1.0936
  815MPD2    H512056   3.666   4.246  12.218 -0.2242  0.5436 -0.0614
  815MPD2    N112057   4.074   4.339  11.949 -0.0155 -0.3238 -0.9186
  815MPD2    H712058   4.140   4.403  11.906  0.4528  0.8158  1.4848
  816MPD2     C12059   4.398   4.719  17.611  0.0623 -0.2137  0.0840
  816MPD2    C112060   4.343   0.045  17.506  1.0354  0.0257 -0.4399
  816MPD2    C212061   4.398   0.021  17.384  0.7579  0.3227 -0.0288
  816MPD2    C312062   4.496   4.663  17.353 -0.0881 -0.1819  0.1631
  816MPD2    C412063   4.546   4.599  17.464 -0.3418  0.5362  0.3695
  816MPD2    C512064   4.501   4.625  17.588  0.7328  0.5907  0.3522
  816MPD2     H12065   4.356   0.070  17.296 -0.2684 -1.8448 -0.7464
  816MPD2    H112066   4.613   4.514  17.461 -0.0310  0.8054 -0.3434
  816MPD2    H212067   4.356   4.730  17.710 -1.4170  0.5806 -0.6204
  816MPD2    H312068   4.537   4.575  17.677 -1.8414  2.9833  2.7144
  816MPD2     N12069   4.531   4.636  17.223  0.7898 -0.2305 -0.4051
  816MPD2    H512070   4.496   4.708  17.160  0.5894  0.3268  0.3277
  816MPD2    N112071   4.227   0.132  17.531 -0.0095  0.3081  0.5788
  816MPD2    H712072   4.201   0.163  17.624 -0.4768  3.1120 -0.4781
  817MPD2     C12073   3.988   1.340  10.472 -0.1042  0.2168 -0.1218
  817MPD2    C112074   3.925   1.232  10.412  0.5041 -0.8302  0.2496
  817MPD2    C212075   3.804   1.265  10.342  0.2590 -0.0709  0.1025
  817MPD2    C312076   3.779   1.403  10.319  0.2479  0.8756  0.2736
  817MPD2    C412077   3.860   1.507  10.363  0.1155  0.2567 -0.2576
  817MPD2    C512078   3.966   1.475  10.442  0.7668  0.1762 -0.1200
  817MPD2     H12079   3.744   1.185  10.301 -0.3287  0.0182  0.7928
  817MPD2    H112080   3.851   1.606  10.321 -3.0361 -0.4330 -1.2370
  817MPD2    H212081   4.073   1.311  10.532  0.2897  2.8056  0.5761
  817MPD2    H312082   4.040   1.546  10.479  1.6075 -1.4129  1.2204
  817MPD2     N12083   3.668   1.425  10.238  0.1789  0.0029 -0.1330
  817MPD2    H512084   3.605   1.346  10.229  0.0022  0.2125 -0.8162
  817MPD2    N112085   3.961   1.100  10.436  0.0162  0.2722  0.3126
  817MPD2    H712086   3.918   1.026  10.381 -0.5730  1.4249 -0.7996
  818MPD2     C12087   2.670   1.071   9.652  0.0610 -0.1095 -0.3579
  818MPD2    C112088   2.725   0.992   9.751  0.6028 -0.2660  0.1569
  818MPD2    C212089   2.786   0.872   9.717 -0.1165  0.3709  0.5232
  818MPD2    C312090   2.766   0.820   9.586  0.2114  0.4581  0.3947
  818MPD2    C412091   2.697   0.896   9.498 -0.0913  0.3504  0.6638
  818MPD2    C512092   2.656   1.022   9.526 -0.1724  0.3325 -0.4280
  818MPD2     H12093   2.839   0.815   9.793  0.1797 -0.2700 -0.1615
  818MPD2    H112094   2.678   0.859   9.398  1.0906  1.4804  0.0360
  818MPD2    H212095   2.628   1.170   9.669 -1.3049 -0.8711  0.6699
  818MPD2    H312096   2.599   1.070   9.447  0.4464  0.3273 -0.8822
  818MPD2     N12097   2.803   0.687   9.550  0.2799 -0.1936 -0.1627
  818MPD2    H512098   2.768   0.646   9.464 -1.3921 -2.4601  1.5984
  818MPD2    N112099   2.736   1.034   9.880 -0.4218 -0.1082 -0.7503
  818MPD2    H712100   2.794   0.972   9.936  0.4296  1.7278  0.4031
  819MPD2     C12101   0.712   2.960  15.627 -0.0081 -0.0729  0.0677
  819MPD2    C112102   0.738   2.822  15.628  0.8006  0.1645  0.6796
  819MPD2    C212103   0.858   2.771  15.676 -0.1385  0.1319 -0.5376
  819MPD2    C312104   0.949   2.866  15.726  0.0395 -0.1082  0.4769
  819MPD2    C412105   0.921   3.000  15.732  0.2557  0.0093 -0.0556
  819MPD2    C512106   0.803   3.043  15.682 -0.1232  0.6829  0.4047
  819MPD2     H12107   0.888   2.667  15.677  1.3111  0.5468 -1.1457
  819MPD2    H112108   0.991   3.075  15.768  1.4806 -2.1362  2.0444
  819MPD2    H212109   0.616   2.998  15.596  0.2714  0.5005 -0.1031
  819MPD2    H312110   0.785   3.150  15.680 -2.3959  0.2940 -0.0740
  819MPD2     N12111   1.080   2.815  15.763  0.5226 -0.4579  0.8846
  819MPD2    H512112   1.093   2.715  15.773 -1.3815 -0.8429 -0.5537
  819MPD2    N112113   0.639   2.751  15.570  0.1372 -0.7911 -0.0508
  819MPD2    H712114   0.554   2.803  15.550  0.3097  0.4516  2.3848
  820MPD2     C12115   4.442   2.836  15.347 -0.4619  0.4345  0.2360
  820MPD2    C112116   4.549   2.919  15.366 -0.3672 -0.1591  0.3382
  820MPD2    C212117   4.671   2.858  15.350  0.2552  0.1783 -0.5085
  820MPD2    C312118   4.683   2.718  15.365  1.0213 -0.2620 -0.4715
  820MPD2    C412119   4.572   2.635  15.362 -0.0769 -0.3042 -0.0667
  820MPD2    C512120   4.452   2.699  15.332  0.1909 -0.2125 -0.7334
  820MPD2     H12121   0.018   2.923  15.358  1.1038 -0.9613 -0.3424
  820MPD2    H112122   4.584   2.529  15.379 -0.2724  0.1531  3.0152
  820MPD2    H212123   4.345   2.879  15.326  0.7729  3.1646  0.0991
  820MPD2    H312124   4.364   2.637  15.321 -0.3284  0.5019 -0.6441
  820MPD2     N12125   0.061   2.639  15.372 -0.6200  0.7674 -0.4175
  820MPD2    H512126   0.047   2.540  15.354 -1.6151  1.3200 -2.5488
  820MPD2    N112127   4.516   3.056  15.356  1.0852  0.5916  0.3830
  820MPD2    H712128   4.421   3.086  15.338  0.3326 -2.2680 -0.5510
  821MPD2     C12129   0.799   3.724  13.710 -0.0566  0.0388 -0.8974
  821MPD2    C112130   0.806   3.838  13.777  0.3000  0.9173  0.8041
  821MPD2    C212131   0.879   3.941  13.722  0.0136 -0.6851 -0.0222
  821MPD2    C312132   0.963   3.925  13.617  0.9652 -0.3266 -0.2522
  821MPD2    C412133   0.956   3.809  13.550 -0.1350  0.0450 -0.6954
  821MPD2    C512134   0.879   3.708  13.599 -0.2640  0.1409 -0.5106
  821MPD2     H12135   0.878   4.035  13.776 -3.0493 -1.6592  1.6030
  821MPD2    H112136   1.015   3.787  13.462 -0.1704 -0.9876 -0.4587
  821MPD2    H212137   0.743   3.634  13.735 -0.1776  0.6941  1.2276
  821MPD2    H312138   0.884   3.614  13.545  0.5953 -0.1941  0.1459
  821MPD2     N12139   1.035   4.028  13.549  0.6393  0.0052 -0.1854
  821MPD2    H512140   1.102   4.004  13.477  0.4980  0.9874 -0.6507
  821MPD2    N112141   0.739   3.853  13.902  0.4201  0.0131 -0.2654
  821MPD2    H712142   0.751   3.945  13.941 -1.5410 -0.8412  2.3452
  822MPD2     C12143   0.877   4.456  15.853  0.0245  0.0715  0.0002
  822MPD2    C112144   0.944   4.436  15.971 -0.4621  0.2067  0.9065
  822MPD2    C212145   0.926   4.522  16.075  0.7826 -1.0472 -0.2879
  822MPD2    C312146   0.845   4.629  16.066  0.0429 -1.3138 -0.2491
  822MPD2    C412147   0.788   4.661  15.944 -0.5261  0.1992  0.1182
  822MPD2    C512148   0.803   4.570  15.839  0.0919  0.2479  0.1339
  822MPD2     H12149   0.974   4.490  16.167  2.8050  1.2880 -0.5480
  822MPD2    H112150   0.724   0.008  15.925 -0.6117  0.4791  1.6817
  822MPD2    H212151   0.893   4.405  15.759 -1.8431  2.6200 -1.6822
  822MPD2    H312152   0.760   4.602  15.744  1.9089 -2.3035 -1.5287
  822MPD2     N12153   0.840   4.710  16.183 -1.0674 -0.0621 -0.3297
  822MPD2    H512154   0.886   4.680  16.268  0.3944  1.2187 -0.6718
  822MPD2    N112155   1.029   4.324  15.991  0.4883 -0.4244  0.1443
  822MPD2    H712156   1.096   4.335  16.066 -0.1204 -0.9606  0.7663
  823MPD2     C12157   0.803   0.205  17.017  0.0400  0.2233  0.5350
  823MPD2    C112158   0.810   0.112  16.910 -0.1405 -0.5739  0.3243
  823MPD2    C212159   0.839   4.719  16.939  0.0397  0.4742 -0.1466
  823MPD2    C312160   0.882   4.689  17.059 -0.4731  0.3231 -0.1315
  823MPD2    C412161   0.883   0.042  17.165 -0.2456 -0.0941  0.6670
  823MPD2    C512162   0.844   0.167  17.145 -0.1923 -0.4809  0.2086
  823MPD2     H12163   0.841   4.643  16.861  4.5278 -0.6145  1.0434
  823MPD2    H112164   0.911   0.012  17.265 -1.2381  0.1747  1.0275
  823MPD2    H212165   0.783   0.310  17.001 -0.7290 -0.1959 -1.3571
  823MPD2    H312166   0.829   0.234  17.229  0.9530  1.4708 -1.1412
  823MPD2     N12167   0.937   4.559  17.089 -0.7664 -0.0715 -0.2226
  823MPD2    H512168   0.971   4.550  17.184  2.2477  2.5238 -1.0619
  823MPD2    N112169   0.792   0.151  16.774  0.1589 -0.0456  0.4453
  823MPD2    H712170   0.792   0.251  16.757 -1.3168 -0.0420  0.4135
  824MPD2     C12171   1.211   3.478  15.872  0.1214  0.8452  1.0428
  824MPD2    C112172   1.324   3.552  15.899  0.8806 -0.0217  0.4299
  824MPD2    C212173   1.443   3.484  15.908 -0.6841 -0.2895 -0.3650
  824MPD2    C312174   1.449   3.351  15.897 -0.1858  0.2809 -0.3693
  824MPD2    C412175   1.337   3.277  15.874  0.1375 -0.1541 -0.3421
  824MPD2    C512176   1.218   3.338  15.871 -0.0397 -0.0299  0.5688
  824MPD2     H12177   1.538   3.534  15.922 -0.2013  0.1258 -4.8303
  824MPD2    H112178   1.345   3.169  15.878 -0.2888 -0.1626  0.1447
  824MPD2    H212179   1.110   3.517  15.875 -0.4468 -0.6617  1.8190
  824MPD2    H312180   1.134   3.272  15.853 -1.8667  1.5794  3.2486
  824MPD2     N12181   1.576   3.305  15.915  0.6449 -0.0847  0.3506
  824MPD2    H512182   1.641   3.374  15.952 -0.8259  0.8042  1.2646
  824MPD2    N112183   1.327   3.690  15.915  0.2322  0.1636 -0.5170
  824MPD2    H712184   1.419   3.733  15.924  0.4703 -0.6732  0.9282
  825MPD2     C12185   2.281   3.572  16.118 -0.6545  0.8217  0.2390
  825MPD2    C112186   2.206   3.558  16.003  0.3668 -0.5477  0.3891
  825MPD2    C212187   2.200   3.663  15.912  0.4879  0.0017  0.3615
  825MPD2    C312188   2.254   3.789  15.933  0.0956  0.4308  0.5998
  825MPD2    C412189   2.322   3.803  16.050 -0.1073 -0.2940  0.2848
  825MPD2    C512190   2.327   3.698  16.143  0.2381 -0.2842 -0.1701
  825MPD2     H12191   2.146   3.649  15.819 -1.5690 -0.4686  1.6346
  825MPD2    H112192   2.360   3.903  16.070  0.2397 -0.3259 -0.2268
  825MPD2    H212193   2.300   3.489  16.186 -2.1099  0.7067  0.5237
  825MPD2    H312194   2.390   3.720  16.229 -1.0420  0.4911  0.5630
  825MPD2     N12195   2.234   3.896  15.842  0.0615  0.4476  0.9534
  825MPD2    H512196   2.274   3.986  15.865 -0.8011  0.4428  2.4627
  825MPD2    N112197   2.136   3.436  15.988 -0.0232 -0.3687  0.0141
  825MPD2    H712198   2.148   3.365  16.061  1.8872 -0.6009 -0.5195
  826MPD2     C12199   2.436   3.323  13.604  0.3219  0.0278 -1.4075
  826MPD2    C112200   2.322   3.277  13.561 -0.3039 -0.0455  0.2440
  826MPD2    C212201   2.202   3.333  13.600  0.6756  0.3595  0.4406
  826MPD2    C312202   2.197   3.447  13.673  0.3521 -0.5179 -0.4936
  826MPD2    C412203   2.316   3.506  13.689  0.0224  0.1890 -0.4692
  826MPD2    C512204   2.439   3.449  13.661  0.3618 -0.5432  0.8238
  826MPD2     H12205   2.114   3.281  13.563  1.4086 -0.4818 -0.1286
  826MPD2    H112206   2.315   3.598  13.744 -1.2283 -1.0742  1.6047
  826MPD2    H212207   2.530   3.283  13.568  1.0067  0.0638  0.3432
  826MPD2    H312208   2.530   3.503  13.683  1.1843 -1.6443  0.1586
  826MPD2     N12209   2.081   3.501  13.734  0.2424 -0.4692  0.0217
  826MPD2    H512210   2.096   3.589  13.782 -1.7726 -1.0067  1.6434
  826MPD2    N112211   2.329   3.155  13.493  0.5221 -0.0350 -0.2905
  826MPD2    H712212   2.420   3.111  13.489 -0.8312 -2.8495  0.3227
  827MPD2     C12213   3.563   4.452  10.183 -1.0873 -0.0655 -0.1030
  827MPD2    C112214   3.497   4.332  10.197  0.4836  0.0425  0.3960
  827MPD2    C212215   3.404   4.292  10.105  0.1602 -0.4626 -0.6960
  827MPD2    C312216   3.376   4.371   9.995  0.7140 -0.2751  0.4165
  827MPD2    C412217   3.438   4.495   9.985 -0.5063 -0.2313 -0.2582
  827MPD2    C512218   3.523   4.532  10.082  0.1404  0.0582 -0.4718
  827MPD2     H12219   3.363   4.192  10.107 -0.3281 -0.2107  1.5020
  827MPD2    H112220   3.424   4.566   9.904 -0.3999 -1.9307 -1.7383
  827MPD2    H212221   3.651   4.479  10.240  0.8603 -0.1366 -3.0389
  827MPD2    H312222   3.574   4.626  10.063 -0.0080  0.2729  0.1713
  827MPD2     N12223   3.277   4.323   9.907  0.1834 -0.8614  0.4151
  827MPD2    H512224   3.243   4.228   9.913 -3.4644  0.3516 -0.4410
  827MPD2    N112225   3.535   4.247  10.303 -0.3376 -0.4916  0.3429
  827MPD2    H712226   3.605   4.282  10.368 -0.1308 -1.9737  0.9251
  828MPD2     C12227   1.815   3.603  12.989  0.1333  0.0205 -0.0979
  828MPD2    C112228   1.772   3.681  12.879  0.4433 -0.0269  0.0655
  828MPD2    C212229   1.862   3.697  12.773 -0.4073  0.3725 -0.2091
  828MPD2    C312230   1.981   3.623  12.764  0.0463 -0.5575 -0.0519
  828MPD2    C412231   2.015   3.544  12.872 -0.3409 -0.1774 -0.4391
  828MPD2    C512232   1.934   3.536  12.978 -1.0837  0.5874 -0.2218
  828MPD2     H12233   1.837   3.771  12.698 -0.2214  0.2851 -0.3590
  828MPD2    H112234   2.102   3.480  12.881  1.7490  2.6946 -0.1644
  828MPD2    H212235   1.761   3.603  13.083 -1.7344  2.2989 -1.1456
  828MPD2    H312236   1.965   3.472  13.059 -1.1249 -1.1370 -1.5543
  828MPD2     N12237   2.066   3.616  12.656  0.6414 -0.7678 -0.7495
  828MPD2    H512238   2.149   3.559  12.666  1.4031  0.4187 -0.2771
  828MPD2    N112239   1.662   3.770  12.874 -0.1534  0.1938  0.0315
  828MPD2    H712240   1.651   3.831  12.793 -0.7796 -0.4670 -0.3726
  829MPD2     C12241   1.256   4.140  12.195 -0.2876 -0.4036 -1.2940
  829MPD2    C112242   1.251   4.237  12.288  0.3308 -0.0492  0.1649
  829MPD2    C212243   1.295   4.217  12.418 -0.4273 -0.2653  0.2080
  829MPD2    C312244   1.339   4.090  12.457  0.3698  0.3631  0.8690
  829MPD2    C412245   1.364   4.003  12.363  0.3917 -0.4158  0.5964
  829MPD2    C512246   1.309   4.020  12.238  0.1144 -0.0767  0.1873
  829MPD2     H12247   1.290   4.298  12.489  0.4374  1.1117 -1.3095
  829MPD2    H112248   1.402   3.907  12.395 -0.7194 -1.5456 -1.4416
  829MPD2    H212249   1.220   4.155  12.094 -1.2174  0.8165 -0.7883
  829MPD2    H312250   1.330   3.947  12.161  4.3464 -0.7965  2.0592
  829MPD2     N12251   1.386   4.055  12.589  0.1560 -0.4497  0.7571
  829MPD2    H512252   1.435   3.966  12.591  0.1838 -0.4150  1.4924
  829MPD2    N112253   1.192   4.361  12.239 -0.7180  0.3511  0.5469
  829MPD2    H712254   1.160   4.371  12.143 -1.5097 -0.5209  0.7163
  830MPD2     C12255   1.496   2.496  15.390  0.4106  0.1947  0.2796
  830MPD2    C112256   1.518   2.589  15.490 -0.1656 -0.0157  0.0830
  830MPD2    C212257   1.593   2.707  15.455  0.4686 -0.4174  0.3166
  830MPD2    C312258   1.616   2.728  15.328  1.0742 -0.3406 -0.1652
  830MPD2    C412259   1.600   2.628  15.235  0.0996  0.0747 -0.2919
  830MPD2    C512260   1.550   2.510  15.269 -0.4051 -0.2129  0.2770
  830MPD2     H12261   1.605   2.782  15.532 -0.5253 -0.4848  0.5449
  830MPD2    H112262   1.628   2.636  15.130  2.5189 -2.3634  0.1651
  830MPD2    H212263   1.460   2.396  15.414 -3.4016  1.9000  1.6459
  830MPD2    H312264   1.552   2.438  15.188 -2.6595 -0.2068  0.2166
  830MPD2     N12265   1.668   2.852  15.284 -0.1866  0.2071 -0.0679
  830MPD2    H512266   1.661   2.871  15.185  0.4788  3.8640  0.5707
  830MPD2    N112267   1.474   2.561  15.623 -0.4190 -0.1621  0.2773
  830MPD2    H712268   1.402   2.493  15.640 -0.5152  0.1883  1.3021
  831MPD2     C12269   1.241   0.067  16.497 -0.2630 -0.7004 -0.5416
  831MPD2    C112270   1.203   4.725  16.398 -0.3507  0.0939  0.4607
  831MPD2    C212271   1.101   4.633  16.424 -0.4911  0.2716  0.0232
  831MPD2    C312272   1.053   4.617  16.555 -0.1920  0.3916 -0.5512
  831MPD2    C412273   1.097   4.704  16.652 -0.0141 -0.0092  0.3919
  831MPD2    C512274   1.186   0.062  16.619  0.3599 -0.0908  0.0967
  831MPD2     H12275   1.087   4.557  16.348  1.2699 -0.3165  0.2764
  831MPD2    H112276   1.072   4.690  16.756  0.6154  1.6774  0.7668
  831MPD2    H212277   1.333   0.121  16.480 -0.7722  0.9171  1.8541
  831MPD2    H312278   1.227   0.130  16.692 -0.3911  1.2568 -0.7387
  831MPD2     N12279   0.963   4.513  16.600 -0.9795  0.2200  0.3256
  831MPD2    H512280   0.958   4.498  16.700  1.7695 -0.7078  0.3112
  831MPD2    N112281   1.268   4.736  16.274  0.0237  0.6787 -0.3996
  831MPD2    H712282   1.334   0.074  16.267 -1.0660  1.6282 -0.2019
  832MPD2     C12283   4.444   1.168  17.613  0.2753  0.8323  0.1025
  832MPD2    C112284   4.430   1.296  17.567  0.0780 -0.5966  0.4963
  832MPD2    C212285   4.308   1.327  17.508  0.0376  0.0476  0.5239
  832MPD2    C312286   4.212   1.241  17.478  0.0071  1.1324  0.3009
  832MPD2    C412287   4.217   1.114  17.537  0.0483 -0.3124 -0.6348
  832MPD2    C512288   4.335   1.077  17.597  0.2346  0.2164  0.3614
  832MPD2     H12289   4.293   1.427  17.467 -2.4828 -0.6521 -0.2797
  832MPD2    H112290   4.140   1.041  17.515 -0.8390  0.1073  1.1216
  832MPD2    H212291   4.531   1.131  17.665 -1.9033 -2.8647  1.1112
  832MPD2    H312292   4.339   0.978  17.641  1.0103 -1.1302 -2.7474
  832MPD2     N12293   4.096   1.278  17.408  0.2898  0.1196 -0.4769
  832MPD2    H512294   4.027   1.203  17.406 -0.7554  1.0919 -0.9935
  832MPD2    N112295   4.548   1.382  17.584 -0.6348  1.2626  0.0288
  832MPD2    H712296   4.621   1.341  17.640  1.3677  2.3427 -1.7991
  833MPD2     C12297   1.755   1.728  12.089 -0.4548  0.2874  0.1430
  833MPD2    C112298   1.760   1.864  12.111  0.3972 -0.1855  0.3239
  833MPD2    C212299   1.885   1.927  12.109  0.6331  0.3933  0.1351
  833MPD2    C312300   1.999   1.857  12.083 -0.0609  0.3490 -0.0784
  833MPD2    C412301   1.987   1.722  12.062 -0.1333 -0.2486 -0.1709
  833MPD2    C512302   1.863   1.653  12.067  0.0588 -0.4692  0.4788
  833MPD2     H12303   1.894   2.034  12.108 -0.6040  0.4971 -0.5315
  833MPD2    H112304   2.072   1.656  12.045 -0.4774 -0.5174 -0.8589
  833MPD2    H212305   1.663   1.671  12.088  0.1639 -0.6917 -0.9379
  833MPD2    H312306   1.854   1.549  12.042  2.4311 -0.7821  0.9080
  833MPD2     N12307   2.130   1.909  12.080  0.0366 -0.4289 -0.3519
  833MPD2    H512308   2.202   1.854  12.034 -0.6467 -1.0130 -0.7298
  833MPD2    N112309   1.641   1.941  12.129  0.1293 -0.3342  0.2209
  833MPD2    H712310   1.554   1.891  12.119  0.0126 -0.6156  2.6508
  834MPD2     C12311   2.393   1.965  11.278  0.0186 -0.0166 -0.1902
  834MPD2    C112312   2.392   1.872  11.373  0.3678  0.2712  0.2006
  834MPD2    C212313   2.392   1.912  11.499  0.1821  0.5117  0.6289
  834MPD2    C312314   2.403   2.044  11.539 -0.4824 -0.0937  0.2280
  834MPD2    C412315   2.411   2.139  11.442  0.1483 -0.2311  0.6292
  834MPD2    C512316   2.409   2.101  11.312  0.1184 -0.2614 -0.1359
  834MPD2     H12317   2.385   1.843  11.582 -1.0907  0.5982  0.5897
  834MPD2    H112318   2.415   2.242  11.476  0.1636  0.3079 -1.0439
  834MPD2    H212319   2.390   1.944  11.172 -2.2963  2.1516 -0.5570
  834MPD2    H312320   2.398   2.181  11.240  1.2676 -2.0562 -2.3283
  834MPD2     N12321   2.384   2.065  11.677 -0.0998  0.2419 -0.5155
  834MPD2    H512322   2.382   1.983  11.736  0.3270 -0.1978 -1.1137
  834MPD2    N112323   2.377   1.738  11.327  0.5173 -0.3579  0.0960
  834MPD2    H712324   2.379   1.722  11.227 -1.0428 -0.2655  0.0486
  835MPD2     C12325   2.799   3.812  11.321  0.3290  0.2890  0.1234
  835MPD2    C112326   2.683   3.890  11.328 -0.6733 -0.4958 -0.2400
  835MPD2    C212327   2.620   3.909  11.450  0.4821 -0.3771 -0.4463
  835MPD2    C312328   2.675   3.858  11.567  0.3506 -0.0101  0.6582
  835MPD2    C412329   2.802   3.794  11.563  0.2712  0.8789  0.5715
  835MPD2    C512330   2.860   3.785  11.439 -0.0066 -0.5500  0.1865
  835MPD2     H12331   2.530   3.968  11.439  1.0642  0.2517 -1.8704
  835MPD2    H112332   2.854   3.759  11.652  0.9715 -1.8063 -0.9120
  835MPD2    H212333   2.841   3.781  11.226  1.5215  2.7857 -0.1546
  835MPD2    H312334   2.958   3.740  11.424  1.8505  3.1446  1.3094
  835MPD2     N12335   2.617   3.870  11.691 -0.6647 -0.1177 -0.5396
  835MPD2    H512336   2.652   3.817  11.771  1.7580 -0.3326 -1.7279
  835MPD2    N112337   2.625   3.950  11.213 -1.1275 -0.0363  0.4308
  835MPD2    H712338   2.535   3.992  11.231 -0.9846  0.3521  0.2359
  836MPD2     C12339   1.911   4.041  11.880  0.1170 -0.6846  0.3170
  836MPD2    C112340   1.980   4.041  12.002  0.5456  0.2071 -0.1759
  836MPD2    C212341   1.917   4.081  12.123  0.0020 -0.3740 -0.1320
  836MPD2    C312342   1.785   4.120  12.119 -0.0678  0.3319 -0.4001
  836MPD2    C412343   1.722   4.123  11.998 -0.1352 -0.0254 -0.5385
  836MPD2    C512344   1.785   4.086  11.884  0.2161  0.0558 -0.2130
  836MPD2     H12345   1.974   4.071  12.215 -0.4303  2.3184  0.4397
  836MPD2    H112346   1.619   4.155  11.992  0.8989  3.6085  1.3483
  836MPD2    H212347   1.949   4.007  11.784 -0.5068 -0.1249 -0.1306
  836MPD2    H312348   1.728   4.095  11.792 -1.5086 -3.9661  0.4446
  836MPD2     N12349   1.717   4.166  12.230 -0.4623 -0.2022  0.1220
  836MPD2    H512350   1.632   4.219  12.218 -0.7841 -1.3763 -2.7844
  836MPD2    N112351   2.122   4.012  11.995  0.1208  0.0185  0.2946
  836MPD2    H712352   2.153   3.997  11.899  1.3776  0.8269  0.5737
  837MPD2     C12353   0.689   4.375  10.248 -0.3817  0.3699 -0.0358
  837MPD2    C112354   0.575   4.407  10.321 -0.0760  0.7360  0.2212
  837MPD2    C212355   0.562   4.530  10.382  0.5905 -0.0329  0.2259
  837MPD2    C312356   0.663   4.621  10.369 -0.4800 -0.1777 -0.5372
  837MPD2    C412357   0.784   4.587  10.320  0.7489  0.4990  0.5145
  837MPD2    C512358   0.787   4.468  10.247  0.0175  0.1685 -0.5412
  837MPD2     H12359   0.467   4.558  10.425  0.9926  1.0055  0.4297
  837MPD2    H112360   0.863   4.658  10.299  2.4980 -1.5830  0.0202
  837MPD2    H212361   0.692   4.282  10.193  1.0806  2.1029 -2.8837
  837MPD2    H312362   0.880   4.442  10.197  0.5454 -0.8203  0.9553
  837MPD2     N12363   0.640   0.006  10.419  0.1477  0.5683 -0.2753
  837MPD2    H512364   0.553   0.023  10.469  1.1356  2.3074  0.8555
  837MPD2    N112365   0.459   4.339  10.309  0.2230  0.2158  0.1791
  837MPD2    H712366   0.378   4.379  10.355  0.5154  3.8218 -2.4344
  838MPD2     C12367   3.362   1.720  11.298  0.1180 -0.5536 -0.2326
  838MPD2    C112368   3.317   1.796  11.414  0.7874 -0.5620 -0.4302
  838MPD2    C212369   3.195   1.770  11.466  0.2666  0.6157 -0.1541
  838MPD2    C312370   3.114   1.675  11.417  1.0159  0.0423  0.6650
  838MPD2    C412371   3.147   1.607  11.298  0.2466  0.0364 -1.0078
  838MPD2    C512372   3.270   1.629  11.242 -0.1550  0.8006  0.0277
  838MPD2     H12373   3.167   1.812  11.562  0.0737  2.1583 -0.8882
  838MPD2    H112374   3.086   1.542  11.237  0.9047 -0.5066 -1.0822
  838MPD2    H212375   3.455   1.736  11.244 -0.7394  2.5163 -0.7689
  838MPD2    H312376   3.294   1.590  11.143  1.0235  0.2328  0.5370
  838MPD2     N12377   2.988   1.658  11.474 -0.0550 -0.2850 -0.1810
  838MPD2    H512378   2.978   1.702  11.565  0.0966 -0.9502  0.1567
  838MPD2    N112379   3.388   1.908  11.470  0.4376  0.1452  0.5798
  838MPD2    H712380   3.349   1.943  11.557  1.8466  1.1189  0.8120
  839MPD2     C12381   3.472   1.700  12.203  0.1348  0.1944 -0.0823
  839MPD2    C112382   3.451   1.686  12.068  0.6588  1.0956  0.1106
  839MPD2    C212383   3.457   1.796  11.981 -0.1313 -0.3706  0.1026
  839MPD2    C312384   3.495   1.919  12.026 -0.1991 -0.4016 -1.0088
  839MPD2    C412385   3.513   1.928  12.164 -0.3599  0.8735 -0.2861
  839MPD2    C512386   3.502   1.826  12.253  0.3115  0.3607  0.3311
  839MPD2     H12387   3.449   1.787  11.873  0.4066 -0.2185  0.0533
  839MPD2    H112388   3.537   2.024  12.207  0.1406  1.6881 -2.3846
  839MPD2    H212389   3.471   1.621  12.278  0.6158 -1.6553 -2.0162
  839MPD2    H312390   3.508   1.849  12.358  0.7424 -1.5660  0.7287
  839MPD2     N12391   3.498   2.030  11.942 -0.1575 -0.3118 -0.4502
  839MPD2    H512392   3.544   2.112  11.980  1.2957 -0.9742 -0.7959
  839MPD2    N112393   3.406   1.561  12.007  0.2135  0.9760 -0.5170
  839MPD2    H712394   3.370   1.563  11.913 -0.2665 -0.8870 -0.3713
  840MPD2     C12395   3.832   4.581  10.562  0.8535  0.2691  0.2487
  840MPD2    C112396   3.809   4.497  10.670  0.2155  0.0026 -0.8973
  840MPD2    C212397   3.861   4.537  10.792  0.1503 -0.2135 -0.1210
  840MPD2    C312398   3.916   4.660  10.821 -0.0687 -0.4748 -0.2307
  840MPD2    C412399   3.930   0.009  10.709 -0.2611  0.4441  0.2190
  840MPD2    C512400   3.887   4.703  10.586  0.6817  0.6123  0.2812
  840MPD2     H12401   3.842   4.473  10.877 -0.2074  1.9751  1.4654
  840MPD2    H112402   3.972   0.109  10.716 -1.0023  0.7176  0.8555
  840MPD2    H212403   3.802   4.545  10.464  1.1014 -0.0981  0.3068
  840MPD2    H312404   3.907   0.023  10.497  1.0746  0.8548  0.5302
  840MPD2     N12405   3.960   4.712  10.951 -0.0448 -0.2829 -0.6384
  840MPD2    H512406   4.005   0.063  10.948  1.2882 -0.9086  0.5727
  840MPD2    N112407   3.751   4.373  10.645  0.3105 -0.1478 -0.0260
  840MPD2    H712408   3.704   4.372  10.555  1.6901  0.6203 -0.7377
  841MPD2     C12409   2.744   0.289  14.972 -0.1443  0.1172 -0.7481
  841MPD2    C112410   2.796   0.169  15.019 -0.0678 -0.4217 -0.7034
  841MPD2    C212411   2.933   0.155  15.030 -0.8164 -0.2486  0.0408
  841MPD2    C312412   3.019   0.255  14.990  0.8056  0.2278  0.5047
  841MPD2    C412413   2.966   0.371  14.942  0.3015 -0.5837 -0.4666
  841MPD2    C512414   2.829   0.385  14.936  0.1878 -0.1848 -0.5003
  841MPD2     H12415   2.967   0.066  15.081  0.1799 -0.0279 -0.2409
  841MPD2    H112416   3.016   0.457  14.899 -1.8310  0.7733 -0.2413
  841MPD2    H212417   2.638   0.312  14.964 -0.3354  0.6628  3.4774
  841MPD2    H312418   2.786   0.481  14.910 -0.0812  0.1269  1.0611
  841MPD2     N12419   3.152   0.235  15.018 -0.4008 -0.4109 -0.4066
  841MPD2    H512420   3.182   0.151  15.066  1.2580 -0.2818 -1.2347
  841MPD2    N112421   2.722   0.059  15.064 -0.1971 -0.0252  0.3872
  841MPD2    H712422   2.765   4.709  15.085 -0.2786  0.2284  1.5960
  842MPD2     C12423   3.626   1.659  16.771  0.4361  0.4130  0.1236
  842MPD2    C112424   3.534   1.568  16.820  0.0694 -0.5070  0.6101
  842MPD2    C212425   3.535   1.543  16.955 -0.6995  0.2920 -0.3193
  842MPD2    C312426   3.632   1.590  17.035  0.2988 -0.9683 -0.2428
  842MPD2    C412427   3.715   1.685  16.988  0.0589  0.5055  0.3424
  842MPD2    C512428   3.713   1.717  16.859  0.5315  0.3670  0.1956
  842MPD2     H12429   3.483   1.455  16.989  0.5076  0.0784  0.9775
  842MPD2    H112430   3.778   1.748  17.050 -2.2537  3.5732 -0.4002
  842MPD2    H212431   3.637   1.675  16.664  0.4831 -0.8171 -0.0520
  842MPD2    H312432   3.786   1.790  16.827  0.7534 -0.4995 -1.2712
  842MPD2     N12433   3.645   1.563  17.172  0.0584 -0.2679 -0.5621
  842MPD2    H512434   3.717   1.609  17.226 -1.3129  1.5679 -0.3059
  842MPD2    N112435   3.447   1.507  16.722  1.0895 -0.7058 -0.0311
  842MPD2    H712436   3.452   1.545  16.628 -0.7998  0.9218  0.5312
  843MPD2     C12437   1.325   2.113   0.099 -0.0322 -0.3214  0.2193
  843MPD2    C112438   1.380   2.055   0.212  0.1061  0.3154  0.8833
  843MPD2    C212439   1.459   2.138   0.295  0.1227 -0.0281  0.0292
  843MPD2    C312440   1.475   2.278   0.262 -0.2326 -0.0088 -0.1238
  843MPD2    C412441   1.403   2.331   0.160  0.5422  0.1142 -0.6408
  843MPD2    C512442   1.337   2.245   0.078 -0.3224  0.3457 -0.2757
  843MPD2     H12443   1.504   2.113   0.390  0.5902 -0.6872 -0.3710
  843MPD2    H112444   1.398   2.436   0.133 -1.0272  0.0611 -0.5735
  843MPD2    H212445   1.273   2.067   0.017  0.2516  2.0161 -1.2752
  843MPD2    H312446   1.299   2.289  17.741 -0.1034  0.9500 -0.0776
  843MPD2     N12447   1.562   2.360   0.326 -0.0472  0.1093 -0.4966
  843MPD2    H512448   1.569   2.455   0.290  2.6113  0.5260  1.1226
  843MPD2    N112449   1.367   1.915   0.240  0.4371  0.1417 -0.8962
  843MPD2    H712450   1.303   1.869   0.176 -0.2973  0.2453 -0.2440
  844MPD2     C12451   4.378   0.526  16.830  0.5585  0.3529 -0.7297
  844MPD2    C112452   4.332   0.645  16.775 -0.8404  0.1273 -0.0049
  844MPD2    C212453   4.364   0.763  16.839  0.0977 -0.3273 -0.4081
  844MPD2    C312454   4.443   0.763  16.953 -0.1920 -0.0339  0.0940
  844MPD2    C412455   4.494   0.650  16.999  0.5101  0.3910 -0.4653
  844MPD2    C512456   4.467   0.530  16.941 -0.3489 -0.1969  0.0134
  844MPD2     H12457   4.319   0.853  16.799  0.5227  0.1475  0.1753
  844MPD2    H112458   4.550   0.642  17.092  1.3511  2.2199 -0.8269
  844MPD2    H212459   4.355   0.428  16.789  1.2947  0.3031 -1.0218
  844MPD2    H312460   4.506   0.439  16.985  0.6747 -0.4812 -1.4650
  844MPD2     N12461   4.456   0.876  17.039 -0.4742  0.1696 -0.1739
  844MPD2    H512462   4.511   0.868  17.123  0.4272  1.7317 -0.6044
  844MPD2    N112463   4.261   0.660  16.652 -0.0257  0.9180  0.0472
  844MPD2    H712464   4.233   0.747  16.608  0.5005  0.7183 -0.6966
  845MPD2     C12465   4.342   1.976  17.039 -0.8869  0.1030 -0.1092
  845MPD2    C112466   4.403   1.938  17.159 -0.4481  0.4876  0.3864
  845MPD2    C212467   4.429   1.807  17.185  0.1027 -0.3167  0.5057
  845MPD2    C312468   4.406   1.703  17.093  0.3290  0.2179 -0.3228
  845MPD2    C412469   4.356   1.750  16.974  0.6308 -0.6560 -0.1580
  845MPD2    C512470   4.323   1.874  16.948  0.5954 -0.0389 -1.1303
  845MPD2     H12471   4.472   1.777  17.279 -1.3413  0.4352  1.3984
  845MPD2    H112472   4.328   1.676  16.899  0.4346 -2.0135  1.2590
  845MPD2    H212473   4.315   2.078  17.016 -2.0234 -0.1955 -0.0685
  845MPD2    H312474   4.266   1.895  16.858 -0.3940  1.3953 -0.1742
  845MPD2     N12475   4.450   1.575  17.125 -0.6883  0.3097 -0.2562
  845MPD2    H512476   4.501   1.559  17.211 -0.2538  2.4379 -0.1281
  845MPD2    N112477   4.435   2.035  17.250 -0.3565 -0.4478  0.3765
  845MPD2    H712478   4.401   2.128  17.231  1.4159  0.2103  0.4391
  846MPD2     C12479   1.430   1.563  13.934  0.3746  0.5183 -1.0290
  846MPD2    C112480   1.291   1.574  13.931 -0.3657  0.0958  0.0657
  846MPD2    C212481   1.223   1.561  14.051  0.2676 -0.2045 -0.1327
  846MPD2    C312482   1.289   1.531  14.170  0.1521 -0.2720  0.1273
  846MPD2    C412483   1.427   1.515  14.166 -0.8511  0.3251  0.4849
  846MPD2    C512484   1.500   1.529  14.049 -0.0375 -0.1234  0.5373
  846MPD2     H12485   1.117   1.584  14.060  0.3627 -0.0720  0.6914
  846MPD2    H112486   1.486   1.504  14.257 -0.7929  1.7652  0.6176
  846MPD2    H212487   1.494   1.597  13.853  1.7187  1.2279  0.3345
  846MPD2    H312488   1.608   1.539  14.052 -0.1119  0.6410  0.8835
  846MPD2     N12489   1.210   1.532  14.289 -0.5758  0.5623 -0.4640
  846MPD2    H512490   1.114   1.563  14.284 -0.5419  0.8284  0.6893
  846MPD2    N112491   1.224   1.610  13.820  0.2102  0.3567  0.4455
  846MPD2    H712492   1.123   1.600  13.821  0.2999 -1.0543 -2.3173
  847MPD2     C12493   1.219   2.214  14.344  0.0911  0.1470  0.1147
  847MPD2    C112494   1.260   2.301  14.244 -0.0324 -0.9176 -0.5581
  847MPD2    C212495   1.389   2.299  14.201 -0.0021 -0.2306 -0.1520
  847MPD2    C312496   1.480   2.209  14.256 -0.0214 -0.0408  0.4715
  847MPD2    C412497   1.436   2.116  14.346  0.8237  0.4681  0.1886
  847MPD2    C512498   1.310   2.127  14.401 -0.3065 -0.3236 -0.0164
  847MPD2     H12499   1.416   2.357  14.114 -3.9925 -1.5635 -2.2964
  847MPD2    H112500   1.504   2.041  14.387  2.5100  1.1033 -1.4100
  847MPD2    H212501   1.116   2.217  14.378  0.3163  0.1751  0.7960
  847MPD2    H312502   1.275   2.055  14.474 -1.0499  0.5306  0.4743
  847MPD2     N12503   1.616   2.220  14.219  0.1770  0.0177  0.2261
  847MPD2    H512504   1.641   2.302  14.166  2.1228 -0.4262  0.4730
  847MPD2    N112505   1.181   2.400  14.184 -0.2901  0.6050  0.1311
  847MPD2    H712506   1.224   2.478  14.137  0.4753 -0.7132 -1.3450
  848MPD2     C12507   3.979   1.515  16.607  0.5169  0.7152 -0.0297
  848MPD2    C112508   3.990   1.576  16.734 -0.8818 -0.7833  0.3040
  848MPD2    C212509   4.013   1.710  16.741  0.5146 -0.1617  0.3001
  848MPD2    C312510   4.012   1.789  16.625  0.6063 -0.3509  0.3692
  848MPD2    C412511   4.011   1.726  16.501  0.7267 -0.9634 -0.4271
  848MPD2    C512512   4.000   1.592  16.494 -0.5861 -0.3458  0.1139
  848MPD2     H12513   4.019   1.757  16.838 -3.5429 -1.0487  0.9730
  848MPD2    H112514   4.010   1.782  16.408  0.5827 -0.9863 -0.4393
  848MPD2    H212515   3.969   1.407  16.603 -0.7430  0.7877  1.0552
  848MPD2    H312516   3.995   1.543  16.398  0.2820  1.1951 -0.7010
  848MPD2     N12517   4.002   1.928  16.623  0.6430  0.2007  0.1554
  848MPD2    H512518   3.995   1.970  16.531  0.1269  2.5197  1.2265
  848MPD2    N112519   3.986   1.508  16.860  0.2793  0.4982 -0.5564
  848MPD2    H712520   3.981   1.562  16.945  2.1379  0.6595 -0.5485
  849MPD2     C12521   3.178   0.577  14.489  0.1897  0.0397  0.1522
  849MPD2    C112522   3.259   0.630  14.391  0.3899 -0.2338  0.3171
  849MPD2    C212523   3.382   0.681  14.422  0.6421 -0.1767  0.4574
  849MPD2    C312524   3.422   0.674  14.554 -0.3059  0.2962  0.6518
  849MPD2    C412525   3.342   0.622  14.659  0.3109  0.1042 -0.3052
  849MPD2    C512526   3.219   0.574  14.620 -0.3617  0.2964 -0.2366
  849MPD2     H12527   3.448   0.727  14.349 -0.9613  0.6765 -0.4523
  849MPD2    H112528   3.380   0.631  14.760  1.6102 -1.2889 -0.6774
  849MPD2    H212529   3.090   0.516  14.468 -0.7407  0.8495  1.6783
  849MPD2    H312530   3.158   0.531  14.699 -0.7670  0.4391 -0.4710
  849MPD2     N12531   3.546   0.732  14.574 -0.1060  0.4350  0.0216
  849MPD2    H512532   3.598   0.748  14.488 -4.4847  0.2483 -2.6519
  849MPD2    N112533   3.201   0.647  14.267  0.0276  0.3263 -0.0424
  849MPD2    H712534   3.117   0.593  14.252  2.3678 -3.1894 -0.4762
  850MPD2     C12535   1.062   3.550  14.685 -0.2045  0.1365  0.2315
  850MPD2    C112536   1.039   3.667  14.754  0.1661 -0.6849 -0.4353
  850MPD2    C212537   1.147   3.720  14.826  0.1998  0.2234 -0.8196
  850MPD2    C312538   1.270   3.660  14.838  0.0698 -0.4254 -0.9571
  850MPD2    C412539   1.284   3.544  14.765  1.0000 -0.0544  0.2577
  850MPD2    C512540   1.184   3.495  14.680  0.1564  1.5854  0.1873
  850MPD2     H12541   1.125   3.814  14.873  0.3385  0.0319 -0.3759
  850MPD2    H112542   1.380   3.494  14.760  0.9140 -0.1016 -0.8362
  850MPD2    H212543   0.980   3.512  14.625  0.5959 -0.9870 -0.1463
  850MPD2    H312544   1.206   3.406  14.622 -0.4994  0.5093  1.5987
  850MPD2     N12545   1.381   3.718  14.909  0.4466  0.6681 -0.0212
  850MPD2    H512546   1.463   3.660  14.925  0.5745  0.9847  0.4806
  850MPD2    N112547   0.910   3.730  14.748 -0.1643  0.4633  0.0290
  850MPD2    H712548   0.865   3.705  14.660 -0.9772  1.8244  0.0519
  851MPD2     C12549   1.287   3.738  15.528 -0.0427  0.2955  0.4537
  851MPD2    C112550   1.261   3.704  15.398  0.7204 -0.3920 -0.2395
  851MPD2    C212551   1.349   3.618  15.335 -0.1913 -0.3283  0.1503
  851MPD2    C312552   1.470   3.576  15.395 -0.2250  0.1751 -0.0966
  851MPD2    C412553   1.507   3.626  15.520  0.0511 -0.4499  0.0556
  851MPD2    C512554   1.408   3.700  15.587 -0.5307 -0.1318  0.6051
  851MPD2     H12555   1.325   3.572  15.240 -2.5254 -0.5879  0.8634
  851MPD2    H112556   1.599   3.602  15.571 -0.1955 -1.0854  0.1999
  851MPD2    H212557   1.227   3.809  15.585 -0.9119 -0.3724  0.3738
  851MPD2    H312558   1.426   3.748  15.682  2.1599  2.3486 -1.1455
  851MPD2     N12559   1.555   3.490  15.317 -0.5721 -0.0418  0.1782
  851MPD2    H512560   1.520   3.459  15.227  0.2800 -2.0028  0.5200
  851MPD2    N112561   1.141   3.760  15.337 -0.2191 -0.7135  0.1795
  851MPD2    H712562   1.082   3.820  15.393  1.7399  0.2743  1.1877
  852MPD2     C12563   0.961   1.589  10.035 -0.0697  0.2713 -0.4118
  852MPD2    C112564   1.036   1.540  10.138 -0.1112 -0.2988 -0.5765
  852MPD2    C212565   1.126   1.618  10.194 -0.4616  0.2878  0.9681
  852MPD2    C312566   1.145   1.746  10.149 -0.8326 -0.4218 -0.4541
  852MPD2    C412567   1.063   1.800  10.052  0.7365  0.0005  0.1855
  852MPD2    C512568   0.981   1.714   9.986  0.1526 -0.4075 -0.1751
  852MPD2     H12569   1.196   1.589  10.271  0.6662 -0.2654 -0.2874
  852MPD2    H112570   1.078   1.896  10.003 -1.2107  0.5498  0.6790
  852MPD2    H212571   0.883   1.533   9.983 -0.4962 -0.9388  1.5514
  852MPD2    H312572   0.923   1.742   9.899 -0.7938 -0.6860  0.3640
  852MPD2     N12573   1.255   1.816  10.215  0.4306 -0.2220  0.6053
  852MPD2    H512574   1.287   1.776  10.302 -1.1936  0.2599  1.4191
  852MPD2    N112575   1.038   1.408  10.186 -0.0553  0.0614 -0.0261
  852MPD2    H712576   1.102   1.386  10.261 -1.7105 -0.1504  1.2948
  853MPD2     C12577   2.871   0.348  12.623  0.1854 -0.0450 -0.6697
  853MPD2    C112578   2.839   0.461  12.545 -0.5457 -0.0643 -0.6035
  853MPD2    C212579   2.888   0.475  12.421  0.5618 -0.1511  0.4920
  853MPD2    C312580   2.968   0.376  12.364  0.1220  0.6623  0.1566
  853MPD2    C412581   2.998   0.260  12.435  0.1868  0.5766  0.0063
  853MPD2    C512582   2.945   0.247  12.567 -0.4053  0.3016 -0.1740
  853MPD2     H12583   2.862   0.567  12.369 -1.2438  0.1006  1.8602
  853MPD2    H112584   3.066   0.182  12.403  2.1123  1.4469  2.0134
  853MPD2    H212585   2.847   0.340  12.728  0.2069  2.5381 -0.4528
  853MPD2    H312586   2.965   0.164  12.634  0.3221 -1.3366 -2.4228
  853MPD2     N12587   3.029   0.388  12.236  0.4169 -0.4969  0.5603
  853MPD2    H512588   3.103   0.320  12.222 -0.3317 -0.9528 -1.1753
  853MPD2    N112589   2.775   0.562  12.626 -0.1280 -0.3040 -0.2145
  853MPD2    H712590   2.744   0.538  12.720 -0.9420  0.4222 -0.2861
  854MPD2     C12591   4.108   1.627  12.725  0.7688  0.3936  0.2714
  854MPD2    C112592   4.242   1.663  12.724 -0.3249  0.6093 -0.3064
  854MPD2    C212593   4.334   1.567  12.763 -0.9565  1.1121 -0.1074
  854MPD2    C312594   4.305   1.439  12.802  0.3214  0.0832 -0.5205
  854MPD2    C412595   4.169   1.401  12.798 -0.3876 -0.2864 -0.8708
  854MPD2    C512596   4.075   1.494  12.754 -0.5467 -0.4069 -0.4559
  854MPD2     H12597   4.434   1.602  12.782 -0.2889 -0.7149 -0.2634
  854MPD2    H112598   4.138   1.300  12.822 -1.2480  0.5366  1.4962
  854MPD2    H212599   4.029   1.698  12.704 -0.2306 -1.1371 -1.1509
  854MPD2    H312600   3.970   1.468  12.748 -1.5836  3.3711  1.4314
  854MPD2     N12601   4.400   1.346  12.835 -0.4429 -0.1337 -0.0089
  854MPD2    H512602   4.371   1.249  12.846 -1.3657  0.4435  2.7166
  854MPD2    N112603   4.279   1.796  12.681  0.1313  0.3689 -0.1467
  854MPD2    H712604   4.208   1.854  12.638  0.0207  0.0580 -0.3763
  855MPD2     C12605   0.508   1.205  13.337  0.2957 -0.0280  0.4403
  855MPD2    C112606   0.414   1.109  13.362 -0.1859 -0.7451  0.3529
  855MPD2    C212607   0.313   1.088  13.271 -0.4313  0.0896 -0.2330
  855MPD2    C312608   0.298   1.172  13.161  0.3150 -0.5611 -0.6903
  855MPD2    C412609   0.385   1.277  13.143  0.9922  0.7867  0.1426
  855MPD2    C512610   0.488   1.292  13.236 -0.3185  0.9901 -0.4247
  855MPD2     H12611   0.237   1.014  13.296 -0.8784  1.3077  1.9701
  855MPD2    H112612   0.376   1.344  13.058  1.2965  1.1654  0.4050
  855MPD2    H212613   0.580   1.239  13.410 -0.7540  2.6970  0.2286
  855MPD2    H312614   0.554   1.375  13.214  2.0004  0.2855  4.1245
  855MPD2     N12615   0.191   1.165  13.065  0.0407  0.0862  0.0628
  855MPD2    H512616   0.163   1.254  13.025  0.4613 -0.6179 -1.7985
  855MPD2    N112617   0.409   1.026  13.480 -0.2978  0.7621 -0.0283
  855MPD2    H712618   0.331   0.961  13.488 -0.4721  0.7984 -1.3175
  856MPD2     C12619   2.064   2.029  13.752  0.4122 -0.1112  0.0189
  856MPD2    C112620   2.103   2.162  13.769 -0.0393  0.2350 -0.0867
  856MPD2    C212621   2.009   2.258  13.782  0.0409  0.4406 -0.5277
  856MPD2    C312622   1.875   2.234  13.751 -0.1950 -0.6911  0.4752
  856MPD2    C412623   1.840   2.105  13.726  0.2105  0.1499  0.5803
  856MPD2    C512624   1.936   2.006  13.733  0.6517 -0.1101 -0.8899
  856MPD2     H12625   2.048   2.357  13.801 -1.2950  1.1411 -1.4697
  856MPD2    H112626   1.738   2.070  13.716  0.1560  0.0955  1.3869
  856MPD2    H212627   2.141   1.952  13.751 -0.0973 -0.6540  2.3338
  856MPD2    H312628   1.907   1.904  13.711  1.8080 -1.0136  1.9004
  856MPD2     N12629   1.771   2.333  13.759  0.3035 -0.2161  0.0988
  856MPD2    H512630   1.683   2.309  13.714 -0.0644  2.3607 -0.5976
  856MPD2    N112631   2.237   2.208  13.795 -0.5872  0.2153  0.2084
  856MPD2    H712632   2.242   2.309  13.802 -1.5331  0.4085 -1.9174
  857MPD2     C12633   3.869   3.818  13.296 -0.2423 -0.3695  0.4272
  857MPD2    C112634   3.910   3.801  13.163  0.5403 -0.2809 -0.0188
  857MPD2    C212635   3.912   3.914  13.081 -0.1317 -0.1448  0.2504
  857MPD2    C312636   3.871   4.034  13.128  0.2748 -0.3006  0.4194
  857MPD2    C412637   3.844   4.054  13.254  0.1594 -0.8675 -0.2475
  857MPD2    C512638   3.837   3.945  13.335  0.0036 -0.0844  0.5830
  857MPD2     H12639   3.952   3.906  12.981 -0.3870  0.8589  0.0708
  857MPD2    H112640   3.802   4.143  13.300 -0.4231 -0.6837 -1.1375
  857MPD2    H212641   3.853   3.737  13.366 -1.0395 -2.0489 -1.6858
  857MPD2    H312642   3.792   3.974  13.429  1.2808 -0.9861  1.4831
  857MPD2     N12643   3.872   4.138  13.037 -0.5925 -0.0480 -0.3827
  857MPD2    H512644   3.925   4.125  12.951  0.0580 -0.2733  0.0527
  857MPD2    N112645   3.957   3.674  13.126  0.1758  0.2351  0.0255
  857MPD2    H712646   3.940   3.598  13.192 -2.4972  1.2042  0.4776
  858MPD2     C12647   0.118   3.686  16.229 -0.3046  0.4252 -0.5052
  858MPD2    C112648   0.066   3.599  16.332 -0.1277  0.1725  0.7265
  858MPD2    C212649   0.062   3.636  16.465  0.6332  0.1771  0.1697
  858MPD2    C312650   0.111   3.756  16.504  0.4387 -0.4305 -0.6549
  858MPD2    C412651   0.143   3.847  16.406  0.5460 -0.7979  0.0323
  858MPD2    C512652   0.146   3.815  16.273  0.2786 -0.0136  0.1933
  858MPD2     H12653   0.031   3.563  16.540  2.2239 -0.7132 -0.0376
  858MPD2    H112654   0.158   3.950  16.437  0.3407 -1.4044  2.1541
  858MPD2    H212655   0.124   3.661  16.124  1.8100  1.1180 -0.5545
  858MPD2    H312656   0.173   3.889  16.199  0.1602 -0.4842 -0.3241
  858MPD2     N12657   0.108   3.801  16.638  0.3055  0.3026 -0.2536
  858MPD2    H512658   0.115   3.902  16.651  1.4845 -0.0599  2.0668
  858MPD2    N112659   0.038   3.464  16.297  0.7821  0.1852  0.3720
  858MPD2    H712660   0.093   3.432  16.218 -0.7371 -0.1454 -0.5478
  859MPD2     C12661   3.139   1.455  15.795  0.6947 -0.2693 -0.4561
  859MPD2    C112662   3.234   1.359  15.768  0.1910 -0.3031  0.4018
  859MPD2    C212663   3.208   1.227  15.808  0.0697 -0.3008  0.2807
  859MPD2    C312664   3.095   1.192  15.875 -0.2352 -0.6420 -0.0324
  859MPD2    C412665   2.998   1.287  15.880  0.1671 -0.1208 -0.1776
  859MPD2    C512666   3.019   1.419  15.852 -0.2099 -0.2237  0.1788
  859MPD2     H12667   3.282   1.152  15.787  0.0333  0.2156 -1.6903
  859MPD2    H112668   2.901   1.258  15.920  0.0475 -0.0468 -0.4129
  859MPD2    H212669   3.143   1.557  15.758  0.8834 -0.3387 -0.6255
  859MPD2    H312670   2.942   1.493  15.866 -0.6705 -0.6731  0.0549
  859MPD2     N12671   3.066   1.074  15.932  0.1310 -0.2987 -0.6862
  859MPD2    H512672   2.980   1.065  15.985  2.0391 -3.7319  1.8597
  859MPD2    N112673   3.345   1.402  15.690  0.6699  0.5682  0.3619
  859MPD2    H712674   3.344   1.501  15.669 -1.5267  0.4047 -0.3596
  860MPD2     C12675   0.653   0.276  11.917 -0.0342  0.0246  0.1191
  860MPD2    C112676   0.689   0.314  12.043  0.6810 -0.4370 -0.7998
  860MPD2    C212677   0.602   0.274  12.146  0.4462 -0.6738  0.2711
  860MPD2    C312678   0.489   0.199  12.120  0.4395 -0.5806 -0.4103
  860MPD2    C412679   0.461   0.166  11.989 -0.6573  0.0315  0.4438
  860MPD2    C512680   0.545   0.201  11.885  0.6112  0.9735  0.0958
  860MPD2     H12681   0.616   0.308  12.248 -0.0741  0.2890  0.0195
  860MPD2    H112682   0.372   0.109  11.962 -1.3612  1.7000 -0.7484
  860MPD2    H212683   0.705   0.308  11.828 -0.2588 -0.2371 -0.1057
  860MPD2    H312684   0.519   0.187  11.780  2.4363 -0.6439 -0.1435
  860MPD2     N12685   0.413   0.172  12.236 -0.1070  0.1680 -0.3782
  860MPD2    H512686   0.453   0.205  12.324  1.2126 -1.4340 -0.3882
  860MPD2    N112687   0.800   0.399  12.066  0.1449 -0.0972 -0.2872
  860MPD2    H712688   0.825   0.420  12.162 -0.8868 -1.7097  0.3288
  861MPD2     C12689   0.549   3.670  11.234  0.3828  0.1824  0.3764
  861MPD2    C112690   0.423   3.687  11.289  0.1303 -0.7925 -0.5587
  861MPD2    C212691   0.334   3.771  11.216  0.3839  0.5923  0.5447
  861MPD2    C312692   0.375   3.832  11.094 -0.4700  0.1396  0.6855
  861MPD2    C412693   0.502   3.812  11.050  0.0636  0.2926 -0.3979
  861MPD2    C512694   0.588   3.732  11.121 -0.0970 -0.2972 -0.5360
  861MPD2     H12695   0.235   3.790  11.256  0.3029  2.7099 -0.6636
  861MPD2    H112696   0.539   3.867  10.964 -0.6658  0.5317 -0.5585
  861MPD2    H212697   0.625   3.619  11.293  1.1197 -1.6629 -2.1578
  861MPD2    H312698   0.691   3.716  11.091  0.7336  0.4115  1.8933
  861MPD2     N12699   0.286   3.918  11.030 -0.3496 -0.7325 -0.3866
  861MPD2    H512700   0.197   3.937  11.075 -0.7649  0.3240 -1.6197
  861MPD2    N112701   0.376   3.623  11.408 -0.1291  0.1069  1.0018
  861MPD2    H712702   0.280   3.644  11.433 -0.6058 -1.0610  0.1560
  862MPD2     C12703   4.481   3.670  10.558  0.1632 -0.1912  0.2135
  862MPD2    C112704   4.573   3.669  10.661  0.0754  0.4781  0.0700
  862MPD2    C212705   4.573   3.568  10.759 -0.0537 -0.1115 -0.6940
  862MPD2    C312706   4.473   3.469  10.754 -0.2801 -0.3500  0.6600
  862MPD2    C412707   4.387   3.466  10.649  0.9564  0.1374  0.5515
  862MPD2    C512708   4.397   3.563  10.556 -0.2847 -0.1189 -0.1306
  862MPD2     H12709   4.647   3.582  10.837 -0.2167 -0.7473 -0.4171
  862MPD2    H112710   4.306   3.394  10.653  0.3930  0.7830  0.7210
  862MPD2    H212711   4.477   3.748  10.483 -0.0663 -1.8564 -1.4943
  862MPD2    H312712   4.336   3.561  10.466  1.6240 -0.5066 -1.4006
  862MPD2     N12713   4.451   3.370  10.860  0.4146  0.0196  0.4361
  862MPD2    H512714   4.377   3.302  10.845  0.9339 -0.2959 -0.6945
  862MPD2    N112715   4.650   3.787  10.696 -0.0577  0.3189 -0.5826
  862MPD2    H712716   4.717   3.766  10.769 -1.8313 -0.2247  0.8812
  863MPD2     C12717   2.717   2.359  16.553  0.0698  0.0767  0.1501
  863MPD2    C112718   2.699   2.475  16.626  0.3641  0.8600 -0.5016
  863MPD2    C212719   2.761   2.493  16.745  0.1301 -0.5278 -0.0173
  863MPD2    C312720   2.850   2.395  16.783 -0.3320 -0.3059 -0.5953
  863MPD2    C412721   2.863   2.274  16.713  0.4108  0.0533 -0.0268
  863MPD2    C512722   2.796   2.253  16.591  0.4935 -0.0916  0.0502
  863MPD2     H12723   2.756   2.591  16.791  0.5897  0.4406 -2.0329
  863MPD2    H112724   2.928   2.193  16.746  3.7913  2.2985 -1.1660
  863MPD2    H212725   2.673   2.358  16.454 -0.0270  3.2734  0.1604
  863MPD2    H312726   2.816   2.173  16.522 -3.1624  0.5154 -1.7138
  863MPD2     N12727   2.926   2.407  16.909 -0.3412  0.7523 -0.3929
  863MPD2    H512728   2.985   2.328  16.932 -0.2856  1.2468  1.1607
  863MPD2    N112729   2.610   2.568  16.573 -0.3231 -0.4126  0.3666
  863MPD2    H712730   2.563   2.551  16.485  2.4775  2.8033 -1.7658
  864MPD2     C12731   3.545   4.359  17.172  0.1750  0.5958 -0.0569
  864MPD2    C112732   3.582   4.245  17.114 -0.0191  0.3642  0.5620
  864MPD2    C212733   3.702   4.243  17.044 -0.4222  0.2972  0.0483
  864MPD2    C312734   3.771   4.359  17.017  0.8479 -0.1725  0.2090
  864MPD2    C412735   3.722   4.479  17.064 -0.2330  0.4996 -0.0053
  864MPD2    C512736   3.612   4.483  17.145 -0.8796 -0.0535 -0.1037
  864MPD2     H12737   3.742   4.148  17.014  0.7644 -0.2181  3.3042
  864MPD2    H112738   3.790   4.559  17.037  1.0131 -0.4335  0.3675
  864MPD2    H212739   3.466   4.367  17.245 -0.2949  1.5072 -0.6613
  864MPD2    H312740   3.574   4.576  17.187  2.1243  1.8374 -1.5588
  864MPD2     N12741   3.885   4.367  16.939  0.6972 -0.1636 -0.0196
  864MPD2    H512742   3.913   4.460  16.910 -0.2297  0.3266  0.6329
  864MPD2    N112743   3.517   4.135  17.148 -0.3142  0.5392  0.0827
  864MPD2    H712744   3.440   4.155  17.211 -0.9002  0.7662 -0.7043
  865MPD2     C12745   3.544   4.221  16.165 -0.1900 -0.1432 -0.9073
  865MPD2    C112746   3.602   4.123  16.246  0.5412 -0.1050 -0.1955
  865MPD2    C212747   3.696   4.160  16.343  0.6945 -0.0442  0.0029
  865MPD2    C312748   3.737   4.282  16.356  0.3518 -0.9502  0.2032
  865MPD2    C412749   3.684   4.384  16.282  0.1697 -0.2211  0.2088
  865MPD2    C512750   3.583   4.349  16.188 -0.0517 -0.2319  0.2722
  865MPD2     H12751   3.736   4.090  16.415 -1.5807 -1.3506 -0.0143
  865MPD2    H112752   3.702   4.489  16.303 -0.2648 -0.2744  0.8731
  865MPD2    H212753   3.460   4.200  16.099 -0.5671 -1.0881 -0.1194
  865MPD2    H312754   3.521   4.427  16.145 -1.9636 -1.7218  0.3495
  865MPD2     N12755   3.835   4.307  16.455 -0.2013  0.0348 -0.3873
  865MPD2    H512756   3.856   4.227  16.515 -0.7415  1.2586  1.4232
  865MPD2    N112757   3.555   3.987  16.222 -0.6158  0.0164  0.3737
  865MPD2    H712758   3.509   3.957  16.136 -1.2920 -0.1835  0.8135
  866MPD2     C12759   0.748   3.640  11.725  0.8181 -0.4198  0.6188
  866MPD2    C112760   0.743   3.736  11.630  0.5312  0.4853  0.2805
  866MPD2    C212761   0.641   3.838  11.640 -0.5113 -0.0820  0.0788
  866MPD2    C312762   0.560   3.846  11.751 -0.6765  0.0944  0.2432
  866MPD2    C412763   0.582   3.758  11.855  0.2391 -0.7316 -0.1140
  866MPD2    C512764   0.681   3.663  11.845  0.1237  0.0575 -0.0346
  866MPD2     H12765   0.621   3.907  11.559 -0.1837  0.2169  0.2499
  866MPD2    H112766   0.529   3.773  11.948  1.3772 -0.2442  0.4580
  866MPD2    H212767   0.835   3.576  11.732 -0.6758 -2.5026  0.1273
  866MPD2    H312768   0.720   3.605  11.929 -0.9624  0.6716  0.8866
  866MPD2     N12769   0.462   3.949  11.757  0.9763  0.2440 -0.0927
  866MPD2    H512770   0.399   3.929  11.834 -0.3641  1.0245 -1.0031
  866MPD2    N112771   0.828   3.720  11.516 -0.4663 -0.3988 -0.0293
  866MPD2    H712772   0.872   3.629  11.506 -0.0937 -0.4247  1.9394
  867MPD2     C12773   2.128   3.832  16.434 -0.5679  0.4278  0.3045
  867MPD2    C112774   2.137   3.790  16.566  0.1821  0.0209  0.3220
  867MPD2    C212775   2.142   3.879  16.672  0.6024  0.3424  0.3193
  867MPD2    C312776   2.148   4.013  16.645  0.0877 -0.2851 -0.1985
  867MPD2    C412777   2.158   4.055  16.516 -0.5280  0.1056  0.5694
  867MPD2    C512778   2.138   3.967  16.412 -0.0475  0.1784  0.4065
  867MPD2     H12779   2.129   3.839  16.772  2.3832  1.3211  0.9388
  867MPD2    H112780   2.172   4.163  16.509 -0.4595  0.1539  1.5148
  867MPD2    H212781   2.126   3.764  16.350 -2.3088 -0.2336  0.8837
  867MPD2    H312782   2.136   4.004  16.310  0.1534 -2.3880 -0.5165
  867MPD2     N12783   2.161   4.113  16.750  0.0112  0.3866 -0.1832
  867MPD2    H512784   2.173   4.205  16.710 -0.1555  0.2955 -0.4451
  867MPD2    N112785   2.150   3.650  16.580 -0.5411  0.0025 -0.0966
  867MPD2    H712786   2.132   3.594  16.497 -1.7225 -0.3139  0.3629
  868MPD2     C12787   4.169   1.660  13.488  0.7378  0.5628 -0.0404
  868MPD2    C112788   4.219   1.790  13.482 -0.2097 -0.4128 -0.1534
  868MPD2    C212789   4.122   1.892  13.499  0.3966  0.3411  0.4057
  868MPD2    C312790   3.990   1.865  13.537 -0.4212 -0.5981 -0.0344
  868MPD2    C412791   3.947   1.736  13.537 -0.7483 -0.4569  0.1755
  868MPD2    C512792   4.042   1.640  13.515  0.9282 -0.2531  0.0538
  868MPD2     H12793   4.145   1.998  13.501 -2.3757  1.0065 -1.2906
  868MPD2    H112794   3.846   1.699  13.553 -1.2634 -0.1473 -2.3709
  868MPD2    H212795   4.227   1.574  13.457  0.9690  0.8719 -0.4613
  868MPD2    H312796   3.997   1.541  13.514  3.7832 -1.5465  0.4813
  868MPD2     N12797   3.906   1.973  13.560 -0.2412 -0.2218 -0.2769
  868MPD2    H512798   3.960   2.059  13.565 -1.6969  0.6090  1.0490
  868MPD2    N112799   4.351   1.819  13.449 -0.1637 -0.3001 -0.0694
  868MPD2    H712800   4.417   1.742  13.443  0.0690 -0.0531 -0.6585
  869MPD2     C12801   1.599   0.868   1.868  0.4679  0.1429 -0.0884
  869MPD2    C112802   1.466   0.868   1.851 -0.0246 -0.5610 -0.1300
  869MPD2    C212803   1.414   0.923   1.737  1.1684 -0.3109 -0.4051
  869MPD2    C312804   1.498   0.960   1.639 -0.3161  0.0960 -0.3991
  869MPD2    C412805   1.635   0.973   1.659 -0.1397  0.2207 -0.2679
  869MPD2    C512806   1.682   0.932   1.781 -0.0996  0.5890  0.1075
  869MPD2     H12807   1.307   0.912   1.728  0.7725  2.0148  1.3157
  869MPD2    H112808   1.704   1.012   1.585 -1.2534 -1.0653 -1.9745
  869MPD2    H212809   1.645   0.821   1.954 -2.0556 -1.6424  0.2727
  869MPD2    H312810   1.789   0.933   1.795  0.0271  1.5491 -0.9577
  869MPD2     N12811   1.442   1.007   1.515  0.1778 -0.4456 -0.0475
  869MPD2    H512812   1.341   1.018   1.513  0.2890  0.4812 -0.8443
  869MPD2    N112813   1.390   0.810   1.959 -0.3842 -0.9097  0.4171
  869MPD2    H712814   1.442   0.777   2.040 -0.4579 -0.0152  0.8404
  870MPD2     C12815   0.193   4.370   1.768 -0.2752  0.2670  0.4896
  870MPD2    C112816   0.307   4.446   1.765  0.0596  0.5091  0.0816
  870MPD2    C212817   0.298   4.582   1.734  0.2331  0.9940 -0.1032
  870MPD2    C312818   0.175   4.639   1.697  0.2351  0.4468  0.1366
  870MPD2    C412819   0.059   4.559   1.700 -0.4717 -0.1907 -0.3366
  870MPD2    C512820   0.070   4.424   1.731 -0.9455  0.5204 -0.4254
  870MPD2     H12821   0.383   4.649   1.729 -0.6069  1.9778 -1.1634
  870MPD2    H112822   4.698   4.594   1.678  0.1931  0.6255 -2.0808
  870MPD2    H212823   0.186   4.268   1.802 -2.1078  0.7417  1.5203
  870MPD2    H312824   4.715   4.370   1.729 -1.1420  0.7764  1.2280
  870MPD2     N12825   0.179   0.039   1.681  0.2220 -0.5382 -0.2289
  870MPD2    H512826   0.272   0.078   1.692  0.2799 -0.4059 -1.1951
  870MPD2    N112827   0.421   4.382   1.806 -0.2409 -0.1905 -0.3558
  870MPD2    H712828   0.421   4.281   1.811 -2.7247 -0.1195  0.7292
  871MPD2     C12829   1.148   4.178  16.499  0.0426 -0.6511 -0.8033
  871MPD2    C112830   1.150   4.090  16.603 -0.6020 -0.2085 -0.1434
  871MPD2    C212831   1.164   3.958  16.578  0.5468  0.0565  0.5556
  871MPD2    C312832   1.161   3.915  16.443 -0.0245 -0.0819  0.5855
  871MPD2    C412833   1.149   4.005  16.336 -0.0698  0.5587 -0.5983
  871MPD2    C512834   1.143   4.139  16.369  0.2206 -0.1733 -0.0177
  871MPD2     H12835   1.175   3.884  16.657 -0.5441 -1.7613 -0.9938
  871MPD2    H112836   1.156   3.968  16.235  1.0296  1.6728 -0.9312
  871MPD2    H212837   1.152   4.283  16.527 -0.2967 -0.6789 -0.6540
  871MPD2    H312838   1.137   4.214  16.290 -0.7560  0.8330  1.0235
  871MPD2     N12839   1.187   3.775  16.425  0.0943  0.2035 -0.0648
  871MPD2    H512840   1.193   3.715  16.506  0.2286 -1.5419 -1.3759
  871MPD2    N112841   1.145   4.145  16.727 -0.6599  0.4927 -0.3455
  871MPD2    H712842   1.174   4.242  16.730 -4.1635  1.5197 -0.0270
  872MPD2     C12843   2.400   0.915  13.839 -0.8279 -0.8251  0.1618
  872MPD2    C112844   2.434   1.035  13.895 -0.0389 -0.3721 -0.2568
  872MPD2    C212845   2.335   1.124  13.941 -0.2735  0.5206 -0.3182
  872MPD2    C312846   2.203   1.082  13.945  0.5721 -0.0127  1.0019
  872MPD2    C412847   2.175   0.958  13.895 -0.5711 -0.6435  0.0890
  872MPD2    C512848   2.267   0.882  13.839  0.5463 -0.2789 -0.2351
  872MPD2     H12849   2.366   1.222  13.975  0.5850 -0.1895  0.9524
  872MPD2    H112850   2.077   0.912  13.906 -1.3499  0.6100 -1.5474
  872MPD2    H212851   2.469   0.844  13.795 -0.2666 -0.8067  1.0247
  872MPD2    H312852   2.245   0.783  13.801 -2.7009  1.0442 -1.7746
  872MPD2     N12853   2.089   1.158  13.992 -0.3098  0.3157 -0.8122
  872MPD2    H512854   2.003   1.105  13.987 -1.0423  1.2697  1.7086
  872MPD2    N112855   2.569   1.075  13.905 -0.5285 -0.3328 -0.1598
  872MPD2    H712856   2.594   1.167  13.939  0.3190 -1.6735  2.8400
  873MPD2     C12857   4.411   1.121   1.029  0.8955 -0.1107  0.0153
  873MPD2    C112858   4.289   1.168   0.995 -0.5396  0.6539  0.1680
  873MPD2    C212859   4.198   1.076   0.951  0.2038 -0.3248  0.6736
  873MPD2    C312860   4.225   0.941   0.939 -0.5060  0.4117 -0.3748
  873MPD2    C412861   4.357   0.894   0.962  0.2272 -0.6989 -0.1948
  873MPD2    C512862   4.442   0.985   1.020  0.0067  0.3384  0.3701
  873MPD2     H12863   4.096   1.106   0.929 -0.5422 -2.4317  1.2631
  873MPD2    H112864   4.380   0.789   0.950 -0.3959 -0.5305 -2.9538
  873MPD2    H212865   4.483   1.185   1.078  1.9506 -2.2012  1.2132
  873MPD2    H312866   4.528   0.952   1.077  0.5448 -1.4926 -1.4892
  873MPD2     N12867   4.127   0.848   0.899 -0.3547 -0.4435 -0.3733
  873MPD2    H512868   4.163   0.754   0.887  0.7358  0.0242 -0.6840
  873MPD2    N112869   4.262   1.304   1.018 -0.4408 -0.1622  0.3841
  873MPD2    H712870   4.333   1.352   1.072 -0.7414 -0.5154  1.0955
  874MPD2     C12871   3.315   1.986  16.239  0.3337 -0.3646 -0.3778
  874MPD2    C112872   3.359   1.908  16.342  0.4347 -0.0818 -0.0171
  874MPD2    C212873   3.462   1.956  16.420  0.1747  0.6162 -0.1606
  874MPD2    C312874   3.506   2.087  16.406  0.1415 -0.2039  0.3311
  874MPD2    C412875   3.464   2.159  16.300  0.7307 -0.5971 -0.1115
  874MPD2    C512876   3.375   2.103  16.216  0.1782 -0.3693 -0.5506
  874MPD2     H12877   3.505   1.900  16.502  2.5788  1.1238 -1.0854
  874MPD2    H112878   3.512   2.251  16.267 -3.2301  0.6900 -2.3312
  874MPD2    H212879   3.230   1.950  16.181 -0.4847  0.8797  0.0463
  874MPD2    H312880   3.334   2.163  16.136  0.2480 -1.4393 -1.3839
  874MPD2     N12881   3.593   2.139  16.502 -0.0710  0.2329  0.7791
  874MPD2    H512882   3.619   2.071  16.574  0.9622 -2.2227 -1.8926
  874MPD2    N112883   3.304   1.779  16.352 -0.5040  0.0572 -0.5227
  874MPD2    H712884   3.226   1.759  16.291 -1.0625  0.7454 -0.0247
  875MPD2     C12885   0.042   4.566  14.712 -0.1590 -0.3042 -0.0527
  875MPD2    C112886   4.647   4.584  14.749  0.0743  0.3814 -0.3346
  875MPD2    C212887   4.623   4.673  14.849 -0.6402 -0.0402 -0.9243
  875MPD2    C312888   4.720   0.014  14.908 -0.0577 -0.4183 -0.6577
  875MPD2    C412889   0.113   0.002  14.859 -0.1590  0.5381  0.2757
  875MPD2    C512890   0.142   4.635  14.769  0.1339  1.0864 -0.5422
  875MPD2     H12891   4.520   4.687  14.880 -0.6657  0.4419 -1.2442
  875MPD2    H112892   0.198   0.035  14.917  1.1663 -0.0772 -1.3256
  875MPD2    H212893   0.082   4.496  14.639 -3.0304 -1.5925 -0.3986
  875MPD2    H312894   0.246   4.628  14.737  0.0843 -2.2799  0.1019
  875MPD2     N12895   4.697   0.110  15.009 -0.1844  0.4768  0.7302
  875MPD2    H512896   0.031   0.171  15.047  2.7988 -2.6549 -0.0047
  875MPD2    N112897   4.538   4.541  14.676 -0.2702 -0.5536 -0.4444
  875MPD2    H712898   4.448   4.544  14.723  0.4120  3.0911  0.6019
  876MPD2     C12899   3.213   1.371  16.178 -0.0227 -0.5203  0.4266
  876MPD2    C112900   3.348   1.403  16.168 -0.0791  0.0036  0.5047
  876MPD2    C212901   3.435   1.304  16.212 -0.1315 -0.3292  0.1175
  876MPD2    C312902   3.391   1.176  16.265 -0.6922  1.0611 -0.7522
  876MPD2    C412903   3.254   1.157  16.279 -0.3815  0.5460  0.2487
  876MPD2    C512904   3.165   1.255  16.240 -0.1139  0.3332 -0.2119
  876MPD2     H12905   3.540   1.319  16.189  0.1996  1.2548  2.6313
  876MPD2    H112906   3.212   1.065  16.318  0.3391  0.4794  0.8592
  876MPD2    H212907   3.138   1.444  16.148 -0.3259 -0.5138  1.2199
  876MPD2    H312908   3.061   1.228  16.254  0.5855 -1.0607  2.3352
  876MPD2     N12909   3.488   1.073  16.291 -0.0216  0.3306 -0.2300
  876MPD2    H512910   3.583   1.085  16.256  0.4616  0.3837  1.0876
  876MPD2    N112911   3.386   1.534  16.115  0.3136 -0.5993 -0.2193
  876MPD2    H712912   3.312   1.585  16.070  0.1276 -1.4068 -0.8278
  877MPD2     C12913   3.335   1.783  15.380 -0.4712 -0.5084 -1.1736
  877MPD2    C112914   3.461   1.811  15.421  1.5305  0.2117  0.3008
  877MPD2    C212915   3.554   1.856  15.338 -0.0773 -0.1802  0.3143
  877MPD2    C312916   3.523   1.877  15.206  0.5543  0.3341  0.2557
  877MPD2    C412917   3.394   1.870  15.169  0.2122 -0.0598 -0.2864
  877MPD2    C512918   3.295   1.823  15.253  0.2000 -0.3349  0.2177
  877MPD2     H12919   3.653   1.869  15.382  0.6220  1.8660 -1.8782
  877MPD2    H112920   3.367   1.892  15.066 -0.9572  0.1771  0.0683
  877MPD2    H212921   3.259   1.740  15.444  1.0236  0.3709  1.1858
  877MPD2    H312922   3.195   1.805  15.216  1.2790  1.2898 -3.4528
  877MPD2     N12923   3.621   1.908  15.107 -0.1454  0.0623 -0.5627
  877MPD2    H512924   3.585   1.932  15.015 -1.8446 -0.0706  0.0550
  877MPD2    N112925   3.499   1.798  15.554  0.3060  0.4524 -0.5733
  877MPD2    H712926   3.590   1.821  15.592  1.0718 -1.8648 -0.9461
  878MPD2     C12927   3.414   0.158  13.376  0.3572 -0.1906 -0.1353
  878MPD2    C112928   3.383   0.287  13.343  0.2564  0.5406  0.3448
  878MPD2    C212929   3.331   0.367  13.443  0.7500 -1.0446  0.7121
  878MPD2    C312930   3.322   0.325  13.565 -0.2916 -0.7123  0.3957
  878MPD2    C412931   3.362   0.203  13.606  1.1164  0.3753  0.0815
  878MPD2    C512932   3.407   0.121  13.508  0.2014  0.2043  0.4984
  878MPD2     H12933   3.286   0.463  13.418  0.6003 -1.2115  0.3395
  878MPD2    H112934   3.337   0.164  13.704  0.4367 -2.1418 -1.0733
  878MPD2    H212935   3.432   0.085  13.298  0.8219  0.1794 -0.3736
  878MPD2    H312936   3.425   0.016  13.528 -0.8425  0.2077  1.4116
  878MPD2     N12937   3.279   0.415  13.659 -0.3446 -0.2823  0.6474
  878MPD2    H512938   3.243   0.501  13.618 -0.4483 -0.5889  0.0914
  878MPD2    N112939   3.402   0.325  13.212  0.2935  0.7937  0.1257
  878MPD2    H712940   3.453   0.263  13.151 -0.0021 -0.5879  1.2617
  879MPD2     C12941   3.403   2.859  16.895 -0.0083 -0.3552 -0.4216
  879MPD2    C112942   3.462   2.744  16.946  0.7384  0.2276  1.1993
  879MPD2    C212943   3.426   2.618  16.881 -0.3980 -0.8555 -0.5557
  879MPD2    C312944   3.324   2.610  16.789  0.4209 -0.5897  0.1459
  879MPD2    C412945   3.256   2.727  16.754 -0.1849  0.0459 -0.5267
  879MPD2    C512946   3.300   2.847  16.805  0.1711 -0.4978 -0.6783
  879MPD2     H12947   3.481   2.528  16.906 -2.3531 -1.5074  1.4372
  879MPD2    H112948   3.177   2.737  16.680 -1.9729 -3.9346  0.8346
  879MPD2    H212949   3.433   2.956  16.933  1.1480 -0.0719 -2.0979
  879MPD2    H312950   3.257   2.943  16.779  0.1066 -0.3993 -0.2044
  879MPD2     N12951   3.295   2.492  16.714  0.5544 -0.1520  0.0398
  879MPD2    H512952   3.215   2.492  16.652  0.6059 -2.4820 -0.0249
  879MPD2    N112953   3.572   2.765  17.031  0.0872  0.0127  0.2591
  879MPD2    H712954   3.591   2.863  17.044 -0.4925  0.3701 -1.5456
  880MPD2     C12955   0.199   4.317   0.390 -0.1618  0.3855 -0.8452
  880MPD2    C112956   0.190   4.368   0.518 -0.1134 -0.0015 -0.6105
  880MPD2    C212957   0.250   4.305   0.626 -0.3161  0.1759  0.1625
  880MPD2    C312958   0.313   4.184   0.605 -0.4151 -0.1427  0.1154
  880MPD2    C412959   0.310   4.126   0.482 -0.0646  0.2815  0.1382
  880MPD2    C512960   0.258   4.198   0.371  0.8543  0.0883 -0.2106
  880MPD2     H12961   0.261   4.354   0.722 -1.2356  0.3134  0.1949
  880MPD2    H112962   0.366   4.037   0.455  0.1972  0.8245 -1.1254
  880MPD2    H212963   0.159   4.373   0.306 -0.4450 -0.8196 -1.5136
  880MPD2    H312964   0.259   4.164   0.269  0.6253 -3.2546  0.9206
  880MPD2     N12965   0.385   4.134   0.713 -0.0043 -0.5690  0.2174
  880MPD2    H512966   0.389   4.183   0.801  0.3461  1.1553 -0.7675
  880MPD2    N112967   0.117   4.493   0.529  0.1301  0.1171 -0.2948
  880MPD2    H712968   0.073   4.526   0.443  0.3495  2.4096  0.4543
  881MPD2     C12969   0.131   0.593   0.014 -0.0843  0.4874  0.1230
  881MPD2    C112970   0.161   0.458   0.005 -0.2158 -0.2016  0.4689
  881MPD2    C212971   0.135   0.372   0.112  0.2153  0.0372 -0.5797
  881MPD2    C312972   0.088   0.424   0.232  0.9875  0.8239  0.1210
  881MPD2    C412973   0.070   0.558   0.245 -0.3934  0.1243 -0.1058
  881MPD2    C512974   0.087   0.641   0.135 -0.0272 -0.5901 -0.5700
  881MPD2     H12975   0.149   0.264   0.114 -0.4791 -0.0144  2.5120
  881MPD2    H112976   0.052   0.613   0.336  0.7392  0.4915 -0.0981
  881MPD2    H212977   0.126   0.659  17.682  1.8468 -0.0427 -0.3859
  881MPD2    H312978   0.065   0.747   0.143  2.5470 -0.1121  0.2636
  881MPD2     N12979   0.051   0.346   0.347 -0.7049  0.0121  0.4364
  881MPD2    H512980   0.010   0.397   0.425  0.1734  0.5652  0.5311
  881MPD2    N112981   0.240   0.409  17.647 -0.3870 -0.2397 -0.2230
  881MPD2    H712982   0.278   0.315  17.648  0.0217 -0.0484  1.4987
  882MPD2     C12983   3.734   2.209  14.483  0.5493 -0.2288 -0.6280
  882MPD2    C112984   3.705   2.101  14.562  0.6099 -0.1529  0.5412
  882MPD2    C212985   3.613   2.007  14.512  0.1412  0.0884 -0.1294
  882MPD2    C312986   3.558   2.022  14.381  0.3582  0.3206  0.2582
  882MPD2    C412987   3.590   2.132  14.304 -0.5878 -0.2098  0.6911
  882MPD2    C512988   3.674   2.228  14.358  0.0172 -0.2226  0.6600
  882MPD2     H12989   3.581   1.923  14.573 -2.2529 -0.1994 -1.7930
  882MPD2    H112990   3.546   2.150  14.207 -0.7885  2.9592  1.3813
  882MPD2    H212991   3.806   2.281  14.520 -1.1602  0.3490  1.5831
  882MPD2    H312992   3.693   2.322  14.308 -1.0198  0.1064  0.8882
  882MPD2     N12993   3.467   1.925  14.326  0.3725  0.7170  0.0263
  882MPD2    H512994   3.401   1.966  14.261 -1.1101 -1.5239  0.1297
  882MPD2    N112995   3.756   2.077  14.689  0.4228  0.0321  0.8434
  882MPD2    H712996   3.705   2.003  14.736  0.3420 -1.0891 -1.0193
  883MPD2     C12997   0.450   1.566  16.242  0.1269 -0.4113 -0.7153
  883MPD2    C112998   0.552   1.613  16.166 -0.4738  0.3331 -0.4095
  883MPD2    C212999   0.657   1.673  16.227  0.1047  0.0729 -0.2827
  883MPD2    C313000   0.661   1.704  16.364  0.0333 -0.1953 -0.3307
  883MPD2    C413001   0.558   1.652  16.441 -0.2411  0.1366  0.0001
  883MPD2    C513002   0.460   1.577  16.383  0.2947 -0.3123 -0.2100
  883MPD2     H13003   0.744   1.700  16.170  0.5627 -0.0706  0.3429
  883MPD2    H113004   0.551   1.648  16.549 -0.3711  0.9662  0.0248
  883MPD2    H213005   0.363   1.519  16.197 -0.5097  0.7189 -0.6853
  883MPD2    H313006   0.383   1.525  16.439 -0.4046  0.3218 -0.5757
  883MPD2     N13007   0.762   1.789  16.412 -0.4850 -0.2112  0.3381
  883MPD2    H513008   0.840   1.821  16.356 -1.3353 -0.9284 -1.2801
  883MPD2    N113009   0.564   1.598  16.025  0.6692 -0.1611 -0.4951
  883MPD2    H713010   0.646   1.647  15.991  1.5185 -1.2272  0.0237
  884MPD2     C13011   2.588   2.554  15.023 -0.3560  0.3644 -0.4993
  884MPD2    C113012   2.520   2.489  14.928 -0.0433 -0.0935  0.4452
  884MPD2    C213013   2.381   2.485  14.950 -0.2061 -0.4949 -0.2628
  884MPD2    C313014   2.322   2.559  15.043  0.5522  0.1532 -0.0574
  884MPD2    C413015   2.393   2.633  15.134 -1.4134  0.4711 -0.1680
  884MPD2    C513016   2.527   2.624  15.123 -0.3936  0.0807 -0.9164
  884MPD2     H13017   2.311   2.437  14.883 -0.8790 -0.0695  0.1355
  884MPD2    H113018   2.345   2.689  15.214  0.1362 -1.1636  1.8915
  884MPD2    H213019   2.695   2.548  15.035 -0.7430 -2.7366  1.3476
  884MPD2    H313020   2.577   2.697  15.186 -0.5485 -0.2699 -0.3936
  884MPD2     N13021   2.181   2.556  15.050  0.1491 -0.0015 -0.3086
  884MPD2    H513022   2.138   2.499  14.978 -0.2565  1.2974 -1.0920
  884MPD2    N113023   2.598   2.422  14.830 -0.2086  0.4226 -0.1632
  884MPD2    H713024   2.699   2.414  14.840 -0.1494 -0.6381 -1.6066
  885MPD2     C13025   1.277   2.268   0.533  0.2526  0.5882 -0.4479
  885MPD2    C113026   1.337   2.389   0.561 -0.3781 -0.5310 -1.1600
  885MPD2    C213027   1.287   2.499   0.492  0.8627  0.0710 -0.5459
  885MPD2    C313028   1.184   2.489   0.402 -0.0120  0.0663 -0.1853
  885MPD2    C413029   1.132   2.366   0.366  0.3316  1.0488  0.1529
  885MPD2    C513030   1.172   2.257   0.442 -0.2631 -0.1769 -0.3523
  885MPD2     H13031   1.331   2.598   0.500 -1.4151  1.0544 -0.1165
  885MPD2    H113032   1.049   2.348   0.298  0.2081  1.0992  0.2902
  885MPD2    H213033   1.295   2.171   0.578 -1.5639 -0.2027 -1.3952
  885MPD2    H313034   1.130   2.158   0.433 -0.1222 -0.2356 -0.3709
  885MPD2     N13035   1.147   2.607   0.330  0.3064 -0.0226 -0.3746
  885MPD2    H513036   1.207   2.689   0.327 -0.1343  0.2477 -1.6249
  885MPD2    N113037   1.437   2.388   0.660 -0.6176 -0.0059 -0.2961
  885MPD2    H713038   1.475   2.297   0.685  1.9323  0.7282 -1.5371
  886MPD2     C13039   2.301   0.735  15.267 -0.1491 -0.6338  0.2851
  886MPD2    C113040   2.406   0.797  15.324  0.2839  0.0684 -0.4130
  886MPD2    C213041   2.446   0.923  15.277  0.1407 -0.0441 -0.4130
  886MPD2    C313042   2.361   0.990  15.191 -0.4802  0.4578  0.7388
  886MPD2    C413043   2.240   0.934  15.147 -0.2149  0.2487  0.2389
  886MPD2    C513044   2.214   0.813  15.190 -0.2516  0.5354  0.0721
  886MPD2     H13045   2.541   0.970  15.299  0.8499 -2.0463  0.7406
  886MPD2    H113046   2.166   0.980  15.083  0.4594 -0.5778 -1.1341
  886MPD2    H213047   2.260   0.642  15.306  0.5309 -1.0550 -0.0068
  886MPD2    H313048   2.117   0.771  15.164  0.0428 -0.1831  0.1347
  886MPD2     N13049   2.399   1.114  15.142  0.5308  0.0096  0.6511
  886MPD2    H513050   2.345   1.153  15.064  0.7773 -1.1915 -0.1120
  886MPD2    N113051   2.497   0.732  15.408 -0.0135  0.2960 -0.1761
  886MPD2    H713052   2.579   0.788  15.427 -0.3071 -0.0505  2.0160
  887MPD2     C13053   3.119   0.938  15.573 -0.5696 -0.1837  0.4987
  887MPD2    C113054   2.982   0.960  15.575 -0.2554  0.2055 -0.5604
  887MPD2    C213055   2.935   1.090  15.534 -0.1083  0.2308  0.2735
  887MPD2    C313056   3.028   1.187  15.484 -0.1524  0.1556 -0.7029
  887MPD2    C413057   3.159   1.153  15.474  0.1870 -0.1222 -0.0253
  887MPD2    C513058   3.198   1.033  15.516  0.1795  0.2244  0.4707
  887MPD2     H13059   2.830   1.116  15.531 -0.0435  0.4951  0.2869
  887MPD2    H113060   3.235   1.229  15.458  0.2123 -0.5380 -1.8108
  887MPD2    H213061   3.159   0.845  15.612  0.7292  0.2637  0.2470
  887MPD2    H313062   3.304   1.012  15.510  0.1398  0.4303 -1.0197
  887MPD2     N13063   2.971   1.312  15.461 -0.1653  0.3948  0.5346
  887MPD2    H513064   2.870   1.318  15.469 -0.2890  1.2664 -1.7245
  887MPD2    N113065   2.890   0.857  15.595 -0.1382 -0.0683 -0.2284
  887MPD2    H713066   2.792   0.881  15.590  0.3103  1.7093 -0.2493
  888MPD2     C13067   4.525   1.064  15.202 -0.7099 -0.0027  0.0029
  888MPD2    C113068   4.446   1.172  15.248 -0.4579 -0.5108  1.0885
  888MPD2    C213069   4.494   1.300  15.245 -0.2061 -0.1236 -0.0877
  888MPD2    C313070   4.629   1.322  15.209  0.0081 -0.8416  0.0055
  888MPD2    C413071   4.706   1.212  15.178  0.2642 -0.1972  0.2460
  888MPD2    C513072   4.653   1.092  15.169 -0.1893 -0.2118 -0.8649
  888MPD2     H13073   4.435   1.391  15.253  2.8056  1.7974  0.4953
  888MPD2    H113074   0.072   1.221  15.155  0.3122 -2.2916 -0.2885
  888MPD2    H213075   4.485   0.964  15.201  1.5493 -0.9257  1.1961
  888MPD2    H313076   4.725   1.012  15.157 -0.6865 -1.0243  1.6940
  888MPD2     N13077   4.674   1.459  15.200 -0.3891  0.6450  0.0155
  888MPD2    H513078   4.601   1.530  15.202 -0.8987  0.0962  0.9235
  888MPD2    N113079   4.316   1.154  15.295  0.5608  0.8738 -0.5464
  888MPD2    H713080   4.275   1.234  15.343  2.8549  2.1992 -0.8523
  889MPD2     C13081   3.688   0.211  12.811  0.3614 -0.1977 -0.2837
  889MPD2    C113082   3.809   0.202  12.873 -0.1770  0.0925 -0.6864
  889MPD2    C213083   3.848   0.306  12.955  0.6399 -0.5126  0.0581
  889MPD2    C313084   3.786   0.430  12.952  0.0323 -0.2856 -0.5980
  889MPD2    C413085   3.680   0.440  12.865  0.1297  0.2347  0.1228
  889MPD2    C513086   3.626   0.332  12.798  0.1125 -0.0109  0.2026
  889MPD2     H13087   3.941   0.289  13.009 -0.7644 -1.6971  2.0979
  889MPD2    H113088   3.636   0.538  12.851  2.0236  1.0275 -0.3108
  889MPD2    H213089   3.649   0.128  12.753  1.8386 -1.2481  0.2456
  889MPD2    H313090   3.539   0.348  12.736  0.1352 -0.3939  0.0706
  889MPD2     N13091   3.838   0.537  13.028 -0.4196 -0.2022 -0.7233
  889MPD2    H513092   3.925   0.523  13.078 -1.6051  0.7414  1.6130
  889MPD2    N113093   3.874   0.080  12.907  0.2692 -1.1668  0.5135
  889MPD2    H713094   3.953   0.088  12.970  0.7749  2.3793 -0.5814
  890MPD2     C13095   3.762   2.636  14.761 -0.1691  0.2622 -0.0641
  890MPD2    C113096   3.753   2.738  14.854  0.4230  0.2470 -0.1368
  890MPD2    C213097   3.728   2.709  14.990 -0.2160 -0.4036  0.1874
  890MPD2    C313098   3.705   2.574  15.029  0.6772 -0.2553 -0.0567
  890MPD2    C413099   3.708   2.470  14.934  0.3269 -0.5965 -0.2261
  890MPD2    C513100   3.739   2.508  14.809 -0.4035 -0.5349  0.1166
  890MPD2     H13101   3.721   2.790  15.062 -0.2687  0.0930 -0.3769
  890MPD2    H113102   3.691   2.364  14.949  1.9608 -0.9626 -0.9509
  890MPD2    H213103   3.786   2.653  14.657 -0.0205  0.1005 -0.0563
  890MPD2    H313104   3.735   2.427  14.737 -1.5210 -1.2715  1.0183
  890MPD2     N13105   3.698   2.547  15.163 -0.4110 -0.5396  0.0794
  890MPD2    H513106   3.698   2.624  15.229  2.2625  0.0317 -0.5812
  890MPD2    N113107   3.761   2.863  14.792 -0.4687  0.4868  0.0369
  890MPD2    H713108   3.788   2.868  14.694 -1.9223 -2.8040 -0.5123
  891MPD2     C13109   1.821   0.888  16.519 -0.3546 -0.7236  0.2846
  891MPD2    C113110   1.788   1.000  16.593 -0.1282 -0.4227  0.3689
  891MPD2    C213111   1.870   1.044  16.691  0.1145  0.2127 -0.4570
  891MPD2    C313112   1.981   0.971  16.721 -0.2629 -0.0024 -0.1206
  891MPD2    C413113   2.006   0.849  16.663  0.5136  0.4909  0.1025
  891MPD2    C513114   1.928   0.812  16.561  0.6878  0.0366  0.4151
  891MPD2     H13115   1.847   1.132  16.751  0.9659 -0.3836  0.7459
  891MPD2    H113116   2.102   0.801  16.680  1.0054  0.7420 -1.9080
  891MPD2    H213117   1.761   0.863  16.431 -0.0931  0.9982 -0.3743
  891MPD2    H313118   1.952   0.719  16.510  0.9404  1.0994 -1.3806
  891MPD2     N13119   2.065   1.028  16.816 -0.4048  0.4387  0.6643
  891MPD2    H513120   2.038   1.124  16.836 -0.0802  1.5341 -3.9703
  891MPD2    N113121   1.678   1.083  16.544 -0.2005 -0.2468  0.2516
  891MPD2    H713122   1.652   1.075  16.446 -1.8069 -2.3823  0.8635
  892MPD2     C13123   2.779   1.817  14.953  0.5881  0.4006  0.3537
  892MPD2    C113124   2.733   1.830  14.821  0.5224  0.2396 -0.1747
  892MPD2    C213125   2.820   1.828  14.715  0.2375  0.1926  0.4038
  892MPD2    C313126   2.954   1.797  14.738 -0.3470 -0.1858 -0.0476
  892MPD2    C413127   2.995   1.777  14.871  0.1162  0.2727 -0.0611
  892MPD2    C513128   2.909   1.794  14.975 -0.1448 -0.4620  0.1665
  892MPD2     H13129   2.784   1.845  14.614 -2.9754 -0.7350  1.3920
  892MPD2    H113130   3.096   1.758  14.907 -0.7032  0.0572  2.1220
  892MPD2    H213131   2.718   1.842  15.039  1.7452  1.5627  0.8462
  892MPD2    H313132   2.953   1.791  15.074  0.9750  1.4623 -0.2487
  892MPD2     N13133   3.047   1.765  14.635  0.6101  0.9791 -0.0378
  892MPD2    H513134   3.143   1.741  14.659  0.2136  0.1947  0.7788
  892MPD2    N113135   2.596   1.863  14.791 -0.2559 -0.3956  0.3045
  892MPD2    H713136   2.573   1.894  14.696 -0.3144 -0.2788  0.3557
  893MPD2     C13137   4.650   1.291   1.980  0.0989  0.0342 -0.0724
  893MPD2    C113138   4.635   1.217   1.865 -0.1542 -0.1549 -0.1227
  893MPD2    C213139   4.512   1.193   1.813  0.1966 -0.7607  0.3806
  893MPD2    C313140   4.403   1.260   1.870  0.1214 -0.1590  0.6627
  893MPD2    C413141   4.418   1.332   1.992  0.4955  0.2116 -0.0358
  893MPD2    C513142   4.543   1.343   2.047  0.0478  0.4194  0.5300
  893MPD2     H13143   4.503   1.117   1.737  0.6657 -0.3635 -0.0712
  893MPD2    H113144   4.332   1.364   2.050  0.4802 -1.6522  0.9791
  893MPD2    H213145   0.007   1.294   2.030 -0.7798 -0.7069  1.6620
  893MPD2    H313146   4.548   1.399   2.140  2.3057  0.2247  0.5327
  893MPD2     N13147   4.274   1.239   1.818  0.0975 -0.1218  0.6928
  893MPD2    H513148   4.204   1.290   1.871 -0.0847  0.9771 -0.5939
  893MPD2    N113149   0.012   1.152   1.818 -0.3624 -0.2934  0.3640
  893MPD2    H713150   0.102   1.168   1.863 -0.6298 -1.8374  1.4247
  894MPD2     C13151   2.415   3.149   1.785 -1.0142  0.5122 -0.5237
  894MPD2    C113152   2.413   3.049   1.692  0.4625  0.9954  0.4372
  894MPD2    C213153   2.474   3.068   1.576  0.4267  0.3371  0.0621
  894MPD2    C313154   2.535   3.184   1.537 -0.4428 -0.2058  0.8697
  894MPD2    C413155   2.548   3.285   1.632 -0.0706  0.0277 -0.4460
  894MPD2    C513156   2.482   3.270   1.755 -0.1637  0.8260  0.0650
  894MPD2     H13157   2.480   2.994   1.498 -1.8889  3.1184 -2.7880
  894MPD2    H113158   2.598   3.380   1.613 -3.0531  1.3944 -1.4902
  894MPD2    H213159   2.362   3.146   1.879  0.5000 -1.7583  0.2520
  894MPD2    H313160   2.496   3.354   1.822 -0.1455 -0.5169  1.7414
  894MPD2     N13161   2.579   3.193   1.402 -0.3954  0.0983 -0.4881
  894MPD2    H513162   2.559   3.113   1.343 -0.3503 -1.1020  1.1068
  894MPD2    N113163   2.338   2.927   1.704 -0.4022 -0.0122 -0.0513
  894MPD2    H713164   2.349   2.854   1.635  2.0653  1.2476 -0.9749
  895MPD2     C13165   2.161   0.446  14.094  0.7976 -0.8309  0.6500
  895MPD2    C113166   2.106   0.447  13.972  0.2938  0.5778  0.5533
  895MPD2    C213167   2.099   0.332  13.892 -0.0908 -0.2930  0.0957
  895MPD2    C313168   2.152   0.217  13.936 -0.0521  0.0818 -0.7071
  895MPD2    C413169   2.211   0.219  14.058 -0.8189 -0.2655  0.7013
  895MPD2    C513170   2.222   0.333  14.134  0.2461 -0.4970 -0.4358
  895MPD2     H13171   2.047   0.321  13.798  0.6785 -1.7437 -0.1513
  895MPD2    H113172   2.260   0.135  14.106 -2.1066 -1.3121  0.1861
  895MPD2    H213173   2.161   0.525  14.169  1.7278 -0.4360  0.2371
  895MPD2    H313174   2.273   0.333  14.230 -0.6002  0.5747  0.0050
  895MPD2     N13175   2.135   0.105  13.855 -0.4242  0.2327  0.0415
  895MPD2    H513176   2.100   0.130  13.763 -1.1778  0.8714  0.5132
  895MPD2    N113177   2.043   0.568  13.943  0.5519  0.0016 -0.4445
  895MPD2    H713178   2.020   0.627  14.023  0.7608  0.7604 -0.9550
  896MPD2     C13179   4.453   3.798   1.747  0.0523  0.6004 -0.0743
  896MPD2    C113180   4.452   3.716   1.635  0.1928 -0.0368 -0.7893
  896MPD2    C213181   4.329   3.717   1.563 -0.5533 -0.8277 -0.2116
  896MPD2    C313182   4.223   3.790   1.607 -0.0588  1.0249 -0.8404
  896MPD2    C413183   4.230   3.868   1.722  0.0147  0.0892  0.1315
  896MPD2    C513184   4.348   3.874   1.787 -0.4631 -0.6384 -0.7500
  896MPD2     H13185   4.315   3.650   1.478 -1.9033 -1.4661  0.5141
  896MPD2    H113186   4.145   3.933   1.741 -0.1862  0.3285 -1.6667
  896MPD2    H213187   4.542   3.799   1.808 -0.0139  0.0510  0.0344
  896MPD2    H313188   4.364   3.948   1.864  1.5357 -1.3618 -0.4747
  896MPD2     N13189   4.111   3.784   1.520  0.5743 -0.0510  0.5143
  896MPD2    H513190   4.137   3.722   1.444 -2.4399 -0.0419 -0.4918
  896MPD2    N113191   4.570   3.649   1.597 -0.3667  0.0781 -0.4416
  896MPD2    H713192   4.653   3.652   1.655 -1.1817  1.9655  0.6468
  897MPD2     C13193   1.143   0.149  11.102  0.2872 -0.5859 -0.4385
  897MPD2    C113194   1.040   0.208  11.029  0.0676  0.2168 -0.0130
  897MPD2    C213195   0.909   0.173  11.038  0.2225 -0.0697  0.1725
  897MPD2    C313196   0.873   0.095  11.148 -0.5028 -1.0041  0.3234
  897MPD2    C413197   0.974   0.036  11.213 -0.7079  0.3259  0.1763
  897MPD2    C513198   1.109   0.058  11.195 -0.3087 -0.2912  0.0856
  897MPD2     H13199   0.827   0.226  10.990 -2.6128 -1.5080  3.4647
  897MPD2    H113200   0.960   4.696  11.287  0.1983 -1.8094 -1.9442
  897MPD2    H213201   1.245   0.181  11.084 -0.0377  0.1315 -0.9979
  897MPD2    H313202   1.185   0.001  11.246 -0.7907 -1.8905 -0.9755
  897MPD2     N13203   0.736   0.078  11.176  0.2622  0.1422  0.7684
  897MPD2    H513204   0.669   0.125  11.116  0.5675  0.1593  0.4399
  897MPD2    N113205   1.085   0.322  10.951  0.1951  0.1541  0.0625
  897MPD2    H713206   1.184   0.344  10.955 -0.0020  0.8965  0.7954
  898MPD2     C13207   2.302   1.670   0.691  0.0216  0.1109 -0.2220
  898MPD2    C113208   2.419   1.639   0.612 -0.6362 -0.6459 -0.0105
  898MPD2    C213209   2.418   1.677   0.475  0.0468  0.5388  0.0133
  898MPD2    C313210   2.304   1.741   0.427 -0.3657 -0.1596 -0.1445
  898MPD2    C413211   2.196   1.766   0.507 -0.6953  0.2384  0.1257
  898MPD2    C513212   2.193   1.735   0.638  0.2261  0.8636 -0.1382
  898MPD2     H13213   2.505   1.656   0.414  0.4685  0.5101  0.6286
  898MPD2    H113214   2.109   1.820   0.474 -0.5899  1.0411  1.1498
  898MPD2    H213215   2.290   1.637   0.793 -0.7599 -0.8113 -0.6054
  898MPD2    H313216   2.102   1.753   0.694  1.7666  2.9164  1.7369
  898MPD2     N13217   2.315   1.792   0.295 -0.0424  0.0313  0.5224
  898MPD2    H513218   2.389   1.762   0.233 -1.4803  1.2907 -1.7967
  898MPD2    N113219   2.536   1.583   0.670 -0.6194 -1.2755 -0.3065
  898MPD2    H713220   2.619   1.574   0.613 -0.2983 -2.7734  0.4162
  899MPD2     C13221   3.029   1.934  17.260 -0.1314  0.2493 -0.2930
  899MPD2    C113222   3.106   2.027  17.315  0.0608 -0.5427  0.1476
  899MPD2    C213223   3.136   2.004  17.446 -0.1026 -0.6911  0.0717
  899MPD2    C313224   3.104   1.889  17.513  0.1334 -0.0202 -0.4097
  899MPD2    C413225   3.024   1.795  17.454  0.2613  0.1108  0.4668
  899MPD2    C513226   2.986   1.819  17.326  0.2295 -0.2207  0.9349
  899MPD2     H13227   3.196   2.078  17.498 -1.3398 -0.3055  0.9528
  899MPD2    H113228   2.981   1.708  17.502 -1.5266  1.6245  1.6038
  899MPD2    H213229   2.988   1.956  17.162  0.1309 -0.6362 -0.6033
  899MPD2    H313230   2.928   1.743  17.276  0.4757  0.5442 -0.5088
  899MPD2     N13231   3.125   1.863  17.649  0.3036 -0.0851  0.5819
  899MPD2    H513232   3.070   1.784  17.683 -0.5243 -0.1886 -0.9839
  899MPD2    N113233   3.131   2.151  17.244  0.4695 -0.3143 -0.1778
  899MPD2    H713234   3.092   2.151  17.150 -0.0083 -1.1767  0.0194
  900MPD2     C13235   2.903   2.898  12.338  0.2598 -0.5398  0.6949
  900MPD2    C113236   2.782   2.859  12.398  0.2915  0.2957 -0.4553
  900MPD2    C213237   2.676   2.942  12.369 -0.1347  0.1320 -0.5406
  900MPD2    C313238   2.679   3.049  12.290 -0.0811  0.5351 -0.1304
  900MPD2    C413239   2.794   3.086  12.224 -0.4296 -0.6033  0.7864
  900MPD2    C513240   2.899   3.003  12.252 -0.4932 -0.4601 -0.3032
  900MPD2     H13241   2.575   2.919  12.401 -0.1201 -0.2029 -0.7425
  900MPD2    H113242   2.800   3.155  12.141 -1.2983 -0.0042  1.2170
  900MPD2    H213243   2.994   2.841  12.349 -0.3114 -1.3773  1.0698
  900MPD2    H313244   2.996   3.019  12.206 -1.2147 -0.5131 -1.8690
  900MPD2     N13245   2.552   3.109  12.260 -0.2258 -0.4825  0.1701
  900MPD2    H513246   2.472   3.078  12.314 -0.9226  1.6443  0.3834
  900MPD2    N113247   2.774   2.733  12.466 -0.8569  0.4754 -0.0703
  900MPD2    H713248   2.863   2.683  12.467 -1.1957 -0.1205  0.2363
  901MPD2     C13249   2.289   1.759  12.496  0.1140 -0.1852 -0.1266
  901MPD2    C113250   2.421   1.744  12.529  0.1374  0.0066  0.1958
  901MPD2    C213251   2.496   1.856  12.541 -0.2826 -0.8366  0.3462
  901MPD2    C313252   2.445   1.989  12.523 -0.3418 -0.2901  0.0832
  901MPD2    C413253   2.316   2.001  12.481  0.6001  0.0593 -0.2744
  901MPD2    C513254   2.241   1.888  12.471 -0.4658  0.0154  0.5906
  901MPD2     H13255   2.598   1.847  12.576 -0.3821 -2.5356  0.1854
  901MPD2    H113256   2.265   2.095  12.460 -2.0316 -1.3476 -0.2199
  901MPD2    H213257   2.227   1.671  12.486  0.4280 -0.4652  0.4116
  901MPD2    H313258   2.133   1.894  12.465 -0.3679  0.5640 -0.4842
  901MPD2     N13259   2.527   2.097  12.546 -0.1868 -0.2341  0.0135
  901MPD2    H513260   2.616   2.073  12.589  0.1980  1.1457  0.0039
  901MPD2    N113261   2.481   1.617  12.549 -0.4031  0.0230  0.5956
  901MPD2    H713262   2.421   1.537  12.537  1.3396 -1.1710 -0.1247
  902MPD2     C13263   1.756   0.592  12.799  0.2818 -0.2022  0.2405
  902MPD2    C113264   1.724   0.662  12.684 -0.0939 -0.2978  0.4232
  902MPD2    C213265   1.791   0.627  12.568 -1.0480 -0.0672 -0.1750
  902MPD2    C313266   1.893   0.533  12.570 -0.2030  0.1283  0.0964
  902MPD2    C413267   1.939   0.481  12.688  0.5821 -0.0249  0.1564
  902MPD2    C513268   1.867   0.515  12.802 -0.0036 -0.4007 -0.6751
  902MPD2     H13269   1.767   0.677  12.475 -1.3731 -1.6785 -0.9521
  902MPD2    H113270   2.032   0.426  12.693  2.4121  3.1241  0.6933
  902MPD2    H213271   1.701   0.602  12.891 -0.4455 -1.9186 -0.0124
  902MPD2    H313272   1.895   0.473  12.897  1.2068  1.4802 -0.2138
  902MPD2     N13273   1.949   0.510  12.445 -0.2013 -0.1129  0.2596
  902MPD2    H513274   1.899   0.548  12.365 -1.3202 -0.5276  0.7598
  902MPD2    N113275   1.619   0.752  12.669  0.1372 -0.3888  0.4752
  902MPD2    H713276   1.596   0.790  12.578 -0.3751 -0.3252  0.6296
  903MPD2     C13277   1.772   0.632  11.774 -0.4472 -0.1565  0.0225
  903MPD2    C113278   1.748   0.590  11.905 -1.0131 -0.3999  0.7023
  903MPD2    C213279   1.622   0.599  11.965  0.6441 -0.0562  0.1741
  903MPD2    C313280   1.514   0.658  11.898  0.7887  1.0614 -0.1852
  903MPD2    C413281   1.546   0.695  11.773 -0.2030 -0.0473  1.0548
  903MPD2    C513282   1.662   0.681  11.700 -0.5483  0.4143  0.1865
  903MPD2     H13283   1.609   0.547  12.059 -2.1645 -0.5721 -0.4933
  903MPD2    H113284   1.470   0.740  11.710  0.8512  0.3893  0.0852
  903MPD2    H213285   1.871   0.630  11.730 -0.3102  0.1537  0.3152
  903MPD2    H313286   1.673   0.723  11.601  0.3757 -2.6211 -1.0126
  903MPD2     N13287   1.394   0.673  11.962 -0.2893  0.2701  0.6832
  903MPD2    H513288   1.391   0.648  12.060 -1.0694  0.2471  0.6543
  903MPD2    N113289   1.848   0.532  11.982  0.2257 -0.2652  0.0950
  903MPD2    H713290   1.816   0.518  12.078 -0.8112 -0.4656 -0.2786
  904MPD2     C13291   2.115   4.713  14.530  0.5806 -0.8666  0.2174
  904MPD2    C113292   2.156   0.106  14.487 -0.6319  0.5884 -0.0631
  904MPD2    C213293   2.288   0.131  14.478 -0.0164  0.3973 -0.1312
  904MPD2    C313294   2.374   0.036  14.513 -0.2631 -0.8889  0.7316
  904MPD2    C413295   2.339   4.647  14.549 -1.2037  0.4863 -0.1256
  904MPD2    C513296   2.209   4.611  14.543  0.1404 -0.2199 -0.3040
  904MPD2     H13297   2.330   0.226  14.447 -0.5229  0.6428 -0.0772
  904MPD2    H113298   2.409   4.568  14.572 -0.5658  1.6229  1.8697
  904MPD2    H213299   2.012   4.683  14.551  0.2242 -0.3272 -0.7386
  904MPD2    H313300   2.183   4.516  14.587 -0.2469 -0.4270 -0.9762
  904MPD2     N13301   2.507   0.078  14.518 -0.2145  0.2150 -0.1454
  904MPD2    H513302   2.536   0.166  14.477 -2.2341  1.6613  1.5219
  904MPD2    N113303   2.055   0.210  14.459  0.5051 -0.0107 -0.2892
  904MPD2    H713304   2.095   0.295  14.422  0.7167 -0.2153 -0.5358
  905MPD2     C13305   1.703   0.438  13.736 -0.4055 -0.2197 -0.6743
  905MPD2    C113306   1.720   0.354  13.846 -0.0869  0.1031  0.0947
  905MPD2    C213307   1.774   0.227  13.821  0.5901 -0.3474  0.5102
  905MPD2    C313308   1.810   0.188  13.694 -0.0428 -0.1485  0.4256
  905MPD2    C413309   1.780   0.268  13.589  0.9323 -0.4620 -0.5418
  905MPD2    C513310   1.719   0.390  13.607  0.2787  0.1076 -0.5624
  905MPD2     H13311   1.802   0.168  13.908 -0.6809  0.0563  1.1917
  905MPD2    H113312   1.816   0.243  13.489  0.1360 -1.4036 -0.5858
  905MPD2    H213313   1.661   0.537  13.748 -0.4779 -0.4833  1.2608
  905MPD2    H313314   1.704   0.458  13.524 -1.5294  1.3669  0.7904
  905MPD2     N13315   1.857   0.055  13.681  0.2237 -0.5621  0.0998
  905MPD2    H513316   1.891   0.013  13.767  0.0779  2.1153  1.4626
  905MPD2    N113317   1.686   0.398  13.971  0.1303 -0.2688  0.7364
  905MPD2    H713318   1.675   0.498  13.981 -0.7567 -0.5518  2.5746
  906MPD2     C13319   3.792   4.611  11.776  0.2866  0.7733  0.1242
  906MPD2    C113320   3.825   4.525  11.676 -0.5940  1.5240 -0.1720
  906MPD2    C213321   3.788   4.395  11.682 -0.1683 -0.1451  0.1067
  906MPD2    C313322   3.725   4.343  11.791  1.0224 -0.0690 -0.1599
  906MPD2    C413323   3.682   4.431  11.888  0.2011 -0.2641  0.8059
  906MPD2    C513324   3.715   4.567  11.883 -0.0571 -0.3901 -0.1955
  906MPD2     H13325   3.803   4.336  11.592 -0.7361 -0.8093  0.4408
  906MPD2    H113326   3.612   4.408  11.968  0.8275 -0.7230  1.2196
  906MPD2    H213327   3.814   4.717  11.769  1.0973  0.6119  0.2710
  906MPD2    H313328   3.680   4.636  11.959 -2.6678 -1.8938 -0.0398
  906MPD2     N13329   3.691   4.208  11.805 -0.6646 -0.2914 -0.2898
  906MPD2    H513330   3.615   4.181  11.867  1.5264 -0.0771  2.4617
  906MPD2    N113331   3.894   4.570  11.561 -0.0844 -0.2245 -0.1391
  906MPD2    H713332   3.905   4.508  11.482  1.4761 -0.4970  0.2959
  907MPD2     C13333   2.200   4.551  15.966 -0.1381 -0.6595 -0.3976
  907MPD2    C113334   2.292   4.453  15.930  0.0845  0.1490  0.4480
  907MPD2    C213335   2.408   4.445  16.010 -0.2274 -1.0530 -0.5931
  907MPD2    C313336   2.431   4.537  16.114  0.4652 -0.1215 -0.4171
  907MPD2    C413337   2.332   4.627  16.151  0.0753 -0.2794  0.3624
  907MPD2    C513338   2.217   4.628  16.079 -0.7650  0.0558 -0.5998
  907MPD2     H13339   2.486   4.371  15.993 -0.0720 -0.7100 -1.3975
  907MPD2    H113340   2.355   4.698  16.229  0.8562  1.0114 -1.0324
  907MPD2    H213341   2.099   4.554  15.927  0.1925 -1.7116 -1.3612
  907MPD2    H313342   2.136   4.694  16.107  0.6379  0.5801  2.2475
  907MPD2     N13343   2.548   4.521  16.191 -0.1928  0.2483 -0.0695
  907MPD2    H513344   2.606   4.444  16.160 -0.5780  0.5869 -1.6099
  907MPD2    N113345   2.272   4.366  15.822 -0.8828 -0.2708 -0.3399
  907MPD2    H713346   2.333   4.288  15.799  0.3820  0.7003 -0.2860
  908MPD2     C13347   1.050   0.471  10.015  0.2100  0.4848 -0.1960
  908MPD2    C113348   0.930   0.480  10.088  0.0496  0.9901 -0.4438
  908MPD2    C213349   0.930   0.534  10.215 -0.0004  0.2482 -0.5180
  908MPD2    C313350   1.057   0.560  10.274 -0.0784 -0.4652 -0.3528
  908MPD2    C413351   1.176   0.566  10.193 -0.2232 -0.6487 -0.1403
  908MPD2    C513352   1.167   0.518  10.067  0.1983  0.3726  0.1902
  908MPD2     H13353   0.838   0.524  10.271 -0.1294  2.4285 -0.3424
  908MPD2    H113354   1.274   0.600  10.225  0.5661 -2.1843 -0.9176
  908MPD2    H213355   1.046   0.416   9.922 -1.2880 -0.5840  0.5086
  908MPD2    H313356   1.260   0.506  10.013  0.4996  0.3733  0.7142
  908MPD2     N13357   1.067   0.608  10.409  0.2579 -0.2309  0.0666
  908MPD2    H513358   0.981   0.623  10.461 -0.2025 -2.5158 -0.0290
  908MPD2    N113359   0.806   0.441  10.029 -0.2592 -0.4651 -0.7055
  908MPD2    H713360   0.803   0.369   9.958  0.2728 -2.7532  1.6048
  909MPD2     C13361   0.625   2.433  11.980 -0.2376 -0.8712  0.6470
  909MPD2    C113362   0.702   2.546  11.993  0.0674 -0.1688 -0.3286
  909MPD2    C213363   0.676   2.635  12.099  0.3518 -0.7913 -0.3351
  909MPD2    C313364   0.583   2.603  12.197 -0.2356  0.7203 -0.2109
  909MPD2    C413365   0.512   2.492  12.188 -0.2261 -0.1483 -0.2441
  909MPD2    C513366   0.534   2.405  12.081  0.4265 -0.2212  0.9319
  909MPD2     H13367   0.728   2.730  12.102  0.6751 -1.0077  0.9341
  909MPD2    H113368   0.431   2.470  12.257 -0.1563 -1.4914 -0.5869
  909MPD2    H213369   0.634   2.356  11.904  3.7102  0.7940 -0.5672
  909MPD2    H313370   0.487   2.308  12.070 -0.7049  0.4500 -0.2772
  909MPD2     N13371   0.577   2.691  12.309 -0.1812  0.3460  0.1227
  909MPD2    H513372   0.643   2.768  12.306 -0.8603  0.9560  0.5065
  909MPD2    N113373   0.810   2.575  11.909  0.4470 -0.1672 -0.5523
  909MPD2    H713374   0.861   2.662  11.924 -1.4244  0.7115  0.6135
  910MPD2     C13375   2.351   0.412  16.156  0.7696 -0.2823 -0.5919
  910MPD2    C113376   2.401   0.290  16.177 -0.2455 -0.5123  0.1337
  910MPD2    C213377   2.422   0.212  16.068 -0.4273 -0.3673  0.0775
  910MPD2    C313378   2.364   0.246  15.946 -0.8208  0.2182 -0.5924
  910MPD2    C413379   2.313   0.374  15.931  0.4439  0.6704  0.8875
  910MPD2    C513380   2.304   0.456  16.041 -0.3614  1.0031  0.6505
  910MPD2     H13381   2.464   0.112  16.075 -3.1272 -1.6374 -2.1237
  910MPD2    H113382   2.271   0.418  15.841  1.9343  1.8964  0.7864
  910MPD2    H213383   2.328   0.476  16.240  1.2004 -1.0560  0.1154
  910MPD2    H313384   2.260   0.554  16.030  4.0319  3.1342  1.7864
  910MPD2     N13385   2.391   0.168  15.833 -0.1875 -0.0804  0.1014
  910MPD2    H513386   2.462   0.096  15.841  0.1905  0.4089  1.1092
  910MPD2    N113387   2.439   0.242  16.305 -0.0865 -0.3896  0.1361
  910MPD2    H713388   2.480   0.149  16.309 -1.6110 -0.9598  2.5141
  911MPD2     C13389   0.012   0.986  16.855  0.1667 -0.6264  0.3636
  911MPD2    C113390   0.059   1.106  16.901 -0.5012  1.5043  0.1460
  911MPD2    C213391   4.739   1.226  16.864 -0.2166 -0.3380  0.3157
  911MPD2    C313392   4.637   1.220  16.766 -0.2920 -0.1709  0.2700
  911MPD2    C413393   4.602   1.093  16.709 -0.4174  0.0537  0.2574
  911MPD2    C513394   4.655   0.977  16.759  0.4739  0.2547 -0.5338
  911MPD2     H13395   0.043   1.322  16.889  1.1040 -0.2839 -2.1235
  911MPD2    H113396   4.525   1.095  16.633 -1.4999 -0.3215  1.3407
  911MPD2    H213397   0.052   0.890  16.886  1.7730 -0.7257 -2.0041
  911MPD2    H313398   4.639   0.881  16.711  1.9660 -0.4683  0.4119
  911MPD2     N13399   4.568   1.332  16.707  0.1198 -0.5443  0.7379
  911MPD2    H513400   4.506   1.319  16.628 -1.5394  2.1856  1.5764
  911MPD2    N113401   0.166   1.102  16.997  0.5313 -0.4487  0.0656
  911MPD2    H713402   0.199   1.015  17.037  1.7001  0.2212  0.5432
  912MPD2     C13403   4.233   1.298  16.091  0.0038  0.0404  0.1751
  912MPD2    C113404   4.252   1.273  16.224 -0.3557  0.2390 -0.3483
  912MPD2    C213405   4.261   1.141  16.271 -0.6925  1.0550 -0.2992
  912MPD2    C313406   4.248   1.033  16.183  0.0606 -0.1103 -0.3084
  912MPD2    C413407   4.245   1.061  16.048 -0.5881  0.7054  0.2244
  912MPD2    C513408   4.244   1.193  16.001 -0.0543  0.3408  0.0064
  912MPD2     H13409   4.268   1.119  16.377  0.8832 -2.2978 -1.0875
  912MPD2    H113410   4.257   0.990  15.967  1.1663  1.9506 -0.6034
  912MPD2    H213411   4.215   1.395  16.046  0.4346 -0.9571 -2.1870
  912MPD2    H313412   4.237   1.205  15.894 -1.7579 -0.5515  0.0194
  912MPD2     N13413   4.249   0.909  16.240  0.4815  0.0111  0.1431
  912MPD2    H513414   4.251   0.899  16.341 -1.2701 -1.3658  0.0240
  912MPD2    N113415   4.266   1.387  16.312  0.2519 -0.4139  0.7245
  912MPD2    H713416   4.258   1.482  16.277  0.6086 -1.3695 -1.9650
  913MPD2     C13417   0.425   1.416  10.722 -0.8105  0.2893 -0.0465
  913MPD2    C113418   0.540   1.486  10.727  0.4617 -0.1118  0.5535
  913MPD2    C213419   0.545   1.598  10.647 -0.8582  0.1786 -0.0618
  913MPD2    C313420   0.433   1.654  10.582 -0.2067 -0.9001  0.6497
  913MPD2    C413421   0.318   1.572  10.583  0.6003  0.2919 -0.0104
  913MPD2    C513422   0.316   1.457  10.653  0.1037 -0.0913 -0.0165
  913MPD2     H13423   0.637   1.655  10.642 -1.4251  1.2753  2.1307
  913MPD2    H113424   0.227   1.614  10.542  0.3713 -0.8425 -0.6660
  913MPD2    H213425   0.404   1.334  10.791 -1.0501  0.3905  0.0008
  913MPD2    H313426   0.223   1.401  10.657  0.1694 -0.3431 -1.8903
  913MPD2     N13427   0.435   1.784  10.525 -0.2985  0.5314 -0.8437
  913MPD2    H513428   0.342   1.809  10.492 -0.5246 -3.0870 -2.9303
  913MPD2    N113429   0.640   1.442  10.818 -0.8968  0.1578 -0.0825
  913MPD2    H713430   0.608   1.376  10.888  1.7844 -0.2235  0.7849
  914MPD2     C13431   2.592   1.134  11.894 -0.2262 -0.1486  0.0115
  914MPD2    C113432   2.629   1.261  11.916  0.6793 -0.5718  0.2719
  914MPD2    C213433   2.667   1.300  12.047 -1.4252 -0.0850  0.1453
  914MPD2    C313434   2.666   1.210  12.148  0.2850  0.5455  0.1272
  914MPD2    C413435   2.617   1.086  12.127  0.5109  0.1638 -0.1261
  914MPD2    C513436   2.587   1.043  12.001  0.2608 -0.2918  0.0888
  914MPD2     H13437   2.702   1.400  12.068 -0.1186 -0.3624 -0.7236
  914MPD2    H113438   2.606   1.015  12.208  1.2565 -0.6412 -0.7199
  914MPD2    H213439   2.562   1.092  11.799  0.0972 -1.2724  0.3983
  914MPD2    H313440   2.542   0.946  11.983  0.2655 -0.0068 -1.4480
  914MPD2     N13441   2.700   1.257  12.280 -0.4614  0.0625 -0.6813
  914MPD2    H513442   2.746   1.347  12.288  0.4145 -0.4958  0.5062
  914MPD2    N113443   2.628   1.350  11.807  0.3153 -0.7565 -0.4472
  914MPD2    H713444   2.622   1.318  11.711  0.2810 -0.7548 -0.4457
  915MPD2     C13445   1.285   2.414  16.093 -0.2146  0.8077  0.3367
  915MPD2    C113446   1.154   2.386  16.085 -0.0703 -0.7017 -0.3243
  915MPD2    C213447   1.058   2.464  16.152  0.1067  0.2897  0.3770
  915MPD2    C313448   1.093   2.579  16.224 -0.0900 -0.1249 -0.2733
  915MPD2    C413449   1.227   2.611  16.230 -0.5328  0.1300 -0.0006
  915MPD2    C513450   1.319   2.526  16.165  0.3363 -0.3053  0.6563
  915MPD2     H13451   0.957   2.427  16.137  0.8504 -1.3222 -0.6530
  915MPD2    H113452   1.275   2.692  16.283  1.1248 -0.9653  0.2026
  915MPD2    H213453   1.363   2.348  16.057  0.5754  0.5228  2.5679
  915MPD2    H313454   1.425   2.536  16.185  0.3423 -1.3292  1.0742
  915MPD2     N13455   0.984   2.647  16.288 -0.7976  0.2574  0.0115
  915MPD2    H513456   0.890   2.616  16.265 -0.4258 -1.6650  1.0759
  915MPD2    N113457   1.103   2.275  16.014 -0.1141  0.2331 -0.2053
  915MPD2    H713458   1.002   2.265  16.011  0.2439 -3.3804 -0.7421
  916MPD2     C13459   3.987   0.898  15.862  0.4541 -0.4049 -0.7656
  916MPD2    C113460   3.942   0.794  15.943  0.1495  0.7040  0.1023
  916MPD2    C213461   3.968   0.664  15.895  0.1444  0.3194 -0.4091
  916MPD2    C313462   4.034   0.641  15.774 -0.4127  0.3205  0.3743
  916MPD2    C413463   4.076   0.748  15.700 -1.0454  0.7239 -0.2827
  916MPD2    C513464   4.056   0.871  15.743 -0.1987  0.1344 -0.5327
  916MPD2     H13465   3.942   0.573  15.947 -2.6562  0.9613 -0.7277
  916MPD2    H113466   4.113   0.737  15.599  1.3584  1.0792  0.5500
  916MPD2    H213467   3.962   0.997  15.897 -1.0458 -0.4776 -1.6124
  916MPD2    H313468   4.093   0.955  15.685  0.2532 -2.7098 -4.3737
  916MPD2     N13469   4.026   0.513  15.717 -0.0927  0.3302  0.4394
  916MPD2    H513470   3.976   0.442  15.771  2.1378 -1.9156 -0.4421
  916MPD2    N113471   3.868   0.818  16.057  0.3315 -0.3588 -0.1857
  916MPD2    H713472   3.859   0.915  16.084  1.4058  0.0136 -1.1964
  917MPD2     C13473   4.098   1.965  11.404  0.3196 -0.1985  0.1646
  917MPD2    C113474   4.159   1.978  11.528  0.0960 -1.2305 -0.8430
  917MPD2    C213475   4.286   2.026  11.532  0.2568  0.8047 -0.5006
  917MPD2    C313476   4.348   2.076  11.413 -0.1543  0.1503 -0.3307
  917MPD2    C413477   4.280   2.062  11.302 -0.0199  0.4473  0.4275
  917MPD2    C513478   4.154   2.008  11.286 -0.3516 -0.3092  0.1911
  917MPD2     H13479   4.352   2.052  11.614  0.1816 -2.9143  0.7378
  917MPD2    H113480   4.334   2.090  11.212 -1.4724 -0.5811 -0.7661
  917MPD2    H213481   3.993   1.940  11.406  0.4546 -0.8293 -0.5578
  917MPD2    H313482   4.103   1.988  11.193  0.4218  0.6283 -0.4306
  917MPD2     N13483   4.474   2.134  11.409  0.1401 -0.3874 -0.0461
  917MPD2    H513484   4.503   2.193  11.332 -0.3020 -1.6151 -1.1474
  917MPD2    N113485   4.091   1.939  11.647  0.9883 -0.2297 -0.2289
  917MPD2    H713486   3.997   1.906  11.630  0.9206 -0.4532  0.5886
  918MPD2     C13487   3.913   2.555  12.436 -0.1673 -0.5159  0.4452
  918MPD2    C113488   4.043   2.527  12.374  0.2824  0.1752  0.2180
  918MPD2    C213489   4.059   2.427  12.273  0.2838  0.6360  0.6059
  918MPD2    C313490   3.948   2.354  12.239 -0.3195 -0.7756  0.3924
  918MPD2    C413491   3.825   2.390  12.288 -0.3635 -0.1193 -0.2628
  918MPD2    C513492   3.806   2.482  12.382  0.5419  0.3477  0.2161
  918MPD2     H13493   4.154   2.414  12.223  0.2995  2.7942  0.0394
  918MPD2    H113494   3.738   2.338  12.250 -1.3316  0.1205  1.6667
  918MPD2    H213495   3.896   2.631  12.511  1.4867 -0.1424  0.4371
  918MPD2    H313496   3.709   2.504  12.424  1.1735  2.9730  0.2443
  918MPD2     N13497   3.971   2.236  12.159  0.1376 -0.1326 -0.6135
  918MPD2    H513498   4.058   2.232  12.107  0.9114 -2.5951  0.8380
  918MPD2    N113499   4.152   2.595  12.433 -0.2921 -0.1975  0.5424
  918MPD2    H713500   4.236   2.610  12.377 -0.1800 -2.4615  0.1245
  919MPD2     C13501   0.475   1.564  12.162  0.9525 -0.2351  0.5374
  919MPD2    C113502   0.528   1.442  12.156 -0.0606  0.2885 -0.9847
  919MPD2    C213503   0.620   1.414  12.057  0.1048 -0.0813  0.9648
  919MPD2    C313504   0.636   1.497  11.955 -0.1964 -0.3607  0.2170
  919MPD2    C413505   0.577   1.619  11.956  0.4882  0.7117  0.2001
  919MPD2    C513506   0.502   1.651  12.062 -0.7118  0.1272 -0.8140
  919MPD2     H13507   0.668   1.318  12.066  0.3828 -0.3874 -3.7456
  919MPD2    H113508   0.577   1.688  11.872 -2.4862 -0.6735 -0.9254
  919MPD2    H213509   0.395   1.591  12.230  1.4507 -1.5527  1.6379
  919MPD2    H313510   0.445   1.743  12.050 -0.1785  0.6837  0.9001
  919MPD2     N13511   0.712   1.460  11.840 -0.4204  0.1261 -0.2613
  919MPD2    H513512   0.704   1.532  11.769 -2.3553  0.5316  0.3492
  919MPD2    N113513   0.485   1.352  12.253 -0.1756 -0.3761 -0.1217
  919MPD2    H713514   0.416   1.376  12.323 -1.1054  1.2679 -1.6241
  920MPD2     C13515   0.735   1.859  11.017  0.3871 -0.1090 -0.3560
  920MPD2    C113516   0.635   1.768  11.040  0.3884  0.8539 -0.1681
  920MPD2    C213517   0.656   1.661  11.125  0.1114  0.0208  0.2288
  920MPD2    C313518   0.771   1.654  11.198  0.2850 -0.1940 -0.8210
  920MPD2    C413519   0.876   1.740  11.174 -0.1151 -0.1450  0.1680
  920MPD2    C513520   0.857   1.842  11.078  0.2870  0.8810 -0.3485
  920MPD2     H13521   0.571   1.594  11.136  0.9015 -0.6724  1.9383
  920MPD2    H113522   0.969   1.747  11.229 -0.8523  1.2821  1.2475
  920MPD2    H213523   0.732   1.936  10.941 -0.4423 -1.8949 -2.1273
  920MPD2    H313524   0.941   1.908  11.058  1.4077 -0.6115 -0.5603
  920MPD2     N13525   0.762   1.555  11.293 -0.3914  0.1053  0.3560
  920MPD2    H513526   0.676   1.503  11.307  0.0615 -0.5291  0.8026
  920MPD2    N113527   0.509   1.768  10.976  0.6973  0.7551  0.0609
  920MPD2    H713528   0.451   1.687  10.997 -1.7476  2.6243  0.5837
  921MPD2     C13529   1.167   1.539  17.006  0.1373  0.6949 -0.4227
  921MPD2    C113530   1.127   1.475  16.892 -0.7697 -0.2403  0.1073
  921MPD2    C213531   0.997   1.432  16.874  0.1959 -0.0140 -0.0205
  921MPD2    C313532   0.906   1.442  16.978 -0.0730 -0.7105 -0.6499
  921MPD2    C413533   0.947   1.503  17.088  0.6962 -0.0300  0.4599
  921MPD2    C513534   1.077   1.549  17.110  0.6820 -0.6082 -0.6108
  921MPD2     H13535   0.965   1.378  16.786  1.9558 -2.3036  0.7613
  921MPD2    H113536   0.872   1.531  17.161  0.9708  2.9945 -0.3978
  921MPD2    H213537   1.264   1.585  17.019 -0.3940  1.0171  2.2881
  921MPD2    H313538   1.103   1.585  17.208  2.4407  0.9712 -1.6668
  921MPD2     N13539   0.779   1.387  16.952 -0.0808 -0.4607 -0.6607
  921MPD2    H513540   0.758   1.358  16.857 -1.6482  0.3041 -0.5581
  921MPD2    N113541   1.230   1.448  16.789 -0.3054 -0.4453 -0.2156
  921MPD2    H713542   1.325   1.482  16.805  0.1959 -0.6473 -2.7010
  922MPD2     C13543   1.375   3.764  17.071 -0.4158  0.3706  0.5411
  922MPD2    C113544   1.369   3.763  17.204 -0.2062 -0.6893  0.6343
  922MPD2    C213545   1.349   3.646  17.272  0.3865 -0.9334 -0.0084
  922MPD2    C313546   1.362   3.524  17.215  0.1627 -0.1882  0.3868
  922MPD2    C413547   1.380   3.529  17.081  0.0860 -0.2685  0.0429
  922MPD2    C513548   1.377   3.644  17.007  0.2100  0.0227  0.6697
  922MPD2     H13549   1.329   3.657  17.378 -2.0413 -1.4166 -0.4274
  922MPD2    H113550   1.381   3.439  17.021 -2.4554 -0.0441 -0.3528
  922MPD2    H213551   1.374   3.851  17.006  1.8701 -1.1634 -1.5378
  922MPD2    H313552   1.377   3.645  16.899  0.1360  1.7526  0.6915
  922MPD2     N13553   1.344   3.407  17.297 -0.6089 -0.1367 -0.0724
  922MPD2    H513554   1.302   3.419  17.388 -0.5383  0.5898 -0.1368
  922MPD2    N113555   1.365   3.885  17.274 -0.0035  0.2558  0.0833
  922MPD2    H713556   1.354   3.880  17.375  0.5408 -0.2221  0.1172
  923MPD2     C13557   3.011   0.184   8.650 -0.1082 -0.0877 -0.3346
  923MPD2    C113558   3.007   0.291   8.733 -0.0096  0.7201 -0.6437
  923MPD2    C213559   3.107   0.301   8.827 -0.4983  0.5415 -0.5209
  923MPD2    C313560   3.211   0.203   8.836  0.1992 -0.4022 -0.2505
  923MPD2    C413561   3.200   0.089   8.749 -0.2267  0.1296 -1.0336
  923MPD2    C513562   3.100   0.090   8.651  0.1155  0.8087  0.2431
  923MPD2     H13563   3.109   0.388   8.893  2.1242  1.3818 -1.7190
  923MPD2    H113564   3.255   4.735   8.753 -0.1176  0.1540 -1.9729
  923MPD2    H213565   2.929   0.185   8.580  1.8198 -0.1123 -2.5970
  923MPD2    H313566   3.093   0.001   8.590  0.5962 -0.2049  1.6647
  923MPD2     N13567   3.309   0.218   8.938  0.1027 -0.8837 -0.0120
  923MPD2    H513568   3.378   0.144   8.928  0.0458 -0.9988  0.4455
  923MPD2    N113569   2.899   0.386   8.724 -0.4745  0.0768  0.2493
  923MPD2    H713570   2.825   0.356   8.661 -0.8621  1.9688 -0.2158
  924MPD2     C13571   2.842   3.877  16.659 -0.7423 -0.3460 -0.6493
  924MPD2    C113572   2.924   3.973  16.720 -0.0998  0.5437 -0.6384
  924MPD2    C213573   2.957   4.089  16.654 -0.1147  0.7759 -0.4679
  924MPD2    C313574   2.921   4.104  16.521  0.9304 -0.7427 -0.2124
  924MPD2    C413575   2.855   4.004  16.453  0.3401 -0.1606 -0.2762
  924MPD2    C513576   2.805   3.895  16.525 -0.1834 -0.7196 -0.1196
  924MPD2     H13577   3.021   4.156  16.709  2.5788  1.0965 -4.0114
  924MPD2    H113578   2.834   4.011  16.347 -0.3836  1.3547 -0.0325
  924MPD2    H213579   2.816   3.791  16.718 -2.4195  0.4613 -0.2012
  924MPD2    H313580   2.747   3.818  16.475  1.0092 -1.0960 -0.9317
  924MPD2     N13581   2.951   4.231  16.465  0.3981 -0.2890 -0.6290
  924MPD2    H513582   3.003   4.292  16.527 -0.8154  0.3146 -0.2124
  924MPD2    N113583   2.952   3.944  16.859  0.1362 -0.4882 -0.5714
  924MPD2    H713584   2.905   3.863  16.897 -0.4038  0.0770 -0.0243
  925MPD2     C13585   2.068   1.564  14.728 -0.2055  0.4784  0.3357
  925MPD2    C113586   1.935   1.548  14.685  0.7747  0.2763  0.2670
  925MPD2    C213587   1.833   1.601  14.758  0.0329  0.2305 -0.3613
  925MPD2    C313588   1.856   1.671  14.874  0.0672  0.3416  0.6161
  925MPD2    C413589   1.989   1.683  14.920  0.6208  0.1401  0.0545
  925MPD2    C513590   2.088   1.629  14.840 -0.3465 -0.8322 -0.2719
  925MPD2     H13591   1.731   1.596  14.720 -0.9753  0.3392  2.3086
  925MPD2    H113592   2.013   1.726  15.017 -1.0236 -0.5563  0.7685
  925MPD2    H213593   2.155   1.518  14.682 -0.0874  0.2418  0.8037
  925MPD2    H313594   2.190   1.641  14.873 -0.5277 -0.9860  0.3296
  925MPD2     N13595   1.763   1.729  14.960  0.0071  0.1155  0.0984
  925MPD2    H513596   1.803   1.768  15.044 -0.1175 -0.0717  0.2431
  925MPD2    N113597   1.903   1.497  14.558  0.4254 -0.5135 -0.5872
  925MPD2    H713598   1.805   1.496  14.530  0.4767 -0.8611 -0.7573
  926MPD2     C13599   0.494   4.254  13.027  0.7262  0.5099  0.1141
  926MPD2    C113600   0.420   4.369  13.037 -1.2260  0.3739 -0.4628
  926MPD2    C213601   0.361   4.422  12.922 -0.0160  0.3483  0.2036
  926MPD2    C313602   0.376   4.362  12.802  0.1570  0.4063  0.1702
  926MPD2    C413603   0.452   4.249  12.790  0.2591  0.5658 -0.6500
  926MPD2    C513604   0.511   4.197  12.899  1.2564 -0.2523  0.1263
  926MPD2     H13605   0.324   4.524  12.930  1.0716  0.9096 -1.9529
  926MPD2    H113606   0.448   4.193  12.697 -1.2987 -2.1571  1.0662
  926MPD2    H213607   0.543   4.192  13.101 -1.9231 -0.0600  1.3992
  926MPD2    H313608   0.563   4.102  12.905  2.2039  0.2419 -0.2553
  926MPD2     N13609   0.303   4.409  12.688  0.6279  0.2510  0.1953
  926MPD2    H513610   0.299   4.353  12.604 -0.3211 -1.8139  1.6370
  926MPD2    N113611   0.397   4.432  13.165  0.0785  0.0846  0.2554
  926MPD2    H713612   0.337   4.514  13.158 -0.4080 -0.3955 -1.1463
  927MPD2     C13613   0.934   2.207   0.036  0.5929 -0.1311  0.0632
  927MPD2    C113614   0.823   2.286   0.027 -0.1838  0.3327  0.3762
  927MPD2    C213615   0.768   2.307  17.655 -0.1723  0.2392 -0.4974
  927MPD2    C313616   0.823   2.265  17.544  0.0772  0.7362 -1.1903
  927MPD2    C413617   0.936   2.184  17.549 -0.0319 -0.8174  0.6061
  927MPD2    C513618   0.987   2.157  17.673 -0.3039 -0.8414  0.0505
  927MPD2     H13619   0.676   2.364  17.647  0.2177  0.7664 -1.1976
  927MPD2    H113620   0.987   2.151  17.459 -1.5846 -3.2934  0.6316
  927MPD2    H213621   0.985   2.190   0.130  1.9682  0.2697 -0.6132
  927MPD2    H313622   1.079   2.100  17.680 -0.6291 -1.6613 -2.2597
  927MPD2     N13623   0.767   2.303  17.418  0.1129  0.3161  0.8598
  927MPD2    H513624   0.676   2.345  17.431 -0.2476 -0.0224 -0.6466
  927MPD2    N113625   0.770   2.336   0.147  0.0245 -0.5295  0.0656
  927MPD2    H713626   0.814   2.308   0.234  1.5194 -0.4642 -0.6822
  928MPD2     C13627   2.353   1.309   0.590  0.1187 -0.5256  0.1363
  928MPD2    C113628   2.402   1.226   0.687 -0.2543 -0.4599 -0.1996
  928MPD2    C213629   2.498   1.132   0.642  0.6952  0.8859  0.0902
  928MPD2    C313630   2.533   1.122   0.507  0.0284 -0.2298  0.5517
  928MPD2    C413631   2.464   1.204   0.417 -0.1820 -0.6024 -0.2797
  928MPD2    C513632   2.384   1.303   0.459 -0.5954  0.5672 -0.3392
  928MPD2     H13633   2.541   1.065   0.716 -0.1525 -0.7935 -0.9391
  928MPD2    H113634   2.491   1.194   0.313  0.9227  0.6663 -0.1260
  928MPD2    H213635   2.296   1.398   0.617 -0.8426 -0.6949 -1.3365
  928MPD2    H313636   2.347   1.371   0.383 -0.9085  1.5571  0.6951
  928MPD2     N13637   2.637   1.036   0.463  0.1552 -0.3772  0.1034
  928MPD2    H513638   2.635   1.022   0.362 -0.6674  0.9559 -0.0719
  928MPD2    N113639   2.374   1.257   0.827 -0.1763 -0.4480  0.0926
  928MPD2    H713640   2.329   1.347   0.837 -0.6503 -0.6425 -0.3038
  929MPD2     C13641   3.371   0.209  10.164 -0.7576 -0.5853 -0.0154
  929MPD2    C113642   3.280   0.116  10.124 -0.1062 -0.0714  0.0594
  929MPD2    C213643   3.208   0.138  10.006  0.3837 -0.5345 -0.3082
  929MPD2    C313644   3.238   0.238   9.920 -0.3919 -0.0725  0.0652
  929MPD2    C413645   3.327   0.333   9.960  0.8402 -0.0176 -0.2777
  929MPD2    C513646   3.383   0.324  10.081  0.3338 -0.0798  0.5954
  929MPD2     H13647   3.144   0.055   9.978 -0.7418  0.0860  0.4306
  929MPD2    H113648   3.331   0.429   9.909 -0.4428  0.3939  0.4087
  929MPD2    H213649   3.414   0.207  10.263 -0.2997 -1.6766 -0.2430
  929MPD2    H313650   3.441   0.405  10.124 -0.3240  1.1899 -0.9264
  929MPD2     N13651   3.163   0.256   9.804 -0.2666 -0.1550  0.5568
  929MPD2    H513652   3.186   0.338   9.748  0.7503 -0.9237 -0.1405
  929MPD2    N113653   3.266   4.736  10.203  0.3485 -0.1680 -0.3054
  929MPD2    H713654   3.332   4.723  10.279  2.8265  1.7365 -2.1393
  930MPD2     C13655   4.718   2.387  14.625 -0.1513 -0.2053 -0.1601
  930MPD2    C113656   0.053   2.387  14.507 -0.3530  0.3052 -0.0803
  930MPD2    C213657   0.021   2.309  14.402 -0.5739  0.1245  0.6735
  930MPD2    C313658   4.650   2.229  14.410  0.0552  0.2328  0.4033
  930MPD2    C413659   4.570   2.226  14.521  0.7436 -0.6693  0.1948
  930MPD2    C513660   4.610   2.302  14.627  0.4051 -0.3374 -0.3923
  930MPD2     H13661   0.073   2.328  14.309 -0.3888  0.4012  0.8322
  930MPD2    H113662   4.485   2.159  14.523  1.1034 -1.1354 -0.0639
  930MPD2    H213663   4.732   2.447  14.714 -1.7445  1.1357 -0.8181
  930MPD2    H313664   4.547   2.300  14.715 -0.6087 -2.5909 -1.1801
  930MPD2     N13665   4.610   2.138  14.306 -0.2710 -0.5166  0.0582
  930MPD2    H513666   4.515   2.102  14.303 -0.7942  0.6185  2.4175
  930MPD2    N113667   0.154   2.486  14.502 -0.4202 -0.3362  0.4697
  930MPD2    H713668   0.198   2.485  14.411 -0.7424  1.3338  0.2978
  931MPD2     C13669   0.526   1.913   0.431 -0.2741  0.7009 -0.0368
  931MPD2    C113670   0.503   2.018   0.521 -0.8685  0.7275  0.2818
  931MPD2    C213671   0.475   1.990   0.649  0.0440  0.0761  0.6858
  931MPD2    C313672   0.505   1.863   0.702 -0.1314  0.1283 -0.2438
  931MPD2    C413673   0.528   1.762   0.610  0.0212 -0.8043 -0.0725
  931MPD2    C513674   0.541   1.784   0.477 -0.2921  0.4517  0.2482
  931MPD2     H13675   0.458   2.073   0.718 -1.4118  1.1498 -0.9820
  931MPD2    H113676   0.558   1.663   0.642  1.1210 -0.6897 -0.7342
  931MPD2    H213677   0.550   1.933   0.327 -1.1830  0.2241 -0.3377
  931MPD2    H313678   0.567   1.710   0.402  0.2485  1.9598 -1.0572
  931MPD2     N13679   0.493   1.825   0.840  0.4098  0.2171 -0.3999
  931MPD2    H513680   0.518   1.730   0.865 -0.4999  0.2506  0.6342
  931MPD2    N113681   0.496   2.151   0.464 -0.6336  0.1855 -0.5312
  931MPD2    H713682   0.511   2.160   0.364 -2.3127  0.3526 -0.7621
  932MPD2     C13683   2.634   0.949  11.578 -0.3923 -1.1625 -0.2789
  932MPD2    C113684   2.569   0.940  11.459 -0.7146  0.2428 -0.5300
  932MPD2    C213685   2.554   0.816  11.402 -0.6894  0.2964 -0.8270
  932MPD2    C313686   2.587   0.696  11.465  0.1175  0.2295  0.3520
  932MPD2    C413687   2.639   0.713  11.587  0.2261  1.1114  0.4182
  932MPD2    C513688   2.661   0.836  11.644 -0.5760  0.3428  0.3324
  932MPD2     H13689   2.505   0.814  11.306 -2.1725  2.4592 -0.1248
  932MPD2    H113690   2.656   0.628  11.651  3.0454  0.5977 -1.0381
  932MPD2    H213691   2.675   1.044  11.609 -0.7320 -0.6858 -1.2996
  932MPD2    H313692   2.722   0.838  11.734  1.8240  0.2186 -1.2962
  932MPD2     N13693   2.583   0.569  11.411 -0.2372  0.3200  0.2479
  932MPD2    H513694   2.608   0.498  11.478  0.3164  0.7033  0.4545
  932MPD2    N113695   2.502   1.048  11.400 -0.0885  0.5267  0.1428
  932MPD2    H713696   2.445   1.034  11.317  1.1490  0.5069 -0.7036
  933MPD2     C13697   2.036   1.760   1.256 -0.4004 -0.2082 -0.0960
  933MPD2    C113698   2.172   1.752   1.272  0.2437 -0.0578  1.0988
  933MPD2    C213699   2.249   1.868   1.301 -0.2465  0.6035  0.2186
  933MPD2    C313700   2.185   1.991   1.318 -0.7757  0.0102  1.1254
  933MPD2    C413701   2.045   1.991   1.310  0.0687  0.0405 -0.5675
  933MPD2    C513702   1.973   1.879   1.268 -0.0357 -0.3427 -0.6316
  933MPD2     H13703   2.356   1.855   1.312 -0.4501  0.3462  1.8511
  933MPD2    H113704   1.990   2.082   1.331 -1.0979 -0.4786 -1.3743
  933MPD2    H213705   1.972   1.678   1.226  1.8441 -1.2694 -1.9745
  933MPD2    H313706   1.865   1.873   1.272 -0.1419  1.5359 -0.4365
  933MPD2     N13707   2.264   2.106   1.336 -0.4034 -0.2435  0.4781
  933MPD2    H513708   2.364   2.091   1.340 -0.3227  0.6297  1.9690
  933MPD2    N113709   2.248   1.640   1.261 -0.6555  0.4289 -0.0358
  933MPD2    H713710   2.348   1.654   1.270 -0.9432  1.7360  1.0917
  934MPD2     C13711   3.876   3.645   1.779 -0.4947  0.0966 -0.4176
  934MPD2    C113712   3.957   3.536   1.748 -0.3164 -0.4291  0.5523
  934MPD2    C213713   3.928   3.455   1.642 -0.6070 -0.1847 -0.0660
  934MPD2    C313714   3.816   3.479   1.567  0.0625 -0.5353  0.5958
  934MPD2    C413715   3.729   3.572   1.610  0.2547  0.3677  0.1493
  934MPD2    C513716   3.753   3.653   1.717 -0.8641  0.1145 -0.1574
  934MPD2     H13717   3.993   3.373   1.612 -0.5859 -1.8324  4.4176
  934MPD2    H113718   3.633   3.597   1.566 -0.6729 -0.2955  1.7972
  934MPD2    H213719   3.898   3.719   1.855 -2.7529  0.3393 -0.0139
  934MPD2    H313720   3.689   3.733   1.752 -2.0487 -0.8254 -0.2111
  934MPD2     N13721   3.773   3.400   1.452  0.4432  0.3818  0.7452
  934MPD2    H513722   3.679   3.427   1.425 -0.4398 -3.2797  0.2578
  934MPD2    N113723   4.080   3.513   1.819  0.4602 -0.0393 -0.5081
  934MPD2    H713724   4.136   3.437   1.780 -1.5155 -2.1906  0.8760
  935MPD2     C13725   4.051   2.487   1.210 -0.3145 -0.0567 -0.1231
  935MPD2    C113726   3.990   2.534   1.098 -0.5123  0.1942  0.5924
  935MPD2    C213727   3.919   2.654   1.103  0.2868  0.4969  0.2127
  935MPD2    C313728   3.917   2.731   1.219  0.6399 -0.1352  0.0098
  935MPD2    C413729   3.994   2.686   1.333  0.5272  0.3748  0.4553
  935MPD2    C513730   4.052   2.566   1.324  0.0598 -0.7248 -0.2101
  935MPD2     H13731   3.863   2.686   1.016 -0.4677 -1.0494  0.1283
  935MPD2    H113732   4.000   2.745   1.424 -0.0024  0.4874  0.4202
  935MPD2    H213733   4.090   2.386   1.214  0.1607  0.2360  2.5749
  935MPD2    H313734   4.097   2.539   1.419 -1.0788 -0.2041  0.4672
  935MPD2     N13735   3.829   2.840   1.239  0.4137  0.0866  0.7717
  935MPD2    H513736   3.834   2.888   1.329  0.2671  0.7240  0.4409
  935MPD2    N113737   3.989   2.453   0.982  0.6256  0.1034 -0.1975
  935MPD2    H713738   3.927   2.482   0.907  0.1124  0.3841  0.3346
  936MPD2     C13739   1.955   4.548  12.940  0.0364 -0.7627  0.0732
  936MPD2    C113740   1.914   4.594  12.814 -0.3496 -0.4019 -0.4032
  936MPD2    C213741   1.957   4.523  12.707 -0.4059 -0.1655 -0.7632
  936MPD2    C313742   2.041   4.410  12.713  0.3864 -0.4448 -0.7929
  936MPD2    C413743   2.077   4.363  12.839  0.1530  0.0397  0.8616
  936MPD2    C513744   2.026   4.434  12.944  0.2273 -0.0269  0.1834
  936MPD2     H13745   1.919   4.552  12.610 -1.8762 -0.6076 -0.3207
  936MPD2    H113746   2.138   4.279  12.873 -0.4229 -0.3888  0.8318
  936MPD2    H213747   1.937   4.595  13.036  0.7826  1.2847 -0.7797
  936MPD2    H313748   2.053   4.402  13.044  0.6376  1.9783  0.7201
  936MPD2     N13749   2.104   4.345  12.599  0.1815 -0.0006  0.1377
  936MPD2    H513750   2.177   4.276  12.611 -0.1454 -0.5373 -0.9554
  936MPD2    N113751   1.845   4.715  12.789  0.4610 -0.3222  0.7393
  936MPD2    H713752   1.800   4.736  12.701  2.3432 -1.4841 -0.5074
  937MPD2     C13753   0.544   0.737  12.101  0.6263  0.0527  0.6482
  937MPD2    C113754   0.619   0.826  12.179 -0.5346 -0.4757 -0.9984
  937MPD2    C213755   0.727   0.895  12.116  0.6197 -0.2981 -0.0430
  937MPD2    C313756   0.768   0.860  11.992  0.4722  0.2001 -0.8372
  937MPD2    C413757   0.705   0.754  11.936  0.3726 -0.0524  0.9319
  937MPD2    C513758   0.588   0.700  11.983 -0.3514 -0.2395  0.0920
  937MPD2     H13759   0.770   0.979  12.171 -1.5941 -0.4319  1.8442
  937MPD2    H113760   0.749   0.726  11.841  1.5911  0.2700  1.4015
  937MPD2    H213761   0.461   0.681  12.142  0.5467 -1.6680 -1.8791
  937MPD2    H313762   0.532   0.621  11.935 -0.3216 -0.2665  0.1015
  937MPD2     N13763   0.871   0.933  11.934 -0.7782 -0.5715  0.0746
  937MPD2    H513764   0.899   1.015  11.987 -0.1969 -1.1906  0.7238
  937MPD2    N113765   0.580   0.868  12.303  0.3696  0.1172 -0.3626
  937MPD2    H713766   0.642   0.933  12.352  2.0761 -1.7571 -0.0559
  938MPD2     C13767   3.041   2.895   0.432  0.8555  0.2489 -0.1252
  938MPD2    C113768   3.095   2.964   0.537 -0.3869 -0.4079 -0.0948
  938MPD2    C213769   3.115   2.899   0.662 -0.3491 -0.3169  0.0858
  938MPD2    C313770   3.085   2.767   0.679 -0.6052  0.4356 -1.1378
  938MPD2    C413771   3.038   2.702   0.572 -0.0879 -0.5808  0.2695
  938MPD2    C513772   3.013   2.761   0.455  0.0911  0.0577  0.0973
  938MPD2     H13773   3.162   2.956   0.741  0.8291 -0.4822 -0.4981
  938MPD2    H113774   3.027   2.595   0.589 -2.0567 -0.5406 -0.7513
  938MPD2    H213775   3.033   2.930   0.330  1.4877  2.2846  0.5127
  938MPD2    H313776   2.988   2.689   0.378  1.7547 -1.1250  0.6777
  938MPD2     N13777   3.117   2.709   0.802 -0.3596  0.1178 -0.3690
  938MPD2    H513778   3.170   2.774   0.859  0.1685 -0.7893  0.1637
  938MPD2    N113779   3.142   3.095   0.519  0.2686 -0.2088 -0.2611
  938MPD2    H713780   3.201   3.137   0.589 -0.6084  1.3943 -0.4662
  939MPD2     C13781   0.270   3.770   1.147  0.1709  0.6808  0.9538
  939MPD2    C113782   0.142   3.806   1.107  0.4211  0.7733  0.0617
  939MPD2    C213783   0.110   3.787   0.976 -0.2270  0.2478  0.2527
  939MPD2    C313784   0.203   3.759   0.880  0.7239  0.2603  0.1372
  939MPD2    C413785   0.329   3.719   0.921  0.2127  0.6911 -0.5602
  939MPD2    C513786   0.363   3.731   1.058 -0.1078  0.3283 -0.4750
  939MPD2     H13787   0.009   3.812   0.945 -0.4962  0.4366  1.2814
  939MPD2    H113788   0.404   3.676   0.856  2.3681  0.7635  1.8800
  939MPD2    H213789   0.296   3.794   1.249  0.4580 -0.5389  1.1712
  939MPD2    H313790   0.465   3.707   1.086 -0.5054  1.6129  2.1476
  939MPD2     N13791   0.166   3.765   0.744 -0.2086  0.2781  0.0499
  939MPD2    H513792   0.071   3.801   0.733 -1.0595 -2.4224 -1.4104
  939MPD2    N113793   0.059   3.859   1.207  0.3872  0.4826 -0.0356
  939MPD2    H713794   0.104   3.903   1.287 -1.3915 -0.4421  1.4793
  940MPD2     C13795   2.771   4.338  13.626 -0.1376 -0.1747 -0.0561
  940MPD2    C113796   2.872   4.272  13.693 -0.0189 -0.2046  0.2104
  940MPD2    C213797   3.001   4.266  13.639  0.3920 -1.3299  0.4383
  940MPD2    C313798   3.022   4.319  13.510  0.6060  0.2989 -0.4991
  940MPD2    C413799   2.912   4.376  13.446 -0.0718  0.2178  0.1909
  940MPD2    C513800   2.791   4.391  13.501  0.2305  0.8359  0.2736
  940MPD2     H13801   3.082   4.217  13.692  1.3784  0.3397  0.4704
  940MPD2    H113802   2.929   4.419  13.348  0.5416 -0.1054  0.1589
  940MPD2    H213803   2.669   4.333  13.663 -1.2219 -1.2126 -3.2096
  940MPD2    H313804   2.716   4.434  13.436 -0.0959  1.7545  1.2738
  940MPD2     N13805   3.146   4.308  13.436 -0.2295 -0.0220  0.3014
  940MPD2    H513806   3.159   4.341  13.341  1.2245 -0.7701  0.2352
  940MPD2    N113807   2.856   4.219  13.826  0.4080 -1.0045  0.0131
  940MPD2    H713808   2.935   4.162  13.855  1.6275 -0.3920 -2.0339
  941MPD2     C13809   2.656   3.567  10.181  0.2347 -0.7893  0.1205
  941MPD2    C113810   2.731   3.491  10.277  0.6359 -0.2873  0.1822
  941MPD2    C213811   2.654   3.421  10.372 -0.2040 -0.1284 -0.2340
  941MPD2    C313812   2.518   3.427  10.375 -0.2567  0.4171  0.0009
  941MPD2    C413813   2.451   3.508  10.289  0.1047  0.5522  0.6125
  941MPD2    C513814   2.522   3.579  10.195 -0.7921  0.3884 -0.1450
  941MPD2     H13815   2.707   3.369  10.452 -1.0204 -0.7274 -0.0816
  941MPD2    H113816   2.343   3.506  10.280  0.3939  0.8956 -3.3185
  941MPD2    H213817   2.700   3.613  10.093 -1.7279 -0.8538 -0.8959
  941MPD2    H313818   2.465   3.651  10.138  1.3199  1.1696 -1.2710
  941MPD2     N13819   2.438   3.353  10.465 -0.4954 -0.6357  0.2044
  941MPD2    H513820   2.344   3.336  10.432 -0.4722 -3.1014  1.4092
  941MPD2    N113821   2.866   3.466  10.269  0.1768  0.0404 -0.5877
  941MPD2    H713822   2.920   3.418  10.340  2.6309  1.3329 -1.5842
  942MPD2     C13823   2.276   0.477   8.809 -0.4158  0.9861 -0.3241
  942MPD2    C113824   2.345   0.527   8.917 -0.1792  0.5648  0.6772
  942MPD2    C213825   2.460   0.468   8.956  0.3762  0.2006  0.0910
  942MPD2    C313826   2.508   0.347   8.903 -0.0909  0.0181 -0.4541
  942MPD2    C413827   2.440   0.299   8.798 -0.4503 -0.2878 -0.3033
  942MPD2    C513828   2.329   0.367   8.755 -0.0966 -0.2107  0.3394
  942MPD2     H13829   2.519   0.500   9.040 -0.5359 -0.1339  0.8636
  942MPD2    H113830   2.480   0.210   8.750  2.9300  0.4767  1.0821
  942MPD2    H213831   2.178   0.512   8.776 -0.8737 -1.3466 -1.4391
  942MPD2    H313832   2.265   0.322   8.680  2.3412 -0.4173 -1.5973
  942MPD2     N13833   2.634   0.284   8.939 -0.7046  0.1560  0.0195
  942MPD2    H513834   2.666   0.202   8.889 -1.3112 -1.2305  1.9237
  942MPD2    N113835   2.295   0.637   8.992  0.7187  0.0994  0.3764
  942MPD2    H713836   2.332   0.631   9.087  0.1586  4.6838  0.8813
  943MPD2     C13837   1.839   2.806   9.903 -0.5332  0.5633 -0.6669
  943MPD2    C113838   1.734   2.822   9.990 -0.2932 -0.0131  0.0367
  943MPD2    C213839   1.751   2.910  10.094  0.3991 -0.0045 -0.7822
  943MPD2    C313840   1.860   2.986  10.114 -0.2570  0.0883  0.4759
  943MPD2    C413841   1.966   2.961  10.034 -0.0603 -0.1255 -0.6266
  943MPD2    C513842   1.956   2.871   9.928  0.1790 -0.0044  0.2608
  943MPD2     H13843   1.664   2.928  10.157  1.5168  0.5237  0.5877
  943MPD2    H113844   2.054   3.025  10.032  0.6482 -1.2062 -4.0873
  943MPD2    H213845   1.830   2.741   9.817  0.1798 -1.4299  0.7660
  943MPD2    H313846   2.041   2.861   9.861  0.0329 -0.9512  0.2125
  943MPD2     N13847   1.864   3.090  10.206  0.0660  1.0496 -0.7328
  943MPD2    H513848   1.948   3.106  10.261 -0.1611 -0.0130 -0.0693
  943MPD2    N113849   1.618   2.740   9.976  0.4102 -0.8297 -0.1031
  943MPD2    H713850   1.614   2.687   9.890 -0.2252 -0.5815 -0.2298
  944MPD2     C13851   0.919   2.703  11.222  0.3365  0.4801 -0.5992
  944MPD2    C113852   0.902   2.588  11.297  0.1767  0.6830 -0.7999
  944MPD2    C213853   0.805   2.592  11.401 -0.1370  0.2048 -0.2403
  944MPD2    C313854   0.736   2.709  11.444  0.1253 -0.3533  0.3871
  944MPD2    C413855   0.761   2.820  11.374  0.1945  0.0720 -0.0163
  944MPD2    C513856   0.853   2.815  11.268  0.2708 -0.3952  0.2232
  944MPD2     H13857   0.788   2.500  11.456  0.0943 -0.0788 -0.6405
  944MPD2    H113858   0.706   2.908  11.403  2.6148  0.9967  1.7050
  944MPD2    H213859   0.973   2.696  11.128  1.1177  0.4626 -0.1483
  944MPD2    H313860   0.858   2.911  11.216  0.9308 -0.4220  0.2353
  944MPD2     N13861   0.650   2.699  11.550  0.3709 -0.4119  0.2122
  944MPD2    H513862   0.626   2.609  11.591 -1.0763  0.1681  0.6502
  944MPD2    N113863   0.978   2.473  11.255  0.2909 -0.1882 -0.0878
  944MPD2    H713864   1.030   2.483  11.169 -0.7316  2.4616 -0.4068
    1TMC1    C113865   3.658   3.288  13.955  0.0796 -0.2856  0.0093
    1TMC1    C213866   3.709   3.271  13.827  0.0874 -0.0475 -0.0918
    1TMC1    C313867   3.835   3.217  13.818 -0.7323  0.1168 -0.1634
    1TMC1    C413868   3.731   3.270  14.070 -0.3082 -0.4276 -0.8478
    1TMC1    C513869   3.852   3.220  14.050  0.3581 -0.8843 -0.5089
    1TMC1    C613870   3.907   3.182  13.926 -0.4838 -0.6034 -1.0426
    1TMC1     C13871   3.535   3.369  13.962  0.1084  0.4484  0.3461
    1TMC1     O13872   3.475   3.363  13.856  0.4205  0.6002  0.7717
    1TMC1     H13873   3.660   3.314  13.741  0.1587  1.6994  0.7468
    1TMC1    H113874   3.706   3.297  14.171 -2.8693 -2.6520 -0.8826
    1TMC1    H213875   4.009   3.146  13.923 -0.4418 -0.7428  1.9266
    1TMC1    C713876   3.936   3.212  14.165  0.0062  0.4552 -0.5905
    1TMC1    C813877   3.900   3.221  13.693 -0.4719  0.4510 -0.0764
    1TMC1    O113878   3.916   3.257  14.278 -0.2731  0.2603  0.0559
    1TMC1    O213879   3.977   3.312  13.670  0.0355 -0.1816  0.4252
    1TMC1    O313880   3.968   3.083  14.150  0.4952 -0.0072  0.2199
    1TMC1    H313881   3.940   3.035  14.069  0.2069  0.8907 -0.2220
    1TMC1    O513882   3.803   3.187  13.599 -0.1742  1.3865 -0.2146
    1TMC1    H513883   3.748   3.115  13.637  1.1422  0.8140  0.6030
    2MPD2     C13884   3.156   3.644  14.179  0.1331  0.3981 -0.1415
    2MPD2    C113885   3.256   3.618  14.275  0.6825  0.0601  0.0711
    2MPD2    C213886   3.366   3.536  14.246 -0.9598  0.2330 -0.1609
    2MPD2    C313887   3.378   3.491  14.115 -0.6417  0.0001 -0.2913
    2MPD2    C413888   3.285   3.521  14.021 -0.0422 -0.1767 -0.9239
    2MPD2    C513889   3.179   3.599  14.050  0.5664 -0.0656 -0.5387
    2MPD2     H13890   3.451   3.517  14.311 -0.5489  0.2011 -0.7013
    2MPD2    H113891   3.288   3.486  13.918 -1.0725 -0.1807 -0.9519
    2MPD2    H213892   3.067   3.702  14.200 -0.1934 -0.6178  1.2856
    2MPD2    H313893   3.110   3.608  13.966  0.6199  2.3930 -0.3400
    2MPD2     N13894   3.492   3.415  14.089  0.4165  0.1126  0.0847
    2MPD2    H513895   3.562   3.412  14.162  1.0160  2.9290 -0.3463
    2MPD2    N113896   3.232   3.664  14.401  0.1461  0.0695 -0.6116
    2MPD2    H713897   3.151   3.723  14.419 -1.1598 -2.5118  1.9339
    3TMC2    C113898   3.279   3.730  14.621  0.3383  0.3306  0.1688
    3TMC2    C213899   3.332   3.697  14.739 -0.2342 -0.1632  0.1079
    3TMC2    C313900   3.269   3.754  14.851  0.0050  0.1295 -0.1286
    3TMC2    C413901   3.186   3.830  14.606 -0.2929 -0.3145  0.2881
    3TMC2    C513902   3.135   3.890  14.714 -1.0206 -0.1337 -0.0782
    3TMC2    C613903   3.171   3.852  14.837 -0.1078  0.2578 -0.0195
    3TMC2     C13904   3.321   3.652  14.506 -0.1651  0.3766 -0.2764
    3TMC2     O13905   3.432   3.600  14.517 -0.4834  0.2048 -0.0855
    3TMC2     H13906   3.416   3.629  14.748  0.7143  0.8851 -0.7281
    3TMC2    H113907   3.155   3.865  14.508 -0.7436 -0.9323  0.2092
    3TMC2    H213908   3.127   3.890  14.928  0.8044 -1.5702  1.1927
    3TMC2    C713909   3.058   4.014  14.717 -0.1501 -0.3546  0.5526
    3TMC2    C813910   3.371   3.799  14.949 -0.4007  0.4873 -0.0629
    3TMC2    O113911   2.982   4.033  14.818 -0.7095 -0.2807 -0.1804
    3TMC2    O213912   3.352   3.895  15.023  0.2684  0.0462  0.4994
    3TMC2    O513913   3.498   3.740  14.936  0.1693  0.4714 -0.1084
    3TMC2    H513914   3.508   3.659  14.881 -0.3767  0.3241  0.0165
    4TMC2    C113915   2.909   4.589  13.908  0.5099 -0.2402 -0.3905
    4TMC2    C213916   3.009   4.617  13.829 -0.7225  0.0314  0.0625
    4TMC2    C313917   3.126   4.552  13.850  0.1934  0.2064 -0.1791
    4TMC2    C413918   2.919   4.509  14.027  0.2072  0.2196  0.4499
    4TMC2    C513919   3.037   4.444  14.041 -0.2313  0.4780  0.3516
    4TMC2    C613920   3.140   4.471  13.954  0.1619  0.0781  0.1277
    4TMC2     C13921   2.781   4.645  13.880 -0.7079  1.2277 -0.6253
    4TMC2     O13922   2.712   4.649  13.981  0.0083  1.5207 -0.2820
    4TMC2     H13923   3.009   4.693  13.752  0.5760 -0.5815 -0.5323
    4TMC2    H113924   2.832   4.499  14.092 -2.8796 -1.8125 -3.9898
    4TMC2    H213925   3.233   4.415  13.958  0.0516  0.2376  4.6646
    4TMC2    C713926   3.063   4.391  14.175 -0.5688 -0.2669  0.1703
    4TMC2    C813927   3.237   4.564  13.756 -1.0647 -0.0863 -0.5049
    4TMC2    O113928   3.126   4.285  14.172 -0.0645 -0.8134  0.2568
    4TMC2    O213929   3.352   4.527  13.777 -0.1922  0.0486  0.0397
    4TMC2    O513930   3.197   4.596  13.635 -0.3816  0.2205 -0.0974
    4TMC2    H513931   3.103   4.618  13.618  0.2012  1.2449 -1.9037
    5MPD2     C13932   2.435   0.108  13.561  0.5432 -0.4936 -0.3552
    5MPD2    C113933   2.529   0.043  13.487  0.2655 -0.4067 -0.1961
    5MPD2    C213934   2.632   4.711  13.556 -0.1746  0.1482 -0.1376
    5MPD2    C313935   2.638   4.707  13.687 -0.2346 -0.0670  0.2292
    5MPD2    C413936   2.538   0.033  13.764 -0.6741 -0.0870 -0.1530
    5MPD2    C513937   2.441   0.107  13.699 -0.6936  0.0012  0.4317
    5MPD2     H13938   2.713   4.666  13.499  0.0683  0.9985 -0.4747
    5MPD2    H113939   2.546   0.033  13.872  0.0383  0.6154 -0.2025
    5MPD2    H213940   2.359   0.169  13.516  1.1047 -0.3355 -1.0808
    5MPD2    H313941   2.364   0.163  13.751 -0.1414 -0.3843  1.6629
    5MPD2     N13942   2.756   4.650  13.747  0.1944  0.7861 -0.4932
    5MPD2    H513943   2.826   4.602  13.692 -1.0961 -0.8112 -0.7236
    5MPD2    N113944   2.513   0.049  13.343 -0.5036 -0.1506 -0.9581
    5MPD2    H713945   2.431   0.102  13.314  0.7342  1.5085 -1.4811
    6MPD1     C13946   2.032   0.958  11.727  0.1304  1.2795 -0.5218
    6MPD1    C113947   1.964   0.964  11.845 -0.2419  0.2600  0.4353
    6MPD1    C213948   2.016   0.904  11.961 -0.6067  0.3590 -0.0711
    6MPD1    C313949   2.143   0.842  11.954  0.1479  0.5070 -0.0929
    6MPD1    C413950   2.203   0.843  11.833  0.3844  0.2761  0.2692
    6MPD1    C513951   2.146   0.890  11.716  0.5247 -0.2046 -0.6828
    6MPD1     H13952   1.967   0.918  12.057  3.5373  2.0806  1.8241
    6MPD1    H113953   2.303   0.801  11.826  0.1148 -0.4109  0.5978
    6MPD1    H213954   2.000   1.009  11.637 -2.2153 -1.4131 -1.2152
    6MPD1    H313955   2.199   0.872  11.624 -0.5253 -2.0549 -0.9286
    6MPD1     N13956   2.219   0.796  12.070 -0.4467 -0.2668 -0.2261
    6MPD1    H513957   2.308   0.758  12.042 -1.2647  0.0548 -3.3332
    6MPD1    N113958   1.843   1.040  11.858 -0.0729  0.2850 -0.6872
    6MPD1    H613959   1.796   1.049  11.768 -0.0447 -0.0282 -0.7334
    6MPD1    H713960   1.785   1.005  11.934 -2.6727  1.4235 -2.1570
    7MPD2     C13961   2.214   0.621  12.937 -0.2289  0.4693 -0.3958
    7MPD2    C113962   2.246   0.530  12.836  0.0622 -0.3784 -0.2490
    7MPD2    C213963   2.250   0.395  12.862 -0.2758  0.1826  0.6076
    7MPD2    C313964   2.245   0.350  12.990  0.1656 -0.0731  0.5426
    7MPD2    C413965   2.210   0.438  13.086  1.1426  0.2788 -0.6001
    7MPD2    C513966   2.193   0.572  13.063 -0.1334  0.0229 -0.1461
    7MPD2     H13967   2.288   0.335  12.780 -0.8464 -0.0535  0.5176
    7MPD2    H113968   2.199   0.407  13.190  0.7288  2.0631 -0.0939
    7MPD2    H213969   2.194   0.726  12.919  1.4131  0.5652 -1.6888
    7MPD2    H313970   2.175   0.641  13.145  1.6615 -0.9441  1.0640
    7MPD2     N13971   2.260   0.213  13.023 -0.2052  0.3466 -0.0902
    7MPD2    H513972   2.262   0.192  13.122 -0.3509  1.8714  0.2246
    7MPD2    N113973   2.268   0.556  12.700  0.2414  0.3896  0.1636
    7MPD2    H713974   2.289   0.479  12.637 -1.7498  1.5673 -1.9119
    8TMC3    C113975   2.360   0.015  12.967  0.0371  0.1051  0.6165
    8TMC3    C213976   2.406   0.025  13.096 -0.3583 -0.3081  0.1688
    8TMC3    C313977   2.542   0.002  13.111 -0.5488 -0.0705 -0.7227
    8TMC3    C413978   2.440   4.722  12.860  0.4910 -0.1211 -0.0456
    8TMC3    C513979   2.571   4.718  12.871  0.0477  0.2128  0.9701
    8TMC3    C613980   2.619   4.730  13.000 -0.3389  0.1586  0.3540
    8TMC3     C13981   2.256   0.113  12.930  0.2523  0.2592  0.0758
    8TMC3     O13982   2.213   0.099  12.816  0.3036 -0.0073 -0.0708
    8TMC3     H13983   2.330   0.013  13.174  1.1699 -1.1076  1.5380
    8TMC3    H113984   2.400   4.728  12.759  0.4967 -0.7028 -0.0778
    8TMC3    H213985   2.727   0.004  13.009 -0.3442  2.4117 -2.6766
    8TMC3    C713986   2.636   0.059  12.766  0.1549 -0.2223  0.1290
    8TMC3    C813987   2.599   4.738  13.246 -0.3562  0.4607  0.8314
    8TMC3    O113988   2.665   0.173  12.800  0.2583  0.0145  0.6255
    8TMC3    O213989   2.715   4.706  13.258 -0.3486  0.8093  0.0702
    9TMC3    C113990   2.261   0.741  12.299 -0.4137 -0.6334  0.5551
    9TMC3    C213991   2.345   0.640  12.257 -0.1269  0.6121  0.0405
    9TMC3    C313992   2.425   0.578  12.346 -0.7638  0.1177  0.2322
    9TMC3    C413993   2.245   0.767  12.429  0.2885 -1.0784 -0.0829
    9TMC3    C513994   2.320   0.694  12.518  0.2715 -0.5231 -0.1548
    9TMC3    C613995   2.414   0.600  12.480  0.1020  0.6238 -0.4353
    9TMC3     C13996   2.178   0.811  12.202  0.3089  0.1174 -0.0461
    9TMC3     O13997   2.088   0.875  12.259 -0.0387  0.0265 -0.7003
    9TMC3     H13998   2.348   0.616  12.151 -2.9973  1.6435 -0.2706
    9TMC3    H113999   2.168   0.834  12.465  0.5460 -1.3451  0.9692
    9TMC3    H214000   2.475   0.544  12.550 -2.5961  0.0716  1.4929
    9TMC3    C714001   2.257   0.682  12.648 -0.8140 -0.0071 -0.4425
    9TMC3    C814002   2.486   0.455  12.294  0.9857  0.0334  0.1478
    9TMC3    O114003   2.204   0.786  12.689  0.5561 -0.3318  0.0919
    9TMC3    O214004   2.472   0.431  12.177 -0.2943  0.5909 -0.3381
   10MPD2     C14005   2.650   4.725  12.408  0.5591  0.1584 -0.4445
   10MPD2    C114006   2.631   0.059  12.527 -0.0805 -0.2339  0.3503
   10MPD2    C214007   2.608   0.201  12.513  0.2076  1.0209  0.3876
   10MPD2    C314008   2.584   0.253  12.389  0.1556  0.0869  0.2775
   10MPD2    C414009   2.583   0.171  12.275  0.3114 -0.8097  0.7771
   10MPD2    C514010   2.628   0.043  12.283 -0.2286 -0.4036 -0.2062
   10MPD2     H14011   2.582   0.267  12.595 -0.6748  0.5003  0.5265
   10MPD2    H114012   2.550   0.213  12.181 -0.2362 -2.8745  0.0649
   10MPD2    H214013   2.678   4.621  12.391  1.2068 -0.0008  1.6456
   10MPD2    H314014   2.641   4.730  12.189 -2.1334  0.9426 -1.2127
   10MPD2     N14015   2.533   0.380  12.398  0.1218 -0.1766 -0.4379
   10MPD2    H514016   2.521   0.424  12.488 -0.0426  0.9956 -1.0347
   10MPD2    N114017   2.631   4.732  12.651  0.1686 -0.0176 -0.1589
   10MPD2    H714018   2.615   4.632  12.645  3.3291 -0.4752 -0.6473
   11MPD2     C14019   2.921   4.278  14.660 -0.0433  0.0646  0.0844
   11MPD2    C114020   3.014   4.221  14.577 -0.3727 -0.4657  0.2308
   11MPD2    C214021   3.034   4.271  14.452  0.5245 -0.7174  0.6469
   11MPD2    C314022   2.966   4.385  14.404  0.4056 -0.0470 -0.4833
   11MPD2    C414023   2.867   4.440  14.484  0.3674 -0.1728 -0.4269
   11MPD2    C514024   2.847   4.390  14.614  0.3624 -0.3945 -0.1741
   11MPD2     H14025   3.108   4.220  14.391  0.1127 -1.6999  0.9729
   11MPD2    H114026   2.812   4.526  14.448  0.7461  0.1577 -0.2195
   11MPD2    H214027   2.893   4.244  14.760  0.7801 -2.0658 -0.4053
   11MPD2    H314028   2.779   4.439  14.684 -0.3738 -0.1746 -1.0440
   11MPD2     N14029   2.981   4.439  14.273 -0.1408 -0.2498  0.5387
   11MPD2    H514030   2.928   4.522  14.248  0.6224  0.2231  0.4689
   11MPD2    N114031   3.084   4.106  14.614 -1.0683  0.4048 -0.2252
   11MPD2    H714032   3.150   4.074  14.544  0.3272 -0.8232  1.6708
    1MPD1     C14033   0.234   0.739  17.004 -0.5335  0.4918 -0.0071
    1MPD1    C114034   0.235   0.818  17.125 -0.1005  0.6757 -0.1146
    1MPD1    C214035   0.353   0.867  17.181 -0.4876  0.3328  0.0211
    1MPD1    C314036   0.473   0.848  17.111  0.2621  0.7681 -0.4370
    1MPD1    C414037   0.475   0.775  16.994  0.3748 -0.7578 -0.4175
    1MPD1    C514038   0.358   0.725  16.942  0.3838 -0.2151  0.6649
    1MPD1     H14039   0.358   0.926  17.272  0.1523  1.6730 -0.8803
    1MPD1    H114040   0.569   0.750  16.946  1.1096  0.2390  0.5135
    1MPD1    H214041   0.137   0.707  16.969 -1.0448  1.3729  0.5892
    1MPD1    H314042   0.358   0.674  16.847 -0.6076 -1.6839  1.4489
    1MPD1     N14043   0.595   0.903  17.153  0.2178  0.0452 -0.5769
    1MPD1    H514044   0.681   0.875  17.107  0.7706  1.9063 -0.7170
    1MPD1    N114045   0.111   0.848  17.186 -0.5513  0.5605  0.4117
    1MPD1    H614046   0.055   0.763  17.191 -0.2569  0.1907 -2.4387
    1MPD1    H714047   0.122   0.891  17.277 -0.4247 -0.6723  0.9829
    2MPD1     C14048   1.375   0.943  16.685  0.0638 -0.4992  0.0963
    2MPD1    C114049   1.422   0.971  16.810  0.2382 -0.5500 -0.5409
    2MPD1    C214050   1.341   1.032  16.900  0.4759 -0.2243  0.4494
    2MPD1    C314051   1.208   1.072  16.871 -0.8312 -0.1018 -0.5104
    2MPD1    C414052   1.167   1.052  16.747 -0.4227  0.2145  0.1934
    2MPD1    C514053   1.248   0.985  16.655  0.2549 -0.0349 -0.0382
    2MPD1     H14054   1.364   1.021  17.006  2.7893  3.4639  0.3004
    2MPD1    H114055   1.068   1.083  16.716 -1.2753 -0.5178  2.1757
    2MPD1    H214056   1.440   0.901  16.609  1.2789 -0.9527  1.3939
    2MPD1    H314057   1.206   0.976  16.555 -1.2556 -1.9205  0.7650
    2MPD1     N14058   1.127   1.105  16.977 -0.5966  0.1590  0.1463
    2MPD1    H514059   1.175   1.145  17.058 -0.3495  0.4180 -0.1265
    2MPD1    N114060   1.542   0.896  16.851  0.5807  0.2863 -0.5536
    2MPD1    H614061   1.604   0.886  16.771  1.2675  0.7490 -0.0939
    2MPD1    H714062   1.579   0.937  16.937 -0.3321 -1.3482  0.6070
    3TMC3    C114063   0.947   1.100  17.124 -0.9961  0.3981 -0.2694
    3TMC3    C214064   0.987   1.192  17.211  0.0597 -0.7054  0.0147
    3TMC3    C314065   0.905   1.213  17.322  0.5498  0.3389  0.1227
    3TMC3    C414066   0.822   1.042  17.132  0.0075  0.4225  0.0120
    3TMC3    C514067   0.743   1.058  17.242 -0.2412  0.8043  0.3080
    3TMC3    C614068   0.785   1.149  17.340 -0.4236 -0.6525 -0.0137
    3TMC3     C14069   0.993   1.098  16.983  0.5512  0.7793  0.3338
    3TMC3     O14070   0.908   1.083  16.895 -0.1013 -0.2547 -0.0073
    3TMC3     H14071   1.081   1.243  17.194 -0.8018  0.9552  0.2114
    3TMC3    H114072   0.784   0.996  17.041  0.3947  0.5963 -0.2321
    3TMC3    H214073   0.726   1.161  17.430 -0.9975 -1.0075 -0.3423
    3TMC3    C714074   0.613   1.002  17.249 -0.6945  0.5176 -0.1176
    3TMC3    C814075   0.943   1.329  17.400 -0.5022  0.1547  0.0360
    3TMC3    O114076   0.542   1.041  17.337 -0.0290  0.0218 -0.7562
    3TMC3    O214077   1.062   1.340  17.429 -0.0018  0.5615  0.2110
    4MPD1     C14078   0.789   1.767  17.620  0.2083 -0.8555 -0.1950
    4MPD1    C114079   0.690   1.721  17.529 -0.1208 -0.4736  0.5572
    4MPD1    C214080   0.718   1.617  17.448  0.3417  0.3333 -0.5352
    4MPD1    C314081   0.824   1.537  17.470 -0.6655  0.1490  0.3363
    4MPD1    C414082   0.914   1.576  17.563 -0.9213  0.4563 -0.1285
    4MPD1    C514083   0.901   1.692  17.633 -0.3022  0.0535  0.0744
    4MPD1     H14084   0.654   1.599  17.363 -0.3609 -3.0946  0.7122
    4MPD1    H114085   1.003   1.519  17.590 -1.5865  0.1069  1.3547
    4MPD1    H214086   0.771   1.862  17.669  1.9228 -0.6257  0.0023
    4MPD1    H314087   0.973   1.731  17.705  0.1522  0.2177 -0.4673
    4MPD1     N14088   0.830   1.407  17.412  0.1180 -0.1638 -0.4533
    4MPD1    H514089   0.748   1.386  17.357  1.7534 -1.6849 -2.3317
    4MPD1    N114090   0.587   1.801  17.488 -0.0498 -0.2176  0.3138
    4MPD1    H614091   0.508   1.747  17.452  0.9057  0.0444 -2.2202
    4MPD1    H714092   0.554   1.863  17.561  2.2439  0.4467  0.7800
    1TCq1    O114093   2.915   4.355  12.136  0.0253  0.2867 -0.4756
    1TCq1    C114094   2.933   4.488  12.126 -0.2399 -0.1039  0.2757
    1TCq1    O214095   3.001   4.558  12.201  0.0784 -0.3779  0.0018
    1TCq1    C214096   2.877   4.536  12.002 -0.1993 -1.0934 -0.2223
    1TCq1    C314097   2.849   4.454  11.900 -0.2174 -0.3612  0.2496
    1TCq1    C414098   2.855   4.510  11.776 -0.1815 -0.4944 -0.7804
    1TCq1    C514099   2.833   4.649  11.758 -0.4407  0.7975  0.0376
    1TCq1    C614100   2.848   4.731  11.864 -0.0038 -0.5996  0.2514
    1TCq1    C714101   2.873   4.674  11.990 -0.0275  0.3972  0.0420
    1TCq1    C814102   2.866   0.134  11.843 -0.0148  0.9669  0.4585
    1TCq1    O414103   2.863   0.201  11.945  0.2121  0.1261 -0.6147
    1TCq1    C914104   2.819   4.425  11.665 -0.6077 -0.2389 -0.8193
    1TCq1    O514105   2.761   4.320  11.697  0.1321  0.8896 -0.3146
    1TCq1    O614106   2.842   4.468  11.549 -0.0342 -0.0623 -0.3083
    1TCq1    H114107   2.849   4.321  12.070  1.2908  1.2730 -2.2547
    1TCq1    H214108   2.848   4.346  11.910 -0.1393 -0.4265 -0.5003
    1TCq1    H314109   2.791   4.682  11.664 -0.7958  0.1622 -0.0269
    1TCq1    H414110   2.895   4.739  12.074  3.6093 -0.7285 -0.0468
    2MPD1     C14111   2.966   0.534  11.527  0.1364 -0.1920  0.3555
    2MPD1    C114112   3.016   0.419  11.467 -0.5648  0.2214  0.4009
    2MPD1    C214113   2.975   0.300  11.525 -0.3134 -0.5072 -0.0614
    2MPD1    C314114   2.915   0.290  11.651  0.6592  0.1301  0.5817
    2MPD1    C414115   2.883   0.407  11.713 -0.2788  1.2869 -0.5270
    2MPD1    C514116   2.907   0.527  11.649 -0.7208  0.3677  0.1645
    2MPD1     H14117   2.982   0.205  11.472 -0.1692 -0.4934 -0.0677
    2MPD1    H114118   2.831   0.409  11.808  0.2294  0.3975 -0.2256
    2MPD1    H214119   2.966   0.633  11.483  1.5301 -0.3720 -0.0524
    2MPD1    H314120   2.879   0.616  11.704 -2.6458  0.0220 -0.2556
    2MPD1     N14121   2.894   0.160  11.715  0.0421 -0.3169 -0.2951
    2MPD1    H514122   2.922   0.074  11.668  2.3846 -0.0559  0.6064
    2MPD1    N114123   3.056   0.432  11.334 -0.5981  0.0261 -0.1308
    2MPD1    H614124   3.105   0.360  11.281  0.2492  0.0382  0.6245
    2MPD1    H714125   3.102   0.520  11.313 -2.8941  1.3475  0.4357
    1TMC1    C114126   1.413   0.855   0.797 -0.2600 -0.3331 -0.2557
    1TMC1    C214127   1.530   0.786   0.784 -0.7852 -0.3990  0.6980
    1TMC1    C314128   1.585   0.769   0.668 -0.3767  0.3597  0.3140
    1TMC1    C414129   1.350   0.904   0.689  0.1900 -0.3770 -0.3783
    1TMC1    C514130   1.410   0.894   0.573 -0.2183 -0.5302  0.3798
    1TMC1    C614131   1.531   0.827   0.559 -0.2657 -0.7077  0.7194
    1TMC1     C14132   1.357   0.868   0.929 -1.1134 -0.3218  0.0898
    1TMC1     O14133   1.436   0.863   1.024  0.0758  0.7151 -0.0334
    1TMC1     H14134   1.561   0.734   0.874 -0.7165 -0.8649  0.4031
    1TMC1    H114135   1.267   0.974   0.697  0.3581 -0.1638 -0.5085
    1TMC1    H214136   1.577   0.810   0.462 -1.6307  1.2195 -0.2609
    1TMC1    C714137   1.315   0.886   0.470  0.0305 -0.4011 -0.1182
    1TMC1    C814138   1.683   0.660   0.651 -1.3908 -0.4140 -0.1912
    1TMC1    O114139   1.195   0.894   0.486  0.0365 -0.3010  0.1643
    1TMC1    O214140   1.759   0.657   0.554  0.3116  0.0409  0.1111
    1TMC1    O314141   1.383   0.866   0.355 -0.1055 -1.1509 -0.5185
    1TMC1    H314142   1.473   0.900   0.378 -0.1909  0.9162 -3.3150
    1TMC1    O514143   1.635   0.551   0.707  0.8394  0.1449  0.8296
    1TMC1    H514144   1.563   0.580   0.767 -1.1741  0.1551 -1.5740
    2MPD1     C14145   0.972   0.912   1.271 -0.5475  0.1905 -0.7068
    2MPD1    C114146   0.923   0.932   1.147  0.2121  0.2686 -0.1801
    2MPD1    C214147   1.001   0.929   1.035 -0.0934 -0.0368  0.4398
    2MPD1    C314148   1.134   0.891   1.045 -0.0369  0.5511  0.0240
    2MPD1    C414149   1.183   0.857   1.170  0.5535 -0.4793  0.0322
    2MPD1    C514150   1.101   0.876   1.279 -0.0899 -0.2067 -0.2627
    2MPD1     H14151   0.961   0.952   0.937  0.4834 -1.1224 -0.0453
    2MPD1    H114152   1.278   0.808   1.181  1.2499  0.5218 -1.3967
    2MPD1    H214153   0.909   0.918   1.360  0.8786  0.5753  0.2732
    2MPD1    H314154   1.126   0.837   1.377  0.1457 -2.5387 -1.2303
    2MPD1     N14155   1.211   0.878   0.928  0.1091  0.0798 -0.1998
    2MPD1    H514156   1.156   0.879   0.843 -1.1421 -1.6870  0.5899
    2MPD1    N114157   0.786   0.966   1.134  0.0609 -0.3486  0.1439
    2MPD1    H614158   0.746   0.921   1.052  1.1338 -0.0126 -0.5726
    2MPD1    H714159   0.732   0.934   1.214  1.1776  0.5201  1.2474
    1MPD1     C14160   4.145   0.499  12.151 -0.6600  0.0594 -0.2532
    1MPD1    C114161   4.067   0.612  12.183 -0.3733  0.6186 -0.6270
    1MPD1    C214162   4.120   0.730  12.154  0.1073 -0.2197  0.5718
    1MPD1    C314163   4.237   0.741  12.085  0.4127 -0.0940 -0.0924
    1MPD1    C414164   4.318   0.631  12.065  0.3088  0.1125 -0.0234
    1MPD1    C514165   4.270   0.509  12.090 -0.2385 -0.2854  0.7101
    1MPD1     H14166   4.060   0.816  12.180 -1.6175 -1.5021  0.7670
    1MPD1    H114167   4.416   0.649  12.023 -0.0099  3.2563  0.5851
    1MPD1    H214168   4.106   0.399  12.164  0.0763 -0.3839 -1.4425
    1MPD1    H314169   4.332   0.422  12.072  0.3063  0.0688  0.8582
    1MPD1     N14170   4.277   0.871  12.058  0.1946  0.5928 -1.1060
    1MPD1    H514171   4.213   0.948  12.073 -0.7334 -0.5569  0.8407
    1MPD1    N114172   3.934   0.599  12.223 -0.4205  0.3291 -0.3303
    1MPD1    H614173   3.923   0.522  12.289 -0.1211  0.6152  0.0506
    1MPD1    H714174   3.913   0.682  12.278 -0.0370 -0.9011  1.6827
    2MPD1     C14175   3.856   0.867  11.456  0.5420  0.1409  0.7116
    2MPD1    C114176   3.865   0.735  11.505 -0.7210 -0.3585 -0.3166
    2MPD1    C214177   3.972   0.660  11.458  0.0238  0.5250  0.1990
    2MPD1    C314178   4.060   0.712  11.363 -0.3070  0.0537  0.3045
    2MPD1    C414179   4.025   0.822  11.291  0.0325  0.4823 -0.1383
    2MPD1    C514180   3.928   0.898  11.345  0.7949 -0.2238 -0.5330
    2MPD1     H14181   4.007   0.572  11.509  0.7678 -0.9113 -2.7756
    2MPD1    H114182   4.081   0.857  11.205  1.0955  0.1696  0.4312
    2MPD1    H214183   3.788   0.942  11.495  0.6135  0.0748  0.9580
    2MPD1    H314184   3.904   0.994  11.300  0.1579  0.3007  0.9280
    2MPD1     N14185   4.185   0.659  11.330  0.4492 -0.3778 -0.1380
    2MPD1    H514186   4.241   0.720  11.272  0.6596  0.3717  0.8628
    2MPD1    N114187   3.798   0.701  11.625 -0.0024 -0.2227  0.8451
    2MPD1    H614188   3.798   0.601  11.645  0.1381  0.2139  2.9901
    2MPD1    H714189   3.705   0.741  11.636 -1.1391 -2.6732  0.3497
    3MPD1     C14190   0.253   0.858  10.912  0.8761 -0.4880 -0.7356
    3MPD1    C114191   0.270   0.805  11.031  0.3619  0.2784 -0.5743
    3MPD1    C214192   0.156   0.761  11.093 -0.8090  0.3999  0.1054
    3MPD1    C314193   0.046   0.736  11.018 -0.2129 -0.1459  0.4331
    3MPD1    C414194   0.038   0.762  10.879  0.4535 -0.0420 -0.3254
    3MPD1    C514195   0.139   0.846  10.838  0.1680 -0.0083  0.2279
    3MPD1     H14196   0.155   0.735  11.198 -0.2196  0.1167  0.0438
    3MPD1    H114197   4.685   0.743  10.825  1.1627 -2.4462 -0.6758
    3MPD1    H214198   0.337   0.914  10.872  2.2220 -1.0655  1.2862
    3MPD1    H314199   0.127   0.884  10.737 -1.2751  3.1546  1.5805
    3MPD1     N14200   4.699   0.648  11.088  0.4310 -0.1720 -0.2123
    3MPD1    H514201   4.718   0.610  11.180 -1.5695  1.5919  0.9538
    3MPD1    N114202   0.386   0.817  11.104  0.1180 -0.6078 -0.5141
    3MPD1    H614203   0.469   0.827  11.045  0.9433 -4.5759 -0.0104
    3MPD1    H714204   0.388   0.743  11.173 -1.0684 -0.1359  0.0244
    4MPD2     C14205   4.340   1.306  11.432  0.8524 -0.3845  0.3448
    4MPD2    C114206   4.450   1.321  11.517  0.6022 -0.5333  0.1609
    4MPD2    C214207   4.573   1.359  11.471  0.1781 -0.0411  0.2362
    4MPD2    C314208   4.595   1.382  11.332 -0.1300 -0.2123 -0.2778
    4MPD2    C414209   4.485   1.374  11.253 -0.6595 -0.1153 -0.2666
    4MPD2    C514210   4.362   1.337  11.301 -0.2703 -0.1521 -0.3586
    4MPD2     H14211   4.654   1.374  11.541  1.0235 -0.4297 -0.6583
    4MPD2    H114212   4.489   1.392  11.146  1.9130 -0.5448 -0.2327
    4MPD2    H214213   4.239   1.284  11.465  0.1542  1.1476 -0.7613
    4MPD2    H314214   4.275   1.330  11.237 -1.3440 -2.2187  1.3533
    4MPD2     N14215   4.716   1.432  11.273 -0.4876  0.4726  0.6945
    4MPD2    H514216   4.709   1.479  11.183  3.1230  0.6757  0.5042
    4MPD2    N114217   4.446   1.301  11.656 -0.2941 -0.0836 -0.5959
    4MPD2    H714218   4.528   1.318  11.714 -1.3632 -0.7956  1.1273
    5TMC3    C114219   4.359   1.234  11.869  0.4913 -0.1574 -0.2778
    5TMC3    C214220   4.326   1.109  11.914 -0.2169 -0.6157  0.3164
    5TMC3    C314221   4.410   1.051  12.003  0.4918  0.2599 -0.6848
    5TMC3    C414222   4.479   1.294  11.910 -0.4686  0.5312 -0.4435
    5TMC3    C514223   4.561   1.230  11.996  0.8758 -0.3416  0.3198
    5TMC3    C614224   4.528   1.101  12.042 -0.3235  0.5918  0.3505
    5TMC3     C14225   4.333   1.253  11.726  0.4905  0.7372  0.0690
    5TMC3     O14226   4.243   1.188  11.671 -0.1855 -0.6250  0.1294
    5TMC3     H14227   4.250   1.048  11.867 -0.2489 -2.3413  2.6168
    5TMC3    H114228   4.497   1.393  11.869  1.1878  0.0933 -0.7873
    5TMC3    H214229   4.596   1.038  12.099 -0.3420  0.1691 -0.0923
    5TMC3    C714230   4.695   1.241  11.942  0.0257  0.1374  0.3572
    5TMC3    C814231   4.402   0.909  12.023 -0.3134  0.1558 -0.2842
    5TMC3    O114232   4.698   1.297  11.832  0.1184  0.1106 -0.0853
    5TMC3    O214233   4.507   0.848  12.011 -0.5726 -0.4489  0.1155
    6TMC3    C114234   4.370   0.522  11.316 -0.5324  0.3252  0.7638
    6TMC3    C214235   4.394   0.572  11.191 -0.0577 -0.2731  0.4829
    6TMC3    C314236   4.517   0.534  11.142 -0.4546 -0.6235 -0.2217
    6TMC3    C414237   4.463   0.454  11.392  0.3543 -0.5704  0.0655
    6TMC3    C514238   4.580   0.414  11.333 -0.0640  0.5352  0.2317
    6TMC3    C614239   4.606   0.446  11.202 -0.0919 -0.1107 -0.8936
    6TMC3     C14240   4.245   0.547  11.385  0.1330 -0.3565 -0.3073
    6TMC3     O14241   4.215   0.479  11.479 -0.1085 -0.0871 -0.0048
    6TMC3     H14242   4.328   0.635  11.133 -0.9060 -1.5394  0.0703
    6TMC3    H114243   4.423   0.414  11.484  0.1737  0.3775  0.3967
    6TMC3    H214244   4.695   0.411  11.152  0.5949 -1.3506  1.1778
    6TMC3    C714245   4.688   0.469  11.403  0.0636  0.8958 -0.8174
    6TMC3    C814246   4.574   0.617  11.039  0.2684  0.1276 -0.1129
    6TMC3    O114247   0.036   0.529  11.337  0.0181 -0.0056 -0.5669
    6TMC3    O214248   4.499   0.682  10.969  0.5974  0.1306  0.0829
    7MPD2     C14249   0.473   1.134  11.947 -0.4557  0.0532  0.1827
    7MPD2    C114250   0.390   1.212  11.865 -0.3792  0.3339  0.9742
    7MPD2    C214251   0.253   1.211  11.874  0.0561 -0.0688 -0.3589
    7MPD2    C314252   0.183   1.143  11.967  0.1301  0.3544  0.6309
    7MPD2    C414253   0.263   1.061  12.040 -0.2185 -0.1631  0.6388
    7MPD2    C514254   0.400   1.055  12.032  0.2428  0.2347  0.1345
    7MPD2     H14255   0.192   1.272  11.809  1.2619  0.0203 -1.4246
    7MPD2    H114256   0.222   1.005  12.123  0.1447 -0.3376  0.7005
    7MPD2    H214257   0.581   1.140  11.947 -0.3009 -2.6959 -0.6398
    7MPD2    H314258   0.446   0.992  12.108  1.1218  1.2106  0.4106
    7MPD2     N14259   0.043   1.161  12.003 -0.2968 -0.5123 -0.0402
    7MPD2    H514260   0.010   1.110  12.085 -0.0040  0.8882  0.9495
    7MPD2    N114261   0.461   1.280  11.763  0.0709  0.1086 -0.2347
    7MPD2    H714262   0.560   1.293  11.783 -0.3701  0.7814  1.4918
    8TMC3    C114263   0.301   1.307  11.590 -0.1159 -0.5107  0.3395
    8TMC3    C214264   0.266   1.178  11.585  0.6364  0.3498  0.3037
    8TMC3    C314265   0.169   1.141  11.497  0.5580 -0.0286  0.2179
    8TMC3    C414266   0.250   1.396  11.505  0.3210 -0.0464  0.1451
    8TMC3    C514267   0.144   1.364  11.422  0.1932 -0.6773  0.5188
    8TMC3    C614268   0.104   1.233  11.412 -0.0019 -0.2425 -0.4968
    8TMC3     C14269   0.412   1.357  11.660 -0.0484  0.3490  0.0748
    8TMC3     O14270   0.476   1.438  11.591  0.7172  0.5031 -0.4214
    8TMC3     H14271   0.322   1.105  11.641  0.4158  0.9785  1.3468
    8TMC3    H114272   0.260   1.503  11.521  1.2651  0.0090 -0.8388
    8TMC3    H214273   0.045   1.193  11.330  2.1018 -1.2816 -1.4978
    8TMC3    C714274   0.091   1.469  11.343 -0.1320 -0.2417  0.0908
    8TMC3    C814275   0.115   1.005  11.494 -0.5113  0.3963 -0.2243
    8TMC3    O114276   0.169   1.559  11.318  0.6081 -0.0928  0.5161
    8TMC3    O214277   0.031   0.978  11.407  0.3401  0.3517 -0.3440
    9MPD2     C14278   0.105   0.787  11.787 -0.1657  0.5556 -0.8061
    9MPD2    C114279   0.087   0.812  11.650 -0.3025 -0.3478  0.4502
    9MPD2    C214280   0.046   0.713  11.563  0.5916  0.3447  0.3489
    9MPD2    C314281   4.728   0.596  11.617  1.4605  0.1556  0.2903
    9MPD2    C414282   4.738   0.579  11.753  0.0729  0.3866 -0.0505
    9MPD2    C514283   0.068   0.666  11.836  0.1552 -0.8283 -0.2818
    9MPD2     H14284   0.041   0.739  11.458 -1.5405 -1.0475  0.1134
    9MPD2    H114285   4.712   0.487  11.804  1.4600  0.4303  0.7289
    9MPD2    H214286   0.143   0.857  11.860  1.3422 -0.4095 -0.6557
    9MPD2    H314287   0.071   0.653  11.944  0.4598  0.7079 -0.1100
    9MPD2     N14288   4.660   0.492  11.538  0.3269 -0.3595  0.1216
    9MPD2    H514289   4.603   0.424  11.587  0.1981  0.0711  0.5660
    9MPD2    N114290   0.116   0.948  11.617 -0.2821  0.2854 -0.0076
    9MPD2    H714291   0.143   1.006  11.695  2.8363 -0.9453 -0.1435
    1MPD1     C14292   3.777   1.230  16.363  0.3084  0.2066  0.0150
    1MPD1    C114293   3.867   1.131  16.332 -0.2607  0.4027  0.2788
    1MPD1    C214294   3.913   1.052  16.431  0.5932  0.2416 -0.3623
    1MPD1    C314295   3.870   1.070  16.564  0.3425 -0.0529 -0.3792
    1MPD1    C414296   3.788   1.176  16.587 -0.5746 -0.1038 -0.0324
    1MPD1    C514297   3.729   1.249  16.489 -0.3768 -0.6648 -0.0803
    1MPD1     H14298   3.974   0.964  16.409 -2.0083 -1.2674 -1.5219
    1MPD1    H114299   3.756   1.184  16.691 -0.3824  0.8383 -0.0422
    1MPD1    H214300   3.745   1.288  16.276  2.5487  1.1784 -0.1505
    1MPD1    H314301   3.658   1.321  16.528  2.3170  1.5995  0.6979
    1MPD1     N14302   3.912   0.995  16.673 -0.3792 -0.1961  0.0018
    1MPD1    H514303   3.886   1.035  16.763 -0.6842  2.5721 -1.3241
    1MPD1    N114304   3.897   1.110  16.199  0.0336 -0.1832 -0.0405
    1MPD1    H614305   3.845   1.172  16.138  0.1749  0.1455  0.1735
    1MPD1    H714306   3.995   1.120  16.173  0.4168 -2.9669  0.3485
    2TMC2    C114307   3.997   0.581  16.882  0.3327 -0.3281  1.0089
    2TMC2    C214308   4.026   0.639  16.998 -0.2352  0.5258  0.2209
    2TMC2    C314309   4.031   0.777  17.010  0.0404  0.7656 -0.6610
    2TMC2    C414310   3.974   0.661  16.770 -0.2865  0.1915  1.0787
    2TMC2    C514311   3.979   0.797  16.784  0.4539  0.4645  0.4468
    2TMC2    C614312   3.997   0.861  16.905  0.4842  0.3347 -0.2606
    2TMC2     C14313   4.030   0.442  16.868 -0.2630  0.0890  0.2843
    2TMC2     O14314   4.086   0.384  16.962 -0.2088  0.4881  0.5514
    2TMC2     H14315   4.037   0.566  17.077 -0.1637  0.4986  0.1854
    2TMC2    H114316   3.969   0.618  16.671 -1.8255 -1.3023  1.8131
    2TMC2    H214317   4.012   0.968  16.901  3.2384 -0.0553 -0.4081
    2TMC2    C714318   3.980   0.873  16.658  0.1337 -0.0068  0.0655
    2TMC2    C814319   4.075   0.817  17.145  0.0902  0.1762  0.4765
    2TMC2    O114320   4.003   0.800  16.560  0.1919 -0.7486  0.0418
    2TMC2    O214321   4.056   0.741  17.240 -0.7324 -0.2186 -0.3305
    2TMC2    O514322   4.099   0.951  17.137  0.5364  0.0187 -0.2865
    2TMC2    H514323   4.144   0.968  17.052 -2.6216  1.0594 -1.7571
    3MPD1     C14324   4.084   0.022  16.578 -0.7743  0.1954 -0.2311
    3MPD1    C114325   3.974   0.094  16.531  0.0249 -0.6066  0.4890
    3MPD1    C214326   3.950   0.214  16.589  0.8174  0.2109  0.5026
    3MPD1    C314327   4.020   0.265  16.693 -0.4747  0.1967  0.0069
    3MPD1    C414328   4.126   0.192  16.740 -0.8628 -0.1700  0.0454
    3MPD1    C514329   4.153   0.070  16.682  0.1694 -0.2555  0.3942
    3MPD1     H14330   3.873   0.280  16.549 -0.3376 -0.8891  0.9280
    3MPD1    H114331   4.187   0.231  16.821  0.9880 -1.4624 -0.7371
    3MPD1    H214332   4.104   4.662  16.538  0.2598 -0.9252  3.1109
    3MPD1    H314333   4.239   0.013  16.713  0.2789 -1.7537 -2.6801
    3MPD1     N14334   3.988   0.387  16.751 -0.1086  0.1090 -0.2814
    3MPD1    H514335   3.912   0.427  16.698 -0.4051  0.1469  0.1678
    3MPD1    N114336   3.917   0.054  16.413 -0.7909  0.1018 -0.6866
    3MPD1    H614337   3.820   0.085  16.406 -1.0136 -0.1910  1.2653
    3MPD1    H714338   3.914   4.691  16.407 -2.9774  0.2314 -1.8170
    1TMC1    C114339   1.531   3.364  13.453 -0.1217 -0.1874 -0.2470
    1TMC1    C214340   1.458   3.350  13.573  0.3097  0.0251  0.2723
    1TMC1    C314341   1.374   3.242  13.569  0.1281  0.0585 -0.2687
    1TMC1    C414342   1.544   3.271  13.351 -0.1445  0.4476 -0.0151
    1TMC1    C514343   1.440   3.181  13.349  0.8917 -0.7313  0.2279
    1TMC1    C614344   1.369   3.160  13.460  0.2212  0.0636  0.9435
    1TMC1     C14345   1.619   3.478  13.441 -0.1226  0.2029  0.3424
    1TMC1     O14346   1.582   3.579  13.494 -0.1164  0.6807 -0.0854
    1TMC1     H14347   1.458   3.433  13.643  0.1110 -0.1611  0.4946
    1TMC1    H114348   1.601   3.298  13.263 -0.5957  0.7163 -0.2250
    1TMC1    H214349   1.295   3.080  13.454  0.1938  0.1277  0.4292
    1TMC1    C714350   1.423   3.090  13.237  0.6212 -0.2415  0.0154
    1TMC1    C814351   1.278   3.207  13.673  0.7471 -0.0569  0.0298
    1TMC1    O114352   1.420   3.131  13.121 -0.2732  0.2425  0.1282
    1TMC1    O214353   1.217   3.104  13.667  0.2309 -0.2189  0.2298
    1TMC1    O314354   1.424   2.962  13.277 -0.3826  0.2519  0.2477
    1TMC1    H314355   1.448   2.959  13.372 -1.7105 -0.8523  0.5504
    1TMC1    O514356   1.323   3.260  13.795  0.2744  0.3877  0.7713
    1TMC1    H514357   1.385   3.336  13.782  1.1392 -0.3222  0.7676
    2MPD2     C14358   1.852   3.675  13.395  0.0041  0.0021 -0.1667
    2MPD2    C114359   1.859   3.534  13.377  0.3808 -0.1357 -0.1519
    2MPD2    C214360   1.976   3.476  13.349  0.4653  0.4102 -0.6774
    2MPD2    C314361   2.093   3.547  13.323 -0.4631 -0.3115 -0.2877
    2MPD2    C414362   2.089   3.684  13.342  0.3104  0.5483 -0.0351
    2MPD2    C514363   1.970   3.739  13.376  0.1915  0.5150 -1.1148
    2MPD2     H14364   1.980   3.368  13.352 -1.4508  0.3741  0.3155
    2MPD2    H114365   2.171   3.751  13.318 -0.0011  0.9109 -0.0805
    2MPD2    H214366   1.756   3.724  13.408  0.0983 -0.0076  0.5809
    2MPD2    H314367   1.970   3.845  13.402  0.0090  0.1670  0.3352
    2MPD2     N14368   2.204   3.478  13.272  0.4579  0.0680  0.9440
    2MPD2    H514369   2.194   3.377  13.263  1.5423 -0.0142  0.6746
    2MPD2    N114370   1.745   3.448  13.403 -0.8044  0.8371 -0.0532
    2MPD2    H714371   1.762   3.354  13.369  1.5047  0.8098  1.1869
    3TCq1    O114372   2.241   3.034  13.012 -0.5209  0.3617  0.3969
    3TCq1    C114373   2.363   3.085  13.043  0.4239 -0.4035 -0.0945
    3TCq1    O214374   2.440   3.039  13.131  0.1153  0.7253  0.0348
    3TCq1    C214375   2.343   3.230  13.027  0.7327  0.2069 -0.3463
    3TCq1    C314376   2.343   3.285  12.897  1.0478 -0.2175  0.4227
    3TCq1    C414377   2.356   3.415  12.889  0.2516 -0.3466 -0.5849
    3TCq1    C514378   2.360   3.494  12.995  0.3473 -0.0290 -0.5720
    3TCq1    C614379   2.374   3.445  13.122  0.1814 -0.7340  0.8190
    3TCq1    C714380   2.362   3.311  13.134 -0.1210 -0.1415 -0.9940
    3TCq1    C814381   2.319   3.532  13.223  0.0325 -0.7576  0.3491
    3TCq1    O414382   2.345   3.653  13.205  0.5225 -0.0923  0.3710
    3TCq1    C914383   2.365   3.472  12.752  0.1921 -0.1427  0.3492
    3TCq1    O514384   2.279   3.424  12.670 -0.7363 -0.3303 -0.3400
    3TCq1    O614385   2.441   3.570  12.739  0.0637  0.1459  0.0750
    3TCq1    H114386   2.177   3.093  12.966 -0.1104 -1.3825 -2.4349
    3TCq1    H214387   2.326   3.228  12.806  2.3106  2.1777 -1.2926
    3TCq1    H314388   2.357   3.598  12.962 -0.3265 -0.1141 -0.7831
    3TCq1    H414389   2.360   3.268  13.233 -0.2244 -1.7271 -1.6948
    1MPD2     C14390   2.025   0.409  15.177  0.2331 -0.2227 -0.4382
    1MPD2    C114391   1.900   0.350  15.149 -0.2394  0.4990  0.0875
    1MPD2    C214392   1.890   0.214  15.178 -0.9155 -0.3578 -0.1789
    1MPD2    C314393   1.996   0.143  15.230  0.3353 -0.5617  0.3760
    1MPD2    C414394   2.120   0.202  15.260 -0.3430 -0.0075 -0.3267
    1MPD2    C514395   2.123   0.337  15.233 -0.3221  0.0447  0.0204
    1MPD2     H14396   1.790   0.176  15.164 -1.0431  0.0484 -0.3918
    1MPD2    H114397   2.199   0.143  15.306  0.1799  1.5096  0.7135
    1MPD2    H214398   2.040   0.514  15.154  0.7656 -0.1808  0.1341
    1MPD2    H314399   2.211   0.389  15.268  0.2997 -1.7939  1.1875
    1MPD2     N14400   1.982   0.002  15.257  0.0575 -0.2079  0.2938
    1MPD2    H514401   2.067   4.703  15.297 -0.0609 -0.4595  0.3110
    1MPD2    N114402   1.784   0.432  15.108 -0.5500  0.2651 -0.6998
    1MPD2    H714403   1.794   0.519  15.057  1.4460  0.5537  0.1772
    2TMC3    C114404   1.550   0.475  15.077 -1.1875  0.5916 -0.6198
    2TMC3    C214405   1.436   0.432  15.130 -0.5030 -0.4858  0.2814
    2TMC3    C314406   1.323   0.424  15.058 -0.1073  0.3033  0.2823
    2TMC3    C414407   1.556   0.503  14.942  0.0204  0.1980 -0.1751
    2TMC3    C514408   1.446   0.490  14.865 -0.3543  0.5031  0.1541
    2TMC3    C614409   1.325   0.450  14.922 -0.5681  0.1791  0.6241
    2TMC3     C14410   1.654   0.392  15.123  0.1792 -0.3825  0.3489
    2TMC3     O14411   1.622   0.298  15.195 -1.0555  0.1909 -0.6023
    2TMC3     H14412   1.435   0.437  15.238 -1.2283 -3.8707  0.4477
    2TMC3    H114413   1.654   0.524  14.901  0.4960 -1.0785  0.3103
    2TMC3    H214414   1.233   0.467  14.868  0.0587 -1.8760 -1.0873
    2TMC3    C714415   1.440   0.554  14.731 -0.3330 -0.1064  0.1419
    2TMC3    C814416   1.247   0.305  15.084  0.3794  0.6479  0.4349
    2TMC3    O114417   1.338   0.541  14.668 -0.6334 -0.6397 -0.4220
    2TMC3    O214418   1.128   0.301  15.058  0.0059 -1.0365  0.3183
    3TCq1    O114419   2.312   1.333  14.399  0.3140 -0.0661 -0.3846
    3TCq1    C114420   2.356   1.262  14.508  0.2155 -0.6855  0.5015
    3TCq1    O214421   2.471   1.242  14.545 -0.2733  0.6888  0.4110
    3TCq1    C214422   2.243   1.207  14.573  0.8840  0.0735 -0.6303
    3TCq1    C314423   2.226   1.213  14.708  0.0827  0.2578  0.7075
    3TCq1    C414424   2.107   1.177  14.764  0.1648 -0.4471 -0.0984
    3TCq1    C514425   1.999   1.128  14.692  0.2695  0.2621 -0.2079
    3TCq1    C614426   2.024   1.095  14.560  0.4321  0.1908  0.2975
    3TCq1    C714427   2.141   1.148  14.497 -0.6810  0.0089  0.4426
    3TCq1    C814428   1.924   1.032  14.472 -0.0776 -0.5099  0.1419
    3TCq1    O414429   1.941   1.038  14.353  0.1158 -0.2990 -0.1947
    3TCq1    C914430   2.096   1.165  14.904  0.5468  0.2177  0.5066
    3TCq1    O514431   2.203   1.194  14.966 -0.2591  0.0368 -0.0829
    3TCq1    O614432   1.986   1.154  14.958  0.0258  0.1955  0.0117
    3TCq1    H114433   2.217   1.350  14.414  0.5918  1.8504 -0.8296
    3TCq1    H214434   2.309   1.251  14.766 -1.5983  4.4102  0.3783
    3TCq1    H314435   1.916   1.086  14.748  0.3767 -0.0316 -0.2696
    3TCq1    H414436   2.144   1.133  14.390  2.1438  0.5185  0.4414
    4MPD2     C14437   1.696   0.850  14.406 -0.6572  0.3032 -0.2141
    4MPD2    C114438   1.755   0.857  14.529  0.1452 -0.5422 -0.1031
    4MPD2    C214439   1.700   0.784  14.630  0.1625 -0.5549 -0.0523
    4MPD2    C314440   1.587   0.701  14.601  0.4941 -0.0315  0.5877
    4MPD2    C414441   1.531   0.687  14.477 -0.5346 -0.3505 -0.8137
    4MPD2    C514442   1.582   0.773  14.385  0.7365  0.5930  0.4573
    4MPD2     H14443   1.744   0.789  14.729 -3.2270  2.0712  1.3347
    4MPD2    H114444   1.438   0.634  14.456 -0.8842  0.3679 -1.0897
    4MPD2    H214445   1.733   0.914  14.327  0.5374 -1.5494 -1.1697
    4MPD2    H314446   1.543   0.779  14.284  1.2139  2.3394  0.3724
    4MPD2     N14447   1.550   0.627  14.712  0.0063  0.1713  0.1788
    4MPD2    H514448   1.614   0.632  14.790  1.9455 -0.8578 -1.3223
    4MPD2    N114449   1.862   0.943  14.557 -0.3004 -0.4991  0.8698
    4MPD2    H714450   1.897   0.929  14.652  0.1758 -0.7661  0.6567
    5TMC2    C114451   1.681   4.431  15.414 -0.5562  0.4121  0.3477
    5TMC2    C214452   1.697   4.471  15.544  0.2124 -0.2529  0.0122
    5TMC2    C314453   1.807   4.546  15.572  0.3444  0.9903  0.9351
    5TMC2    C414454   1.764   4.478  15.313  0.1460  0.1462 -0.4830
    5TMC2    C514455   1.872   4.557  15.346 -0.1919 -0.4783  0.0820
    5TMC2    C614456   1.896   4.590  15.476  0.3797  0.7532 -0.0446
    5TMC2     C14457   1.544   4.457  15.381  0.2004 -0.1935 -0.7579
    5TMC2     O14458   1.460   4.398  15.448  0.7113  0.2482 -0.8397
    5TMC2     H14459   1.626   4.440  15.620  1.1224  2.0180  1.7611
    5TMC2    H114460   1.756   4.430  15.217 -0.7536  0.6699 -0.6657
    5TMC2    H214461   1.953   4.676  15.506  0.5599  0.0180  1.7173
    5TMC2    C714462   1.863   4.674  15.255  0.3252 -0.3128  0.5920
    5TMC2    C814463   1.790   4.648  15.667  0.1137 -0.5396 -0.1583
    5TMC2    O114464   1.759   4.680  15.190  0.4153  0.4693 -0.2829
    5TMC2    O214465   1.676   4.667  15.705  0.1239  0.2289 -0.6107
    5TMC2    O514466   1.904   4.654  15.744  0.4052 -0.1556 -0.9331
    5TMC2    H514467   1.974   4.594  15.712  1.2485  0.8752 -1.0268
    6MPD2     C14468   1.191   0.046  15.209 -0.2043  0.2217  0.0733
    6MPD2    C114469   1.311   0.092  15.177  0.6631  0.4106 -0.4265
    6MPD2    C214470   1.418   0.013  15.211  0.2512 -0.1344 -0.1882
    6MPD2    C314471   1.411   4.629  15.272 -0.2194 -0.3672 -0.1745
    6MPD2    C414472   1.289   4.592  15.322 -0.5320 -0.7477  0.2313
    6MPD2    C514473   1.179   4.673  15.289  0.1937 -0.0870 -0.1368
    6MPD2     H14474   1.517   0.039  15.173  0.1368  0.9669  0.2690
    6MPD2    H114475   1.269   4.502  15.379 -1.1078 -0.5743  0.2977
    6MPD2    H214476   1.105   0.111  15.197  0.4904  1.5096  2.0253
    6MPD2    H314477   1.079   4.635  15.308  1.2898 -2.4002  0.9835
    6MPD2     N14478   1.531   4.554  15.293 -0.4556  0.5463  0.5070
    6MPD2    H514479   1.618   4.593  15.257  0.0447 -0.3314  0.7633
    6MPD2    N114480   1.336   0.219  15.129 -0.4272 -0.0212 -0.0606
    6MPD2    H714481   1.431   0.253  15.132 -0.0541 -0.7620 -2.9455
  945NH3     N114482   2.116   0.980  12.938 -0.2912 -0.2855 -0.5565
  945NH3     H214483   2.165   0.974  12.850  0.2668  0.3052 -0.2829
  945NH3     H314484   2.133   1.075  12.967 -0.0743 -0.2077 -0.9484
  945NH3     H414485   2.181   0.925  12.993  0.7768  1.0324 -0.5005
  946SOD     NA14486   3.965   0.734  11.801  0.3048 -0.1218 -0.6363
  947SOD     NA14487   1.502   1.169  15.280 -0.2339 -0.3113  0.2959
  948SOD     NA14488   3.462   3.960   7.948  0.3165 -0.5095  0.3016
  949SOD     NA14489   1.794   4.474  10.019 -0.3115  0.1876 -0.0242
  950SOD     NA14490   3.209   2.227   2.878 -0.1814  0.1144 -0.2128
  951SOD     NA14491   0.396   3.740   5.102  0.1740  0.0668 -0.3836
  952SOD     NA14492   2.336   3.431  15.269  0.3933  0.0226 -0.0739
  953SOD     NA14493   2.394   2.125  17.033 -0.7868  0.0052  0.0338
  954SOL     OW14494   1.554   1.863   4.095  0.2580 -0.7102  0.2518
  954SOL    HW114495   1.460   1.880   4.085  0.3554  0.2967  1.0111
  954SOL    HW214496   1.584   1.879   4.006  0.7370 -2.0749  0.1709
  955SOL     OW14497   3.234   2.420   6.103 -0.2435  0.6409  0.2254
  955SOL    HW114498   3.324   2.394   6.120 -0.4146  1.1203  1.8995
  955SOL    HW214499   3.226   2.411   6.008 -3.5357 -3.8537  0.9196
  956SOL     OW14500   1.266   4.521  17.742  0.3356 -0.5043 -0.5136
  956SOL    HW114501   1.284   4.427  17.736  0.0924 -0.7808  2.9681
  956SOL    HW214502   1.263   4.530   0.083 -4.2411  0.1444 -0.7220
  957SOL     OW14503   3.743   2.994   9.709 -0.6054 -0.3225 -0.0619
  957SOL    HW114504   3.747   2.984   9.614 -0.8306 -2.4771  0.1501
  957SOL    HW214505   3.819   3.049   9.726 -0.1178 -0.6012 -1.3710
  958SOL     OW14506   2.260   3.346   1.527  0.0091 -0.0152  0.5684
  958SOL    HW114507   2.339   3.294   1.543  0.8195  1.2694  0.7682
  958SOL    HW214508   2.286   3.396   1.449 -1.2914  1.3929  1.0420
  959SOL     OW14509   3.521   1.289   3.949  0.8204  0.4616 -0.4325
  959SOL    HW114510   3.497   1.218   4.009  0.5709  0.0112 -1.0686
  959SOL    HW214511   3.475   1.270   3.868 -3.4764 -0.9938  2.3375
  960SOL     OW14512   3.814   1.836   5.825  0.0020  0.1059  0.2840
  960SOL    HW114513   3.878   1.881   5.881 -1.3130 -0.3360  2.1575
  960SOL    HW214514   3.868   1.837   5.746  0.7080  2.2819  0.7750
  961SOL     OW14515   0.683   2.254   4.981  0.1034  0.6272 -1.0470
  961SOL    HW114516   0.684   2.202   5.061 -1.0449  0.1573 -1.3320
  961SOL    HW214517   0.592   2.277   4.962 -0.2322  0.7616  0.6558
  962SOL     OW14518   0.110   1.503   7.342  0.5248 -0.3366 -0.1851
  962SOL    HW114519   0.123   1.598   7.352  1.5550 -0.6772  1.6900
  962SOL    HW214520   0.033   1.498   7.284  1.4659 -0.2451 -1.4410
  963SOL     OW14521   0.916   4.723   6.591 -0.2483 -0.2651 -0.0154
  963SOL    HW114522   0.881   4.638   6.620 -1.6700 -0.0049 -0.9403
  963SOL    HW214523   1.000   4.691   6.558  1.2772  2.1043  1.5423
  964SOL     OW14524   4.332   4.482   0.998  0.4760 -0.0843  0.1553
  964SOL    HW114525   4.242   4.502   0.971  0.2682  0.4858  1.3181
  964SOL    HW214526   4.363   4.564   1.037  0.8627  0.5452 -1.4784
  965SOL     OW14527   2.389   0.297   1.506 -0.1767 -0.1640 -0.0622
  965SOL    HW114528   2.386   0.222   1.446 -0.5285  2.1441 -2.9365
  965SOL    HW214529   2.335   0.263   1.578 -0.3898 -0.5416 -0.3971
  966SOL     OW14530   4.500   4.389   6.606  0.3348 -0.1332  0.0637
  966SOL    HW114531   4.408   4.368   6.626 -0.4351  0.8483 -2.4410
  966SOL    HW214532   4.539   4.314   6.562  2.2255  1.7801 -1.5045
  967SOL     OW14533   0.004   0.850   4.477  0.4546  0.2087  0.0479
  967SOL    HW114534   0.029   0.787   4.409 -1.7679  1.6655 -2.1466
  967SOL    HW214535   0.086   0.864   4.524  1.8493  0.2220 -2.3849
  968SOL     OW14536   4.230   0.948  10.205  0.5933 -0.5419 -0.0707
  968SOL    HW114537   4.314   0.915  10.237  0.8716 -1.8825 -2.2197
  968SOL    HW214538   4.240   1.043  10.197 -0.8792 -0.4559 -0.8448
  969SOL     OW14539   0.542   1.015   4.767  0.4686  0.3309  0.5462
  969SOL    HW114540   0.461   1.035   4.720 -0.1535 -0.8223  1.1409
  969SOL    HW214541   0.598   1.090   4.745 -0.3617  0.7914  0.0059
  970SOL     OW14542   0.001   1.079   5.530  0.0406 -0.0824 -0.2474
  970SOL    HW114543   0.073   1.106   5.473  0.9848  1.2996  1.5948
  970SOL    HW214544   4.689   1.159   5.521 -0.2126 -0.3271 -1.0215
  971SOL     OW14545   2.553   3.336  16.024 -0.3157 -0.2447  0.6838
  971SOL    HW114546   2.526   3.291  16.105 -1.0258  0.3530  0.7769
  971SOL    HW214547   2.496   3.306  15.953 -1.7252  0.8198  1.3714
  972SOL     OW14548   0.036   0.701   1.745 -0.1561  0.1044  0.0390
  972SOL    HW114549   4.720   0.643   1.798  0.1992  0.2293  0.5538
  972SOL    HW214550   4.729   0.687   1.663 -2.3171  1.9399  0.9134
  973SOL     OW14551   3.812   4.013   2.376 -0.0272 -0.1936 -0.1386
  973SOL    HW114552   3.741   3.990   2.437  1.2145 -1.6235  0.7731
  973SOL    HW214553   3.848   4.090   2.419 -3.3017  1.1341  0.2812
  974SOL     OW14554   1.538   1.952   7.196 -0.1969 -0.7493 -0.1815
  974SOL    HW114555   1.561   1.911   7.279 -0.0690 -0.4109 -0.0505
  974SOL    HW214556   1.581   2.036   7.209 -0.0116 -0.6767 -1.2695
  975SOL     OW14557   1.526   2.227   6.465 -0.3431 -0.8903 -0.8830
  975SOL    HW114558   1.477   2.151   6.496  0.4017 -1.4259 -1.0008
  975SOL    HW214559   1.606   2.222   6.517  1.2269 -1.6120 -3.3447
  976SOL     OW14560   2.386   2.778  13.027 -0.0755  0.4231  0.2764
  976SOL    HW114561   2.460   2.719  13.043 -0.4060 -0.8933 -3.0135
  976SOL    HW214562   2.419   2.865  13.051 -1.3471  0.5044  1.7185
  977SOL     OW14563   0.694   1.442  14.209 -0.3202  0.2602  0.2995
  977SOL    HW114564   0.637   1.494  14.266  1.8174  1.7798  1.0484
  977SOL    HW214565   0.658   1.449  14.121  0.2572 -1.0597 -0.0473
  978SOL     OW14566   2.536   4.651   2.213  0.3680  0.0283  0.3007
  978SOL    HW114567   2.548   4.573   2.267 -1.5994  0.7142  1.7016
  978SOL    HW214568   2.478   4.700   2.272 -1.7751 -1.8911 -0.2457
  979SOL     OW14569   1.714   2.109   6.777  0.2950 -0.6742  0.2413
  979SOL    HW114570   1.627   2.128   6.814  0.4880 -0.7143  0.7180
  979SOL    HW214571   1.718   2.023   6.819 -0.5651 -0.3269  1.0417
  980SOL     OW14572   0.502   4.563  15.743  0.2755 -0.4633  0.0085
  980SOL    HW114573   0.560   4.508  15.689  1.7738  0.4727  0.6476
  980SOL    HW214574   0.524   4.653  15.719 -1.4036  0.0199  0.3225
  981SOL     OW14575   0.480   0.655   9.428 -0.2648 -0.0943 -0.6716
  981SOL    HW114576   0.526   0.721   9.377 -0.0708  0.5148  0.2955
  981SOL    HW214577   0.428   0.605   9.365  0.6942 -2.2708  0.2417
  982SOL     OW14578   4.573   1.772   3.666 -0.3958 -0.4662  0.0340
  982SOL    HW114579   4.536   1.724   3.740 -1.2103  0.9712  0.5586
  982SOL    HW214580   4.603   1.856   3.703  1.8856 -2.0136  1.7505
  983SOL     OW14581   1.165   3.173   1.867  0.2212 -0.0996  0.4586
  983SOL    HW114582   1.100   3.230   1.826  2.4903  3.8085  2.3047
  983SOL    HW214583   1.179   3.222   1.948  1.2979  1.6710 -0.7875
  984SOL     OW14584   3.563   0.889  10.490 -0.1985  0.5462 -0.6727
  984SOL    HW114585   3.593   0.861  10.576 -1.9350  0.5106 -0.0700
  984SOL    HW214586   3.614   0.827  10.439  1.2982  0.9816  0.2991
  985SOL     OW14587   2.984   3.578  14.752 -0.0610  0.5853 -0.1969
  985SOL    HW114588   2.955   3.621  14.672 -0.6407  0.4353 -0.0645
  985SOL    HW214589   3.036   3.510  14.710  0.0446 -0.3182  1.4034
  986SOL     OW14590   2.779   2.854   5.662  0.1495 -0.0451  0.3038
  986SOL    HW114591   2.841   2.868   5.733  0.2960  1.2908 -0.0823
  986SOL    HW214592   2.814   2.776   5.619  0.3692 -0.4927  1.2975
  987SOL     OW14593   3.580   0.963  13.268  0.2132 -0.7065 -0.5661
  987SOL    HW114594   3.565   0.869  13.276  0.3823 -0.5300  1.9133
  987SOL    HW214595   3.488   0.989  13.273  1.7648  4.5531  1.0564
  988SOL     OW14596   1.260   0.250  13.412 -0.3714 -0.3922 -0.0282
  988SOL    HW114597   1.334   0.205  13.454  0.0042  1.2314  1.0571
  988SOL    HW214598   1.188   0.212  13.461 -0.3705 -1.5679 -0.9431
  989SOL     OW14599   4.584   1.121   4.872  0.0785  0.1324 -0.0945
  989SOL    HW114600   4.662   1.088   4.916  0.3434  0.4886 -0.2959
  989SOL    HW214601   4.513   1.091   4.928 -0.7424 -0.1043 -1.2700
  990SOL     OW14602   3.787   2.565  10.621  0.2407  0.4333  0.3960
  990SOL    HW114603   3.790   2.495  10.687 -0.1237  0.4649  0.4448
  990SOL    HW214604   3.739   2.637  10.661  0.5796  0.3847  0.8936
  991SOL     OW14605   2.705   2.862   4.170  0.3518 -0.4752 -0.4002
  991SOL    HW114606   2.680   2.919   4.243  1.2650  0.8029 -1.0897
  991SOL    HW214607   2.684   2.910   4.090  2.5928 -1.5964 -1.6253
  992SOL     OW14608   4.408   0.421   4.659 -0.3720  0.2224 -0.4880
  992SOL    HW114609   4.372   0.356   4.599 -0.5017  0.6727 -0.9046
  992SOL    HW214610   4.499   0.413   4.631 -0.3241 -0.9907  0.0115
  993SOL     OW14611   2.162   0.219   7.465 -0.0313  0.5674  0.0342
  993SOL    HW114612   2.183   0.144   7.520  0.7803  2.3367  2.1440
  993SOL    HW214613   2.228   0.208   7.397 -0.3554  1.3745 -0.4033
  994SOL     OW14614   2.635   3.214   9.056  0.3286 -0.5335 -0.1188
  994SOL    HW114615   2.710   3.265   9.025 -1.0002  0.9990 -0.8294
  994SOL    HW214616   2.615   3.245   9.145  1.8001  0.6893 -0.2074
  995SOL     OW14617   3.992   0.034   5.708 -0.2084  0.3172 -0.0211
  995SOL    HW114618   3.969   0.126   5.720  1.3174  0.4772  1.6711
  995SOL    HW214619   4.055   0.028   5.779 -0.3430 -0.8889  0.0093
  996SOL     OW14620   1.081   2.701   3.126 -0.5062 -0.5123  0.1758
  996SOL    HW114621   0.999   2.671   3.165 -0.6901 -1.0228 -0.6120
  996SOL    HW214622   1.058   2.791   3.102  0.9288  0.4111  2.2271
  997SOL     OW14623   0.585   0.325   9.170  0.1124  0.0792 -0.4550
  997SOL    HW114624   0.621   0.414   9.165 -2.2564  1.0519 -0.0804
  997SOL    HW214625   0.647   0.285   9.109  0.4741  1.2252 -0.8295
  998SOL     OW14626   3.261   0.899   7.823 -0.5853 -0.5145  0.4044
  998SOL    HW114627   3.321   0.947   7.766 -1.1943  2.1819  2.0359
  998SOL    HW214628   3.251   0.974   7.882  0.5287 -0.8158  0.9761
  999SOL     OW14629   1.804   1.357   6.702 -0.0631  0.2897  0.1027
  999SOL    HW114630   1.883   1.312   6.730  1.3840  0.8510 -3.0708
  999SOL    HW214631   1.816   1.436   6.755 -3.3773 -0.1375  1.5031
 1000SOL     OW14632   1.520   3.518   0.888 -0.1666  0.2557  0.2308
 1000SOL    HW114633   1.486   3.602   0.857 -0.3556 -0.1005 -0.5217
 1000SOL    HW214634   1.436   3.473   0.900 -0.4968  0.4060 -1.5019
 1001SOL     OW14635   4.480   0.392  11.849  0.0464 -0.0453 -0.6233
 1001SOL    HW114636   4.493   0.308  11.894  1.5063  0.4004 -0.2004
 1001SOL    HW214637   4.410   0.367  11.789 -0.5950  1.2839 -0.4415
 1002SOL     OW14638   1.316   3.294  10.303 -0.0080 -0.3746 -0.5912
 1002SOL    HW114639   1.351   3.206  10.299  2.9944  0.8157 -0.4334
 1002SOL    HW214640   1.234   3.294  10.254  0.3162 -0.0747 -1.1271
 1003SOL     OW14641   4.676   1.669   4.423 -0.1802 -0.1557  0.0261
 1003SOL    HW114642   4.660   1.730   4.352  2.0397  1.3734  0.8364
 1003SOL    HW214643   4.702   1.589   4.377 -0.2335  0.8776 -1.7605
 1004SOL     OW14644   3.171   2.716   5.286  0.3151  0.1714 -0.3044
 1004SOL    HW114645   3.157   2.669   5.204  0.9143  1.4879 -1.1670
 1004SOL    HW214646   3.234   2.782   5.258 -1.1305  0.5313 -2.7038
 1005SOL     OW14647   1.672   1.370  17.701 -0.2150  0.1626 -0.0832
 1005SOL    HW114648   1.716   1.348  17.619  0.8991  1.1277  0.2344
 1005SOL    HW214649   1.732   1.334   0.013 -2.1070  0.6478  1.8789
 1006SOL     OW14650   4.098   3.194   4.141 -0.4174  0.5135 -0.8758
 1006SOL    HW114651   4.176   3.195   4.086 -1.0088 -1.2626 -1.7224
 1006SOL    HW214652   4.084   3.101   4.156  3.0585 -0.2886 -2.7501
 1007SOL     OW14653   2.447   4.043   9.088 -0.3720 -0.4737 -0.5552
 1007SOL    HW114654   2.504   3.992   9.030  0.7837  0.5095 -0.2827
 1007SOL    HW214655   2.479   4.001   9.168 -0.4838 -1.2005 -0.8935
 1008SOL     OW14656   2.368   1.020   4.567  0.2386 -0.7460 -0.0293
 1008SOL    HW114657   2.375   1.115   4.570 -0.4724 -0.7269  0.9217
 1008SOL    HW214658   2.343   0.998   4.477 -0.8594 -0.8429  0.3004
 1009SOL     OW14659   0.012   0.242   8.818 -0.3956 -0.7584  0.5488
 1009SOL    HW114660   4.687   0.300   8.777  2.4111  1.1357 -1.1604
 1009SOL    HW214661   0.036   0.295   8.894 -0.4959 -1.7375  1.2705
 1010SOL     OW14662   0.945   4.115   4.493 -0.1119  0.1068  0.7605
 1010SOL    HW114663   0.859   4.081   4.517 -0.3253 -0.8141 -1.2733
 1010SOL    HW214664   0.924   4.110   4.400 -0.9452 -0.0289  0.9572
 1011SOL     OW14665   3.010   4.088   6.176  0.6790 -0.3588  0.0520
 1011SOL    HW114666   3.053   4.021   6.228 -0.3192  0.2166  1.6311
 1011SOL    HW214667   2.984   4.152   6.243  0.6088 -0.5113  0.1679
 1012SOL     OW14668   1.629   1.066   4.587 -0.0286 -0.4383  0.5913
 1012SOL    HW114669   1.722   1.060   4.609 -0.2808  1.0690  2.0358
 1012SOL    HW214670   1.599   0.981   4.617 -0.1435  0.2395  2.3949
 1013SOL     OW14671   1.261   3.429   0.570 -0.1327  0.3989 -0.5547
 1013SOL    HW114672   1.168   3.407   0.575  0.3241 -0.9590  2.3174
 1013SOL    HW214673   1.298   3.384   0.646 -0.8458 -0.0948 -0.5019
 1014SOL     OW14674   2.079   0.672   7.848 -0.3591 -0.3647 -0.0716
 1014SOL    HW114675   2.112   0.695   7.761  0.0409 -1.3063 -0.1653
 1014SOL    HW214676   2.055   0.580   7.840 -0.5825 -0.0312 -3.2723
 1015SOL     OW14677   2.042   2.465   6.239 -0.1498  0.2044 -0.0592
 1015SOL    HW114678   2.137   2.465   6.223  0.1526  1.4963  1.7674
 1015SOL    HW214679   2.048   2.478   6.333  1.5143 -2.1481  0.1568
 1016SOL     OW14680   1.005   2.395   5.336 -0.2388  0.3614  0.5611
 1016SOL    HW114681   0.966   2.412   5.421 -0.6433  0.6391  0.3210
 1016SOL    HW214682   1.033   2.303   5.336 -0.9512  0.1360  0.2720
 1017SOL     OW14683   3.335   2.524  15.096  0.1670  0.4358  0.1452
 1017SOL    HW114684   3.365   2.613  15.119  0.6056 -0.2735  2.3731
 1017SOL    HW214685   3.264   2.544  15.035  0.1767  0.0859  0.0217
 1018SOL     OW14686   1.703   4.076   9.602  0.1745 -0.0434 -0.9459
 1018SOL    HW114687   1.675   4.161   9.568  1.6443  1.4983  1.7297
 1018SOL    HW214688   1.747   4.104   9.683 -0.5883 -0.3643 -0.4173
 1019SOL     OW14689   3.874   3.786   0.819 -0.1291  0.2183  0.5931
 1019SOL    HW114690   3.931   3.712   0.798 -2.3071 -0.5237 -2.7087
 1019SOL    HW214691   3.871   3.826   0.731 -1.2230 -0.7253  0.1987
 1020SOL     OW14692   2.974   3.305   8.210 -0.1579  0.2394  0.1428
 1020SOL    HW114693   3.009   3.276   8.294  1.8554 -1.5889 -1.3335
 1020SOL    HW214694   3.051   3.303   8.154 -0.4634 -0.3941 -0.2690
 1021SOL     OW14695   3.189   2.856   1.891  0.1850  0.8475  0.1796
 1021SOL    HW114696   3.194   2.950   1.905 -0.6015  0.9550 -0.3125
 1021SOL    HW214697   3.137   2.824   1.965  0.3911  0.7575  0.2894
 1022SOL     OW14698   4.434   4.640   8.686 -0.4634 -0.6956 -0.8408
 1022SOL    HW114699   4.388   4.701   8.630 -1.9729 -0.7170  0.3770
 1022SOL    HW214700   4.503   4.690   8.730  0.0629 -0.8755 -1.4656
 1023SOL     OW14701   0.186   1.712   6.217 -0.0735 -0.7634  0.1335
 1023SOL    HW114702   0.197   1.798   6.176 -0.2851 -0.7394  0.1250
 1023SOL    HW214703   0.222   1.729   6.303  0.9957  1.3291 -0.7451
 1024SOL     OW14704   0.754   4.347   8.003  0.8194  0.0407 -0.0720
 1024SOL    HW114705   0.805   4.296   8.066  1.4868  0.8138  0.0184
 1024SOL    HW214706   0.815   4.375   7.934  0.1663 -1.7805 -1.3967
 1025SOL     OW14707   3.292   2.990   8.006 -0.1695  0.2522 -0.1266
 1025SOL    HW114708   3.381   3.023   8.011  0.3835 -1.2626 -0.0966
 1025SOL    HW214709   3.256   3.062   7.954  0.5943 -0.0839 -1.1190
 1026SOL     OW14710   4.432   0.124  11.937 -0.4117  0.1908  0.3252
 1026SOL    HW114711   4.478   0.057  11.886  0.2554 -1.1494  2.6960
 1026SOL    HW214712   4.338   0.109  11.928 -0.5808  1.6460 -0.3017
 1027SOL     OW14713   0.662   0.077   6.678  0.2344  0.1266 -0.5673
 1027SOL    HW114714   0.630   0.130   6.605 -0.0805 -0.0972 -0.5924
 1027SOL    HW214715   0.749   0.060   6.642  0.1678  1.0902 -1.1694
 1028SOL     OW14716   1.677   4.001  17.507  0.3064  0.0381  0.3460
 1028SOL    HW114717   1.655   3.909  17.517 -0.9428  0.3519  0.4907
 1028SOL    HW214718   1.691   4.010  17.413  0.6119  0.9507  0.4802
 1029SOL     OW14719   0.689   2.519   2.968 -0.3003  0.3453 -0.2163
 1029SOL    HW114720   0.722   2.475   2.889 -3.6865  0.1161 -1.5246
 1029SOL    HW214721   0.595   2.499   2.959 -0.6584  1.1088  1.9127
 1030SOL     OW14722   0.480   3.991   7.764 -0.2143  0.1295  0.6495
 1030SOL    HW114723   0.544   3.937   7.718 -1.2612 -1.4131  1.0140
 1030SOL    HW214724   0.523   4.074   7.785 -1.5093  0.5509  1.6592
 1031SOL     OW14725   2.191   2.508  11.483 -0.4644  0.7308 -0.1122
 1031SOL    HW114726   2.286   2.506  11.479 -0.4926 -0.7656  0.2617
 1031SOL    HW214727   2.160   2.541  11.398  1.7533  0.9281 -0.8442
 1032SOL     OW14728   0.119   1.870   2.498 -0.3895  1.0122 -0.0266
 1032SOL    HW114729   0.057   1.814   2.451  0.3316  1.2774 -1.2724
 1032SOL    HW214730   0.121   1.941   2.433  1.4837  1.6561  0.7446
 1033SOL     OW14731   0.457   1.766   7.716  0.3734  0.2264  0.1308
 1033SOL    HW114732   0.387   1.702   7.730  0.1850  1.1461  3.3301
 1033SOL    HW214733   0.526   1.746   7.780  2.2202  3.3115 -0.9218
 1034SOL     OW14734   2.853   1.530   7.609 -0.0049  0.1360  0.1885
 1034SOL    HW114735   2.853   1.526   7.705 -1.9527 -0.2726  0.1679
 1034SOL    HW214736   2.762   1.508   7.588 -0.8186  2.0341  1.7255
 1035SOL     OW14737   1.828   2.555   3.560 -0.1057  0.1659 -0.1755
 1035SOL    HW114738   1.914   2.527   3.589 -0.1766 -1.5823 -1.6781
 1035SOL    HW214739   1.837   2.553   3.465 -2.2552 -1.2245 -0.3555
 1036SOL     OW14740   2.247   1.228  11.676 -0.7606 -0.4111 -0.0543
 1036SOL    HW114741   2.292   1.146  11.699 -1.5430 -0.5047  1.1470
 1036SOL    HW214742   2.246   1.278  11.758  0.0086  1.5218 -1.2390
 1037SOL     OW14743   3.429   4.186  15.251 -0.0753  0.4096  0.2863
 1037SOL    HW114744   3.445   4.276  15.281  1.5526 -0.7557  2.8321
 1037SOL    HW214745   3.438   4.194  15.156 -0.8075  0.0802  0.1877
 1038SOL     OW14746   2.011   3.281   6.976  0.1985 -0.2150 -0.6459
 1038SOL    HW114747   1.989   3.294   7.068  3.4590  1.4824 -0.1032
 1038SOL    HW214748   1.985   3.367   6.942  0.7209  0.7293  1.3266
 1039SOL     OW14749   0.463   4.094   1.546 -0.3302 -0.4986  0.0724
 1039SOL    HW114750   0.380   4.058   1.515 -0.9697  0.1171  1.0966
 1039SOL    HW214751   0.469   4.165   1.481  0.7766 -0.1439  0.5633
 1040SOL     OW14752   0.756   1.957  13.069 -0.3124  0.5289 -0.5569
 1040SOL    HW114753   0.780   2.048  13.085  1.4957 -0.1747  0.7609
 1040SOL    HW214754   0.846   1.935  13.044  0.2505  1.3262  0.7722
 1041SOL     OW14755   2.467   1.070  16.227 -0.0403  0.2498  0.0817
 1041SOL    HW114756   2.490   0.990  16.275  0.8445  0.5475  0.1591
 1041SOL    HW214757   2.404   1.109  16.287  0.0014 -2.6030  1.9901
 1042SOL     OW14758   4.356   3.011   4.742 -0.1480 -0.4047 -0.0407
 1042SOL    HW114759   4.264   3.039   4.745 -0.0627 -0.1297  0.0326
 1042SOL    HW214760   4.396   3.097   4.757  1.6374 -0.8455 -2.2091
 1043SOL     OW14761   0.972   1.336  10.652 -0.1138 -0.2610 -0.2753
 1043SOL    HW114762   0.925   1.412  10.616 -0.1904  0.7572  1.9903
 1043SOL    HW214763   1.057   1.379  10.659 -1.4645  2.7841 -2.2802
 1044SOL     OW14764   3.334   0.489   8.686 -0.7193 -0.5130 -0.1989
 1044SOL    HW114765   3.288   0.466   8.767  0.1060 -1.4089  0.0219
 1044SOL    HW214766   3.403   0.424   8.692  1.1132  1.3768 -0.8639
 1045SOL     OW14767   2.321   3.711   1.399 -0.5109 -0.0156  0.1190
 1045SOL    HW114768   2.295   3.625   1.366  0.4409 -1.0015  1.9389
 1045SOL    HW214769   2.235   3.744   1.424 -0.0437  0.7019  0.7801
 1046SOL     OW14770   4.245   0.156   9.309 -0.1578 -0.7739  0.2962
 1046SOL    HW114771   4.166   0.199   9.342  0.1211 -1.6814  2.1603
 1046SOL    HW214772   4.218   0.064   9.312  0.4364 -0.9644 -0.3223
 1047SOL     OW14773   4.626   0.229   8.532  0.2361  0.1713  0.4085
 1047SOL    HW114774   4.693   0.297   8.521  0.4277 -0.1902 -0.6357
 1047SOL    HW214775   4.597   0.257   8.619  1.3219 -0.3750  0.9562
 1048SOL     OW14776   1.615   3.558   8.138 -0.2891 -0.0653  0.0143
 1048SOL    HW114777   1.702   3.594   8.121  0.0093 -0.4211  0.7761
 1048SOL    HW214778   1.573   3.564   8.052  0.3490 -0.3177 -0.3161
 1049SOL     OW14779   3.676   2.983  15.855 -0.6328  0.3363  0.1309
 1049SOL    HW114780   3.644   2.921  15.921  2.7454 -1.2915  0.2084
 1049SOL    HW214781   3.767   2.996  15.881 -0.0805  0.0858 -1.7101
 1050SOL     OW14782   0.814   1.027   6.361  0.0215  0.5973 -0.5818
 1050SOL    HW114783   0.738   1.085   6.366 -0.0578  0.5417 -1.1877
 1050SOL    HW214784   0.773   0.947   6.394 -0.4935  1.0585 -0.0969
 1051SOL     OW14785   3.112   2.944   5.576 -0.5446  0.2166 -0.5852
 1051SOL    HW114786   3.199   2.909   5.560 -0.5574 -0.3581  0.6434
 1051SOL    HW214787   3.122   3.036   5.551 -2.4870  0.2417 -1.2904
 1052SOL     OW14788   0.367   3.370   4.027  0.3465  0.3092  0.0044
 1052SOL    HW114789   0.361   3.276   4.010  0.0265  0.0685  1.4156
 1052SOL    HW214790   0.421   3.402   3.956  2.2057 -1.8542  0.4439
 1053SOL     OW14791   4.318   2.952  11.898 -0.2719 -0.1215  0.3796
 1053SOL    HW114792   4.382   2.900  11.947  0.2938 -0.8043 -1.0759
 1053SOL    HW214793   4.388   2.988  11.844 -0.6033 -0.0280  0.0129
 1054SOL     OW14794   2.092   0.186   5.773  0.2424  0.3620  0.1466
 1054SOL    HW114795   2.145   0.212   5.848 -0.5146  0.7156  0.5566
 1054SOL    HW214796   2.012   0.169   5.822 -1.9848 -0.1261 -3.6336
 1055SOL     OW14797   3.731   3.569   5.950  0.0725 -0.2627  0.4623
 1055SOL    HW114798   3.798   3.515   5.909 -0.4216 -0.3130 -0.2918
 1055SOL    HW214799   3.744   3.655   5.911  0.2247 -0.9422 -0.9830
 1056SOL     OW14800   1.800   1.270  12.200 -0.3527 -0.6949  0.3841
 1056SOL    HW114801   1.779   1.331  12.271 -1.6047 -0.0574 -0.5235
 1056SOL    HW214802   1.717   1.230  12.173 -0.0493 -1.1202  0.0927
 1057SOL     OW14803   4.216   4.417   8.742  0.5641  0.0792 -0.2710
 1057SOL    HW114804   4.237   4.461   8.825 -0.2301 -0.1036  0.0315
 1057SOL    HW214805   4.180   4.491   8.694 -3.2356 -1.3552  0.3191
 1058SOL     OW14806   1.625   1.392   5.695 -0.1476  0.0406  0.3694
 1058SOL    HW114807   1.583   1.476   5.678 -1.3296 -0.7725 -0.7175
 1058SOL    HW214808   1.631   1.394   5.791 -0.6671 -2.0951  0.4408
 1059SOL     OW14809   4.458   4.289  13.916  0.5277 -0.0147 -0.2436
 1059SOL    HW114810   4.521   4.313  13.849 -1.4729  2.2522 -1.3148
 1059SOL    HW214811   4.453   4.194  13.907  0.8736 -0.1003  0.4838
 1060SOL     OW14812   3.665   2.770  16.068  0.1843 -0.0442  0.4280
 1060SOL    HW114813   3.759   2.750  16.066  0.3681  1.2655 -3.3817
 1060SOL    HW214814   3.626   2.685  16.047 -0.1740  0.0398  0.7459
 1061SOL     OW14815   0.132   0.867   5.679  0.1312  0.2228  0.1174
 1061SOL    HW114816   0.079   0.946   5.677 -0.1689  0.1071  3.8764
 1061SOL    HW214817   0.216   0.904   5.652  0.0987  1.0040  1.1201
 1062SOL     OW14818   0.673   3.321   5.785 -0.3121  0.2569  0.2759
 1062SOL    HW114819   0.761   3.356   5.771 -1.5783  3.6453  0.7479
 1062SOL    HW214820   0.675   3.255   5.715 -2.2288  1.6115 -1.0558
 1063SOL     OW14821   3.311   1.987   3.994 -0.2285  0.4732  0.0711
 1063SOL    HW114822   3.385   1.983   3.934 -2.2578  2.7287 -2.5911
 1063SOL    HW214823   3.248   2.035   3.940  0.0047 -0.1770 -0.7711
 1064SOL     OW14824   1.606   2.994   4.828  0.4093 -0.3039 -0.4075
 1064SOL    HW114825   1.656   3.035   4.899 -0.4692 -1.2843  0.7837
 1064SOL    HW214826   1.652   3.019   4.748 -1.0862 -1.4748 -1.6324
 1065SOL     OW14827   0.996   2.207   2.033 -0.3414 -0.7712 -0.0215
 1065SOL    HW114828   0.908   2.171   2.022  0.9245 -3.3307 -2.0497
 1065SOL    HW214829   1.000   2.259   1.953 -0.7107 -4.6511 -2.5440
 1066SOL     OW14830   0.508   0.116   1.783 -0.4674  0.0406  0.2921
 1066SOL    HW114831   0.599   0.146   1.772 -0.3084 -0.4387  0.2989
 1066SOL    HW214832   0.514   0.038   1.838 -0.8950 -0.7617 -0.8154
 1067SOL     OW14833   1.742   2.430   4.484 -0.1762 -0.3012 -0.5014
 1067SOL    HW114834   1.780   2.427   4.572  0.9772  1.2754 -0.9437
 1067SOL    HW214835   1.817   2.428   4.424 -0.3411  0.6053 -0.7347
 1068SOL     OW14836   3.402   1.501   6.128 -0.6459 -0.5145  0.5712
 1068SOL    HW114837   3.417   1.595   6.131 -2.3996 -0.2665  1.5329
 1068SOL    HW214838   3.347   1.491   6.050 -1.1307 -1.4231  1.0144
 1069SOL     OW14839   1.714   4.537  10.562  0.0713  0.2492  0.0358
 1069SOL    HW114840   1.786   4.528  10.499  0.1074  0.5891  0.0291
 1069SOL    HW214841   1.743   4.610  10.617 -1.9623  1.0738 -0.0219
 1070SOL     OW14842   3.069   2.203  11.559 -0.5621 -0.0923 -0.4194
 1070SOL    HW114843   3.147   2.199  11.504  1.0154 -1.7965  1.9225
 1070SOL    HW214844   3.100   2.258  11.631  0.1612 -0.9325 -0.0925
 1071SOL     OW14845   1.153   2.120  14.980 -0.1405  0.5354  0.1964
 1071SOL    HW114846   1.097   2.134  15.056  1.3668 -0.5053  1.4785
 1071SOL    HW214847   1.162   2.028  14.957  1.1923  1.1879 -1.9290
 1072SOL     OW14848   2.308   0.078   4.697  0.6647 -0.2257  0.2150
 1072SOL    HW114849   2.383   0.116   4.742 -0.3212  1.5099  0.4164
 1072SOL    HW214850   2.294   4.728   4.728  3.3691 -0.9768 -0.7023
 1073SOL     OW14851   3.227   0.650   7.173 -0.1690  0.3771 -0.4064
 1073SOL    HW114852   3.220   0.642   7.268  0.7299  2.7261 -0.1313
 1073SOL    HW214853   3.178   0.731   7.159 -0.0644  0.5141  0.0263
 1074SOL     OW14854   4.572   2.480   3.123 -0.2320 -0.3305  0.5290
 1074SOL    HW114855   4.578   2.521   3.209 -1.6208  0.8541  0.0751
 1074SOL    HW214856   4.663   2.455   3.113 -0.2789  0.6252 -2.2124
 1075SOL     OW14857   1.623   3.463  14.614 -0.8878 -0.5093 -0.4140
 1075SOL    HW114858   1.612   3.527  14.543 -0.7073  1.2006  1.0881
 1075SOL    HW214859   1.572   3.391  14.578 -1.5404  1.8979 -4.3876
 1076SOL     OW14860   2.181   0.135   1.988 -0.1338 -0.5574 -0.8590
 1076SOL    HW114861   2.257   0.100   2.036  1.7227  1.4060 -2.3802
 1076SOL    HW214862   2.202   0.228   1.985  1.0837 -0.8335 -1.0046
 1077SOL     OW14863   0.161   0.666   9.596  0.6454 -0.3212 -0.0837
 1077SOL    HW114864   0.131   0.679   9.686  0.3300 -1.2481 -0.0529
 1077SOL    HW214865   0.083   0.693   9.548 -0.1496 -0.5155  1.0972
 1078SOL     OW14866   3.130   1.529   5.465 -0.9271 -0.0978 -0.3805
 1078SOL    HW114867   3.125   1.438   5.493  0.8120  0.5306  1.9665
 1078SOL    HW214868   3.129   1.521   5.370  1.6640  0.1267 -0.4315
 1079SOL     OW14869   1.203   2.421  15.605 -0.0800  0.1898 -0.3981
 1079SOL    HW114870   1.186   2.492  15.544  2.2072  0.7246 -0.4173
 1079SOL    HW214871   1.139   2.427  15.676 -0.3984 -0.1589 -0.6544
 1080SOL     OW14872   1.442   2.058   8.106  0.7187  0.0759 -0.1671
 1080SOL    HW114873   1.413   2.039   8.016 -0.1658 -1.7875  0.4997
 1080SOL    HW214874   1.495   2.136   8.098  3.0892 -1.4258  1.0019
 1081SOL     OW14875   3.013   3.773   9.515  0.2325 -1.0599 -0.5626
 1081SOL    HW114876   2.953   3.755   9.587 -0.6633 -0.9820 -1.2942
 1081SOL    HW214877   3.075   3.701   9.527  1.6743  0.3583  0.7226
 1082SOL     OW14878   1.077   3.741   7.124  0.0057  0.6402 -0.1928
 1082SOL    HW114879   1.151   3.791   7.158 -1.8369  1.6682  2.2899
 1082SOL    HW214880   1.006   3.788   7.167 -0.1089  0.7482 -0.5030
 1083SOL     OW14881   0.397   0.811   6.498 -0.2480  0.2261 -0.5814
 1083SOL    HW114882   0.325   0.800   6.436  0.4393 -0.2776 -1.3094
 1083SOL    HW214883   0.356   0.834   6.581  1.5215  0.9315  0.1065
 1084SOL     OW14884   0.254   1.551   6.964  0.0677 -0.3672 -0.1267
 1084SOL    HW114885   0.207   1.608   6.905 -1.2290 -0.2556  1.0223
 1084SOL    HW214886   0.283   1.613   7.031  0.9046 -1.0945  0.1884
 1085SOL     OW14887   1.556   0.571   4.692  0.3008 -0.7092  0.5264
 1085SOL    HW114888   1.592   0.533   4.773  1.5695  0.4712  0.5151
 1085SOL    HW214889   1.488   0.504   4.682 -0.1472 -0.1825  0.0513
 1086SOL     OW14890   0.839   0.773   5.043 -0.2160 -0.5991 -0.0530
 1086SOL    HW114891   0.883   0.852   5.011  0.3941 -0.8794  0.0937
 1086SOL    HW214892   0.773   0.756   4.977 -1.0584 -1.0914  0.9113
 1087SOL     OW14893   2.041   3.405   9.210  0.2861  0.8235  0.0545
 1087SOL    HW114894   1.985   3.475   9.176  2.1381  2.2383 -0.0998
 1087SOL    HW214895   1.985   3.368   9.279  0.4600 -1.9011 -1.2588
 1088SOL     OW14896   4.719   2.636   4.561 -0.2349 -0.4415  0.2335
 1088SOL    HW114897   4.654   2.649   4.491 -0.9930  2.7105  1.5477
 1088SOL    HW214898   4.683   2.682   4.637 -0.8575 -0.4438 -0.0520
 1089SOL     OW14899   0.825   1.324   0.622  0.1755  0.2993 -0.1082
 1089SOL    HW114900   0.900   1.289   0.670 -0.4726  0.4960  1.0497
 1089SOL    HW214901   0.762   1.335   0.693 -0.2562  0.7980 -0.5670
 1090SOL     OW14902   2.388   0.670  16.706  0.1624 -0.2411 -0.3907
 1090SOL    HW114903   2.343   0.737  16.757 -1.3206 -0.8283 -0.9163
 1090SOL    HW214904   2.475   0.710  16.696 -1.3538  3.0284 -0.5967
 1091SOL     OW14905   3.816   2.167   2.854 -0.3516  0.2885 -0.5393
 1091SOL    HW114906   3.900   2.197   2.818  1.4338 -2.4364  1.3280
 1091SOL    HW214907   3.769   2.116   2.788 -1.7213 -0.0522  0.6949
 1092SOL     OW14908   4.557   0.517   9.434 -0.2208 -0.0392  0.0292
 1092SOL    HW114909   4.579   0.442   9.489  3.0822  0.8342 -0.1062
 1092SOL    HW214910   4.604   0.588   9.477  0.2374 -1.2328  1.4807
 1093SOL     OW14911   3.271   1.533   3.235  0.2408 -1.3382 -0.3578
 1093SOL    HW114912   3.227   1.582   3.304 -0.9634 -0.7647 -1.5122
 1093SOL    HW214913   3.205   1.466   3.216 -0.3989  0.1212 -3.4579
 1094SOL     OW14914   1.672   1.944   5.527  0.0187 -0.1433  0.8672
 1094SOL    HW114915   1.662   1.927   5.434  3.6773 -3.3163  1.0433
 1094SOL    HW214916   1.630   2.030   5.524  1.4265  0.4563 -1.2218
 1095SOL     OW14917   3.271   4.593   6.292 -0.1739 -0.7198 -0.1931
 1095SOL    HW114918   3.364   4.575   6.304 -0.7061 -2.9858  0.6089
 1095SOL    HW214919   3.279   4.669   6.235 -0.2107 -0.6876 -0.1562
 1096SOL     OW14920   0.549   0.106   2.420 -0.0208  0.0859 -0.2963
 1096SOL    HW114921   0.519   0.196   2.429  2.0726  0.5399  2.2397
 1096SOL    HW214922   0.531   0.069   2.507  1.2527 -1.1907 -0.5623
 1097SOL     OW14923   1.074   2.109  11.681 -0.1329  0.0654  0.0117
 1097SOL    HW114924   1.138   2.119  11.752 -3.0343  0.0859  2.6114
 1097SOL    HW214925   1.129   2.072  11.612  0.0769  1.2322 -0.4458
 1098SOL     OW14926   0.988   3.931  15.511 -0.1272 -0.2156  0.0966
 1098SOL    HW114927   1.071   3.966  15.543 -1.1711  2.3217  0.0162
 1098SOL    HW214928   0.927   4.000  15.537 -1.1747 -1.5423  1.2069
 1099SOL     OW14929   0.032   0.076   4.785 -0.5124 -0.2434  0.2912
 1099SOL    HW114930   4.721   0.153   4.815  0.3413  0.3869  0.0886
 1099SOL    HW214931   0.064   0.041   4.869  1.8112 -0.5646 -0.7538
 1100SOL     OW14932   4.414   1.576   6.286  0.3210  0.5219 -0.0177
 1100SOL    HW114933   4.484   1.642   6.288 -0.7743  1.7366 -1.6974
 1100SOL    HW214934   4.344   1.642   6.282  0.3975  0.6003 -0.0855
 1101SOL     OW14935   4.406   0.721   6.362 -0.0595  0.4114 -0.2132
 1101SOL    HW114936   4.458   0.662   6.307 -0.4546 -0.1609  0.0261
 1101SOL    HW214937   4.319   0.722   6.322 -0.5557  0.0695  0.8638
 1102SOL     OW14938   3.727   4.502   3.786 -0.7861 -0.0148  0.0960
 1102SOL    HW114939   3.702   4.584   3.828 -1.4761 -0.9459  1.5183
 1102SOL    HW214940   3.695   4.522   3.698 -0.3823  2.3112  0.4995
 1103SOL     OW14941   2.453   0.936   6.524  0.6793 -0.8806 -0.1564
 1103SOL    HW114942   2.409   0.858   6.491  0.0323  0.0813 -1.5288
 1103SOL    HW214943   2.429   0.947   6.616  1.1602 -1.8713  0.0884
 1104SOL     OW14944   2.153   3.921  11.333 -0.4296 -0.4498 -0.3193
 1104SOL    HW114945   2.242   3.955  11.331 -1.1525  1.4813  0.4623
 1104SOL    HW214946   2.167   3.829  11.310 -3.0505 -1.1106  0.6738
 1105SOL     OW14947   1.907   3.361   2.607 -0.1803 -0.3719  0.4827
 1105SOL    HW114948   1.999   3.352   2.582  0.0089  0.4415  0.8998
 1105SOL    HW214949   1.924   3.395   2.695 -0.3651 -0.5256  0.5784
 1106SOL     OW14950   1.754   0.982  15.829  0.2019  0.0697 -0.3462
 1106SOL    HW114951   1.843   1.016  15.825 -0.2016  0.9598 -1.3573
 1106SOL    HW214952   1.729   1.029  15.909  1.3412 -0.7602  0.5066
 1107SOL     OW14953   4.265   0.326   7.783 -0.2371 -0.5625  0.2673
 1107SOL    HW114954   4.330   0.262   7.755  0.8245  0.6621 -0.0173
 1107SOL    HW214955   4.218   0.266   7.842  1.6390 -0.3842  1.9366
 1108SOL     OW14956   0.536   2.329  15.920  0.4198 -0.2817 -0.4660
 1108SOL    HW114957   0.444   2.314  15.944  0.2610 -1.2029 -1.6704
 1108SOL    HW214958   0.547   2.423  15.932 -0.0467 -0.6064  2.5593
 1109SOL     OW14959   3.687   1.263   6.562  0.1102  0.4356  0.2178
 1109SOL    HW114960   3.702   1.254   6.656  0.3469 -1.4197  0.0011
 1109SOL    HW214961   3.593   1.241   6.561  0.1767  0.1745 -0.1574
 1110SOL     OW14962   1.515   1.634   5.905  0.5500 -0.1086 -0.3206
 1110SOL    HW114963   1.537   1.716   5.862  1.7679 -0.8904 -1.1901
 1110SOL    HW214964   1.571   1.649   5.982 -1.9019  0.8464  1.2716
 1111SOL     OW14965   2.796   1.953   0.519 -0.4382 -0.4972 -0.0902
 1111SOL    HW114966   2.859   1.881   0.518  0.0602 -0.0371 -2.0155
 1111SOL    HW214967   2.786   1.980   0.610  2.3540 -0.1362  0.1132
 1112SOL     OW14968   1.195   4.404   8.952 -0.3413  0.1271 -0.4699
 1112SOL    HW114969   1.241   4.329   8.990 -0.3293  0.2877 -0.1679
 1112SOL    HW214970   1.265   4.421   8.889  0.3676 -0.4319  0.1755
 1113SOL     OW14971   1.394   1.704   9.840  0.6199 -0.2270  0.0095
 1113SOL    HW114972   1.387   1.646   9.915 -0.0401 -2.9161 -2.1090
 1113SOL    HW214973   1.457   1.765   9.876 -0.2977 -0.0308  1.2848
 1114SOL     OW14974   3.415   2.889   6.449  0.1504 -0.2030 -0.0032
 1114SOL    HW114975   3.432   2.975   6.410  2.0364 -0.8265 -0.5557
 1114SOL    HW214976   3.497   2.871   6.495 -1.8389 -2.3770  2.6448
 1115SOL     OW14977   3.268   2.509  17.566  0.3342 -0.5490  0.3827
 1115SOL    HW114978   3.224   2.426  17.547  0.5719 -0.7080  0.5290
 1115SOL    HW214979   3.352   2.484  17.605  1.3078  0.0709 -1.3366
 1116SOL     OW14980   1.672   2.021   8.782 -0.0925  0.2171  0.1440
 1116SOL    HW114981   1.673   2.000   8.875  1.3605  1.3746  0.3810
 1116SOL    HW214982   1.711   1.940   8.750  1.1198 -0.0270  2.2866
 1117SOL     OW14983   4.249   4.066   6.518 -0.0004  0.1106 -0.0705
 1117SOL    HW114984   4.253   4.001   6.589  1.6999 -0.5122 -0.7404
 1117SOL    HW214985   4.168   4.036   6.477 -0.4611  1.6683 -0.2677
 1118SOL     OW14986   0.043   2.418   0.433  0.1668  0.0397 -0.8794
 1118SOL    HW114987   0.086   2.359   0.494  2.3234  1.7980 -0.6829
 1118SOL    HW214988   0.040   2.360   0.357  3.8809  0.0206 -0.9847
 1119SOL     OW14989   4.687   4.633   5.944 -0.1903  0.1358  0.0779
 1119SOL    HW114990   4.626   4.603   6.012 -0.1465  0.4069  0.2376
 1119SOL    HW214991   4.639   4.711   5.916  0.8117  0.8658  0.4105
 1120SOL     OW14992   4.078   0.540   8.025 -0.0191  0.4139 -0.1239
 1120SOL    HW114993   4.137   0.477   8.068 -1.6468 -0.7176  0.4321
 1120SOL    HW214994   4.145   0.576   7.967  0.9103 -1.1939 -0.0591
 1121SOL     OW14995   1.362   3.396   3.431 -0.0136  0.1381 -0.4947
 1121SOL    HW114996   1.286   3.391   3.489  0.5364 -0.6349  0.1544
 1121SOL    HW214997   1.383   3.489   3.428 -0.3370  0.2217 -0.1046
 1122SOL     OW14998   1.237   3.814   8.256  0.4293 -0.0623  0.1542
 1122SOL    HW114999   1.193   3.778   8.179 -0.9592  2.6273 -0.3232
 1122SOL    HW215000   1.315   3.841   8.208  1.1697 -1.1792  0.7278
 1123SOL     OW15001   2.500   4.335   4.610  0.2768  0.0740  0.7847
 1123SOL    HW115002   2.526   4.259   4.557 -0.5614  0.1538  0.2524
 1123SOL    HW215003   2.474   4.393   4.539 -1.5599 -0.4725  0.9923
 1124SOL     OW15004   2.201   1.656   4.215  0.6818 -0.3123 -0.4795
 1124SOL    HW115005   2.242   1.665   4.301 -0.3224  0.1412 -0.0511
 1124SOL    HW215006   2.109   1.678   4.232  0.9480 -0.8624  1.7147
 1125SOL     OW15007   1.188   3.590  16.682  0.6828 -0.4653 -0.5222
 1125SOL    HW115008   1.101   3.618  16.709  0.9144 -1.3175  1.1650
 1125SOL    HW215009   1.222   3.529  16.748 -0.9088  1.6460  2.2560
 1126SOL     OW15010   1.900   4.029   3.074 -0.1248 -0.0508  0.4148
 1126SOL    HW115011   1.813   3.989   3.064 -1.3490  3.1082 -1.4246
 1126SOL    HW215012   1.915   4.039   3.168  0.0317 -0.4336  0.4334
 1127SOL     OW15013   3.775   0.539  13.621  0.0716  0.0403 -0.1714
 1127SOL    HW115014   3.736   0.452  13.621 -0.2368  0.1791 -1.6558
 1127SOL    HW215015   3.728   0.578  13.694  1.6860 -1.0427  1.4630
 1128SOL     OW15016   4.200   2.318  14.707 -0.3262 -0.5446 -0.1789
 1128SOL    HW115017   4.162   2.357  14.785  0.2363 -2.2166  0.9370
 1128SOL    HW215018   4.132   2.251  14.693  0.1942 -1.2156  0.4922
 1129SOL     OW15019   1.408   0.513   5.443  0.3136 -0.5521 -0.5024
 1129SOL    HW115020   1.408   0.600   5.403  0.7975  0.5547  1.9204
 1129SOL    HW215021   1.500   0.502   5.468  0.5877  1.0658 -0.7598
 1130SOL     OW15022   2.375   2.142   5.100  0.0073 -0.4121 -0.1410
 1130SOL    HW115023   2.407   2.086   5.029  1.6036  1.0121 -0.5307
 1130SOL    HW215024   2.375   2.089   5.180 -5.2727 -2.0972 -1.2921
 1131SOL     OW15025   0.328   0.084   5.874  0.1666  0.1944 -1.0005
 1131SOL    HW115026   0.241   0.051   5.894  0.9348 -1.1280  0.1261
 1131SOL    HW215027   0.305   0.143   5.802 -0.7775  0.4114 -0.5176
 1132SOL     OW15028   0.702   3.311   3.473 -0.7402  0.4899  0.1223
 1132SOL    HW115029   0.752   3.365   3.411  0.3425 -1.1385 -0.4381
 1132SOL    HW215030   0.626   3.300   3.416  0.9189  0.3176 -2.0741
 1133SOL     OW15031   2.386   3.791   7.577  0.3589  0.0665 -1.0665
 1133SOL    HW115032   2.445   3.816   7.506  1.1429 -0.7577 -0.7200
 1133SOL    HW215033   2.390   3.697   7.564  1.6938  0.2837 -2.2308
 1134SOL     OW15034   3.324   3.936   8.131  0.3736  0.1610  0.0929
 1134SOL    HW115035   3.345   3.888   8.211  1.2515  1.2813  0.5365
 1134SOL    HW215036   3.245   3.890   8.103 -2.1728  3.7719  1.2576
 1135SOL     OW15037   0.418   1.650   3.282  0.2565 -0.4808 -0.0397
 1135SOL    HW115038   0.441   1.567   3.325 -2.2386 -1.9896 -1.5657
 1135SOL    HW215039   0.323   1.654   3.274  0.4356  3.0513 -0.1303
 1136SOL     OW15040   4.499   2.933   8.255 -0.1172  0.0533 -0.3040
 1136SOL    HW115041   4.568   2.905   8.315  0.0012 -2.0314 -1.4199
 1136SOL    HW215042   4.550   2.959   8.178  3.4835 -0.5956  1.8645
 1137SOL     OW15043   0.034   1.368   1.184  0.0018 -0.7714 -0.2343
 1137SOL    HW115044   0.010   1.383   1.275  1.8214  1.6862 -0.1626
 1137SOL    HW215045   0.109   1.312   1.200  0.6553  0.0023 -0.6019
 1138SOL     OW15046   0.642   0.667  15.341  0.0757  0.2999  0.8385
 1138SOL    HW115047   0.684   0.747  15.374 -0.6522  1.0498 -0.0539
 1138SOL    HW215048   0.568   0.647  15.398 -1.7896  1.0539 -1.3215
 1139SOL     OW15049   3.106   2.590   3.061  1.0355  0.4296  0.6108
 1139SOL    HW115050   3.037   2.655   3.049 -0.2994 -1.2239 -0.6257
 1139SOL    HW215051   3.107   2.586   3.157 -0.7595  2.2416  0.6973
 1140SOL     OW15052   0.297   2.153   5.789  0.3698  0.6929  0.1170
 1140SOL    HW115053   0.228   2.134   5.726  0.8231  2.2883 -0.8448
 1140SOL    HW215054   0.254   2.234   5.818  1.0502  1.8164 -2.0062
 1141SOL     OW15055   2.629   3.987   4.408 -0.0728 -0.0699 -0.0242
 1141SOL    HW115056   2.619   4.060   4.347  2.1765 -0.6447 -1.0620
 1141SOL    HW215057   2.542   3.951   4.423  0.6484 -1.6721  0.3366
 1142SOL     OW15058   2.219   2.615  14.429  0.9353  0.2084  0.3481
 1142SOL    HW115059   2.311   2.634  14.449  1.0407  0.4678 -0.3790
 1142SOL    HW215060   2.216   2.534  14.480 -1.9095  0.4006  0.4453
 1143SOL     OW15061   2.678   1.606   9.870  0.6664  1.2008  0.0001
 1143SOL    HW115062   2.608   1.546   9.845 -0.9434  2.3685  1.7740
 1143SOL    HW215063   2.738   1.578   9.800 -2.1620 -2.0909 -1.0912
 1144SOL     OW15064   3.508   0.869   0.333  0.1517  0.1399  0.7744
 1144SOL    HW115065   3.438   0.857   0.397  0.3878 -0.0289  1.0033
 1144SOL    HW215066   3.452   0.896   0.261 -0.2402  0.1604  1.0895
 1145SOL     OW15067   2.578   3.323   2.996  0.2749  0.1842 -0.4466
 1145SOL    HW115068   2.549   3.396   2.941  0.6619 -0.4779 -1.5482
 1145SOL    HW215069   2.657   3.359   3.036 -0.2526 -1.8065  2.3563
 1146SOL     OW15070   3.560   4.139  13.950  0.2458  0.1442  0.1600
 1146SOL    HW115071   3.590   4.118  13.862 -2.3909  1.8674 -1.1658
 1146SOL    HW215072   3.601   4.225  13.953 -1.4648  0.9259  1.0611
 1147SOL     OW15073   3.839   4.072   9.626 -0.7421 -0.2443  0.1806
 1147SOL    HW115074   3.863   4.098   9.537  2.3354 -2.5810  0.3514
 1147SOL    HW215075   3.923   4.067   9.670 -0.7443  0.8601  0.3145
 1148SOL     OW15076   0.502   3.410   1.144  0.2859 -0.2261  0.2554
 1148SOL    HW115077   0.416   3.402   1.103  0.9405 -0.6272 -1.0528
 1148SOL    HW215078   0.543   3.380   1.063  1.5286 -0.2714  0.9018
 1149SOL     OW15079   0.513   0.679   0.626  0.4640 -0.3788  0.4189
 1149SOL    HW115080   0.582   0.613   0.632  1.1537  0.6496  3.4686
 1149SOL    HW215081   0.528   0.725   0.708  0.6869  0.5311 -0.1291
 1150SOL     OW15082   1.892   1.273   7.034  0.2860 -0.1803  0.0801
 1150SOL    HW115083   1.932   1.358   7.052  0.1269 -0.1937  0.4928
 1150SOL    HW215084   1.806   1.290   7.072 -0.1603  1.7797 -1.8703
 1151SOL     OW15085   2.658   4.665   0.637  0.0727  0.4887 -0.0581
 1151SOL    HW115086   2.565   4.657   0.657  0.5060 -0.0668  1.6931
 1151SOL    HW215087   2.662   4.603   0.565 -0.8768  0.3991 -0.0369
 1152SOL     OW15088   2.922   3.457   8.499  0.1320  0.0518  0.1654
 1152SOL    HW115089   2.939   3.505   8.581  1.7454  0.0523 -0.1666
 1152SOL    HW215090   2.857   3.392   8.525  1.3660 -1.3327 -0.2013
 1153SOL     OW15091   1.258   1.469   3.091 -0.7345  0.4174  0.2732
 1153SOL    HW115092   1.256   1.374   3.098 -0.6688  0.6698  3.5454
 1153SOL    HW215093   1.195   1.489   3.021  0.9164  0.7548 -1.1223
 1154SOL     OW15094   4.105   4.081   7.007  0.2251  0.1629 -0.0914
 1154SOL    HW115095   4.065   4.137   7.075  1.3056  1.6117 -0.6634
 1154SOL    HW215096   4.127   3.997   7.046  0.4285  0.8021  1.1670
 1155SOL     OW15097   3.863   3.269   6.467 -0.0779 -0.6362 -0.4537
 1155SOL    HW115098   3.863   3.324   6.388 -1.3619  2.9120  2.0157
 1155SOL    HW215099   3.769   3.281   6.480  0.4958  2.3372  0.9978
 1156SOL     OW15100   0.861   3.903   8.873  0.2310  0.0510  0.1691
 1156SOL    HW115101   0.873   3.934   8.784 -1.5401 -3.1576 -1.1844
 1156SOL    HW215102   0.765   3.908   8.877  0.2303  0.1185  0.0779
 1157SOL     OW15103   4.548   2.899  17.339  0.1564 -0.1004 -0.7447
 1157SOL    HW115104   4.563   2.986  17.304  0.5023  0.2912  0.3888
 1157SOL    HW215105   4.585   2.905  17.427 -0.5657 -1.8115 -0.3238
 1158SOL     OW15106   0.091   4.118  12.632 -0.4162  0.0229  0.7889
 1158SOL    HW115107   0.036   4.172  12.689  0.2859 -0.2718  1.7353
 1158SOL    HW215108   0.135   4.064  12.697  0.3881  1.5005  1.4646
 1159SOL     OW15109   2.030   3.545   2.006 -0.3240 -1.0613  0.0502
 1159SOL    HW115110   2.028   3.517   2.098 -3.1991  0.6860  0.5170
 1159SOL    HW215111   2.120   3.571   1.988 -0.4022 -0.9272 -0.1340
 1160SOL     OW15112   4.117   0.433   7.596  0.6311 -0.4546 -0.6916
 1160SOL    HW115113   4.169   0.423   7.676 -0.8648  0.8590  0.4430
 1160SOL    HW215114   4.103   0.340   7.576 -1.0291 -0.5204  0.7879
 1161SOL     OW15115   3.315   4.366   4.987 -0.4130 -0.2632 -0.0930
 1161SOL    HW115116   3.334   4.371   5.080 -0.7204  1.8090 -0.1427
 1161SOL    HW215117   3.239   4.308   4.988 -0.8068  0.2721  0.7712
 1162SOL     OW15118   1.346   3.507   5.941 -0.7169 -0.2210 -0.1137
 1162SOL    HW115119   1.334   3.422   5.898  1.0715  0.4295 -1.8343
 1162SOL    HW215120   1.262   3.514   5.988 -0.1567  2.6594  0.4134
 1163SOL     OW15121   2.705   2.000  12.833  0.2439 -0.4979 -0.3883
 1163SOL    HW115122   2.617   1.963  12.839  0.3675 -0.6369  0.5510
 1163SOL    HW215123   2.716   2.064  12.903  4.6910 -0.4399 -1.1279
 1164SOL     OW15124   3.661   0.507   4.105 -0.1312  0.3138 -0.2060
 1164SOL    HW115125   3.639   0.561   4.180 -1.3304 -1.3476  0.6300
 1164SOL    HW215126   3.578   0.464   4.083 -0.4340  0.3711  0.8248
 1165SOL     OW15127   4.019   2.250   2.249 -0.0212 -0.2298  0.0544
 1165SOL    HW115128   3.936   2.254   2.201  0.5034  0.8346 -0.7811
 1165SOL    HW215129   3.987   2.241   2.338 -0.3758  0.8397  0.0350
 1166SOL     OW15130   3.716   3.574  10.565  0.5641 -0.6558  0.1759
 1166SOL    HW115131   3.776   3.517  10.517 -1.4578 -2.0217 -0.6866
 1166SOL    HW215132   3.790   3.626  10.598 -0.3113  1.5504 -1.2963
 1167SOL     OW15133   3.750   2.703   1.962 -0.5949 -0.0033 -0.7097
 1167SOL    HW115134   3.664   2.670   1.937  0.0206 -1.3547 -1.0784
 1167SOL    HW215135   3.791   2.702   1.875  3.2536 -1.0639  1.0994
 1168SOL     OW15136   3.274   1.255  17.074 -0.0636  0.0896  0.3153
 1168SOL    HW115137   3.263   1.294  16.987 -2.7643  0.6237  0.9013
 1168SOL    HW215138   3.336   1.314  17.117 -0.1031  0.4026 -0.0511
 1169SOL     OW15139   0.546   2.475   9.756 -0.1840 -0.0605  0.1909
 1169SOL    HW115140   0.599   2.465   9.835 -0.0942  0.3530  0.1824
 1169SOL    HW215141   0.460   2.500   9.790 -0.8003 -1.0856 -0.6056
 1170SOL     OW15142   2.202   1.555   2.125  0.3094  0.7351 -0.0995
 1170SOL    HW115143   2.262   1.619   2.163 -0.6390  1.5083  0.0936
 1170SOL    HW215144   2.134   1.561   2.192 -0.5288 -1.3287 -0.7600
 1171SOL     OW15145   1.943   3.200   6.339 -0.0051  1.0025  0.1835
 1171SOL    HW115146   1.896   3.266   6.287  0.7220  0.4035 -1.2334
 1171SOL    HW215147   1.902   3.117   6.314  1.1464 -0.5578  3.4358
 1172SOL     OW15148   2.096   1.644   6.358  0.1472  0.4284  0.0823
 1172SOL    HW115149   2.154   1.573   6.385  1.0827  0.9580 -0.5040
 1172SOL    HW215150   2.020   1.640   6.415  0.1378 -1.6389 -0.1050
 1173SOL     OW15151   4.483   0.740   2.492  0.1553  0.4971 -0.2063
 1173SOL    HW115152   4.546   0.734   2.420  0.4703 -0.4888  0.1460
 1173SOL    HW215153   4.416   0.686   2.451 -1.1253  2.0637 -0.1655
 1174SOL     OW15154   4.613   4.292   0.730 -0.4300  0.6024 -0.0180
 1174SOL    HW115155   4.545   4.266   0.793  0.9080  0.2248  1.2707
 1174SOL    HW215156   4.688   4.299   0.789 -2.5237 -0.7983  2.8466
 1175SOL     OW15157   0.592   0.130   5.184  0.1812  0.0018  0.3131
 1175SOL    HW115158   0.636   0.076   5.119 -0.0552 -0.2454  0.3609
 1175SOL    HW215159   0.576   0.199   5.120 -0.8239  0.2494  0.8347
 1176SOL     OW15160   2.835   1.209   7.520 -0.1224  0.0937 -0.2804
 1176SOL    HW115161   2.744   1.237   7.531 -0.8293 -1.9520 -0.9397
 1176SOL    HW215162   2.871   1.234   7.605 -1.0675  0.0134  0.1432
 1177SOL     OW15163   1.573   4.601   0.567  0.7298 -0.5072  0.2267
 1177SOL    HW115164   1.503   4.558   0.615 -0.6475 -0.7118 -1.9774
 1177SOL    HW215165   1.563   4.563   0.480  0.7422 -1.8636  0.8207
 1178SOL     OW15166   1.952   0.022  10.499  0.1162 -0.2717  0.2126
 1178SOL    HW115167   2.032   0.066  10.473 -0.3108  1.5008  1.8933
 1178SOL    HW215168   1.976   4.669  10.491 -0.6726 -0.6994  2.7230
 1179SOL     OW15169   2.828   3.382   8.969  0.1684  0.0631  0.3336
 1179SOL    HW115170   2.903   3.416   9.017  0.1736  1.9835 -1.0237
 1179SOL    HW215171   2.817   3.456   8.909 -0.7622  0.6245  1.1954
 1180SOL     OW15172   2.178   4.052  17.317 -0.7068  0.1459 -0.0784
 1180SOL    HW115173   2.115   4.072  17.386  0.5921  0.1423  1.1229
 1180SOL    HW215174   2.152   3.964  17.289  0.6753 -0.8041  1.5944
 1181SOL     OW15175   3.655   2.795   4.849 -0.2531  0.2082  0.2766
 1181SOL    HW115176   3.650   2.890   4.859  2.0563  0.3334  0.4450
 1181SOL    HW215177   3.701   2.777   4.931 -1.9663 -0.3455  1.0931
 1182SOL     OW15178   4.235   2.481   6.957 -0.2900 -0.0175 -0.4119
 1182SOL    HW115179   4.268   2.511   6.873  0.8713 -1.1966 -0.3885
 1182SOL    HW215180   4.314   2.438   6.990 -1.7704 -2.1811  0.3759
 1183SOL     OW15181   2.812   2.540   6.350 -0.0643  0.1064 -0.0792
 1183SOL    HW115182   2.803   2.535   6.445  1.6608  1.6539  0.1635
 1183SOL    HW215183   2.906   2.536   6.332 -0.2223 -1.3694 -0.5723
 1184SOL     OW15184   0.039   3.859   6.460 -0.4639  0.2908  0.3741
 1184SOL    HW115185   4.709   3.836   6.522 -2.0653 -1.2303 -1.9337
 1184SOL    HW215186   4.724   3.899   6.392  1.5838  2.3293 -0.0594
 1185SOL     OW15187   3.791   4.275   0.710 -0.1503 -0.5568  0.1261
 1185SOL    HW115188   3.882   4.248   0.694  0.3705  0.3880  1.4307
 1185SOL    HW215189   3.761   4.309   0.626 -0.1701 -1.2520 -0.1437
 1186SOL     OW15190   1.499   1.940   1.370  0.3158  0.3036  0.1845
 1186SOL    HW115191   1.492   2.035   1.368 -0.7841  0.1760 -1.4654
 1186SOL    HW215192   1.584   1.933   1.414  1.2389 -0.4015 -1.7255
 1187SOL     OW15193   3.000   2.475  12.360 -0.3567  0.6517  0.1859
 1187SOL    HW115194   2.958   2.476  12.274  1.2118 -1.1496 -0.6049
 1187SOL    HW215195   2.984   2.384  12.387  0.0081  0.9476  1.4322
 1188SOL     OW15196   3.690   2.732   8.863  0.5092  0.1676 -0.0775
 1188SOL    HW115197   3.710   2.668   8.794 -2.4611 -1.4700  0.5618
 1188SOL    HW215198   3.677   2.807   8.804 -0.1629 -2.0632 -2.8039
 1189SOL     OW15199   0.231   2.420   5.466  0.1569  0.1612  0.3544
 1189SOL    HW115200   0.272   2.333   5.454  0.9538  0.2843  2.2375
 1189SOL    HW215201   0.300   2.476   5.431  0.8013 -0.5099  0.5323
 1190SOL     OW15202   1.532   0.360  16.926  0.5149  0.2231 -0.0036
 1190SOL    HW115203   1.457   0.401  16.884 -1.5365 -0.9629  2.5067
 1190SOL    HW215204   1.576   0.327  16.848  0.1251  1.2632 -0.6614
 1191SOL     OW15205   0.328   0.843   7.858 -0.0491 -0.2993  0.4650
 1191SOL    HW115206   0.386   0.895   7.802  0.5711  0.3963  1.7486
 1191SOL    HW215207   0.245   0.891   7.856 -0.2898 -0.7939 -1.6241
 1192SOL     OW15208   1.852   0.615  17.264 -0.2108  0.1470 -0.2385
 1192SOL    HW115209   1.827   0.577  17.179 -1.4933  0.2810  0.0761
 1192SOL    HW215210   1.766   0.648  17.290 -0.1767 -0.2255  0.3424
 1193SOL     OW15211   1.441   2.475   4.730  0.2664 -0.3148  0.3256
 1193SOL    HW115212   1.492   2.425   4.794  2.1149  0.2792 -0.6973
 1193SOL    HW215213   1.377   2.410   4.699  1.2782 -0.9581 -0.4062
 1194SOL     OW15214   1.316   0.330   4.793  0.2215 -0.1715 -0.4496
 1194SOL    HW115215   1.250   0.296   4.733  0.9719 -1.6470 -0.4497
 1194SOL    HW215216   1.262   0.356   4.868 -0.6874 -3.6569  0.0776
 1195SOL     OW15217   3.396   1.034  17.144 -0.1319  0.0415  0.4632
 1195SOL    HW115218   3.370   1.100  17.208 -0.1554  0.3604  0.1233
 1195SOL    HW215219   3.378   1.084  17.065 -0.5066  0.7234  0.9696
 1196SOL     OW15220   0.167   2.411   5.889 -0.0927  0.1073 -0.5289
 1196SOL    HW115221   0.205   2.481   5.941 -1.0103 -0.1296  0.4497
 1196SOL    HW215222   0.150   2.462   5.810 -1.5279 -1.4590 -1.2326
 1197SOL     OW15223   0.793   3.393  11.558 -0.8197 -0.0445 -0.2129
 1197SOL    HW115224   0.784   3.298  11.556 -0.4783 -0.1301  2.0275
 1197SOL    HW215225   0.702   3.420  11.548 -1.3697 -1.2137  1.5692
 1198SOL     OW15226   0.445   1.130   1.232  0.2136 -0.0127  0.7570
 1198SOL    HW115227   0.434   1.068   1.160 -0.0175  1.2254 -0.2657
 1198SOL    HW215228   0.517   1.099   1.286  0.3016 -0.9552  0.0986
 1199SOL     OW15229   3.289   2.316   2.042 -0.2558 -0.0978  0.1238
 1199SOL    HW115230   3.333   2.285   1.964  2.6982 -0.8128  2.0918
 1199SOL    HW215231   3.215   2.255   2.049 -1.1450  0.8507 -0.9142
 1200SOL     OW15232   3.638   0.920   2.196 -0.4435  0.1252 -0.3418
 1200SOL    HW115233   3.559   0.971   2.179 -0.2674  0.1746 -1.0232
 1200SOL    HW215234   3.684   0.932   2.113  2.6582 -1.1039  1.1897
 1201SOL     OW15235   1.844   1.632   7.106 -0.0984  0.1417  0.0107
 1201SOL    HW115236   1.809   1.656   7.192  0.1836  1.9012 -0.3585
 1201SOL    HW215237   1.935   1.656   7.121 -0.4933  3.0384 -2.0377
 1202SOL     OW15238   2.242   3.070   4.216 -0.2188  0.6423 -0.3958
 1202SOL    HW115239   2.301   3.121   4.271  0.9121  0.1536 -1.1735
 1202SOL    HW215240   2.219   3.142   4.156  2.5811  0.5897 -1.5264
 1203SOL     OW15241   0.968   4.533   7.536 -0.3353  0.6007  0.4325
 1203SOL    HW115242   0.894   4.497   7.487  0.8596 -0.2461 -0.7612
 1203SOL    HW215243   0.949   4.627   7.544  3.7605  1.3384  1.2614
 1204SOL     OW15244   3.477   3.614   1.342 -0.5913  0.6166 -0.3658
 1204SOL    HW115245   3.394   3.588   1.302 -0.6796  1.8147 -0.9511
 1204SOL    HW215246   3.455   3.677   1.411  2.4660  0.1690  1.0300
 1205SOL     OW15247   0.885   1.295   4.041 -0.3839  0.0071  0.0344
 1205SOL    HW115248   0.938   1.256   4.110  0.7355  0.8369 -0.3527
 1205SOL    HW215249   0.828   1.357   4.088  1.0012 -0.7576  2.7361
 1206SOL     OW15250   1.837   4.468  10.946  0.0649 -0.0539  0.3453
 1206SOL    HW115251   1.917   4.458  10.894 -0.1200  0.4235 -0.0297
 1206SOL    HW215252   1.826   4.380  10.981 -0.8970  0.0972  0.4336
 1207SOL     OW15253   2.953   2.495   3.754  0.6721  0.2039  0.0379
 1207SOL    HW115254   3.042   2.491   3.718  0.2635 -1.0021 -0.8330
 1207SOL    HW215255   2.945   2.425   3.817  1.0281  0.2329  0.1157
 1208SOL     OW15256   2.655   2.879   0.590 -0.3886  0.0811 -0.2635
 1208SOL    HW115257   2.682   2.950   0.532  0.5056  0.2082  0.3025
 1208SOL    HW215258   2.562   2.904   0.595  0.0610  1.5558  1.0516
 1209SOL     OW15259   0.970   3.661   2.672 -0.0193  0.1479 -0.1289
 1209SOL    HW115260   0.923   3.724   2.726 -1.7775 -0.0049 -1.4961
 1209SOL    HW215261   0.900   3.600   2.650 -0.5183  1.4123 -1.9909
 1210SOL     OW15262   2.466   2.675   3.443  0.3808 -0.4320  0.4871
 1210SOL    HW115263   2.503   2.723   3.517  0.5977  2.1062 -1.3107
 1210SOL    HW215264   2.536   2.692   3.380 -2.7352  0.1098 -2.8320
 1211SOL     OW15265   4.607   3.117   3.032 -0.0479 -0.2024  0.5624
 1211SOL    HW115266   4.659   3.194   3.054 -0.3300  0.4858 -1.1292
 1211SOL    HW215267   4.593   3.132   2.938 -0.7408 -2.1742  0.3351
 1212SOL     OW15268   3.610   4.335  11.032 -0.3908  0.0930  0.2007
 1212SOL    HW115269   3.690   4.319  10.982  0.7487 -1.0205  2.3840
 1212SOL    HW215270   3.609   4.259  11.090  3.1518 -0.3630 -0.3329
 1213SOL     OW15271   3.359   0.662   1.795 -0.1119  0.2841  0.5472
 1213SOL    HW115272   3.414   0.682   1.871  0.0538 -0.8987  0.7404
 1213SOL    HW215273   3.411   0.662   1.715 -0.8568 -0.7320  0.0706
 1214SOL     OW15274   4.282   3.211   2.519 -0.0698 -0.1567 -0.0776
 1214SOL    HW115275   4.377   3.199   2.521  0.1975  2.1402  0.7486
 1214SOL    HW215276   4.268   3.192   2.426  1.4010  0.2575 -0.3863
 1215SOL     OW15277   1.002   2.298   1.782 -0.4577 -0.0034  0.0344
 1215SOL    HW115278   1.038   2.223   1.735 -0.5643 -0.8697  1.3449
 1215SOL    HW215279   1.051   2.374   1.749  0.1387  0.0700  1.0858
 1216SOL     OW15280   0.432   2.364  13.398  0.7044 -0.3346 -0.0731
 1216SOL    HW115281   0.393   2.450  13.408 -2.5787 -1.6978 -1.1471
 1216SOL    HW215282   0.477   2.353  13.482 -0.4233 -1.0618  0.4333
 1217SOL     OW15283   0.476   3.573   4.433 -0.3698 -0.3672 -0.3717
 1217SOL    HW115284   0.549   3.572   4.371 -1.3227  0.9720 -1.5326
 1217SOL    HW215285   0.508   3.505   4.492  1.7320  1.5307  0.6574
 1218SOL     OW15286   3.111   4.405   4.618 -0.1075 -0.2523  0.1180
 1218SOL    HW115287   3.083   4.317   4.593 -1.5492  0.4299 -0.6843
 1218SOL    HW215288   3.207   4.409   4.624 -0.3067  1.2200  2.1989
 1219SOL     OW15289   2.374   0.557   1.546  0.1806 -0.4151 -0.1244
 1219SOL    HW115290   2.395   0.542   1.638 -1.0169 -1.0707  0.0445
 1219SOL    HW215291   2.387   0.470   1.509 -0.2254 -0.5494  0.0550
 1220SOL     OW15292   0.324   2.115   3.623 -0.0266  0.6297  0.0166
 1220SOL    HW115293   0.229   2.125   3.633  0.0358 -1.3461  2.4322
 1220SOL    HW215294   0.341   2.188   3.563  1.2316  1.0348  0.8708
 1221SOL     OW15295   1.822   0.535  10.446  0.2165  0.1602  0.3193
 1221SOL    HW115296   1.732   0.562  10.428  0.5414  2.4095  2.1626
 1221SOL    HW215297   1.817   0.440  10.455 -1.1859  0.6136  4.6426
 1222SOL     OW15298   4.121   1.459   8.160 -0.7343  0.3124 -0.8164
 1222SOL    HW115299   4.036   1.476   8.120 -1.7079  0.6785  1.4067
 1222SOL    HW215300   4.162   1.545   8.150  0.6803 -0.3223 -0.5399
 1223SOL     OW15301   1.658   0.346   3.209  1.1394  0.5181 -0.3361
 1223SOL    HW115302   1.624   0.427   3.171 -1.4160 -0.6671 -0.5787
 1223SOL    HW215303   1.738   0.377   3.253  1.8699 -1.1398 -0.5035
 1224SOL     OW15304   3.339   1.085   3.194 -0.3376 -0.2573  0.0423
 1224SOL    HW115305   3.275   1.121   3.132 -1.1468 -0.5147  0.7261
 1224SOL    HW215306   3.415   1.104   3.140  1.6460 -1.3297  2.4961
 1225SOL     OW15307   4.528   1.218   1.435 -0.0572  0.1831  0.1143
 1225SOL    HW115308   4.589   1.287   1.463  0.2765 -0.2968  0.5566
 1225SOL    HW215309   4.546   1.155   1.504  2.1162 -1.0551 -1.5831
 1226SOL     OW15310   2.156   3.909   7.612 -0.4356 -0.5939 -0.3151
 1226SOL    HW115311   2.117   3.868   7.534  0.5231 -0.5534 -0.8092
 1226SOL    HW215312   2.240   3.865   7.599  1.2090  2.2556  0.7133
 1227SOL     OW15313   1.845   0.452   6.878 -0.3687 -0.2530  0.2096
 1227SOL    HW115314   1.802   0.525   6.834 -0.5628 -0.9817 -0.8079
 1227SOL    HW215315   1.925   0.501   6.898 -0.5109  1.0549 -2.4785
 1228SOL     OW15316   1.603   0.962   6.229  0.1959 -0.4340  0.3265
 1228SOL    HW115317   1.552   0.988   6.153 -0.3576  0.0620  0.8678
 1228SOL    HW215318   1.666   0.905   6.184 -0.0483 -1.2875  1.0528
 1229SOL     OW15319   0.198   0.289  10.743 -0.4387 -0.1740  0.2628
 1229SOL    HW115320   0.218   0.368  10.793 -0.4363  1.8230 -2.9020
 1229SOL    HW215321   0.265   0.236  10.785 -1.0674 -1.1985 -0.0360
 1230SOL     OW15322   0.689   1.993  16.189 -0.2210  0.4954  0.5047
 1230SOL    HW115323   0.609   1.947  16.215 -0.3011  0.8129  0.8151
 1230SOL    HW215324   0.708   1.946  16.107  2.6302 -0.2234  1.5938
 1231SOL     OW15325   2.650   1.659  14.074 -0.1900  0.0146  0.3981
 1231SOL    HW115326   2.618   1.723  14.137 -1.3586 -0.1176 -0.0601
 1231SOL    HW215327   2.570   1.607  14.073  1.1592 -2.0329 -2.4876
 1232SOL     OW15328   2.285   3.507   4.432  0.3384 -0.0481  0.2060
 1232SOL    HW115329   2.192   3.531   4.425  0.2785 -0.4616 -0.4962
 1232SOL    HW215330   2.296   3.496   4.526 -0.0054 -2.1432 -0.0101
 1233SOL     OW15331   2.357   0.527  10.575  0.1871  0.3885 -0.7166
 1233SOL    HW115332   2.411   0.540  10.497  0.3789 -0.2202 -0.6813
 1233SOL    HW215333   2.281   0.578  10.548  0.0131  0.9586  0.8506
 1234SOL     OW15334   0.839   1.747   4.022  0.2618  0.0627 -0.0547
 1234SOL    HW115335   0.831   1.688   3.946 -2.6011 -0.0062  0.3087
 1234SOL    HW215336   0.745   1.749   4.038  0.6852  1.1256  2.1639
 1235SOL     OW15337   1.535   3.386   8.379  0.2249  0.2748 -0.0583
 1235SOL    HW115338   1.556   3.435   8.300 -0.1891  0.5715  0.0140
 1235SOL    HW215339   1.444   3.371   8.352  0.3550 -0.3632 -0.1279
 1236SOL     OW15340   1.215   2.762  13.232 -0.0511 -0.0564 -0.5131
 1236SOL    HW115341   1.292   2.814  13.251  0.4688 -0.6893 -0.8928
 1236SOL    HW215342   1.200   2.716  13.315  1.1559  1.8657  0.7525
 1237SOL     OW15343   2.443   0.291  10.668  0.2276  0.1369 -0.1069
 1237SOL    HW115344   2.399   0.368  10.633 -0.5864 -0.2482  0.0897
 1237SOL    HW215345   2.491   0.332  10.740  1.2906  0.0445 -0.7563
 1238SOL     OW15346   4.619   0.516   2.645  0.1369 -0.2503 -0.4003
 1238SOL    HW115347   4.701   0.555   2.615  0.9224 -0.1385  1.8858
 1238SOL    HW215348   4.559   0.590   2.636 -1.1452 -1.0472  1.5816
 1239SOL     OW15349   2.278   3.921   1.008 -0.3803 -0.2357  0.2009
 1239SOL    HW115350   2.229   3.910   1.089 -0.1048 -1.4025  0.2093
 1239SOL    HW215351   2.351   3.861   1.024 -1.1076 -1.8181 -2.3499
 1240SOL     OW15352   1.800   3.023   4.179  0.0482 -0.4311  0.6321
 1240SOL    HW115353   1.718   3.041   4.224  0.2507 -1.2094  1.3091
 1240SOL    HW215354   1.805   3.097   4.118  0.7378 -0.5862  0.5040
 1241SOL     OW15355   3.935   4.443   4.695  0.0937  0.4233 -0.1811
 1241SOL    HW115356   3.874   4.411   4.761  0.2883  1.0881  0.3253
 1241SOL    HW215357   3.957   4.374   4.633 -1.4941 -0.0544 -0.2105
 1242SOL     OW15358   0.687   0.879   3.611  0.4233  0.1255 -0.1047
 1242SOL    HW115359   0.601   0.874   3.571  0.1424 -0.8627  0.6010
 1242SOL    HW215360   0.747   0.902   3.541 -0.3657  3.5176  0.3609
 1243SOL     OW15361   3.727   4.088   6.269  0.3688  0.2314 -0.2181
 1243SOL    HW115362   3.662   4.129   6.326  0.0794  0.5585 -0.7960
 1243SOL    HW215363   3.689   4.099   6.182 -0.4695 -0.9483 -0.0069
 1244SOL     OW15364   2.947   4.020  17.451 -0.1416 -0.0630  0.1747
 1244SOL    HW115365   2.965   3.983  17.537  1.3838  2.9128  1.1667
 1244SOL    HW215366   2.902   3.944  17.415 -0.2967  0.1358 -0.0557
 1245SOL     OW15367   3.534   0.268   5.852  0.1869 -0.2145 -0.1749
 1245SOL    HW115368   3.545   0.353   5.810 -1.2424  0.1002  0.0829
 1245SOL    HW215369   3.445   0.235   5.836  0.5198 -1.5569  0.7345
 1246SOL     OW15370   3.462   2.832   9.039  0.2275 -0.2516  0.1653
 1246SOL    HW115371   3.505   2.885   8.971 -1.0556  1.4502  0.6722
 1246SOL    HW215372   3.420   2.906   9.083 -0.8946 -1.4965  1.1722
 1247SOL     OW15373   3.696   3.878   8.566  0.0027  0.0405  0.4472
 1247SOL    HW115374   3.757   3.851   8.498 -1.1724  0.8023 -0.9313
 1247SOL    HW215375   3.758   3.871   8.638 -0.0883 -1.4877  0.3710
 1248SOL     OW15376   1.560   3.197   5.723  0.1613 -0.1947  0.4978
 1248SOL    HW115377   1.542   3.139   5.797 -0.0506  1.4426  1.7256
 1248SOL    HW215378   1.511   3.278   5.715  2.0595  0.8795 -0.1811
 1249SOL     OW15379   0.974   3.703  16.803 -0.3481 -0.2529 -0.2809
 1249SOL    HW115380   1.007   3.679  16.890 -1.1010 -1.3370 -0.2891
 1249SOL    HW215381   0.992   3.797  16.805  0.1825 -0.3501 -0.6456
 1250SOL     OW15382   4.198   2.194   7.528  0.3968  0.2372 -0.0225
 1250SOL    HW115383   4.184   2.178   7.622  0.0509 -0.4183 -0.1866
 1250SOL    HW215384   4.161   2.283   7.522 -0.8960 -0.2494  0.5519
 1251SOL     OW15385   0.106   2.800  11.628 -0.3221  0.5595 -0.1525
 1251SOL    HW115386   0.052   2.863  11.675  0.4372 -0.9897  2.8139
 1251SOL    HW215387   0.160   2.852  11.568 -1.0077  1.2952 -0.1210
 1252SOL     OW15388   0.426   4.335   4.234 -0.4606  0.6990  0.5425
 1252SOL    HW115389   0.465   4.290   4.308 -0.1816  1.3719  0.8019
 1252SOL    HW215390   0.396   4.421   4.264  0.7864  0.3067  2.9416
 1253SOL     OW15391   0.378   0.033  13.845 -0.2963  0.3302 -0.2100
 1253SOL    HW115392   0.459   0.026  13.894 -1.0028 -0.1303  0.8865
 1253SOL    HW215393   0.404   0.102  13.784 -0.3658 -0.2008 -0.8528
 1254SOL     OW15394   1.411   0.229   6.024  0.3430  0.4324 -0.1412
 1254SOL    HW115395   1.476   0.235   6.093 -0.7355 -0.7682  0.9845
 1254SOL    HW215396   1.350   0.293   6.059  0.0461 -0.5846  1.1848
 1255SOL     OW15397   1.002   4.570  10.961  0.4337  0.8113  0.2117
 1255SOL    HW115398   0.947   4.639  10.923  1.4347  0.0269 -2.7069
 1255SOL    HW215399   1.062   4.564  10.886 -0.0489  0.4496 -0.1437
 1256SOL     OW15400   2.717   1.303   3.677 -0.5641 -0.0560 -0.0100
 1256SOL    HW115401   2.801   1.339   3.649 -0.3397  0.6704  1.6252
 1256SOL    HW215402   2.659   1.368   3.637  1.0878  1.6773  0.4641
 1257SOL     OW15403   2.035   0.105   7.985  0.2518 -0.5615 -0.6532
 1257SOL    HW115404   2.041   0.132   8.077  0.0072  0.1837 -0.8547
 1257SOL    HW215405   1.946   0.133   7.961  0.0988 -1.2999 -0.9724
 1258SOL     OW15406   0.944   3.838   2.166 -0.0620 -0.1847 -0.0894
 1258SOL    HW115407   0.852   3.828   2.138  0.1523  1.5684 -1.5058
 1258SOL    HW215408   0.939   3.786   2.246 -2.0431 -0.8220 -0.6201
 1259SOL     OW15409   3.645   0.856  12.801  0.1029  1.1644 -0.1143
 1259SOL    HW115410   3.632   0.786  12.864 -0.5262  1.2439 -0.1543
 1259SOL    HW215411   3.573   0.912  12.830 -0.5961 -0.0450  0.4661
 1260SOL     OW15412   2.802   1.162  16.515 -0.2379 -0.0814  0.2866
 1260SOL    HW115413   2.838   1.208  16.591 -1.6869 -1.6270  1.8838
 1260SOL    HW215414   2.807   1.067  16.525 -1.1791 -0.2568 -0.9233
 1261SOL     OW15415   3.259   2.996  11.319 -0.0313  0.1384  0.3618
 1261SOL    HW115416   3.325   3.058  11.350 -2.2852  1.5110  2.4252
 1261SOL    HW215417   3.304   2.912  11.329 -0.5647  0.0747  2.2832
 1262SOL     OW15418   2.420   3.232  15.797  0.0439 -0.1510  0.0001
 1262SOL    HW115419   2.339   3.197  15.760 -0.4096  1.3466 -0.4414
 1262SOL    HW215420   2.482   3.175  15.752 -1.1187 -1.0509 -0.4533
 1263SOL     OW15421   1.968   2.363  15.271  0.4493 -0.4243  0.0764
 1263SOL    HW115422   2.008   2.426  15.332 -0.6971 -0.5062  0.9339
 1263SOL    HW215423   1.892   2.346  15.327  1.2505 -0.7041  1.0931
 1264SOL     OW15424   2.896   2.487  14.879 -0.2674 -0.2849 -0.0066
 1264SOL    HW115425   2.907   2.572  14.922 -2.1247  1.5624 -3.1276
 1264SOL    HW215426   2.983   2.454  14.856  0.0377 -0.0116  0.7683
 1265SOL     OW15427   4.271   4.580  11.842  0.3204 -0.4821  0.3536
 1265SOL    HW115428   4.361   4.605  11.821 -0.3215  0.2900 -1.4707
 1265SOL    HW215429   4.227   4.665  11.848  1.9839  0.3285  1.2372
 1266SOL     OW15430   1.148   0.847   9.035  0.1324 -0.3524  0.0326
 1266SOL    HW115431   1.063   0.843   9.079  0.4192  0.2401  0.6266
 1266SOL    HW215432   1.141   0.926   8.982 -0.3724  0.1204  0.8058
 1267SOL     OW15433   4.560   3.891   6.256  0.3049  0.1401 -0.1302
 1267SOL    HW115434   4.554   3.801   6.288  0.2037  0.1742 -0.0537
 1267SOL    HW215435   4.637   3.881   6.199  0.3803  0.8362 -0.1463
 1268SOL     OW15436   2.205   0.783  11.338  0.0292 -0.1520 -0.0800
 1268SOL    HW115437   2.132   0.725  11.359 -0.2142  0.8302  1.7983
 1268SOL    HW215438   2.274   0.729  11.375  0.3563 -0.5753 -1.2839
 1269SOL     OW15439   2.164   0.430  11.231  0.1538 -0.2490 -0.5147
 1269SOL    HW115440   2.085   0.380  11.253  0.0243  0.3095  0.3010
 1269SOL    HW215441   2.212   0.432  11.314  1.5417 -2.5406 -1.2541
 1270SOL     OW15442   0.944   3.713   3.976 -0.1822  0.1818  0.1197
 1270SOL    HW115443   0.900   3.790   3.938 -0.2019  0.1204  0.0171
 1270SOL    HW215444   1.032   3.732   3.942  0.0148  0.1860  0.6342
 1271SOL     OW15445   0.450   2.076   4.156  0.2318 -0.3709 -0.3989
 1271SOL    HW115446   0.385   2.099   4.089  1.0824  0.2563 -1.0213
 1271SOL    HW215447   0.443   1.981   4.158 -1.7825 -0.2144  0.2861
 1272SOL     OW15448   0.849   0.333   3.890  0.4125 -0.0983 -0.3283
 1272SOL    HW115449   0.940   0.355   3.911  0.2139  1.7023 -1.4258
 1272SOL    HW215450   0.809   0.418   3.874 -0.1831  0.3056  3.1419
 1273SOL     OW15451   3.000   4.554  17.446 -0.3067 -0.8440  0.3015
 1273SOL    HW115452   2.980   4.461  17.456 -0.6856 -0.8610 -0.5688
 1273SOL    HW215453   3.040   4.569  17.532 -0.0381  0.5235 -0.0640
 1274SOL     OW15454   3.626   3.292   2.752  0.0677 -0.1537  0.3286
 1274SOL    HW115455   3.611   3.385   2.766 -0.4373 -0.2585  0.4753
 1274SOL    HW215456   3.714   3.296   2.715 -0.0675  0.0519  0.0294
 1275SOL     OW15457   4.256   2.972   3.858 -0.4637  0.2763 -0.2405
 1275SOL    HW115458   4.260   2.885   3.818  2.8302  0.4086 -0.1519
 1275SOL    HW215459   4.178   2.967   3.913 -1.7714 -1.3665 -2.2385
 1276SOL     OW15460   4.457   0.612   9.856 -0.0427 -0.3808 -0.6028
 1276SOL    HW115461   4.443   0.690   9.909  0.4748  1.3353 -2.9684
 1276SOL    HW215462   4.400   0.624   9.780  0.8119 -0.2417 -1.2276
 1277SOL     OW15463   4.161   0.383   8.966  0.1102  0.2533  0.2784
 1277SOL    HW115464   4.197   0.466   8.934 -2.0050  1.0989  0.0707
 1277SOL    HW215465   4.220   0.318   8.928  1.6180  2.1273 -0.5757
 1278SOL     OW15466   0.465   3.286   4.274 -0.2403 -0.2025 -0.3098
 1278SOL    HW115467   0.424   3.337   4.204  2.0632 -0.9068 -2.1907
 1278SOL    HW215468   0.390   3.252   4.323  0.7899 -0.5386  1.0417
 1279SOL     OW15469   1.822   3.817   4.433  0.1201 -0.3783 -0.2220
 1279SOL    HW115470   1.800   3.818   4.526  2.4352  3.3346  0.2985
 1279SOL    HW215471   1.876   3.896   4.425  1.2784 -1.2122 -0.5570
 1280SOL     OW15472   1.010   3.189   7.696  0.2203  0.3329  0.0909
 1280SOL    HW115473   1.047   3.109   7.658 -1.0427 -0.7648  1.1174
 1280SOL    HW215474   0.993   3.243   7.620  1.6099  0.5187 -0.0891
 1281SOL     OW15475   0.226   4.268   2.241  0.3425 -0.4666 -0.1828
 1281SOL    HW115476   0.204   4.339   2.302  0.5314  0.3016 -1.0068
 1281SOL    HW215477   0.244   4.200   2.305  1.6857 -0.5433 -0.6532
 1282SOL     OW15478   2.280   4.108   3.061  0.1505 -0.4679  0.0906
 1282SOL    HW115479   2.282   4.052   3.138 -1.2916 -1.6851 -0.7498
 1282SOL    HW215480   2.369   4.096   3.028 -0.5256  1.0548 -2.2607
 1283SOL     OW15481   3.435   1.642   3.673  0.2893 -0.5207 -0.2659
 1283SOL    HW115482   3.416   1.575   3.606 -1.9731  0.7022 -0.8418
 1283SOL    HW215483   3.466   1.596   3.751 -0.4079  1.0940  0.9516
 1284SOL     OW15484   3.940   3.047   5.008 -0.5928  0.0417  0.5700
 1284SOL    HW115485   3.878   3.117   5.030 -0.8791  0.0980 -0.3990
 1284SOL    HW215486   3.894   2.973   5.046  1.2885 -1.6904 -0.5109
 1285SOL     OW15487   4.060   4.094   9.929  0.5010 -0.3402 -0.1421
 1285SOL    HW115488   4.016   4.010   9.946 -0.1712  0.4109  1.7963
 1285SOL    HW215489   4.154   4.078   9.934  0.6115  0.9704  1.6067
 1286SOL     OW15490   4.098   1.972   7.378  0.4812 -0.3223 -0.1744
 1286SOL    HW115491   4.084   2.040   7.444 -4.8137 -0.6888 -0.9426
 1286SOL    HW215492   4.172   2.008   7.329 -0.1105  0.2318 -0.6668
 1287SOL     OW15493   4.102   1.994  10.854  0.2350  0.0963  0.7182
 1287SOL    HW115494   4.178   1.974  10.909  1.4392 -0.3458 -1.0854
 1287SOL    HW215495   4.078   1.907  10.821 -0.3091  1.0557 -1.4100
 1288SOL     OW15496   0.461   0.642   9.049  0.2430 -0.0366  0.0884
 1288SOL    HW115497   0.547   0.612   9.081 -0.7231 -1.3025  1.5218
 1288SOL    HW215498   0.399   0.605   9.111 -0.8393  2.1151  0.2988
 1289SOL     OW15499   2.175   4.577   0.132  0.2341  0.3519 -0.2576
 1289SOL    HW115500   2.261   4.605   0.100  0.3423  0.8686  0.4724
 1289SOL    HW215501   2.129   4.559   0.050  0.6433 -0.2686 -0.3548
 1290SOL     OW15502   2.520   1.861  13.652  0.0832 -0.5316  0.0896
 1290SOL    HW115503   2.594   1.846  13.711 -0.2204  0.6126  0.7796
 1290SOL    HW215504   2.468   1.921  13.706  0.3033 -1.7067  1.6260
 1291SOL     OW15505   4.128   1.285   9.748  0.0107  0.4719  0.7426
 1291SOL    HW115506   4.219   1.292   9.777  0.5955 -2.0101 -0.4196
 1291SOL    HW215507   4.089   1.369   9.770  0.6795  0.2941  2.5790
 1292SOL     OW15508   0.405   0.632  10.681  0.0673 -0.0797  0.6155
 1292SOL    HW115509   0.376   0.597  10.765 -2.0573 -0.2903 -0.1837
 1292SOL    HW215510   0.499   0.631  10.697  0.6208 -0.3785 -2.6868
 1293SOL     OW15511   1.276   4.060   4.227 -0.5744  0.1991 -0.3525
 1293SOL    HW115512   1.190   4.019   4.212 -0.1501 -0.4765 -0.9522
 1293SOL    HW215513   1.310   4.012   4.302 -1.1450  0.2166 -0.0784
 1294SOL     OW15514   0.783   2.143   6.167 -0.5824  0.3831  0.5689
 1294SOL    HW115515   0.716   2.075   6.157 -0.9630  0.5127  2.2188
 1294SOL    HW215516   0.776   2.161   6.261  0.6010  1.0622  0.5173
 1295SOL     OW15517   2.897   3.643   5.299  0.4577 -0.4328  0.3510
 1295SOL    HW115518   2.892   3.606   5.387  0.5347  1.3876  1.0988
 1295SOL    HW215519   2.816   3.694   5.302  0.3265 -0.6212  0.0403
 1296SOL     OW15520   0.024   3.580   1.829  0.1266  0.4366  0.2382
 1296SOL    HW115521   0.011   3.607   1.921  2.3261 -2.2935  1.3251
 1296SOL    HW215522   0.117   3.561   1.831 -0.4233 -2.2630  0.8486
 1297SOL     OW15523   4.058   1.838  10.312  0.4326  0.3961 -0.0392
 1297SOL    HW115524   4.145   1.871  10.292 -0.0270  2.0670  0.7151
 1297SOL    HW215525   4.067   1.836  10.407  0.1045  0.9907  0.0095
 1298SOL     OW15526   4.457   3.863  17.158  0.2090 -0.2174 -0.2322
 1298SOL    HW115527   4.529   3.917  17.189  0.8867 -0.6014 -1.1650
 1298SOL    HW215528   4.487   3.828  17.074  2.3296  4.8037 -1.5375
 1299SOL     OW15529   2.314   4.674  17.223  0.1130 -0.3819 -0.1691
 1299SOL    HW115530   2.243   4.724  17.264 -0.4887 -1.3766 -0.0031
 1299SOL    HW215531   2.375   4.670  17.296  0.5407  0.8352 -0.4604
 1300SOL     OW15532   0.413   4.512   6.514 -0.1690 -0.0601 -0.0094
 1300SOL    HW115533   0.488   4.547   6.465  0.2491 -0.9230  0.0087
 1300SOL    HW215534   0.360   4.493   6.436  0.5695  0.1231 -0.5639
 1301SOL     OW15535   3.255   4.528   2.604 -0.2362 -0.3600  0.8860
 1301SOL    HW115536   3.234   4.488   2.520 -1.4451 -0.1823  1.1049
 1301SOL    HW215537   3.303   4.462   2.653  1.4072  0.5716  0.5074
 1302SOL     OW15538   2.659   0.223  10.269  0.4754  0.2530 -0.6323
 1302SOL    HW115539   2.680   0.314  10.249  1.5577  0.3808  1.0506
 1302SOL    HW215540   2.741   0.185  10.235  1.1729  0.7241  0.5224
 1303SOL     OW15541   0.082   4.477   3.414  0.3269  0.1365  0.3370
 1303SOL    HW115542   0.149   4.513   3.356  1.3469 -2.3470 -0.0292
 1303SOL    HW215543   0.134   4.466   3.494 -0.2119  1.9034  0.9197
 1304SOL     OW15544   2.403   0.489   7.167  1.0854  0.2048  0.0320
 1304SOL    HW115545   2.419   0.421   7.101  1.0724  1.0197 -0.8137
 1304SOL    HW215546   2.339   0.533   7.111  1.1381 -1.8615 -1.6728
 1305SOL     OW15547   0.273   4.410   6.282 -0.3290  0.4762 -0.9087
 1305SOL    HW115548   0.359   4.393   6.245  0.3874  0.4584  0.7600
 1305SOL    HW215549   0.233   4.462   6.212  1.7984  3.2040 -0.0892
 1306SOL     OW15550   1.258   0.636  11.530  0.0752 -0.1171 -0.6052
 1306SOL    HW115551   1.167   0.659  11.548  0.4965  0.7345  0.4246
 1306SOL    HW215552   1.295   0.663  11.613  0.6339 -1.6327 -0.3553
 1307SOL     OW15553   2.473   3.484  15.746  0.1682  0.4948  0.0670
 1307SOL    HW115554   2.566   3.462  15.737  0.8075  1.8201  3.4309
 1307SOL    HW215555   2.440   3.402  15.782 -0.9328  1.6127  1.6022
 1308SOL     OW15556   3.021   0.289   0.080 -0.4053 -0.2290  0.1008
 1308SOL    HW115557   3.104   0.277   0.127 -0.0305 -1.7644 -0.9608
 1308SOL    HW215558   2.967   0.236   0.139 -2.1835  0.2603 -1.1069
 1309SOL     OW15559   4.654   0.843  15.506 -0.0342  0.2774  0.6735
 1309SOL    HW115560   4.677   0.774  15.442 -1.3616 -0.6681  1.2202
 1309SOL    HW215561   4.568   0.859  15.466  0.2429  4.0287  1.6000
 1310SOL     OW15562   0.519   2.505   7.268 -0.2092  0.0165  0.9101
 1310SOL    HW115563   0.516   2.540   7.179  0.3286 -2.2816 -0.0222
 1310SOL    HW215564   0.597   2.450   7.265 -1.1343 -1.2406 -0.4547
 1311SOL     OW15565   3.572   2.052   3.376  0.0049  0.3830  0.0220
 1311SOL    HW115566   3.547   1.967   3.413 -1.7042  0.8305 -0.1426
 1311SOL    HW215567   3.493   2.080   3.330  0.7228  0.0135 -1.4555
 1312SOL     OW15568   1.280   1.141  13.008 -0.6234  0.1134  0.1725
 1312SOL    HW115569   1.240   1.057  13.028 -1.3850 -0.0225 -1.9058
 1312SOL    HW215570   1.207   1.200  13.028  0.0625  1.2778 -0.7157
 1313SOL     OW15571   0.485   4.410   2.595  0.3627 -0.2036 -0.6434
 1313SOL    HW115572   0.563   4.424   2.649 -0.3998  1.4880  0.0059
 1313SOL    HW215573   0.529   4.409   2.510  1.8450  2.9756  0.0957
 1314SOL     OW15574   3.716   1.563  11.115 -0.1871  0.0965 -0.2486
 1314SOL    HW115575   3.795   1.512  11.132 -0.6665 -0.9249 -1.1012
 1314SOL    HW215576   3.704   1.562  11.020 -1.4016 -0.1066 -0.0922
 1315SOL     OW15577   0.016   2.649   5.429  0.3479 -0.4918 -0.3818
 1315SOL    HW115578   0.057   2.587   5.369 -1.9324 -2.9342  0.5735
 1315SOL    HW215579   0.077   2.723   5.428  1.6613 -1.5429  2.4015
 1316SOL     OW15580   0.943   2.614   2.259  0.0742  0.1379 -0.1162
 1316SOL    HW115581   0.947   2.709   2.270  2.1253 -0.1326  1.3842
 1316SOL    HW215582   0.868   2.606   2.200 -0.8289  0.4361  0.9860
 1317SOL     OW15583   3.833   4.684   5.007  0.0630  0.0428  0.0755
 1317SOL    HW115584   3.824   0.015   5.071 -1.6274  1.0687 -1.2844
 1317SOL    HW215585   3.863   4.729   4.927  0.7462 -1.6788 -0.6296
 1318SOL     OW15586   3.690   4.283   6.595  0.2782 -0.1274 -0.3031
 1318SOL    HW115587   3.681   4.231   6.675 -2.5637  1.0938  0.1763
 1318SOL    HW215588   3.627   4.238   6.538 -2.8833 -0.4138  3.4775
 1319SOL     OW15589   1.362   2.775   2.214 -0.0560  0.1303  0.4119
 1319SOL    HW115590   1.377   2.683   2.190 -0.9919  0.4081 -1.1959
 1319SOL    HW215591   1.432   2.785   2.279 -0.1940 -0.3821  0.6413
 1320SOL     OW15592   4.498   2.407   7.086  0.7359 -0.1248 -0.2953
 1320SOL    HW115593   4.581   2.454   7.077  0.8544 -0.3755 -0.5267
 1320SOL    HW215594   4.485   2.430   7.178 -0.1787  0.2360 -0.5225
 1321SOL     OW15595   2.295   1.764  13.938  0.3325 -0.5305  0.0669
 1321SOL    HW115596   2.295   1.849  13.894  2.9565 -0.9049 -0.6740
 1321SOL    HW215597   2.312   1.791  14.028 -0.6805 -0.1120  0.1216
 1322SOL     OW15598   4.127   0.996   7.053  0.4761 -0.2771  0.7034
 1322SOL    HW115599   4.158   0.906   7.064  0.2943 -0.6457 -1.8155
 1322SOL    HW215600   4.210   1.040   7.033 -0.0712 -0.1622 -1.2664
 1323SOL     OW15601   0.585   2.565   4.830 -0.1752  0.2574  0.1908
 1323SOL    HW115602   0.543   2.479   4.835  2.1831 -0.9032  0.1988
 1323SOL    HW215603   0.677   2.540   4.842 -0.0665  0.0563 -1.0577
 1324SOL     OW15604   2.874   0.564   7.159  0.2204 -0.7965  0.0240
 1324SOL    HW115605   2.941   0.521   7.107  0.7695  1.5439 -1.1765
 1324SOL    HW215606   2.808   0.496   7.176 -0.1714 -0.2216  0.8250
 1325SOL     OW15607   2.887   1.042   1.157  0.4496 -0.4446  0.3139
 1325SOL    HW115608   2.880   1.116   1.218 -1.0664 -1.3332  1.2293
 1325SOL    HW215609   2.802   0.998   1.163 -0.6418  1.4086 -1.7826
 1326SOL     OW15610   2.202   0.421   0.677 -0.1975  0.1981  0.3298
 1326SOL    HW115611   2.120   0.416   0.726 -0.4056 -0.3987 -0.0839
 1326SOL    HW215612   2.199   0.509   0.639  1.0094  0.3013  0.4774
 1327SOL     OW15613   4.330   3.473  17.482  0.0699  0.4761  0.4802
 1327SOL    HW115614   4.264   3.452  17.548  3.3652 -3.1027  2.6643
 1327SOL    HW215615   4.416   3.482  17.523  1.0857  0.3451 -1.6161
 1328SOL     OW15616   0.494   1.775   3.534 -0.2389 -0.1652 -0.2006
 1328SOL    HW115617   0.448   1.745   3.455  1.9997 -2.0125 -0.7963
 1328SOL    HW215618   0.556   1.826   3.480  1.0245  0.9370  2.3143
 1329SOL     OW15619   0.462   3.711   5.860  0.5508  0.5067  0.1226
 1329SOL    HW115620   0.557   3.720   5.855  0.3829  1.7099 -0.8757
 1329SOL    HW215621   0.434   3.672   5.777 -0.9329 -1.1048  1.3738
 1330SOL     OW15622   4.671   2.842   3.841 -0.3815  0.0065  0.2450
 1330SOL    HW115623   4.711   2.929   3.840  1.0655 -0.6506  1.3921
 1330SOL    HW215624   4.627   2.850   3.926 -1.3876 -0.7050 -0.2199
 1331SOL     OW15625   0.755   4.371   6.400  0.1123  0.0650 -0.5195
 1331SOL    HW115626   0.718   4.302   6.456  0.1226  0.3686 -0.1407
 1331SOL    HW215627   0.837   4.383   6.448  0.6356 -0.4789 -1.2896
 1332SOL     OW15628   2.530   4.270  11.805 -0.5488  0.3523 -0.1659
 1332SOL    HW115629   2.472   4.302  11.736 -1.2189 -1.6658 -0.5237
 1332SOL    HW215630   2.618   4.291  11.773 -0.6643  0.6447 -0.2949
 1333SOL     OW15631   2.764   1.485   3.251  0.4382  0.6402 -1.0348
 1333SOL    HW115632   2.842   1.459   3.299 -0.6445  1.8608  1.3920
 1333SOL    HW215633   2.798   1.561   3.205 -0.8078  2.3042  0.8060
 1334SOL     OW15634   0.053   4.715   3.070 -0.2041  0.1642 -0.2837
 1334SOL    HW115635   0.045   4.621   3.058  0.2312 -0.0351  1.0144
 1334SOL    HW215636   0.037   0.005   2.980 -0.0034  0.1949 -0.3110
 1335SOL     OW15637   2.655   4.454   0.425 -0.3243  0.2298 -0.1767
 1335SOL    HW115638   2.628   4.481   0.337 -0.5932  0.1331 -0.1228
 1335SOL    HW215639   2.633   4.361   0.432  1.4021 -0.2713 -1.5031
 1336SOL     OW15640   4.036   4.471   4.321 -0.4854 -0.0884 -0.3338
 1336SOL    HW115641   4.002   4.404   4.382 -2.1517 -0.2780 -1.4659
 1336SOL    HW215642   3.994   4.549   4.358 -0.3513  0.9627 -2.4254
 1337SOL     OW15643   3.837   0.640  11.959 -0.5171 -0.2244  0.1692
 1337SOL    HW115644   3.757   0.589  11.966 -1.3325  1.0903  0.5304
 1337SOL    HW215645   3.872   0.634  12.048  1.0793  0.7894 -0.3777
 1338SOL     OW15646   2.381   0.019   5.159 -0.0330  0.5196 -0.1015
 1338SOL    HW115647   2.450   0.019   5.226 -1.7373  0.1791  1.6369
 1338SOL    HW215648   2.413   0.095   5.110 -0.1812  0.8800  0.3590
 1339SOL     OW15649   2.317   0.534  13.492  0.1300  0.3727 -0.1578
 1339SOL    HW115650   2.401   0.525  13.447 -0.2469  0.6396 -0.9198
 1339SOL    HW215651   2.297   0.620  13.456 -1.8786  0.0610  0.2138
 1340SOL     OW15652   2.071   4.357   6.875 -0.1339 -0.8304  0.1136
 1340SOL    HW115653   2.034   4.317   6.796 -0.0540 -1.1333  0.2263
 1340SOL    HW215654   2.151   4.401   6.845 -0.4156 -1.5695 -1.7450
 1341SOL     OW15655   3.598   4.093  13.691  0.1632 -0.2348 -0.4091
 1341SOL    HW115656   3.584   4.188  13.685 -0.3559 -0.2134  1.1042
 1341SOL    HW215657   3.689   4.095  13.660  0.5723  0.5076  0.8329
 1342SOL     OW15658   3.453   0.896   3.815  0.6730  0.3211  1.0247
 1342SOL    HW115659   3.489   0.969   3.764 -0.6603  0.7584  0.7154
 1342SOL    HW215660   3.523   0.831   3.818  0.5012  0.0364 -1.0652
 1343SOL     OW15661   2.804   3.159  10.547 -0.1830  0.3920 -0.3464
 1343SOL    HW115662   2.800   3.088  10.611 -2.2924  0.9182  0.0762
 1343SOL    HW215663   2.720   3.198  10.570 -0.5238 -0.9456  0.6982
 1344SOL     OW15664   3.969   2.084  17.598 -0.5394  0.3976 -0.4044
 1344SOL    HW115665   4.011   2.129  17.672  0.6236 -2.1156  0.4690
 1344SOL    HW215666   3.882   2.124  17.607 -0.7038 -0.5413  2.3164
 1345SOL     OW15667   3.032   1.125  12.639  0.9588 -0.3722 -0.6732
 1345SOL    HW115668   3.039   1.162  12.551  0.7576  0.6253 -0.2697
 1345SOL    HW215669   3.125   1.117  12.658  1.1806 -0.3230 -1.7387
 1346SOL     OW15670   0.661   4.152   6.531 -0.4486  0.7579  0.0107
 1346SOL    HW115671   0.733   4.167   6.592 -0.8042  2.4450  0.0122
 1346SOL    HW215672   0.585   4.155   6.589 -0.3254 -1.0015  0.2523
 1347SOL     OW15673   1.159   3.503   9.375  0.2839 -0.3556  0.2711
 1347SOL    HW115674   1.105   3.510   9.297  3.0211  3.5099 -1.2759
 1347SOL    HW215675   1.245   3.520   9.335 -1.5310 -0.1176 -3.5293
 1348SOL     OW15676   0.524   0.925   9.607 -0.6015 -0.1114 -0.5474
 1348SOL    HW115677   0.565   0.931   9.520 -1.3726 -1.3728 -0.9970
 1348SOL    HW215678   0.512   0.830   9.611 -1.7986  0.0760  0.0205
 1349SOL     OW15679   2.361   3.125  14.859 -0.3535  0.7131 -0.2482
 1349SOL    HW115680   2.305   3.137  14.782  0.7352 -2.1384 -1.5002
 1349SOL    HW215681   2.311   3.061  14.910  0.7171 -1.3265 -1.7470
 1350SOL     OW15682   3.246   4.696   5.162 -0.0472 -0.1066 -0.3641
 1350SOL    HW115683   3.318   0.017   5.182 -1.1602  1.1204 -0.0324
 1350SOL    HW215684   3.270   4.618   5.212 -1.9784 -0.9703 -0.8236
 1351SOL     OW15685   3.420   0.161   3.010  0.2029 -0.3017  0.6797
 1351SOL    HW115686   3.387   0.089   2.956  0.2927  2.9477 -3.6902
 1351SOL    HW215687   3.444   0.224   2.942 -0.2746  0.2074  0.9813
 1352SOL     OW15688   4.479   1.730   9.123  0.4773 -0.0106  0.2732
 1352SOL    HW115689   4.553   1.713   9.181 -0.1708 -0.3050  1.0210
 1352SOL    HW215690   4.467   1.820   9.153 -1.8785 -0.1251 -0.2790
 1353SOL     OW15691   0.124   3.815  12.621 -0.2504  0.8701  0.3487
 1353SOL    HW115692   0.186   3.758  12.667 -0.5314 -0.4492 -0.9223
 1353SOL    HW215693   0.053   3.817  12.685  0.0499 -2.7184  0.7731
 1354SOL     OW15694   0.604   1.733   7.955 -0.0888 -0.0480 -0.6602
 1354SOL    HW115695   0.559   1.781   8.025  0.4682  2.2378 -1.8731
 1354SOL    HW215696   0.686   1.780   7.937  0.7232 -2.1571 -2.3777
 1355SOL     OW15697   3.104   2.513   8.354 -0.0296  0.0704 -0.0983
 1355SOL    HW115698   3.191   2.474   8.357 -0.1724 -0.1699  0.8477
 1355SOL    HW215699   3.095   2.513   8.259  1.1697 -1.9048 -0.2242
 1356SOL     OW15700   4.360   2.986   6.614 -0.4271 -0.3560  0.3627
 1356SOL    HW115701   4.267   2.979   6.635 -0.6079 -0.6853 -0.5763
 1356SOL    HW215702   4.379   3.070   6.657  0.2766  1.1853 -2.9103
 1357SOL     OW15703   2.377   0.466  15.054  0.1546 -0.2269 -0.2592
 1357SOL    HW115704   2.453   0.523  15.049  0.3525 -0.7746 -3.2284
 1357SOL    HW215705   2.391   0.420  15.137 -0.7815  1.1860  0.6847
 1358SOL     OW15706   1.454   3.037   8.402  0.1857  0.1144 -0.0371
 1358SOL    HW115707   1.480   3.010   8.314 -2.2556 -0.4582 -0.5777
 1358SOL    HW215708   1.465   2.955   8.450  1.5691  2.1393  3.1342
 1359SOL     OW15709   2.270   2.333   7.874 -0.1011 -0.5437 -0.3063
 1359SOL    HW115710   2.289   2.259   7.816  1.2780  0.5895 -1.2605
 1359SOL    HW215711   2.344   2.393   7.875 -0.3044 -0.2961  0.1802
 1360SOL     OW15712   2.680   0.449   1.552  0.0284 -0.1378 -0.5013
 1360SOL    HW115713   2.733   0.379   1.589  2.3509  2.4797  1.1524
 1360SOL    HW215714   2.695   0.522   1.613 -2.4256  0.0861 -0.1432
 1361SOL     OW15715   2.616   0.846  17.650 -0.3790 -0.9221 -0.5450
 1361SOL    HW115716   2.680   0.824  17.718 -1.4617 -0.8954  0.4769
 1361SOL    HW215717   2.575   0.761  17.632 -1.1309 -0.6279 -0.1940
 1362SOL     OW15718   2.460   4.341   7.149  0.5287  0.1126 -0.2050
 1362SOL    HW115719   2.463   4.296   7.064 -1.7365  1.0025 -0.7449
 1362SOL    HW215720   2.451   4.263   7.203  2.6008 -0.6093 -0.8806
 1363SOL     OW15721   3.837   1.500   7.051  0.1514 -0.0486  0.9061
 1363SOL    HW115722   3.853   1.504   6.957  4.5757 -0.7068  1.6568
 1363SOL    HW215723   3.742   1.509   7.060 -0.0674  0.3182 -1.8297
 1364SOL     OW15724   3.978   2.848  16.800  0.0122 -0.1862 -0.4969
 1364SOL    HW115725   3.894   2.884  16.831  0.5767  0.7165 -0.0126
 1364SOL    HW215726   3.962   2.754  16.808 -0.4236 -0.0818 -0.1202
 1365SOL     OW15727   3.769   2.532   4.577 -0.4898  0.2223 -0.5356
 1365SOL    HW115728   3.849   2.495   4.615 -0.1272  1.1411 -0.4135
 1365SOL    HW215729   3.762   2.499   4.487 -5.2822  1.3706 -0.5583
 1366SOL     OW15730   3.519   0.720   7.281  0.4003  0.0635  0.3846
 1366SOL    HW115731   3.546   0.798   7.232 -3.8496  0.3528 -1.5147
 1366SOL    HW215732   3.447   0.761   7.328  0.8593  0.4743  0.7350
 1367SOL     OW15733   1.907   0.949   5.821  0.6421 -0.4034 -0.1614
 1367SOL    HW115734   1.889   1.014   5.752 -3.7507 -2.2586 -0.7381
 1367SOL    HW215735   1.957   1.005   5.880 -0.7851  2.2414 -1.4678
 1368SOL     OW15736   2.049   0.647   6.842 -0.4421 -0.3829 -0.2805
 1368SOL    HW115737   2.141   0.630   6.819 -0.1811 -1.4640  1.5271
 1368SOL    HW215738   2.014   0.634   6.754  0.7995  0.8901 -0.9468
 1369SOL     OW15739   4.107   0.595   4.160  0.0458  0.0622  0.5451
 1369SOL    HW115740   4.167   0.587   4.233  0.6151  0.2334  0.0943
 1369SOL    HW215741   4.049   0.667   4.183 -1.7736 -0.7390 -1.3998
 1370SOL     OW15742   1.290   1.598   2.755 -0.2159 -0.2030  0.5010
 1370SOL    HW115743   1.381   1.568   2.748  0.2491  1.0190  1.1785
 1370SOL    HW215744   1.295   1.692   2.772  0.2931  0.2844 -2.3342
 1371SOL     OW15745   1.734   2.288  13.131 -0.3321  0.2943  0.4396
 1371SOL    HW115746   1.713   2.337  13.051  0.5536  0.3748  0.2644
 1371SOL    HW215747   1.825   2.274  13.107 -0.6212  1.1849 -1.1596
 1372SOL     OW15748   0.799   0.793  10.027  0.6900 -0.8818 -0.5707
 1372SOL    HW115749   0.810   0.709  10.070  2.0570  0.7534  2.2788
 1372SOL    HW215750   0.758   0.766   9.944  0.6356  2.6474 -1.6962
 1373SOL     OW15751   3.984   4.559   9.040  0.1797  0.4786  0.5600
 1373SOL    HW115752   3.936   4.483   9.008 -0.7939  1.2736  0.1589
 1373SOL    HW215753   3.922   4.631   9.029  1.2776  1.3538  0.0408
 1374SOL     OW15754   3.062   2.690   2.436  0.4296  0.0968  0.1276
 1374SOL    HW115755   3.094   2.602   2.416 -1.7463 -0.5758 -0.4795
 1374SOL    HW215756   2.980   2.659   2.476 -0.0957  1.0904 -0.1867
 1375SOL     OW15757   0.872   2.930  16.045  0.1087 -0.1598 -0.4847
 1375SOL    HW115758   0.835   2.955  15.960  0.3734 -1.4606 -0.9897
 1375SOL    HW215759   0.958   2.971  16.042  0.0409 -0.0454 -0.8764
 1376SOL     OW15760   1.806   4.658   6.378 -0.6650  0.7668  0.2051
 1376SOL    HW115761   1.775   4.677   6.467 -0.2308  2.3146  0.0157
 1376SOL    HW215762   1.829   4.565   6.379 -3.4779  0.0861  1.1353
 1377SOL     OW15763   1.388   4.539  14.359  0.1983 -0.7402 -0.4879
 1377SOL    HW115764   1.428   4.510  14.277 -0.7292  1.5055 -1.7358
 1377SOL    HW215765   1.460   4.591  14.395  1.3500 -1.7312 -1.3713
 1378SOL     OW15766   2.844   1.448   2.280  0.2728 -0.5520 -0.4051
 1378SOL    HW115767   2.795   1.456   2.198 -1.2196 -0.2424  0.5251
 1378SOL    HW215768   2.806   1.522   2.326 -2.4105 -1.2948 -1.4082
 1379SOL     OW15769   1.489   4.618  12.921  0.0633  0.0962  0.0697
 1379SOL    HW115770   1.522   4.636  13.009 -3.6404 -2.8018  2.0780
 1379SOL    HW215771   1.500   4.524  12.904  0.2983  0.0392  0.5204
 1380SOL     OW15772   4.668   2.939   4.711 -0.4219 -0.0840 -0.2141
 1380SOL    HW115773   4.614   2.970   4.784  0.3155 -2.0392  1.1640
 1380SOL    HW215774   4.594   2.928   4.651 -0.5534 -0.3110 -0.0077
 1381SOL     OW15775   1.349   0.029   8.510  0.7062  0.2836  0.5425
 1381SOL    HW115776   1.399   0.109   8.493 -0.1523  0.1459 -2.6105
 1381SOL    HW215777   1.304   0.020   8.426  2.2650  2.0567 -0.4830
 1382SOL     OW15778   0.398   1.207   6.707 -0.4261  0.6384 -0.1327
 1382SOL    HW115779   0.348   1.125   6.710 -0.2853  0.5781  0.8301
 1382SOL    HW215780   0.455   1.200   6.784  0.9392 -0.7851 -1.2782
 1383SOL     OW15781   4.717   4.729   7.155 -0.2286 -0.3306 -0.4302
 1383SOL    HW115782   4.672   4.645   7.155 -0.9714  0.0613  1.4180
 1383SOL    HW215783   0.068   4.710   7.182 -0.6189 -1.9026 -0.2652
 1384SOL     OW15784   1.717   4.521   3.839  0.5677 -0.0174  0.1013
 1384SOL    HW115785   1.791   4.531   3.898  0.6108  3.3457 -0.5211
 1384SOL    HW215786   1.637   4.498   3.886 -0.7660  3.7198 -0.2644
 1385SOL     OW15787   1.336   1.265   9.787 -0.1139 -0.2475  0.4717
 1385SOL    HW115788   1.420   1.260   9.742 -0.4772 -0.1163 -0.2174
 1385SOL    HW215789   1.360   1.290   9.876  1.8670  2.4327 -0.8311
 1386SOL     OW15790   4.066   2.706   9.208 -0.5025 -0.3194 -0.1570
 1386SOL    HW115791   4.137   2.681   9.267  0.5676  1.2126 -0.8003
 1386SOL    HW215792   4.041   2.616   9.184 -1.5656  0.0696 -0.5285
 1387SOL     OW15793   3.178   0.217   0.278 -0.3770 -0.3513 -0.1942
 1387SOL    HW115794   3.126   0.152   0.325 -0.4016 -0.9203 -1.0306
 1387SOL    HW215795   3.186   0.278   0.352 -0.1779  1.7543 -1.9497
 1388SOL     OW15796   2.751   1.921   3.478 -0.2851  0.1992  0.7792
 1388SOL    HW115797   2.665   1.956   3.453 -0.3269 -0.5024 -0.0751
 1388SOL    HW215798   2.794   1.934   3.394  2.2226 -0.3726  1.9757
 1389SOL     OW15799   1.039   4.704   3.992 -0.2420 -0.2351 -0.3451
 1389SOL    HW115800   1.126   4.715   3.955  0.3470 -0.2993  1.0104
 1389SOL    HW215801   1.029   0.037   4.054 -0.4527 -1.0630  0.5876
 1390SOL     OW15802   4.656   1.448   8.367 -0.3583  0.2455  0.2063
 1390SOL    HW115803   0.002   1.491   8.367 -0.5629  0.6356  1.2401
 1390SOL    HW215804   4.644   1.420   8.276 -1.4423  1.2816  0.0389
 1391SOL     OW15805   0.686   2.315   3.247  0.2750  0.0173  0.2752
 1391SOL    HW115806   0.765   2.287   3.200  0.0509 -1.5301  0.8091
 1391SOL    HW215807   0.635   2.317   3.167 -1.5654  1.2001  1.4932
 1392SOL     OW15808   2.199   2.035   2.172 -0.5724 -0.2844 -0.1601
 1392SOL    HW115809   2.168   2.097   2.106  0.7481  0.2346 -0.2925
 1392SOL    HW215810   2.128   1.971   2.182  1.7007 -2.6575  0.7427
 1393SOL     OW15811   2.140   1.787   5.263 -0.5481 -0.2692  0.1198
 1393SOL    HW115812   2.057   1.832   5.253 -0.3101  0.3430  0.8961
 1393SOL    HW215813   2.150   1.742   5.179  1.9009 -4.5445  2.6566
 1394SOL     OW15814   0.765   1.134   8.643 -0.6670 -0.0364 -0.2503
 1394SOL    HW115815   0.799   1.045   8.634 -0.8773 -0.2417  1.1144
 1394SOL    HW215816   0.679   1.115   8.679 -0.6848 -1.6985 -1.1538
 1395SOL     OW15817   0.049   2.439   7.899 -0.0152 -0.4379 -0.0861
 1395SOL    HW115818   0.063   2.345   7.909 -0.9100 -0.8094 -2.5613
 1395SOL    HW215819   0.083   2.466   7.985  2.6105  0.3361 -1.3707
 1396SOL     OW15820   0.693   1.501   5.678  0.1030 -0.1564 -0.2145
 1396SOL    HW115821   0.774   1.552   5.685 -0.0858  0.0247  0.7190
 1396SOL    HW215822   0.723   1.411   5.693  0.4503 -0.1200 -0.6730
 1397SOL     OW15823   0.034   4.665  11.967 -0.2079 -0.1383  0.4845
 1397SOL    HW115824   0.122   4.696  11.989  0.3718 -0.2277 -1.7384
 1397SOL    HW215825   0.058   4.609  11.893  0.2320  2.0419 -1.0272
 1398SOL     OW15826   0.784   4.371  12.516 -0.3543  0.0216  0.3592
 1398SOL    HW115827   0.844   4.296  12.507  0.1232  0.5330 -0.6865
 1398SOL    HW215828   0.778   4.374  12.611  0.0353 -1.7027  0.4444
 1399SOL     OW15829   3.590   2.001   4.455 -0.5623  0.0589  0.1330
 1399SOL    HW115830   3.641   2.079   4.478 -0.6213  0.0292  0.3572
 1399SOL    HW215831   3.589   2.003   4.359 -0.1180 -2.8639  0.0605
 1400SOL     OW15832   0.582   4.360   4.468  0.1379  0.0319 -0.3958
 1400SOL    HW115833   0.570   4.321   4.555 -1.2556  0.7912 -0.2375
 1400SOL    HW215834   0.554   4.451   4.478 -0.8951 -0.3935  0.6278
 1401SOL     OW15835   0.771   0.573   8.635  0.3954  0.3601 -0.1987
 1401SOL    HW115836   0.793   0.525   8.556  0.5917  1.4426 -0.8058
 1401SOL    HW215837   0.852   0.572   8.686 -0.6772  1.6670  1.5579
 1402SOL     OW15838   2.428   4.695  17.731  0.6227  0.4808 -0.2678
 1402SOL    HW115839   2.460   4.620   0.028 -0.8382  0.3165  0.4062
 1402SOL    HW215840   2.407   4.642  17.654  1.7463  0.7150 -0.7365
 1403SOL     OW15841   2.019   1.342   3.272  0.2961  0.2253  0.2030
 1403SOL    HW115842   1.979   1.351   3.186  0.2011 -0.1220  0.2116
 1403SOL    HW215843   1.972   1.412   3.316 -0.7213  0.9199 -1.9773
 1404SOL     OW15844   3.658   4.506   1.337 -0.0105  0.5599 -0.0060
 1404SOL    HW115845   3.692   4.466   1.418  0.0939  3.2685  1.2903
 1404SOL    HW215846   3.653   4.600   1.353  1.5712  0.5137  0.7783
 1405SOL     OW15847   4.185   3.507   3.376 -0.2131 -0.0096 -0.0061
 1405SOL    HW115848   4.277   3.524   3.360 -0.1047 -1.1420 -0.5854
 1405SOL    HW215849   4.160   3.578   3.317  1.0705  2.3434  2.3175
 1406SOL     OW15850   1.219   2.379   4.207  0.6422  0.1480  0.1373
 1406SOL    HW115851   1.198   2.439   4.278 -0.9399 -2.8576  2.2443
 1406SOL    HW215852   1.273   2.429   4.146  0.9497  0.7176  0.8668
 1407SOL     OW15853   2.041   1.172  15.240 -0.6844  0.2529 -0.0980
 1407SOL    HW115854   2.078   1.084  15.246 -0.7789  0.1874 -0.4610
 1407SOL    HW215855   2.042   1.169  15.145  2.1740  0.6022 -0.0901
 1408SOL     OW15856   1.920   3.730   2.539 -0.1457  0.4528  0.0842
 1408SOL    HW115857   1.859   3.764   2.605  0.6868  1.3407  0.3991
 1408SOL    HW215858   1.915   3.638   2.562 -0.9331  0.5287  0.2176
 1409SOL     OW15859   4.086   3.352   4.440 -0.0324  0.2618 -0.7617
 1409SOL    HW115860   4.149   3.288   4.407  1.5936  1.1438  0.6148
 1409SOL    HW215861   4.131   3.432   4.413 -3.5399  2.5091  0.2023
 1410SOL     OW15862   3.298   0.104   7.698  0.8927  0.6079  0.3054
 1410SOL    HW115863   3.249   0.113   7.780 -0.0604 -0.8954 -0.1147
 1410SOL    HW215864   3.229   0.091   7.634  0.9339  0.0080  0.3860
 1411SOL     OW15865   4.533   2.760   2.341 -0.3246  0.5684  0.8863
 1411SOL    HW115866   4.568   2.690   2.287 -1.0295  0.9853 -0.1151
 1411SOL    HW215867   4.557   2.727   2.428 -0.7321 -1.5322  0.2076
 1412SOL     OW15868   1.291   0.041   7.510 -0.2754 -0.4703  0.4074
 1412SOL    HW115869   1.338   4.738   7.582 -1.2362 -3.1861 -0.5661
 1412SOL    HW215870   1.339   0.124   7.515  0.2027 -0.8290  1.7982
 1413SOL     OW15871   1.968   2.586   2.490  0.0440 -0.3613 -0.2708
 1413SOL    HW115872   1.905   2.658   2.490 -0.1220 -0.4908 -2.7352
 1413SOL    HW215873   2.044   2.612   2.542 -0.0223 -0.1406 -0.2858
 1414SOL     OW15874   0.565   0.234   1.128  0.0521  0.0135  0.0057
 1414SOL    HW115875   0.614   0.215   1.047  0.0906  1.7537 -0.3707
 1414SOL    HW215876   0.597   0.159   1.178  0.4895 -0.1210 -0.4643
 1415SOL     OW15877   1.621   4.290   4.892 -0.2802  0.3319 -0.1506
 1415SOL    HW115878   1.648   4.229   4.961 -2.1124 -0.2969 -0.0007
 1415SOL    HW215879   1.607   4.373   4.937  1.2067  0.3897  0.2263
 1416SOL     OW15880   3.947   0.286   5.738 -0.4819  0.6134 -0.3744
 1416SOL    HW115881   3.933   0.374   5.702  0.7941  0.9779  0.0250
 1416SOL    HW215882   3.899   0.290   5.820 -2.1323  2.1841 -1.4100
 1417SOL     OW15883   3.822   2.645   6.798 -0.0802  0.2289 -0.1668
 1417SOL    HW115884   3.803   2.575   6.861  0.0269  0.5825  0.2622
 1417SOL    HW215885   3.825   2.719   6.859 -1.8199 -0.9165  1.3196
 1418SOL     OW15886   1.758   3.964   5.435  0.0575 -0.6360 -0.7837
 1418SOL    HW115887   1.819   3.942   5.365  0.0557 -2.1828 -0.3013
 1418SOL    HW215888   1.794   4.041   5.478  0.9611 -1.6391  0.2580
 1419SOL     OW15889   4.250   4.247   3.254  0.4522 -0.4911  0.3025
 1419SOL    HW115890   4.241   4.209   3.167  2.5018 -2.2765  0.8646
 1419SOL    HW215891   4.202   4.181   3.304  0.2176  0.9622  2.0030
 1420SOL     OW15892   2.446   2.449   2.739  0.3509 -0.3345  0.5033
 1420SOL    HW115893   2.516   2.515   2.743  0.9258 -0.9644  1.0619
 1420SOL    HW215894   2.370   2.506   2.743 -0.0312 -0.7925 -0.4412
 1421SOL     OW15895   3.716   2.344   3.594 -0.1530 -0.5816  0.2041
 1421SOL    HW115896   3.770   2.420   3.573  2.8454 -1.9695  2.6659
 1421SOL    HW215897   3.708   2.369   3.686 -1.6372 -2.1653  0.5126
 1422SOL     OW15898   2.949   0.763   4.539 -0.3405 -0.0923  0.0201
 1422SOL    HW115899   2.938   0.670   4.520  0.9776 -0.4058  0.8191
 1422SOL    HW215900   2.859   0.793   4.520 -0.5110 -0.0224  0.9756
 1423SOL     OW15901   0.093   0.231  16.436  0.3672 -0.7558  0.1070
 1423SOL    HW115902   0.039   0.307  16.413  3.5105  1.8079  1.2463
 1423SOL    HW215903   0.083   0.186  16.352 -1.6826 -0.2691  0.0897
 1424SOL     OW15904   4.420   2.408   0.453  0.1439  0.3521 -0.1328
 1424SOL    HW115905   4.465   2.486   0.487 -0.4961  0.0281  1.4127
 1424SOL    HW215906   4.479   2.375   0.385 -0.3367  0.4253 -0.5798
 1425SOL     OW15907   2.769   1.562   7.140 -0.1087 -0.0908 -0.1486
 1425SOL    HW115908   2.827   1.520   7.077  0.3389 -1.6514  1.2939
 1425SOL    HW215909   2.816   1.541   7.221  0.8412  0.7876 -0.4671
 1426SOL     OW15910   2.043   0.521  17.585 -0.1787 -0.5734  0.5519
 1426SOL    HW115911   2.015   0.611  17.599  1.2915 -0.0091 -0.1190
 1426SOL    HW215912   2.131   0.543  17.555  0.1515 -0.8874  1.2746
 1427SOL     OW15913   1.637   1.572   6.622  0.0599  0.5014  0.5613
 1427SOL    HW115914   1.664   1.549   6.710  0.0270 -1.8558 -0.0435
 1427SOL    HW215915   1.544   1.552   6.628 -0.0145  0.6670 -0.0233
 1428SOL     OW15916   0.470   3.693  10.699 -0.3891  0.3608  0.1811
 1428SOL    HW115917   0.383   3.672  10.665  0.9582 -1.2922 -2.2546
 1428SOL    HW215918   0.447   3.772  10.747  0.7667  0.5388  0.4604
 1429SOL     OW15919   3.979   0.628   3.057 -0.0899  0.2701  0.5020
 1429SOL    HW115920   3.947   0.556   3.002 -0.3127  0.2352  0.6753
 1429SOL    HW215921   4.073   0.620   3.039 -0.3286 -0.3130 -0.5198
 1430SOL     OW15922   3.213   2.165   2.663 -0.1291  0.1652 -0.3113
 1430SOL    HW115923   3.223   2.201   2.575  3.1094 -1.6740 -0.7270
 1430SOL    HW215924   3.160   2.088   2.643 -1.6372  1.4192 -1.1573
 1431SOL     OW15925   2.889   4.417   9.292  0.6573 -0.3508  0.2447
 1431SOL    HW115926   2.830   4.488   9.316  1.4936  0.0011  1.2647
 1431SOL    HW215927   2.846   4.339   9.325  1.1997 -1.1605 -0.9583
 1432SOL     OW15928   0.055   0.071   5.460  0.0298 -0.9721  0.4335
 1432SOL    HW115929   0.036   0.052   5.368 -0.0628 -0.7569  0.4058
 1432SOL    HW215930   4.719   0.128   5.478  0.4324 -0.0833 -0.7143
 1433SOL     OW15931   4.257   3.191  17.445 -0.5270 -0.1878  0.1447
 1433SOL    HW115932   4.326   3.252  17.470  0.4429 -0.5954 -1.5365
 1433SOL    HW215933   4.190   3.256  17.424  0.9316  1.9472  2.1073
 1434SOL     OW15934   2.371   0.040  10.726  0.5665  0.5274  0.9606
 1434SOL    HW115935   2.404   0.121  10.687 -1.2304 -0.1157 -1.8736
 1434SOL    HW215936   2.429   0.042  10.803 -0.5255 -0.4768  1.7965
 1435SOL     OW15937   4.498   3.056   7.968  0.2492  0.6246  0.4287
 1435SOL    HW115938   4.406   3.074   7.989 -0.7300  0.2519 -3.4580
 1435SOL    HW215939   4.544   3.088   8.045 -0.9603  2.4150  0.4156
 1436SOL     OW15940   0.721   1.517   5.276 -0.0002 -0.2700  0.4664
 1436SOL    HW115941   0.720   1.605   5.314 -0.1919  0.5510 -1.4301
 1436SOL    HW215942   0.813   1.513   5.250 -0.1164  0.0925 -0.0014
 1437SOL     OW15943   2.253   2.982   5.161 -0.3741  0.3013 -0.2436
 1437SOL    HW115944   2.342   2.946   5.162  0.6472  2.8135 -1.2486
 1437SOL    HW215945   2.204   2.929   5.098 -2.7446  0.5485  1.3869
 1438SOL     OW15946   3.357   2.807   2.300 -0.0942 -0.1244 -0.1476
 1438SOL    HW115947   3.347   2.712   2.307  1.3706 -0.2075  0.8144
 1438SOL    HW215948   3.396   2.818   2.213  1.2267 -0.5273  0.4071
 1439SOL     OW15949   3.958   0.381   4.057  0.8314  0.3499 -0.0136
 1439SOL    HW115950   4.037   0.348   4.014 -0.1142  1.2059 -2.3747
 1439SOL    HW215951   3.994   0.464   4.088  2.8763 -1.6842  3.0433
 1440SOL     OW15952   3.339   1.144   8.508  0.3409 -0.0614 -0.2292
 1440SOL    HW115953   3.380   1.093   8.439  1.1899  0.0707  0.1788
 1440SOL    HW215954   3.335   1.236   8.480  2.7340 -0.5423 -2.1324
 1441SOL     OW15955   0.341   3.406   7.237  0.3415 -0.5359 -0.0056
 1441SOL    HW115956   0.333   3.334   7.174 -1.7720  1.4155 -1.9391
 1441SOL    HW215957   0.259   3.395   7.284  1.7960 -0.3086  2.5632
 1442SOL     OW15958   3.860   3.459   6.235  0.5577 -0.1746  0.1556
 1442SOL    HW115959   3.870   3.488   6.144  2.9668 -0.6120  0.2721
 1442SOL    HW215960   3.786   3.510   6.268  0.0844  0.0157 -1.2032
 1443SOL     OW15961   1.847   4.297   4.339 -0.3227  0.4170 -0.6464
 1443SOL    HW115962   1.924   4.354   4.332  1.5910 -2.1159 -0.3611
 1443SOL    HW215963   1.861   4.260   4.426 -0.3159  0.8156 -0.4778
 1444SOL     OW15964   1.714   2.457   7.862 -0.2301 -0.5949  0.0150
 1444SOL    HW115965   1.732   2.470   7.769 -0.1540 -0.2118  0.0817
 1444SOL    HW215966   1.788   2.505   7.901 -0.0978 -0.8603  0.0881
 1445SOL     OW15967   3.573   2.528   0.957 -0.0599  0.4680 -0.1609
 1445SOL    HW115968   3.642   2.543   0.893  0.8386 -1.1097  0.4418
 1445SOL    HW215969   3.516   2.602   0.936  0.1870 -0.5394 -4.2320
 1446SOL     OW15970   3.524   2.529   8.629 -0.1229  0.9688 -0.1298
 1446SOL    HW115971   3.432   2.542   8.651 -0.1646  0.0366  0.2473
 1446SOL    HW215972   3.543   2.587   8.555 -2.3161  1.3242 -0.4097
 1447SOL     OW15973   2.968   4.247   7.469  0.2732  0.1760 -0.6719
 1447SOL    HW115974   2.893   4.306   7.476  0.8382  0.9616 -1.3175
 1447SOL    HW215975   3.030   4.301   7.519  1.1375 -0.7925 -0.6949
 1448SOL     OW15976   0.293   1.838   4.379  0.4298  0.2461 -0.4494
 1448SOL    HW115977   0.322   1.775   4.314 -1.7277 -0.6176 -0.5708
 1448SOL    HW215978   0.207   1.808   4.407  0.4895 -0.2481 -0.8023
 1449SOL     OW15979   3.830   4.056  16.619  0.1691  0.7213  0.4102
 1449SOL    HW115980   3.793   3.983  16.569 -1.5947  1.6915  0.3068
 1449SOL    HW215981   3.856   4.005  16.696  1.9387 -0.3267 -0.8611
 1450SOL     OW15982   4.159   1.831   5.252 -0.1453  0.0217  0.1918
 1450SOL    HW115983   4.194   1.827   5.341 -0.8881  0.2243  0.4957
 1450SOL    HW215984   4.077   1.785   5.274 -0.7194  1.6246  1.3822
 1451SOL     OW15985   3.642   1.983   6.742 -0.2071  0.3432 -0.0870
 1451SOL    HW115986   3.660   1.898   6.701  0.2454 -0.2182  1.2680
 1451SOL    HW215987   3.732   2.003   6.768 -0.4447  2.3845 -0.8737
 1452SOL     OW15988   1.091   3.140   8.658 -0.3207  0.3211 -0.1949
 1452SOL    HW115989   0.996   3.152   8.658 -0.2936  0.4142 -2.0990
 1452SOL    HW215990   1.116   3.064   8.710 -0.0904  1.6093  1.5756
 1453SOL     OW15991   1.332   1.022  15.311 -0.0913 -0.0329 -0.1667
 1453SOL    HW115992   1.280   0.983  15.381  1.8319  1.4745  2.0678
 1453SOL    HW215993   1.350   0.942  15.261 -0.5061 -1.6871  2.3180
 1454SOL     OW15994   3.213   0.193  14.502  0.7587 -0.4319 -0.3476
 1454SOL    HW115995   3.141   0.164  14.447 -1.7367  1.8138  1.7130
 1454SOL    HW215996   3.289   0.184  14.445 -0.5370 -0.1621 -2.0981
 1455SOL     OW15997   3.495   4.026  14.672  0.2705 -0.2167  0.0767
 1455SOL    HW115998   3.577   3.977  14.680 -0.2568 -0.7757  2.1138
 1455SOL    HW215999   3.526   4.115  14.692  1.5742 -0.5182 -0.5922
 1456SOL     OW16000   4.341   0.208   4.474  0.5363 -0.1570 -0.3519
 1456SOL    HW116001   4.260   0.201   4.424  0.9736  2.7735 -1.4918
 1456SOL    HW216002   4.404   0.157   4.424  1.7323  0.2548  0.7245
 1457SOL     OW16003   0.761   1.262   5.247  0.4167  0.1271 -0.6383
 1457SOL    HW116004   0.784   1.237   5.336 -0.3499 -3.2775 -1.4071
 1457SOL    HW216005   0.738   1.353   5.265  1.9008  0.2948  0.4318
 1458SOL     OW16006   0.153   2.724   9.888 -0.6186 -0.0445  0.3167
 1458SOL    HW116007   0.139   2.818   9.874 -1.0040 -0.3729 -1.4696
 1458SOL    HW216008   0.125   2.717   9.979  1.8933  3.1928  1.3251
 1459SOL     OW16009   2.399   0.098   7.605  0.2796 -0.1435 -0.4871
 1459SOL    HW116010   2.481   0.117   7.650 -0.2634  0.5036  0.2224
 1459SOL    HW216011   2.351   0.066   7.681  0.0810 -0.6186 -0.8146
 1460SOL     OW16012   0.654   2.679   6.639  0.1837 -0.1883 -0.3089
 1460SOL    HW116013   0.729   2.717   6.592  0.8643 -2.4265 -1.0390
 1460SOL    HW216014   0.674   2.585   6.635 -0.5124 -0.3846  0.9712
 1461SOL     OW16015   1.334   0.726   6.595  0.1290  0.5866 -0.6790
 1461SOL    HW116016   1.266   0.792   6.602  1.2576  1.4626  2.0613
 1461SOL    HW216017   1.370   0.747   6.508  0.0628 -3.3139 -1.6440
 1462SOL     OW16018   0.832   1.769   8.174 -0.1303  0.0997  0.6836
 1462SOL    HW116019   0.882   1.733   8.246  3.2765  0.2706 -1.6078
 1462SOL    HW216020   0.884   1.751   8.095  0.5353  2.3686  0.6133
 1463SOL     OW16021   3.069   2.835   2.145  0.1813 -0.1979  0.0420
 1463SOL    HW116022   3.113   2.828   2.229  2.2518 -0.3294 -1.0628
 1463SOL    HW216023   3.000   2.768   2.147 -0.8350  0.8201 -0.4882
 1464SOL     OW16024   0.576   0.972   8.391 -0.3500  0.3990 -0.7767
 1464SOL    HW116025   0.651   0.922   8.359 -2.9844 -2.7393 -2.1073
 1464SOL    HW216026   0.598   1.060   8.363 -0.7195  1.6815  2.8838
 1465SOL     OW16027   1.598   4.700  13.943  0.3919  0.2774 -0.3672
 1465SOL    HW116028   1.530   4.700  13.876  0.1328  0.9759 -0.1070
 1465SOL    HW216029   1.600   0.054  13.964  0.9665  0.7047 -2.3444
 1466SOL     OW16030   4.224   3.105   1.821  0.3823 -0.5757 -0.2187
 1466SOL    HW116031   4.166   3.151   1.882  1.8247 -0.5752  1.1435
 1466SOL    HW216032   4.154   3.056   1.777 -0.6647 -0.0075  0.8516
 1467SOL     OW16033   4.289   4.511   3.313 -0.1275 -0.4721  0.3608
 1467SOL    HW116034   4.292   4.416   3.303 -0.6854 -0.0653 -3.8772
 1467SOL    HW216035   4.366   4.523   3.368  0.7323 -0.5358 -0.8153
 1468SOL     OW16036   2.937   1.981   7.684 -0.0234 -0.3239 -0.8253
 1468SOL    HW116037   2.972   1.892   7.688 -2.5457 -1.2139  1.2745
 1468SOL    HW216038   2.849   1.973   7.647 -0.6547  0.5381  0.4983
 1469SOL     OW16039   4.533   2.277  11.148 -0.0168 -0.0214 -0.1627
 1469SOL    HW116040   4.536   2.371  11.166 -4.0220  0.0663  0.0661
 1469SOL    HW216041   4.619   2.263  11.109 -0.0541 -2.3204  0.6003
 1470SOL     OW16042   4.228   0.873   6.529 -0.3340 -0.7869  1.1139
 1470SOL    HW116043   4.133   0.873   6.521 -0.2462  1.6992  0.1299
 1470SOL    HW216044   4.265   0.927   6.459  0.4320  0.3762  2.4057
 1471SOL     OW16045   3.703   3.620   6.685  0.2325  0.0601  0.3057
 1471SOL    HW116046   3.726   3.712   6.672 -0.4485 -0.0643 -1.8820
 1471SOL    HW216047   3.744   3.590   6.766 -0.7906  0.2960  0.9085
 1472SOL     OW16048   2.452   3.238   8.538 -0.4977  0.3682 -0.4834
 1472SOL    HW116049   2.357   3.222   8.539 -0.4206  0.1171  2.3977
 1472SOL    HW216050   2.478   3.197   8.455  0.6351  1.4917 -0.6823
 1473SOL     OW16051   1.086   3.514   5.118  0.6311  0.1520 -0.1116
 1473SOL    HW116052   1.114   3.605   5.127 -1.5532  1.0578 -2.4681
 1473SOL    HW216053   1.129   3.480   5.040  1.0480 -0.8709  0.5564
 1474SOL     OW16054   0.511   1.888   2.075 -0.4134  0.3145 -0.0292
 1474SOL    HW116055   0.558   1.964   2.042 -0.5018  0.2404 -0.3303
 1474SOL    HW216056   0.499   1.904   2.169  1.6460  1.0632  0.0957
 1475SOL     OW16057   1.471   0.238   4.219 -0.4967 -0.5297  0.4748
 1475SOL    HW116058   1.556   0.229   4.262  0.1390  0.9523 -0.4417
 1475SOL    HW216059   1.480   0.165   4.157  1.5132 -2.3242  2.8675
 1476SOL     OW16060   2.528   3.773   3.243 -0.1107 -0.4520 -0.1199
 1476SOL    HW116061   2.505   3.685   3.214 -2.2277  1.2948 -3.7805
 1476SOL    HW216062   2.585   3.751   3.316  0.4391  1.2081 -0.0323
 1477SOL     OW16063   3.551   1.066   3.542  0.1060  0.0799  0.3470
 1477SOL    HW116064   3.646   1.059   3.549  0.2837  0.7317 -1.3641
 1477SOL    HW216065   3.547   1.159   3.519 -0.2567  0.0605  0.3210
 1478SOL     OW16066   1.946   1.176   4.011  0.4595 -0.2034 -0.0940
 1478SOL    HW116067   2.026   1.143   4.053  1.2596  1.7127 -0.0987
 1478SOL    HW216068   1.952   1.147   3.920 -2.4885  2.6960 -1.2122
 1479SOL     OW16069   1.651   2.714   3.045  0.0823 -0.2830  0.1818
 1479SOL    HW116070   1.625   2.765   3.122 -0.0205 -1.0485  0.6568
 1479SOL    HW216071   1.569   2.718   2.996 -0.4802 -2.6671  0.9365
 1480SOL     OW16072   4.327   1.881   4.227  0.0824  0.8503 -0.0838
 1480SOL    HW116073   4.263   1.927   4.172 -1.3515 -0.9117  0.1080
 1480SOL    HW216074   4.321   1.789   4.203  2.3215 -0.1049  2.9594
 1481SOL     OW16075   3.336   4.556  17.442 -0.2054  0.1615 -0.0681
 1481SOL    HW116076   3.372   4.589  17.524  1.2432 -0.2342 -0.5330
 1481SOL    HW216077   3.341   4.644  17.405  4.6937  0.3330  0.9937
 1482SOL     OW16078   3.486   0.755   5.200 -0.6518  0.0560  0.0644
 1482SOL    HW116079   3.466   0.841   5.161  0.3184  0.6630  0.8984
 1482SOL    HW216080   3.450   0.760   5.288  0.9104  0.7170  0.6560
 1483SOL     OW16081   3.864   1.020   9.470  0.0241  0.4199  0.0087
 1483SOL    HW116082   3.847   0.933   9.433  0.6026  1.3955 -2.6200
 1483SOL    HW216083   3.948   1.032   9.426 -1.5215  0.8890 -2.8316
 1484SOL     OW16084   0.819   3.748   2.393  0.2507  0.1901  0.3623
 1484SOL    HW116085   0.805   3.712   2.480 -0.1580  2.2201  1.1278
 1484SOL    HW216086   0.736   3.728   2.349 -0.3348  0.9114  1.1380
 1485SOL     OW16087   2.500   1.079   8.477  0.2835  0.1373  0.4954
 1485SOL    HW116088   2.505   1.016   8.405 -0.0570 -0.9432  1.4144
 1485SOL    HW216089   2.572   1.138   8.453  1.2456 -1.6553 -1.0605
 1486SOL     OW16090   0.327   3.630  15.411  0.4188  0.3479 -0.4297
 1486SOL    HW116091   0.328   3.724  15.429  0.4382  0.0034  1.3266
 1486SOL    HW216092   0.408   3.607  15.365  1.6451  1.3674  1.2246
 1487SOL     OW16093   2.058   3.035   5.952  0.1297  0.5576 -0.0107
 1487SOL    HW116094   1.978   3.087   5.947 -0.9983 -1.3715 -1.6107
 1487SOL    HW216095   2.033   2.952   5.992 -1.6617  1.0432 -0.1247
 1488SOL     OW16096   1.645   4.315   4.617 -0.1740  0.1751  0.8180
 1488SOL    HW116097   1.608   4.228   4.623  1.1009 -0.3341  1.2877
 1488SOL    HW216098   1.663   4.328   4.710 -0.8164  1.3034  0.7828
 1489SOL     OW16099   2.140   2.421   3.725 -0.0014 -0.4422  0.2451
 1489SOL    HW116100   2.174   2.469   3.649  0.2206  1.3991  1.5206
 1489SOL    HW216101   2.212   2.366   3.755  0.8028  0.0839 -0.6969
 1490SOL     OW16102   0.525   1.112  10.782  0.9003 -0.1623 -0.0740
 1490SOL    HW116103   0.451   1.122  10.722  0.5388 -0.5249  0.3135
 1490SOL    HW216104   0.590   1.074  10.723  0.4372  1.5000 -1.6558
 1491SOL     OW16105   4.048   2.707   4.821  0.2605 -0.5560 -0.2916
 1491SOL    HW116106   3.952   2.701   4.820  0.2934 -1.1630  0.1400
 1491SOL    HW216107   4.071   2.622   4.858  1.1795 -0.4551 -0.6201
 1492SOL     OW16108   2.347   1.070  10.337 -0.5893  0.2047  0.1927
 1492SOL    HW116109   2.346   1.024  10.253  0.1964 -0.5787  0.6145
 1492SOL    HW216110   2.430   1.029  10.361 -0.8638 -0.5939 -0.2223
 1493SOL     OW16111   4.155   4.029   2.453  0.2169 -0.3670 -0.2850
 1493SOL    HW116112   4.110   4.029   2.538 -2.3996 -2.3645 -1.6467
 1493SOL    HW216113   4.161   4.123   2.440 -0.0116 -0.4333 -0.8612
 1494SOL     OW16114   2.764   0.185   3.361 -0.7883  0.2377  0.3870
 1494SOL    HW116115   2.857   0.166   3.370 -0.4504  1.0921 -1.2010
 1494SOL    HW216116   2.753   0.156   3.270 -2.4133  0.8844  0.3694
 1495SOL     OW16117   1.970   4.518   7.733 -0.2704 -0.0569  0.3057
 1495SOL    HW116118   2.046   4.532   7.677 -1.8788  1.5332 -1.4656
 1495SOL    HW216119   2.010   4.477   7.810  0.7794  1.0265  0.3272
 1496SOL     OW16120   3.020   2.728   4.829 -0.0249 -1.5269  0.4938
 1496SOL    HW116121   3.101   2.710   4.782 -1.4933 -2.6492 -1.6232
 1496SOL    HW216122   3.023   2.824   4.836 -0.1315 -1.5669  1.0614
 1497SOL     OW16123   1.608   0.736   1.452  0.1542 -0.1597  0.0578
 1497SOL    HW116124   1.556   0.812   1.477  0.4175  0.1414 -0.3130
 1497SOL    HW216125   1.553   0.659   1.437 -0.6563 -0.0905  2.6172
 1498SOL     OW16126   1.716   4.066   2.199 -0.2152 -0.0985  0.0413
 1498SOL    HW116127   1.801   4.096   2.165 -1.0739  1.2431 -0.9343
 1498SOL    HW216128   1.750   4.003   2.263 -1.2442 -0.7518 -0.0532
 1499SOL     OW16129   2.667   2.298   2.209  0.4255 -0.1575 -0.8682
 1499SOL    HW116130   2.755   2.327   2.185  0.6121  0.4404  0.5779
 1499SOL    HW216131   2.617   2.326   2.132 -0.3024  3.8586  1.1278
 1500SOL     OW16132   3.931   4.714   4.396 -0.1873  0.8871  0.0624
 1500SOL    HW116133   3.882   4.685   4.319 -0.4112 -1.0366  0.9294
 1500SOL    HW216134   3.861   4.703   4.461  0.2022 -0.2556  0.2936
 1501SOL     OW16135   4.272   1.207  10.145  0.0457  0.1992 -0.1145
 1501SOL    HW116136   4.195   1.242  10.100 -2.0277 -3.6873  0.4238
 1501SOL    HW216137   4.291   1.283  10.200 -0.3070  0.0354  0.2271
 1502SOL     OW16138   0.588   0.236   2.991 -0.0887 -0.3578 -1.0859
 1502SOL    HW116139   0.565   0.242   3.083  1.3933 -0.5042 -0.6940
 1502SOL    HW216140   0.551   0.320   2.964 -3.8976 -1.5592  0.4048
 1503SOL     OW16141   0.181   3.938   7.356  0.2640 -0.3572 -0.3207
 1503SOL    HW116142   0.223   3.977   7.279 -1.7000  2.9218  0.2501
 1503SOL    HW216143   0.224   3.993   7.422 -0.5837  0.0343 -0.0879
 1504SOL     OW16144   1.593   3.593   5.351 -0.4786  0.1290  0.2654
 1504SOL    HW116145   1.596   3.625   5.261 -1.7669 -2.2232 -0.6130
 1504SOL    HW216146   1.562   3.503   5.342 -0.6610  0.2629 -0.4966
 1505SOL     OW16147   3.023   4.384   0.272  0.2751 -0.5034  0.2233
 1505SOL    HW116148   3.085   4.420   0.209 -0.5819  1.4187  0.4676
 1505SOL    HW216149   2.969   4.338   0.208  0.0953  2.2693 -1.6440
 1506SOL     OW16150   4.106   0.413  13.164 -0.5334  0.0130  0.2585
 1506SOL    HW116151   4.133   0.470  13.236 -1.0058 -1.6844  1.7827
 1506SOL    HW216152   4.188   0.369  13.143 -1.0122  0.1913 -1.8948
 1507SOL     OW16153   1.504   3.572   7.456 -0.9319  0.4603  0.3012
 1507SOL    HW116154   1.462   3.494   7.421  1.1592 -0.1607 -0.8380
 1507SOL    HW216155   1.459   3.593   7.538  2.6524 -0.0383  2.4048
 1508SOL     OW16156   1.450   0.370  10.448  0.4290  0.5055  0.1152
 1508SOL    HW116157   1.528   0.389  10.501  1.3430  0.0851 -1.0938
 1508SOL    HW216158   1.440   0.462  10.425  3.1897  1.4821  2.7881
 1509SOL     OW16159   1.393   2.015   4.302 -0.2114 -0.3430  0.0492
 1509SOL    HW116160   1.310   2.055   4.328 -0.1511  0.4871 -1.0244
 1509SOL    HW216161   1.451   2.090   4.288 -0.8095  0.1224  0.0649
 1510SOL     OW16162   4.589   4.347   4.150  0.4689 -0.4062  0.1963
 1510SOL    HW116163   4.579   4.421   4.211 -0.0341  0.2925 -0.7305
 1510SOL    HW216164   4.608   4.391   4.068 -0.6748  0.0208  0.1635
 1511SOL     OW16165   0.195   2.549   6.330  0.0971  0.4901 -0.3317
 1511SOL    HW116166   0.168   2.514   6.415 -1.7728  0.9614 -0.7314
 1511SOL    HW216167   0.131   2.616   6.308  0.4330  0.9722  0.1558
 1512SOL     OW16168   3.767   4.319   5.367 -0.2290  0.7669  0.1609
 1512SOL    HW116169   3.788   4.231   5.335  2.0382  0.8290  1.5105
 1512SOL    HW216170   3.821   4.374   5.311  2.3897 -1.1431  0.8304
 1513SOL     OW16171   0.352   3.270  13.889  0.1691  0.5963 -0.0762
 1513SOL    HW116172   0.434   3.316  13.876  1.5088 -1.3072  1.5766
 1513SOL    HW216173   0.387   3.189  13.927 -0.5218  0.2646 -0.1442
 1514SOL     OW16174   0.543   2.889   3.439 -0.1819 -0.6972 -0.1102
 1514SOL    HW116175   0.555   2.828   3.367 -0.0108  0.1986 -0.8410
 1514SOL    HW216176   0.462   2.858   3.480 -0.1834  0.4499  0.7489
 1515SOL     OW16177   2.818   3.852   1.270 -0.0892 -0.1031 -0.0533
 1515SOL    HW116178   2.752   3.891   1.327  1.1692  0.0948  1.2355
 1515SOL    HW216179   2.817   3.923   1.205 -1.4694 -1.9667 -2.0639
 1516SOL     OW16180   3.923   4.523   6.011 -0.4348 -0.3400 -0.0046
 1516SOL    HW116181   3.875   4.539   5.930  0.2803 -1.6408 -0.6674
 1516SOL    HW216182   3.952   4.432   6.005  1.5384  0.2990 -0.1610
 1517SOL     OW16183   0.966   3.375   2.434 -0.4193 -0.6115  0.2883
 1517SOL    HW116184   1.034   3.436   2.407  0.8821 -1.7337  1.0512
 1517SOL    HW216185   0.894   3.408   2.380  1.1841 -1.8761 -2.5927
 1518SOL     OW16186   4.356   2.704   7.657 -0.2643  0.0589 -0.1243
 1518SOL    HW116187   4.425   2.712   7.723  0.0847 -0.4896 -0.4271
 1518SOL    HW216188   4.357   2.791   7.616  0.5119 -0.6783 -1.6312
 1519SOL     OW16189   0.581   3.912   4.713 -0.7054  0.1965  0.5005
 1519SOL    HW116190   0.626   3.828   4.713  0.2330  0.7089 -0.5291
 1519SOL    HW216191   0.628   3.960   4.781  0.4426  2.5183 -1.9372
 1520SOL     OW16192   1.370   2.775   0.307 -0.1596 -0.4836  0.2984
 1520SOL    HW116193   1.441   2.733   0.259  0.6490  0.4766  0.6391
 1520SOL    HW216194   1.407   2.795   0.393  0.6859  2.7423 -0.8258
 1521SOL     OW16195   0.277   4.036   2.810  0.0207  0.1840  0.1123
 1521SOL    HW116196   0.229   4.118   2.822 -0.4922  0.2925 -2.6620
 1521SOL    HW216197   0.365   4.074   2.813  0.6835 -1.4450  1.7461
 1522SOL     OW16198   0.804   2.017   8.896 -0.3440 -0.3378 -0.1042
 1522SOL    HW116199   0.879   2.045   8.948 -0.0646  1.1431 -1.3127
 1522SOL    HW216200   0.728   2.020   8.954  0.9508  1.8248  1.4463
 1523SOL     OW16201   1.277   1.496   5.915  0.1704  0.2472  0.1728
 1523SOL    HW116202   1.365   1.533   5.908  0.9491 -1.9863 -2.0299
 1523SOL    HW216203   1.238   1.559   5.975 -2.6425  0.4100 -1.7903
 1524SOL     OW16204   0.856   2.530   9.577  0.7811 -0.0471  0.1935
 1524SOL    HW116205   0.795   2.456   9.569  0.2883  0.5079 -1.2008
 1524SOL    HW216206   0.814   2.607   9.539  2.0489 -0.0199 -1.1299
 1525SOL     OW16207   0.378   2.488   2.050  0.1701  1.1212  0.3661
 1525SOL    HW116208   0.308   2.531   2.000 -0.4001 -0.9160 -0.5937
 1525SOL    HW216209   0.386   2.551   2.122 -0.7394 -0.3236  1.7363
 1526SOL     OW16210   2.248   1.549   9.375 -0.2974 -0.5959 -0.1266
 1526SOL    HW116211   2.233   1.458   9.401 -0.5865 -0.5694 -0.1989
 1526SOL    HW216212   2.331   1.575   9.416 -0.7949 -1.4180  1.3655
 1527SOL     OW16213   4.329   1.542   7.163 -0.3038 -0.1973 -0.3725
 1527SOL    HW116214   4.343   1.455   7.126 -3.4926 -0.8864  0.0479
 1527SOL    HW216215   4.327   1.599   7.086  2.9132  1.2767  0.6306
 1528SOL     OW16216   3.478   2.320   6.141 -0.6455  0.0718  0.1115
 1528SOL    HW116217   3.550   2.366   6.185 -0.4234  0.0983 -0.2817
 1528SOL    HW216218   3.522   2.248   6.096 -0.0153  1.2968 -1.2542
 1529SOL     OW16219   3.188   1.586   8.411  0.4809  0.1751 -0.3215
 1529SOL    HW116220   3.093   1.577   8.396  1.0965 -1.5416 -3.2060
 1529SOL    HW216221   3.199   1.681   8.416 -2.3724  0.5729 -1.5086
 1530SOL     OW16222   2.051   4.630   6.558 -0.4024  0.3123  0.0704
 1530SOL    HW116223   1.957   4.614   6.569 -0.1563  0.2107  1.9920
 1530SOL    HW216224   2.073   4.658   6.646  2.3347  0.3609 -0.6365
 1531SOL     OW16225   0.139   4.357  14.414  0.5539 -0.1650  0.4358
 1531SOL    HW116226   0.167   4.433  14.364 -0.4866  1.5059  2.3702
 1531SOL    HW216227   0.052   4.383  14.445 -0.2702 -1.3687 -0.8555
 1532SOL     OW16228   3.396   4.722  14.944  0.5241  0.6661 -0.1681
 1532SOL    HW116229   3.339   4.650  14.917 -0.8472  2.2501 -1.5125
 1532SOL    HW216230   3.345   4.737  15.024  2.3527 -1.3722  1.3970
 1533SOL     OW16231   3.550   2.848   7.336  0.3481  0.3990 -0.2541
 1533SOL    HW116232   3.530   2.778   7.398  2.3584  0.2866  0.2699
 1533SOL    HW216233   3.628   2.883   7.379 -0.0712  0.8503  0.1326
 1534SOL     OW16234   0.423   3.340  17.053  0.4181  0.0728 -0.0781
 1534SOL    HW116235   0.445   3.388  17.133  0.7811  0.9467 -0.7013
 1534SOL    HW216236   0.428   3.412  16.991 -0.1612  0.2211  0.0388
 1535SOL     OW16237   3.967   0.397   5.048  0.3109  0.3027 -0.3457
 1535SOL    HW116238   3.980   0.350   4.966 -2.3605  1.8156 -1.6220
 1535SOL    HW216239   3.916   0.334   5.100  0.2242  0.8317  0.2068
 1536SOL     OW16240   3.789   0.322   6.321  0.5405 -0.1122 -0.0503
 1536SOL    HW116241   3.749   0.409   6.330 -1.0745 -0.7647 -0.9571
 1536SOL    HW216242   3.883   0.340   6.323  0.3877  0.8437 -1.1992
 1537SOL     OW16243   3.817   3.952  11.055 -0.1658 -0.3786 -0.5405
 1537SOL    HW116244   3.906   3.977  11.078 -0.1185 -0.4034 -0.6927
 1537SOL    HW216245   3.827   3.857  11.045 -0.8817 -0.3730 -1.3749
 1538SOL     OW16246   0.452   3.544   8.874  0.0103  0.4322  0.1884
 1538SOL    HW116247   0.393   3.496   8.815  0.5441 -0.5442  0.4420
 1538SOL    HW216248   0.440   3.633   8.843  0.2542  0.4439  0.1300
 1539SOL     OW16249   4.081   1.920   1.585  0.2270  0.9833  0.5854
 1539SOL    HW116250   4.121   1.889   1.503 -2.0524 -0.7607  0.1394
 1539SOL    HW216251   4.043   2.000   1.547 -2.1609 -0.2067  0.4730
 1540SOL     OW16252   3.315   3.564   6.939  0.2349 -0.3933 -0.4838
 1540SOL    HW116253   3.361   3.643   6.910 -1.2442  0.4898 -0.4086
 1540SOL    HW216254   3.358   3.534   7.019  0.5136  1.3760  0.0119
 1541SOL     OW16255   3.067   0.409  10.945 -0.0917  0.2282  0.0791
 1541SOL    HW116256   2.992   0.451  10.987  0.4646  0.8297  0.4789
 1541SOL    HW216257   3.140   0.457  10.986  2.4122 -1.1096 -2.8144
 1542SOL     OW16258   3.179   2.012   6.320  0.7196  0.4399 -0.1045
 1542SOL    HW116259   3.231   1.985   6.244  0.5135  0.3962 -0.2292
 1542SOL    HW216260   3.218   2.096   6.343  0.7656  0.5882 -0.7151
 1543SOL     OW16261   0.542   4.190   7.249  0.0002  0.0316  0.7293
 1543SOL    HW116262   0.607   4.128   7.216 -1.4495 -0.8109 -0.5997
 1543SOL    HW216263   0.462   4.156   7.208  0.8121 -1.3232  0.2486
 1544SOL     OW16264   3.398   4.157   6.716 -0.1364 -0.0837  0.3020
 1544SOL    HW116265   3.409   4.200   6.801  0.8549  1.7658 -0.7585
 1544SOL    HW216266   3.306   4.175   6.695 -0.5269  0.5441  2.5989
 1545SOL     OW16267   0.354   0.872  10.094 -0.0168  0.0844  0.1441
 1545SOL    HW116268   0.430   0.870  10.036 -0.9482 -1.0681 -1.0246
 1545SOL    HW216269   0.349   0.968  10.102  0.5817  0.1612 -0.3860
 1546SOL     OW16270   2.763   3.990  15.697  0.2874 -0.3045 -0.1124
 1546SOL    HW116271   2.848   3.947  15.704  0.3273 -0.5263 -2.0260
 1546SOL    HW216272   2.734   3.974  15.787  2.5452  0.7629  0.8039
 1547SOL     OW16273   4.294   1.077  12.951 -0.0419  0.1299  0.3467
 1547SOL    HW116274   4.280   0.984  12.964  0.4203  0.1313  0.8569
 1547SOL    HW216275   4.222   1.102  13.009  0.5391  1.5076  0.4861
 1548SOL     OW16276   2.601   3.604   7.928  1.0072 -0.0728  0.0797
 1548SOL    HW116277   2.582   3.671   7.862  1.9235  2.4719  2.3927
 1548SOL    HW216278   2.531   3.628   7.988  1.8538  1.9837  0.2399
 1549SOL     OW16279   1.694   1.800   9.629 -0.0516  0.0731 -0.2361
 1549SOL    HW116280   1.781   1.832   9.652 -1.0922  1.6597  1.4493
 1549SOL    HW216281   1.713   1.747   9.551 -2.7614 -0.9690 -0.1991
 1550SOL     OW16282   2.968   0.817   9.100 -0.1536  0.1924  0.5915
 1550SOL    HW116283   2.887   0.794   9.146  0.0754 -0.7918  0.4973
 1550SOL    HW216284   3.018   0.736   9.099 -0.8195 -0.1979 -1.1802
 1551SOL     OW16285   4.183   3.396  17.730 -0.2993  0.2708  0.2959
 1551SOL    HW116286   4.150   3.311   0.005 -1.4244  1.1478  1.6186
 1551SOL    HW216287   4.102   3.446  17.743 -0.5686 -0.0906  0.0003
 1552SOL     OW16288   4.083   1.176  11.210  0.2545 -0.4240 -0.0665
 1552SOL    HW116289   4.153   1.111  11.204 -0.5426 -1.2301 -0.6170
 1552SOL    HW216290   4.050   1.175  11.300  1.5237  1.5822  0.4266
 1553SOL     OW16291   2.189   2.867   4.875 -0.1384  0.0337 -0.1050
 1553SOL    HW116292   2.199   2.906   4.788 -0.5885 -0.8608 -0.5559
 1553SOL    HW216293   2.273   2.823   4.888  0.9172  1.3538 -2.3897
 1554SOL     OW16294   4.437   0.962   2.626 -0.1780 -0.1322  0.2036
 1554SOL    HW116295   4.350   0.944   2.590  0.0804 -1.7324  0.3786
 1554SOL    HW216296   4.483   0.881   2.603  0.1687  0.6008 -1.6578
 1555SOL     OW16297   1.026   1.042   5.632  0.1261 -0.2798 -0.4059
 1555SOL    HW116298   1.063   0.953   5.635  0.3690 -0.1440  0.6665
 1555SOL    HW216299   0.943   1.018   5.674 -0.8135  1.4454 -1.2878
 1556SOL     OW16300   2.513   1.182   3.313  0.3820  0.6549 -0.7564
 1556SOL    HW116301   2.437   1.239   3.323 -0.8374 -1.1878  0.4916
 1556SOL    HW216302   2.482   1.102   3.272 -0.6619  0.0836  1.1564
 1557SOL     OW16303   1.198   1.914   4.667 -0.2538  0.2117  0.6334
 1557SOL    HW116304   1.222   1.827   4.636  1.9761  2.0456 -2.7301
 1557SOL    HW216305   1.284   1.926   4.706 -0.3948  0.8324  0.7566
 1558SOL     OW16306   2.603   0.122  14.122  0.3550  0.3558  0.1605
 1558SOL    HW116307   2.572   0.204  14.084  1.4088  0.5598 -0.2761
 1558SOL    HW216308   2.646   0.069  14.055 -2.4802  0.0575 -1.4143
 1559SOL     OW16309   4.107   2.565   6.057 -0.0410 -0.1850  0.6011
 1559SOL    HW116310   4.171   2.545   5.990 -0.9172  0.2403 -0.3720
 1559SOL    HW216311   4.056   2.637   6.019 -1.1903 -1.9735 -1.2276
 1560SOL     OW16312   4.534   4.662   4.116 -0.1428  0.2799 -0.2604
 1560SOL    HW116313   4.563   4.640   4.027  0.2376 -0.0819 -0.0488
 1560SOL    HW216314   4.593   4.734   4.139  1.5599 -0.8518 -1.0367
 1561SOL     OW16315   0.470   2.126  14.139 -0.2561 -0.0520 -0.2983
 1561SOL    HW116316   0.464   2.205  14.085 -0.9577 -0.0106 -0.1509
 1561SOL    HW216317   0.554   2.136  14.184 -0.2291 -1.9856  0.0834
 1562SOL     OW16318   0.934   4.129  10.055 -0.2583 -0.8474  0.7426
 1562SOL    HW116319   0.901   4.129  10.145 -3.8515  1.4514 -0.5598
 1562SOL    HW216320   0.859   4.081  10.018  0.5423 -1.9644  0.5510
 1563SOL     OW16321   2.048   1.863  11.169 -0.0157 -0.4368  0.4075
 1563SOL    HW116322   2.016   1.818  11.091 -1.4035  1.0482  0.1146
 1563SOL    HW216323   1.996   1.810  11.230  2.4348  0.2366  3.0428
 1564SOL     OW16324   3.904   0.883   4.225 -0.3715 -0.2059  0.0281
 1564SOL    HW116325   3.964   0.905   4.154  0.1816  2.8542  1.4458
 1564SOL    HW216326   3.909   0.959   4.283 -1.3421 -0.1278  0.0075
 1565SOL     OW16327   4.401   2.099   7.947  0.2956 -0.1034 -0.0469
 1565SOL    HW116328   4.353   2.075   8.026 -1.7439 -1.2992 -1.6409
 1565SOL    HW216329   4.468   2.156   7.985  0.5492  0.9335 -2.0388
 1566SOL     OW16330   0.645   1.918  11.807 -0.1609 -0.4616  0.1363
 1566SOL    HW116331   0.689   1.999  11.783  1.6483 -1.0584  1.4569
 1566SOL    HW216332   0.691   1.885  11.884 -0.6124  0.8220  0.9451
 1567SOL     OW16333   2.889   2.642  15.616  0.0426  0.6099 -0.2136
 1567SOL    HW116334   2.943   2.716  15.589  0.0018  0.5795 -0.3812
 1567SOL    HW216335   2.825   2.696  15.663  0.9379  1.4525  0.0237
 1568SOL     OW16336   2.608   3.641  14.797 -0.9186 -0.0896 -0.3697
 1568SOL    HW116337   2.637   3.705  14.732  0.5422 -0.7219 -0.3503
 1568SOL    HW216338   2.544   3.582  14.757 -0.5985 -2.0969  2.0488
 1569SOL     OW16339   4.156   0.285   9.742  0.1003  1.2222 -0.0985
 1569SOL    HW116340   4.225   0.264   9.679  1.0914  1.8556  0.7848
 1569SOL    HW216341   4.202   0.289   9.825  0.3770  2.4377 -0.3094
 1570SOL     OW16342   0.854   0.971   4.358  0.2686 -0.2395  0.0597
 1570SOL    HW116343   0.934   0.946   4.312 -0.4485 -2.0671 -0.1836
 1570SOL    HW216344   0.801   0.989   4.280  0.1594  0.1862  0.2313
 1571SOL     OW16345   0.257   0.530   6.780 -0.3079 -0.1101 -0.5010
 1571SOL    HW116346   0.219   0.579   6.707 -1.7994  0.2094  0.4941
 1571SOL    HW216347   0.343   0.572   6.773 -1.7895  2.0684 -5.6962
 1572SOL     OW16348   1.753   1.599   2.216 -0.2491  0.5579 -0.5841
 1572SOL    HW116349   1.690   1.547   2.166 -1.2303  1.4521 -0.2784
 1572SOL    HW216350   1.766   1.669   2.151 -1.0633  0.4171 -0.8915
 1573SOL     OW16351   4.376   1.573  15.409  0.5011 -0.3816 -0.3040
 1573SOL    HW116352   4.379   1.505  15.476 -1.5115 -1.0618 -0.8977
 1573SOL    HW216353   4.358   1.651  15.462 -0.6457 -1.6934  1.2488
 1574SOL     OW16354   3.406   2.234   1.810  0.2066 -0.0515  0.7179
 1574SOL    HW116355   3.487   2.189   1.833  1.1285  1.0703 -0.3650
 1574SOL    HW216356   3.433   2.321   1.781 -0.0855  0.2796  1.4410
 1575SOL     OW16357   4.739   1.097   7.115  0.2194 -0.2971  0.1105
 1575SOL    HW116358   0.055   1.076   7.190  0.4215  1.5220  0.4648
 1575SOL    HW216359   0.074   1.094   7.054  1.3031  0.1337  1.4231
 1576SOL     OW16360   4.507   4.451   8.861  0.3662  0.4476 -0.4662
 1576SOL    HW116361   4.512   4.521   8.926  2.0163 -1.3259  1.2935
 1576SOL    HW216362   4.502   4.500   8.779  1.1460 -0.0270 -0.8003
 1577SOL     OW16363   1.366   0.265   2.646  0.1415 -0.2767 -0.0769
 1577SOL    HW116364   1.457   0.289   2.630 -0.1118  0.8860  0.2396
 1577SOL    HW216365   1.336   0.281   2.556  0.2042  0.3279  0.0127
 1578SOL     OW16366   3.700   3.240   4.306 -0.3630  0.9297  0.0461
 1578SOL    HW116367   3.760   3.170   4.334 -0.0587  1.0612 -0.2748
 1578SOL    HW216368   3.648   3.252   4.385  0.2984  1.1852  0.4483
 1579SOL     OW16369   0.104   0.588   7.968 -0.1650 -0.2922 -0.1562
 1579SOL    HW116370   0.160   0.661   7.993 -1.8200  1.5866 -1.8647
 1579SOL    HW216371   0.167   0.535   7.920  0.6940  0.4954  0.1058
 1580SOL     OW16372   1.269   4.528   9.512  0.0030 -0.2209  0.5945
 1580SOL    HW116373   1.312   4.579   9.443  1.6887 -1.9728  0.3490
 1580SOL    HW216374   1.335   4.465   9.541  2.7835  2.5416  0.2914
 1581SOL     OW16375   1.940   0.029   0.987 -0.4476  0.2014 -0.0482
 1581SOL    HW116376   1.952   0.077   0.905  1.1246 -0.2496 -0.0995
 1581SOL    HW216377   1.978   4.681   0.973  0.8934  0.7999 -0.1259
 1582SOL     OW16378   0.728   0.477  16.690  0.1922 -0.5032 -0.0050
 1582SOL    HW116379   0.730   0.559  16.641 -1.5539  0.1176  0.9821
 1582SOL    HW216380   0.634   0.470  16.708  0.5275 -2.6868  0.9499
 1583SOL     OW16381   0.233   3.247   3.523  0.3202 -0.1353  0.0228
 1583SOL    HW116382   0.217   3.240   3.429  1.0274  0.9764 -0.1697
 1583SOL    HW216383   0.311   3.301   3.533  0.2238 -0.2606  1.4905
 1584SOL     OW16384   1.010   1.590   4.565  0.0175  0.2142 -0.4331
 1584SOL    HW116385   1.099   1.588   4.599 -0.2142  0.7266  0.2062
 1584SOL    HW216386   1.013   1.666   4.506 -0.1767  1.0824  0.6816
 1585SOL     OW16387   3.078   0.584   1.439  0.9093  0.2063  0.4743
 1585SOL    HW116388   2.995   0.558   1.478  0.3943  2.0673  0.6269
 1585SOL    HW216389   3.041   0.644   1.373  0.6882  0.4845  0.8485
 1586SOL     OW16390   2.060   1.689  16.155  0.2979  0.0015  0.5487
 1586SOL    HW116391   1.967   1.693  16.132  0.6451  2.6549 -0.4058
 1586SOL    HW216392   2.089   1.771  16.115 -1.5763  1.1650  1.5838
 1587SOL     OW16393   1.398   3.721   7.874 -0.0602  0.1850 -0.1987
 1587SOL    HW116394   1.481   3.765   7.891 -0.1505  0.6101 -0.8758
 1587SOL    HW216395   1.339   3.795   7.891  0.3742  0.2355  1.0911
 1588SOL     OW16396   4.205   1.185  13.567 -0.3322 -0.1826  0.7144
 1588SOL    HW116397   4.294   1.218  13.562 -0.2386 -0.1676  2.6766
 1588SOL    HW216398   4.181   1.167  13.476  0.4122  2.3220  0.0228
 1589SOL     OW16399   0.491   2.771   8.996 -0.0351  0.4243  0.6152
 1589SOL    HW116400   0.455   2.816   9.072 -0.3475  0.8150  0.2353
 1589SOL    HW216401   0.506   2.857   8.957 -1.4135 -0.0407 -0.9913
 1590SOL     OW16402   1.158   1.658  15.508 -0.6209  0.5991 -0.3914
 1590SOL    HW116403   1.133   1.663  15.600 -0.0800 -0.2885 -0.1913
 1590SOL    HW216404   1.233   1.598  15.509 -0.9534  0.1706 -1.3602
 1591SOL     OW16405   1.661   1.089   7.434  0.0269  0.2506 -0.5651
 1591SOL    HW116406   1.568   1.105   7.443 -0.3402 -2.0023 -0.3742
 1591SOL    HW216407   1.657   1.124   7.345 -3.3297 -2.2692 -1.3691
 1592SOL     OW16408   1.560   3.820   7.351  0.3899  0.0031  0.2655
 1592SOL    HW116409   1.593   3.733   7.377  0.5757 -0.2957 -0.9943
 1592SOL    HW216410   1.501   3.826   7.427  0.2203  0.9082  0.0533
 1593SOL     OW16411   0.702   0.017   5.849 -0.2424  0.2054  0.2256
 1593SOL    HW116412   0.695   0.113   5.855 -0.2354  0.1841  0.5677
 1593SOL    HW216413   0.772   0.003   5.785 -0.6414  0.9902 -0.3957
 1594SOL     OW16414   1.900   1.320   2.343  0.0160 -0.1404  0.4441
 1594SOL    HW116415   1.875   1.391   2.284 -1.6523 -1.4102 -0.3619
 1594SOL    HW216416   1.891   1.361   2.429 -1.7681  0.2212  0.0847
 1595SOL     OW16417   4.193   3.140   6.941 -0.4166  0.6733  0.8122
 1595SOL    HW116418   4.180   3.222   6.988  2.7392  1.6839 -0.0909
 1595SOL    HW216419   4.267   3.175   6.893 -0.1011 -2.4849 -1.0058
 1596SOL     OW16420   3.975   3.635   8.200 -0.2084 -0.2778  0.2845
 1596SOL    HW116421   4.031   3.567   8.237  2.4037  1.5566 -0.2744
 1596SOL    HW216422   4.026   3.677   8.131 -0.9769  0.7201  0.3288
 1597SOL     OW16423   1.954   3.834   4.935  0.0474  0.5317  0.3958
 1597SOL    HW116424   2.043   3.799   4.941 -0.0496  0.6563  2.4188
 1597SOL    HW216425   1.918   3.775   4.868  3.6008 -1.5821  0.3805
 1598SOL     OW16426   4.554   3.072   2.476  0.6688 -0.3754  0.2806
 1598SOL    HW116427   4.642   3.106   2.464  0.2548  0.1802 -1.2004
 1598SOL    HW216428   4.535   3.038   2.388  0.2128 -2.2368  1.0871
 1599SOL     OW16429   2.274   2.216   6.349  0.4931  0.3132  0.2009
 1599SOL    HW116430   2.357   2.199   6.393  0.3036  0.5040  0.6286
 1599SOL    HW216431   2.274   2.140   6.291  0.6653  0.9219 -0.6098
 1600SOL     OW16432   3.424   1.968   3.731  0.1548  0.0527  0.5341
 1600SOL    HW116433   3.437   2.017   3.650 -4.2654 -0.1832 -0.2927
 1600SOL    HW216434   3.494   1.903   3.727 -0.5574 -0.8160  1.9798
 1601SOL     OW16435   3.220   0.702  10.192 -0.5178  0.0733  0.6227
 1601SOL    HW116436   3.233   0.691  10.098  0.6752 -2.3232  1.0659
 1601SOL    HW216437   3.304   0.678  10.232 -1.0304 -0.1029  1.6035
 1602SOL     OW16438   4.484   0.235   3.308  0.2457 -0.1224 -0.1754
 1602SOL    HW116439   4.408   0.180   3.324  1.1727 -1.2794  0.3142
 1602SOL    HW216440   4.492   0.221   3.213  3.3104  2.3506 -0.2853
 1603SOL     OW16441   2.114   3.982  12.457 -0.1447 -0.3736 -0.2726
 1603SOL    HW116442   2.142   3.983  12.366 -2.2266  0.6252 -0.8995
 1603SOL    HW216443   2.022   4.004  12.445 -0.0378  0.9086  1.3213
 1604SOL     OW16444   4.435   2.466   9.573 -0.5673  0.1433  0.3596
 1604SOL    HW116445   4.358   2.424   9.612 -0.1527 -0.3968  0.6034
 1604SOL    HW216446   4.420   2.558   9.593 -1.9844  0.5825 -2.7964
 1605SOL     OW16447   4.722   0.835  14.804 -0.2028 -0.2651  0.0377
 1605SOL    HW116448   4.641   0.793  14.832 -0.1414  0.9501  2.0078
 1605SOL    HW216449   0.038   0.757  14.791 -1.8344 -1.2047 -1.2735
 1606SOL     OW16450   4.549   4.148   3.189  0.1164  0.3116 -0.5444
 1606SOL    HW116451   4.487   4.198   3.241  2.2752  3.4100 -0.9242
 1606SOL    HW216452   4.611   4.145   3.261 -0.0576 -0.5864 -0.4424
 1607SOL     OW16453   4.427   3.569   3.299  0.5065 -0.3768  0.1922
 1607SOL    HW116454   4.415   3.657   3.334  0.0249  0.1159 -1.2422
 1607SOL    HW216455   4.493   3.525   3.353 -1.2314 -1.9903  0.9993
 1608SOL     OW16456   3.023   4.648   0.694  0.5233  0.3383 -0.2700
 1608SOL    HW116457   3.042   4.616   0.782 -0.5862  0.3810 -0.0103
 1608SOL    HW216458   2.978   4.577   0.647  0.7067 -1.4685  2.2770
 1609SOL     OW16459   3.339   2.151   3.263  0.1072  0.4881 -0.6682
 1609SOL    HW116460   3.391   2.128   3.186  1.3589 -0.7605  0.5583
 1609SOL    HW216461   3.264   2.200   3.229 -0.6363 -0.4653 -0.4334
 1610SOL     OW16462   2.194   4.520  11.026 -0.0916  0.3956  0.1421
 1610SOL    HW116463   2.246   4.595  10.996 -1.1279  1.0679  0.0315
 1610SOL    HW216464   2.150   4.495  10.945  1.7612 -1.8431 -0.1669
 1611SOL     OW16465   4.329   0.617   3.977  0.5667 -0.4617 -0.2756
 1611SOL    HW116466   4.256   0.602   4.038  1.1968 -0.5263  0.4579
 1611SOL    HW216467   4.308   0.559   3.904  2.4622 -1.3557 -0.0922
 1612SOL     OW16468   2.281   2.703   8.015  0.1593 -0.3670 -0.0595
 1612SOL    HW116469   2.313   2.707   7.925 -2.5523  1.1438 -0.9675
 1612SOL    HW216470   2.288   2.796   8.038  0.5185 -0.3854 -0.0944
 1613SOL     OW16471   3.314   2.835   6.027  0.1952  0.1651  0.0276
 1613SOL    HW116472   3.299   2.929   6.013  2.0685 -0.1652 -4.0171
 1613SOL    HW216473   3.409   2.836   6.041 -0.0422  1.1340  1.5946
 1614SOL     OW16474   1.338   0.126   9.603  0.3678  0.6874 -0.4764
 1614SOL    HW116475   1.320   0.059   9.669  0.8432  1.0241  0.0033
 1614SOL    HW216476   1.292   0.204   9.637 -1.1551  0.0878 -1.1977
 1615SOL     OW16477   3.636   3.955   2.999 -0.0819 -0.2031  0.1943
 1615SOL    HW116478   3.641   4.008   2.919  0.2514 -1.0259 -0.3296
 1615SOL    HW216479   3.543   3.932   3.001 -0.2411  0.5562  1.5654
 1616SOL     OW16480   3.526   4.597   3.092 -0.0636 -0.0865  0.8146
 1616SOL    HW116481   3.484   4.514   3.113  1.1008 -0.5702  1.2152
 1616SOL    HW216482   3.473   4.625   3.018  1.0694 -0.8741 -0.2909
 1617SOL     OW16483   1.381   2.090   5.606  0.1330 -0.7692  0.7964
 1617SOL    HW116484   1.468   2.129   5.593 -0.1482  0.3837  2.3776
 1617SOL    HW216485   1.332   2.165   5.640  1.6826  0.0360  1.2810
 1618SOL     OW16486   0.475   1.405   9.812  0.2755 -0.2360 -0.2967
 1618SOL    HW116487   0.513   1.393   9.725  1.9480  0.2346  0.3753
 1618SOL    HW216488   0.494   1.319   9.850  3.3035  0.5505 -0.0290
 1619SOL     OW16489   2.797   4.470   3.212  0.0344 -0.0961  0.0690
 1619SOL    HW116490   2.883   4.462   3.252  0.8747  2.7276 -1.1814
 1619SOL    HW216491   2.785   4.410   3.139  3.5422 -1.8454  0.9337
 1620SOL     OW16492   1.620   3.401   0.629 -0.1620  0.4499 -0.8384
 1620SOL    HW116493   1.568   3.443   0.698  0.1308 -0.5440 -0.0083
 1620SOL    HW216494   1.562   3.325   0.620 -0.9237  0.8020  1.1790
 1621SOL     OW16495   1.375   0.853   4.455  0.1160  0.2259  0.2854
 1621SOL    HW116496   1.435   0.842   4.528 -0.2579  1.2031  0.7378
 1621SOL    HW216497   1.333   0.932   4.489  2.1675  2.4956 -2.4892
 1622SOL     OW16498   3.733   2.322   7.960  0.2744  0.3098  0.0724
 1622SOL    HW116499   3.742   2.229   7.982 -0.9643 -0.0321 -0.8935
 1622SOL    HW216500   3.821   2.355   7.976  1.1257  0.4668 -4.9620
 1623SOL     OW16501   2.631   1.756   2.073 -0.2265 -0.5589  0.0461
 1623SOL    HW116502   2.677   1.838   2.055 -0.2164 -0.2723  1.3644
 1623SOL    HW216503   2.662   1.758   2.164  0.0701  0.6307 -0.0805
 1624SOL     OW16504   0.064   0.746   7.498  0.5401  0.3770  0.3434
 1624SOL    HW116505   0.130   0.731   7.566 -1.5062 -2.7052  1.6087
 1624SOL    HW216506   0.114   0.806   7.442  1.8279 -1.6087 -0.6304
 1625SOL     OW16507   3.758   0.767  10.322  0.8722  0.0202  0.2432
 1625SOL    HW116508   3.775   0.673  10.307  2.0117  0.1837  0.4746
 1625SOL    HW216509   3.837   0.810  10.289 -0.6982  0.9944 -2.1965
 1626SOL     OW16510   3.857   3.107   5.553  0.1660 -0.1391  0.1838
 1626SOL    HW116511   3.949   3.129   5.542  0.1710  0.0400  0.5841
 1626SOL    HW216512   3.878   3.023   5.593  0.6838 -0.2776 -0.3912
 1627SOL     OW16513   1.939   0.003   1.674 -0.5164  0.4635 -0.9170
 1627SOL    HW116514   1.958   0.096   1.664  0.9555 -0.2645 -4.7289
 1627SOL    HW216515   1.933   4.716   1.582  0.0061 -0.4498 -0.6906
 1628SOL     OW16516   0.552   0.132   4.570 -0.0758  0.2183  0.0623
 1628SOL    HW116517   0.543   0.094   4.657  3.7107 -1.5317 -0.3213
 1628SOL    HW216518   0.647   0.135   4.562 -0.1795  1.8242 -0.6874
 1629SOL     OW16519   0.956   3.936   9.550 -0.0255  0.3813  0.1096
 1629SOL    HW116520   0.865   3.943   9.521 -1.0187  1.1553  3.4985
 1629SOL    HW216521   0.960   3.843   9.572 -1.2381  0.4543  0.6506
 1630SOL     OW16522   0.866   2.795   8.939 -0.1266  0.9601  0.3267
 1630SOL    HW116523   0.959   2.807   8.919 -0.5658  0.7930 -1.8188
 1630SOL    HW216524   0.834   2.879   8.973  1.8518  3.3414 -3.5031
 1631SOL     OW16525   4.078   1.071  12.087  0.5473  0.5691 -0.3850
 1631SOL    HW116526   4.065   1.162  12.059  1.5259  0.7951 -0.1056
 1631SOL    HW216527   4.038   1.073  12.174  0.7248 -2.5659 -0.2303
 1632SOL     OW16528   2.344   1.933   7.171 -0.0101 -0.4096  0.0121
 1632SOL    HW116529   2.282   1.862   7.155  1.2190 -1.2698 -0.8891
 1632SOL    HW216530   2.386   1.903   7.252 -1.4893 -2.4253  0.0115
 1633SOL     OW16531   2.291   1.449   4.980  0.1856 -0.2134  0.1448
 1633SOL    HW116532   2.202   1.426   4.955  0.2943 -0.8373  0.3313
 1633SOL    HW216533   2.288   1.423   5.072 -0.5321  0.3907  0.2932
 1634SOL     OW16534   4.016   0.215   4.864 -0.1061 -0.3418 -0.4605
 1634SOL    HW116535   3.953   0.158   4.821  0.1405 -1.9496  1.3538
 1634SOL    HW216536   4.071   0.144   4.896  2.2151  2.1007  1.0047
 1635SOL     OW16537   3.198   2.806   6.276 -0.1123  0.7220  0.1127
 1635SOL    HW116538   3.275   2.815   6.332 -0.2275 -0.4614  0.4411
 1635SOL    HW216539   3.250   2.812   6.195 -0.6613 -1.0191 -0.3560
 1636SOL     OW16540   1.096   1.737  10.821 -0.2191  0.0815 -0.3039
 1636SOL    HW116541   1.019   1.751  10.767 -0.5137  2.4327  0.6929
 1636SOL    HW216542   1.104   1.821  10.867 -2.0874 -0.0185  0.1967
 1637SOL     OW16543   1.647   4.475   1.577  0.2584 -0.4770 -0.3761
 1637SOL    HW116544   1.736   4.447   1.555  0.3216 -0.1754 -0.5172
 1637SOL    HW216545   1.647   4.481   1.672 -0.6081 -0.8793 -0.3593
 1638SOL     OW16546   3.707   1.735   6.685 -0.5772  0.0127  0.2198
 1638SOL    HW116547   3.747   1.667   6.631 -0.0107  1.7019 -1.5083
 1638SOL    HW216548   3.651   1.684   6.744 -0.8954 -1.5265 -1.4236
 1639SOL     OW16549   1.375   3.336  16.759 -0.5259 -0.5407  0.2666
 1639SOL    HW116550   1.443   3.268  16.759  0.8790  0.8820  2.6214
 1639SOL    HW216551   1.297   3.295  16.722  0.3958 -1.3245 -0.8335
 1640SOL     OW16552   4.045   1.955  13.905 -0.5448 -0.0251  0.0477
 1640SOL    HW116553   4.065   2.032  13.851 -0.6064  2.0134  2.9296
 1640SOL    HW216554   4.093   1.963  13.987 -1.1815 -1.1058  0.5118
 1641SOL     OW16555   3.476   2.852   2.822  0.1150 -0.5556 -0.4075
 1641SOL    HW116556   3.439   2.860   2.910 -0.1417  2.0455 -0.7469
 1641SOL    HW216557   3.567   2.830   2.845  0.1427 -1.3141 -1.2614
 1642SOL     OW16558   1.277   1.336   4.398 -0.1167  1.0300  0.5112
 1642SOL    HW116559   1.362   1.380   4.405 -0.6320  2.0220  0.5080
 1642SOL    HW216560   1.242   1.368   4.315  0.6953 -0.3664 -0.3756
 1643SOL     OW16561   4.217   0.895   8.560 -0.3046 -0.4582  0.3436
 1643SOL    HW116562   4.234   0.801   8.552 -0.5841 -0.3684 -1.2288
 1643SOL    HW216563   4.189   0.896   8.651 -1.6940  0.9925 -0.1036
 1644SOL     OW16564   2.159   0.594  14.907  0.2321  0.5850 -0.7492
 1644SOL    HW116565   2.240   0.544  14.916  1.1644  1.7570 -2.6371
 1644SOL    HW216566   2.201   0.680  14.902  0.7640  0.3464 -0.4198
 1645SOL     OW16567   0.108   3.315   7.397 -0.8433  0.2912  0.0049
 1645SOL    HW116568   0.041   3.380   7.372 -1.5164 -0.0769  0.8271
 1645SOL    HW216569   0.117   3.331   7.491  0.7983  0.8012 -0.2342
 1646SOL     OW16570   0.988   1.669   6.573  0.1205  0.2187 -0.2013
 1646SOL    HW116571   0.949   1.595   6.527 -0.2077  1.0569 -1.2581
 1646SOL    HW216572   1.014   1.726   6.501 -1.0950 -3.0062 -3.1701
 1647SOL     OW16573   4.424   2.130   6.816  0.1951 -0.5819  0.4191
 1647SOL    HW116574   4.494   2.187   6.786  0.1486  0.0340  1.4537
 1647SOL    HW216575   4.445   2.102   6.906 -1.5402 -1.3126  0.5986
 1648SOL     OW16576   3.420   1.888   9.363 -0.3169 -0.9000 -0.1493
 1648SOL    HW116577   3.477   1.906   9.288  2.2561 -1.8789  1.5994
 1648SOL    HW216578   3.462   1.808   9.394 -0.4557 -0.5287  1.0049
 1649SOL     OW16579   3.956   3.142   9.090  0.7936  0.3690  0.1208
 1649SOL    HW116580   3.953   3.047   9.092 -1.5113  0.4446  0.1417
 1649SOL    HW216581   3.861   3.152   9.102  0.4448 -1.0559 -1.6052
 1650SOL     OW16582   3.127   1.664   1.010 -0.0574  0.1199  0.4988
 1650SOL    HW116583   3.114   1.627   1.098  0.1801 -1.7921 -0.2724
 1650SOL    HW216584   3.202   1.724   1.011  2.7213 -3.3129 -2.4055
 1651SOL     OW16585   1.250   2.943  11.164 -0.9220 -0.0644  0.2408
 1651SOL    HW116586   1.187   3.014  11.181  2.0114  2.5445  0.1586
 1651SOL    HW216587   1.275   2.956  11.073 -1.9769  0.3656  0.0078
 1652SOL     OW16588   1.811   2.040   9.454  0.2756 -0.3788  0.0055
 1652SOL    HW116589   1.788   2.060   9.545 -0.1143  0.0007 -0.1755
 1652SOL    HW216590   1.817   2.128   9.418  0.7744  0.5172  2.2755
 1653SOL     OW16591   2.509   0.819  10.487  0.9005 -0.1510 -0.5519
 1653SOL    HW116592   2.545   0.766  10.416 -0.4854  2.2055 -2.9881
 1653SOL    HW216593   2.417   0.792  10.492  1.3647 -1.9082 -1.6263
 1654SOL     OW16594   4.238   0.574   1.637 -0.0577  0.1399  0.6436
 1654SOL    HW116595   4.276   0.635   1.573 -1.3502 -0.2259 -0.4811
 1654SOL    HW216596   4.178   0.525   1.581 -0.8045  1.9103 -0.0986
 1655SOL     OW16597   2.424   2.243   8.241 -0.3632 -0.4338 -0.2591
 1655SOL    HW116598   2.339   2.225   8.200 -1.5064  2.4162  0.8550
 1655SOL    HW216599   2.430   2.338   8.229 -1.0295 -0.0263  2.4344
 1656SOL     OW16600   3.718   0.477   6.667 -0.1933 -0.8805 -0.3674
 1656SOL    HW116601   3.813   0.470   6.671 -0.1868  0.2334  1.7170
 1656SOL    HW216602   3.699   0.522   6.585 -0.7196 -0.3192  0.0532
 1657SOL     OW16603   3.560   0.937   8.602  0.4811  0.0990 -0.5752
 1657SOL    HW116604   3.582   0.930   8.509 -3.3098 -0.5657 -1.4066
 1657SOL    HW216605   3.644   0.972   8.633  0.9096 -0.0504 -1.5566
 1658SOL     OW16606   3.351   2.295   3.844 -0.0141  0.0441 -0.4206
 1658SOL    HW116607   3.443   2.315   3.825  0.4858 -2.0009 -0.2387
 1658SOL    HW216608   3.321   2.244   3.770 -2.3544  0.7911  0.0305
 1659SOL     OW16609   3.272   0.821   6.778 -0.5827  0.2217  0.6739
 1659SOL    HW116610   3.177   0.829   6.765 -0.5159 -1.6145 -1.0330
 1659SOL    HW216611   3.306   0.841   6.690 -0.4677  0.8976  0.8716
 1660SOL     OW16612   0.302   1.819   8.061  0.3525 -0.1562 -0.0761
 1660SOL    HW116613   0.294   1.736   8.013  0.9612 -1.1360  1.5084
 1660SOL    HW216614   0.340   1.798   8.146  1.6769  3.8846  0.3079
 1661SOL     OW16615   1.780   4.128   8.866  0.6490  0.3315  0.0573
 1661SOL    HW116616   1.848   4.138   8.799 -0.3133 -2.1232 -1.2657
 1661SOL    HW216617   1.829   4.176   8.933  0.9495 -3.4564  2.5100
 1662SOL     OW16618   3.402   3.060   3.764 -0.4031  0.4499 -0.2630
 1662SOL    HW116619   3.423   3.029   3.852 -0.5528  0.4659 -0.2214
 1662SOL    HW216620   3.423   2.982   3.711  0.7825 -0.0447  0.9622
 1663SOL     OW16621   3.704   4.251   5.693  0.2263 -0.6187  0.2678
 1663SOL    HW116622   3.796   4.223   5.701  0.2765  0.0705  2.2807
 1663SOL    HW216623   3.718   4.343   5.715 -3.0284 -0.3843  1.3853
 1664SOL     OW16624   0.423   2.971   9.232  0.7438 -0.2441 -0.4235
 1664SOL    HW116625   0.377   3.023   9.167  0.5926  0.7075  0.4383
 1664SOL    HW216626   0.354   2.988   9.296 -0.0548 -2.3304 -0.7452
 1665SOL     OW16627   2.557   2.914   8.243 -0.3424  0.1535  0.3998
 1665SOL    HW116628   2.496   2.864   8.297 -1.3348 -0.2688 -1.0956
 1665SOL    HW216629   2.514   2.998   8.252  0.1915  0.3148  1.4541
 1666SOL     OW16630   3.307   0.495   0.715 -0.5370  0.5623  0.0198
 1666SOL    HW116631   3.226   0.532   0.752 -0.6547 -2.0506  2.3866
 1666SOL    HW216632   3.374   0.537   0.769 -0.9110 -1.6167  2.1724
 1667SOL     OW16633   2.604   2.794   9.894  0.3248 -0.2499 -0.0708
 1667SOL    HW116634   2.525   2.846   9.906 -0.3743 -1.3393  0.0132
 1667SOL    HW216635   2.572   2.705   9.907 -2.4924  1.1053  2.1609
 1668SOL     OW16636   4.068   3.270  14.767 -0.6858 -0.1841 -0.8831
 1668SOL    HW116637   4.074   3.181  14.802 -2.2785  0.2099  0.3862
 1668SOL    HW216638   4.059   3.255  14.673 -0.6424 -0.3193 -0.8662
 1669SOL     OW16639   0.103   3.380   9.269 -0.1554 -0.3306 -0.0929
 1669SOL    HW116640   0.182   3.359   9.320  0.0439  0.7963  0.0682
 1669SOL    HW216641   0.146   3.366   9.184  0.0464  0.7446 -0.1702
 1670SOL     OW16642   2.193   4.705   8.625  0.4518 -0.6125  0.0583
 1670SOL    HW116643   2.123   0.032   8.630  1.3761  0.4147 -0.4531
 1670SOL    HW216644   2.276   0.012   8.637  0.3924  0.2014 -2.5423
 1671SOL     OW16645   2.922   3.887   0.604  0.0348 -0.1537 -0.4524
 1671SOL    HW116646   2.973   3.828   0.548 -1.1674 -2.3979  0.8290
 1671SOL    HW216647   2.833   3.852   0.596  0.3005 -0.7848 -0.6997
 1672SOL     OW16648   4.256   1.752   8.740  0.5744 -0.1858 -0.3577
 1672SOL    HW116649   4.264   1.695   8.816  0.1604 -2.9405 -2.3776
 1672SOL    HW216650   4.180   1.717   8.694  1.1570 -2.3228  0.3141
 1673SOL     OW16651   0.241   0.458  12.143  0.1208  0.3059  0.4739
 1673SOL    HW116652   0.291   0.458  12.061 -1.6416  0.6067 -0.6353
 1673SOL    HW216653   0.167   0.403  12.116 -0.5339  1.3317  0.1456
 1674SOL     OW16654   0.226   3.752   4.733 -0.6358  0.5626 -0.3257
 1674SOL    HW116655   0.221   3.714   4.646 -0.9440 -0.6212  0.2124
 1674SOL    HW216656   0.142   3.748   4.778  0.4852 -1.0404  1.6151
 1675SOL     OW16657   0.347   2.965  16.681  0.8279 -0.6053 -0.0625
 1675SOL    HW116658   0.291   3.042  16.691  1.0776 -0.1933 -1.8275
 1675SOL    HW216659   0.341   2.936  16.772  0.0253  4.3309  1.4930
 1676SOL     OW16660   0.716   4.501  10.809  0.0980  0.3160  0.3942
 1676SOL    HW116661   0.735   4.522  10.717 -2.7347 -2.0473 -0.7457
 1676SOL    HW216662   0.790   4.444  10.826  0.1259  0.5928  1.1887
 1677SOL     OW16663   3.518   3.002   2.417 -0.8610 -0.8149 -0.0326
 1677SOL    HW116664   3.474   3.026   2.499 -2.6368 -0.2828 -1.1431
 1677SOL    HW216665   3.463   2.932   2.381 -2.8391  0.2756  0.8292
 1678SOL     OW16666   2.929   4.267  11.084  0.2473 -0.1345 -0.2710
 1678SOL    HW116667   2.868   4.232  11.149  0.2441 -0.0008 -0.2021
 1678SOL    HW216668   2.990   4.306  11.146 -0.6900  1.5561 -0.4144
 1679SOL     OW16669   1.588   3.084   7.819 -0.0769 -0.0575  0.3030
 1679SOL    HW116670   1.502   3.109   7.852  0.8307  0.2557  2.4402
 1679SOL    HW216671   1.635   3.165   7.801 -1.6232  1.0315  1.2171
 1680SOL     OW16672   3.962   3.999   2.916  0.2061 -0.2546  0.3083
 1680SOL    HW116673   3.910   4.047   2.851 -0.4457 -0.4524  0.6762
 1680SOL    HW216674   3.992   3.932   2.855  0.5774  0.4967 -0.3423
 1681SOL     OW16675   2.116   1.026   6.440  0.1720  0.4363 -0.3321
 1681SOL    HW116676   2.129   1.060   6.529 -2.1744 -0.8730  0.5201
 1681SOL    HW216677   2.128   1.108   6.392  1.0537  0.6135  0.1924
 1682SOL     OW16678   4.734   1.682   6.870 -0.2115 -0.1917  0.0843
 1682SOL    HW116679   4.668   1.681   6.800  1.5768 -2.2808 -1.5614
 1682SOL    HW216680   0.038   1.759   6.835 -0.4430  0.2638  0.8080
 1683SOL     OW16681   2.670   0.495   4.503 -0.1992 -0.1350 -0.3970
 1683SOL    HW116682   2.721   0.487   4.583 -3.5020  2.2853  1.9720
 1683SOL    HW216683   2.738   0.508   4.437  1.8870 -0.5491  1.6684
 1684SOL     OW16684   3.661   1.222   4.379 -0.1592 -0.3743 -0.1002
 1684SOL    HW116685   3.704   1.306   4.364  0.9758 -0.8668  0.4415
 1684SOL    HW216686   3.589   1.244   4.438 -0.3495  2.4380 -1.3782
 1685SOL     OW16687   1.588   0.335   7.980 -0.5488 -0.2228 -0.7256
 1685SOL    HW116688   1.617   0.425   7.998  2.9973 -1.2271 -1.3972
 1685SOL    HW216689   1.645   0.290   8.042 -0.2245  1.2024  0.0224
 1686SOL     OW16690   0.185   0.984   6.315  0.8853  0.3808  0.4003
 1686SOL    HW116691   0.143   0.964   6.399  0.4744 -1.9159 -0.3624
 1686SOL    HW216692   0.201   1.077   6.335 -2.3684  1.1266 -0.4420
 1687SOL     OW16693   1.233   3.695   7.564 -0.4551  0.6156  0.1218
 1687SOL    HW116694   1.191   3.741   7.491  0.7967 -1.9519 -2.1929
 1687SOL    HW216695   1.166   3.653   7.618 -0.0012 -1.4562 -0.9253
 1688SOL     OW16696   3.658   0.309  16.375  0.1035 -0.0058 -0.2076
 1688SOL    HW116697   3.666   0.385  16.433  1.9858 -2.2453  2.4775
 1688SOL    HW216698   3.563   0.299  16.378 -0.0840  1.1150 -2.2389
 1689SOL     OW16699   2.947   2.668   0.005  0.3395 -0.0979 -0.4915
 1689SOL    HW116700   3.008   2.622   0.063 -0.7312 -1.5734 -0.5600
 1689SOL    HW216701   2.920   2.733   0.070  1.4905  0.1807 -0.2804
 1690SOL     OW16702   3.113   3.776   3.782  0.4930  0.1333 -0.2842
 1690SOL    HW116703   3.203   3.774   3.749  1.1421  1.4742  1.4160
 1690SOL    HW216704   3.112   3.707   3.849 -2.3012  1.8082  1.4159
 1691SOL     OW16705   2.539   4.265   6.658 -0.2092  0.2512  0.4963
 1691SOL    HW116706   2.488   4.190   6.627  1.3523 -0.4536 -0.3656
 1691SOL    HW216707   2.629   4.241   6.637 -0.4043  0.5415 -0.6754
 1692SOL     OW16708   0.266   1.909   2.747 -0.0766 -0.4380  0.0990
 1692SOL    HW116709   0.247   1.915   2.653 -1.2272  1.7968  0.4715
 1692SOL    HW216710   0.222   1.826   2.769  1.6485 -0.8125  2.0830
 1693SOL     OW16711   0.813   1.425   6.197 -0.0759 -0.1068  0.2137
 1693SOL    HW116712   0.762   1.357   6.153 -1.1716  1.2829 -0.6548
 1693SOL    HW216713   0.765   1.500   6.161 -0.8931 -1.1737 -0.8898
 1694SOL     OW16714   2.994   4.041  12.230  0.1557  0.5497  0.0224
 1694SOL    HW116715   2.945   3.972  12.184 -2.0891  2.0177  0.2380
 1694SOL    HW216716   3.022   4.006  12.314  0.7527  1.3814  0.1731
 1695SOL     OW16717   3.717   4.158   6.840 -0.1576 -0.5916  0.1848
 1695SOL    HW116718   3.635   4.179   6.884  0.3591  0.6476  0.5527
 1695SOL    HW216719   3.776   4.161   6.916 -0.5694 -1.8382  0.5502
 1696SOL     OW16720   1.412   1.301   2.577 -0.7118  0.1173  0.3650
 1696SOL    HW116721   1.469   1.225   2.589  0.4888  0.6841 -1.7251
 1696SOL    HW216722   1.407   1.343   2.663  1.5646  0.1450  0.4787
 1697SOL     OW16723   2.874   2.946   9.874 -0.3937  0.0000  0.1656
 1697SOL    HW116724   2.902   2.872   9.927 -0.2258 -0.7670 -0.9986
 1697SOL    HW216725   2.782   2.922   9.879 -0.8563  1.3800 -1.5401
 1698SOL     OW16726   4.640   2.260   3.945  0.4533 -0.6214 -0.0709
 1698SOL    HW116727   4.725   2.232   3.978  0.2919 -0.3645  0.5708
 1698SOL    HW216728   4.619   2.329   4.008  0.8988 -0.5794  0.0288
 1699SOL     OW16729   2.971   2.267   4.058 -0.1103 -0.0501 -0.2579
 1699SOL    HW116730   3.014   2.185   4.032 -1.1430 -1.1431  1.4912
 1699SOL    HW216731   3.041   2.313   4.103  0.0498  0.3520 -0.9131
 1700SOL     OW16732   3.635   0.439   9.837 -0.2117 -0.2182 -0.2619
 1700SOL    HW116733   3.556   0.487   9.861  0.4009  0.3334  0.6843
 1700SOL    HW216734   3.650   0.400   9.923 -1.8438 -0.4474 -0.0923
 1701SOL     OW16735   0.478   4.146   2.528  0.7040  0.9286 -0.2423
 1701SOL    HW116736   0.469   4.214   2.595  1.3098  0.6278  0.1453
 1701SOL    HW216737   0.384   4.127   2.533  0.9866 -0.5335 -0.5107
 1702SOL     OW16738   2.282   2.965   7.784 -0.2121  0.0605  0.3168
 1702SOL    HW116739   2.225   3.026   7.738  0.0978 -1.4894 -2.1398
 1702SOL    HW216740   2.366   3.008   7.769 -0.2272  0.1969  0.6208
 1703SOL     OW16741   3.839   2.497   2.444  0.3657  0.6018  0.1279
 1703SOL    HW116742   3.897   2.565   2.411 -1.2514  0.6474 -2.6141
 1703SOL    HW216743   3.765   2.510   2.384  2.1251  1.1150 -1.8952
 1704SOL     OW16744   4.107   1.990  15.990 -0.0400 -0.3769 -0.4695
 1704SOL    HW116745   4.060   2.073  15.991  1.2978  0.3589  2.6808
 1704SOL    HW216746   4.170   1.994  16.062 -0.6623 -0.9787  0.1120
 1705SOL     OW16747   3.080   1.344   8.083  0.1588  0.1508  0.0619
 1705SOL    HW116748   3.130   1.419   8.051  2.7809 -2.0622 -1.1357
 1705SOL    HW216749   3.030   1.383   8.154 -0.8371 -1.7075  0.3937
 1706SOL     OW16750   4.167   4.147   3.029 -0.8232  0.2171  0.0727
 1706SOL    HW116751   4.197   4.169   2.940  0.9174 -1.8613  0.1357
 1706SOL    HW216752   4.097   4.084   3.012  1.3313 -1.7419 -1.5602
 1707SOL     OW16753   0.404   4.596   9.302  0.2276 -0.1059 -0.0868
 1707SOL    HW116754   0.490   4.573   9.336  0.3649  1.1209  0.3819
 1707SOL    HW216755   0.373   4.609   9.392  1.1263  0.1219  0.1873
 1708SOL     OW16756   4.346   4.687   9.713  0.3266  0.5375 -0.0585
 1708SOL    HW116757   4.270   4.636   9.683  0.1376 -0.2380  1.7614
 1708SOL    HW216758   4.374   4.639   9.791  1.2687  0.7435 -0.2704
 1709SOL     OW16759   4.518   1.280   3.403  0.4315 -0.4724  0.3529
 1709SOL    HW116760   4.591   1.302   3.344 -0.2783 -2.8231 -1.3939
 1709SOL    HW216761   4.465   1.354   3.372  1.3209 -0.3750 -0.9699
 1710SOL     OW16762   2.118   1.138   7.245 -0.0917  0.2249  0.1179
 1710SOL    HW116763   2.198   1.179   7.277  0.5606 -0.0669 -1.1741
 1710SOL    HW216764   2.130   1.049   7.277  1.5693 -0.6602 -3.0252
 1711SOL     OW16765   3.011   3.655   1.712 -0.2683 -0.0969 -0.2410
 1711SOL    HW116766   3.011   3.576   1.658  0.0681 -1.4377  1.6902
 1711SOL    HW216767   2.939   3.621   1.766  1.1593  0.3426  1.9742
 1712SOL     OW16768   1.537   4.160  14.784 -0.5252  0.1217 -0.1098
 1712SOL    HW116769   1.551   4.225  14.853  0.2165  0.2061 -0.3346
 1712SOL    HW216770   1.442   4.151  14.794 -0.5564  1.3435  0.6585
 1713SOL     OW16771   3.282   1.803  13.918  0.1389  0.6443 -0.1902
 1713SOL    HW116772   3.282   1.751  13.837  1.6766  0.8176 -0.2974
 1713SOL    HW216773   3.375   1.824  13.925  0.5890 -1.2733 -0.3862
 1714SOL     OW16774   2.505   2.350  13.235 -0.6663  0.0529  0.1797
 1714SOL    HW116775   2.514   2.445  13.239  0.5525 -0.0607  0.4047
 1714SOL    HW216776   2.413   2.326  13.245 -0.8227  0.3118 -0.6340
 1715SOL     OW16777   0.900   4.732   5.663 -0.3604 -0.0974 -0.3306
 1715SOL    HW116778   0.888   4.737   5.568  1.8654 -0.8245 -0.6586
 1715SOL    HW216779   0.935   4.643   5.665  1.2306  0.5095 -1.1283
 1716SOL     OW16780   3.695   0.347  10.090 -0.0703 -0.0776  0.3729
 1716SOL    HW116781   3.719   0.389  10.173  0.1129 -1.5999  1.1063
 1716SOL    HW216782   3.676   0.257  10.119 -0.2980 -0.0364  0.3531
 1717SOL     OW16783   4.534   2.517   7.377  0.1970 -0.5666  0.4525
 1717SOL    HW116784   4.549   2.520   7.471 -1.2422 -0.1850  0.6635
 1717SOL    HW216785   4.524   2.608   7.351  0.3157 -0.0174  2.3811
 1718SOL     OW16786   4.066   2.197   1.368  0.2721  0.1273  0.1644
 1718SOL    HW116787   3.991   2.251   1.343 -1.9347 -3.0711 -0.2058
 1718SOL    HW216788   4.085   2.220   1.459 -2.1938 -0.3663  0.8073
 1719SOL     OW16789   3.434   0.478  17.375 -0.1286  0.3039  0.3401
 1719SOL    HW116790   3.421   0.531  17.296  1.1639  0.1366  0.0165
 1719SOL    HW216791   3.380   0.403  17.350 -0.7030  0.3843  1.3515
 1720SOL     OW16792   1.858   4.581  16.117  0.0289  0.2501  0.3918
 1720SOL    HW116793   1.845   4.529  16.038 -0.0148 -0.0932  0.6280
 1720SOL    HW216794   1.869   4.672  16.088 -0.8988 -0.4884 -2.2075
 1721SOL     OW16795   3.415   0.459   2.071  0.1038  0.3936 -0.1034
 1721SOL    HW116796   3.422   0.554   2.082 -1.2304  0.5201 -0.4107
 1721SOL    HW216797   3.361   0.455   1.993 -0.8048  1.6022  0.4655
 1722SOL     OW16798   1.630   3.292   7.632  0.2199  0.1740 -0.2141
 1722SOL    HW116799   1.539   3.314   7.610 -0.3622  0.8836  2.9019
 1722SOL    HW216800   1.659   3.368   7.683 -0.1175 -0.7242  1.3131
 1723SOL     OW16801   4.567   1.979   3.321  0.3311  0.6188 -0.4306
 1723SOL    HW116802   4.545   2.072   3.328  0.6789  0.7596 -1.2897
 1723SOL    HW216803   4.647   1.991   3.270 -1.0721  1.9331 -2.2879
 1724SOL     OW16804   2.207   0.226  11.705 -0.0481  0.2227 -0.0710
 1724SOL    HW116805   2.174   0.143  11.740 -1.0789 -0.2595 -2.2169
 1724SOL    HW216806   2.131   0.278  11.678 -0.9676 -2.0300 -1.8531
 1725SOL     OW16807   2.781   2.369   7.645  0.4244  0.0913 -0.1842
 1725SOL    HW116808   2.763   2.331   7.559  1.4150 -1.4234  0.2726
 1725SOL    HW216809   2.741   2.455   7.631  1.6762  1.0662  2.2536
 1726SOL     OW16810   3.417   0.117   0.144  0.1627 -0.4194 -0.3637
 1726SOL    HW116811   3.338   0.136   0.195 -0.0742 -1.6021 -0.3072
 1726SOL    HW216812   3.461   0.201   0.129  2.7724 -1.9744 -1.4035
 1727SOL     OW16813   0.882   0.926  15.569  0.0694  0.0749  0.0770
 1727SOL    HW116814   0.843   1.013  15.555 -2.5131 -0.9478  0.8593
 1727SOL    HW216815   0.887   0.893  15.479 -3.1194  0.8289 -0.3888
 1728SOL     OW16816   0.145   3.689   8.150 -0.1144  0.1922 -0.3778
 1728SOL    HW116817   0.223   3.638   8.130  0.3950  1.2212 -0.9866
 1728SOL    HW216818   0.182   3.770   8.186 -0.3762 -0.2725  0.9410
 1729SOL     OW16819   0.906   0.929   4.825 -0.2199 -0.7456  0.1450
 1729SOL    HW116820   0.976   0.986   4.856  0.8881 -0.9342 -2.0424
 1729SOL    HW216821   0.868   0.968   4.746 -1.7137 -0.8043  0.8223
 1730SOL     OW16822   1.515   0.622   1.176 -0.0722 -0.7597 -0.5311
 1730SOL    HW116823   1.469   0.702   1.152  0.6354  1.3434  5.1908
 1730SOL    HW216824   1.591   0.626   1.118 -0.9918  0.6627 -1.6487
 1731SOL     OW16825   4.285   1.109   6.739  0.0306 -0.0944 -0.0461
 1731SOL    HW116826   4.303   1.118   6.832 -3.3270  0.3075  0.5614
 1731SOL    HW216827   4.202   1.063   6.745  0.7218 -1.0244  2.5668
 1732SOL     OW16828   2.361   2.390  16.465  0.4668  0.1896 -0.0742
 1732SOL    HW116829   2.360   2.445  16.386 -2.9641  0.4970  0.1917
 1732SOL    HW216830   2.409   2.312  16.436  1.9820  0.6543  1.1677
 1733SOL     OW16831   2.950   3.174  15.129  0.9135 -0.2363 -0.0715
 1733SOL    HW116832   3.029   3.183  15.181  1.1821  1.0878 -0.7167
 1733SOL    HW216833   2.888   3.135  15.191  0.0509  0.4413 -0.4967
 1734SOL     OW16834   0.113   2.229   0.252  0.6292  0.0186 -0.3996
 1734SOL    HW116835   0.175   2.223   0.178  0.3679 -1.2979 -0.5179
 1734SOL    HW216836   0.145   2.157   0.307 -2.4845 -1.5456 -0.6166
 1735SOL     OW16837   2.959   4.656  12.558 -0.2773  0.2368 -0.0710
 1735SOL    HW116838   2.943   4.728  12.497  0.1333  0.2503 -0.1624
 1735SOL    HW216839   2.893   4.589  12.540  0.1428 -0.0718 -0.4947
 1736SOL     OW16840   1.949   1.478   8.108 -0.0182 -0.3246 -0.4003
 1736SOL    HW116841   1.864   1.494   8.067  0.4484  0.4847 -1.0411
 1736SOL    HW216842   1.965   1.564   8.146 -0.0289 -1.1755  1.5538
 1737SOL     OW16843   1.728   0.133   3.436 -0.3238  0.3095 -0.3470
 1737SOL    HW116844   1.724   0.049   3.480 -0.6615  1.1808  1.2737
 1737SOL    HW216845   1.731   0.196   3.508 -1.0339 -1.1344  0.9153
 1738SOL     OW16846   0.392   0.550   8.179 -0.8353 -0.0502 -0.1145
 1738SOL    HW116847   0.471   0.600   8.198  0.2102 -2.0663  0.9442
 1738SOL    HW216848   0.411   0.504   8.096 -2.2794  2.1679 -1.6558
 1739SOL     OW16849   1.657   2.695   7.286 -0.1572 -0.3235 -0.2741
 1739SOL    HW116850   1.730   2.663   7.234 -0.6849 -0.4993 -0.8994
 1739SOL    HW216851   1.624   2.775   7.246 -1.9057 -1.1206 -0.4582
 1740SOL     OW16852   3.476   0.369   4.570  0.0459 -0.0088  0.0632
 1740SOL    HW116853   3.399   0.331   4.526  0.7882 -0.0397 -1.1932
 1740SOL    HW216854   3.468   0.459   4.538  0.1820 -0.7834 -2.1346
 1741SOL     OW16855   0.963   0.408   2.647  0.3624  0.3136 -0.2385
 1741SOL    HW116856   1.032   0.386   2.709  0.7718  1.4195 -0.2923
 1741SOL    HW216857   0.892   0.368   2.697 -1.1653 -0.4182 -2.9653
 1742SOL     OW16858   0.607   1.169   3.569  0.3826 -0.0176 -0.3183
 1742SOL    HW116859   0.558   1.126   3.640  0.6700  0.9291  0.4600
 1742SOL    HW216860   0.675   1.216   3.617  1.9077 -1.7959 -0.7465
 1743SOL     OW16861   2.266   3.443   4.701 -0.6279  0.3048 -0.1423
 1743SOL    HW116862   2.190   3.489   4.738 -0.6192 -0.4281  0.7952
 1743SOL    HW216863   2.327   3.449   4.775 -3.4733  0.0418  2.2165
 1744SOL     OW16864   1.151   3.262   7.261  0.4367  0.0061  0.3320
 1744SOL    HW116865   1.181   3.308   7.183 -0.6355  0.0070 -0.0794
 1744SOL    HW216866   1.114   3.181   7.225  1.8553 -0.8912  0.8654
 1745SOL     OW16867   3.894   2.981  15.389 -0.3559 -0.0396  0.0579
 1745SOL    HW116868   3.908   3.006  15.297 -2.3229  1.1943  0.0962
 1745SOL    HW216869   3.886   2.886  15.394 -3.2554  0.2997  2.2019
 1746SOL     OW16870   3.185   2.347   5.848  0.5473 -0.8473 -0.0317
 1746SOL    HW116871   3.104   2.297   5.844  0.7579 -1.2035  0.1652
 1746SOL    HW216872   3.205   2.347   5.754  1.4191 -0.7397  0.1481
 1747SOL     OW16873   2.771   0.311   5.031 -0.5293  0.3289 -0.4015
 1747SOL    HW116874   2.715   0.236   5.012  0.9064 -0.3202 -2.1577
 1747SOL    HW216875   2.847   0.285   4.979 -0.0602  0.4708  0.2056
 1748SOL     OW16876   1.117   3.441  12.548 -0.4714 -0.0269 -0.4983
 1748SOL    HW116877   1.043   3.401  12.595 -1.3889 -0.7002 -2.5214
 1748SOL    HW216878   1.109   3.397  12.464  0.8680 -3.6795  1.3056
 1749SOL     OW16879   3.037   4.661   4.214  0.2479  0.2203 -0.0594
 1749SOL    HW116880   2.988   4.640   4.293  1.3491 -1.0034  0.2887
 1749SOL    HW216881   3.124   4.642   4.248  1.0345  1.5765 -1.3362
 1750SOL     OW16882   4.421   4.020  13.858  0.0543 -0.1895  0.0206
 1750SOL    HW116883   4.412   3.981  13.945  1.3589 -1.5506 -0.4570
 1750SOL    HW216884   4.506   3.982  13.836 -0.0657 -0.5037  0.1101
 1751SOL     OW16885   2.035   4.693   0.331  0.6126 -0.2317  0.3199
 1751SOL    HW116886   2.023   0.037   0.285  0.5994 -0.6251 -0.3829
 1751SOL    HW216887   2.098   4.654   0.270  0.2117 -0.3901  0.0056
 1752SOL     OW16888   2.254   0.414   4.819  0.0771  0.0541 -0.1956
 1752SOL    HW116889   2.311   0.473   4.769 -0.6649  0.8999 -0.0635
 1752SOL    HW216890   2.212   0.472   4.883 -1.8209  0.3309 -1.6785
 1753SOL     OW16891   3.748   2.085   9.367  0.3722 -0.1149  0.2400
 1753SOL    HW116892   3.711   2.152   9.309  1.3720  0.3927  0.1854
 1753SOL    HW216893   3.789   2.018   9.311 -0.7684  0.2933 -1.0838
 1754SOL     OW16894   2.900   2.146   9.167 -0.7463 -0.7034 -0.1321
 1754SOL    HW116895   2.970   2.090   9.200 -0.7280  0.1857  1.3201
 1754SOL    HW216896   2.863   2.087   9.101 -0.7545 -0.9818  0.1195
 1755SOL     OW16897   2.491   4.068   7.918 -0.0446 -0.4327 -0.1819
 1755SOL    HW116898   2.572   4.081   7.967 -0.4329  0.8506  0.1003
 1755SOL    HW216899   2.527   4.007   7.853 -0.2066  0.1149 -0.7877
 1756SOL     OW16900   0.410   0.088  16.969  0.6211  0.6775  0.0030
 1756SOL    HW116901   0.470   0.030  16.923 -2.2272 -0.7017 -1.9807
 1756SOL    HW216902   0.390   0.153  16.901  0.9269  0.9236  0.1478
 1757SOL     OW16903   2.798   2.425   3.016 -0.0811  0.0246  0.4039
 1757SOL    HW116904   2.847   2.380   3.085  0.9021 -0.6418 -0.7362
 1757SOL    HW216905   2.708   2.399   3.039 -0.2185  1.0214  1.0303
 1758SOL     OW16906   3.077   0.071   8.333  0.5574  0.3460 -0.9427
 1758SOL    HW116907   3.003   0.027   8.290  2.2105 -2.4510 -0.9612
 1758SOL    HW216908   3.053   0.163   8.331 -2.1018 -0.2837  1.0911
 1759SOL     OW16909   4.682   1.423   4.320  0.1478  0.0096  0.1381
 1759SOL    HW116910   4.612   1.427   4.255 -1.3818  0.7190  1.7904
 1759SOL    HW216911   4.699   1.330   4.334 -0.7652 -0.1523  0.1790
 1760SOL     OW16912   0.287   3.447  15.841 -0.1410  0.4572  0.1514
 1760SOL    HW116913   0.347   3.502  15.790  1.5719  0.4693  2.1855
 1760SOL    HW216914   0.285   3.362  15.797  0.3596 -0.3531  1.6850
 1761SOL     OW16915   2.855   1.552   6.751 -0.2555 -0.3187 -0.0212
 1761SOL    HW116916   2.927   1.615   6.754 -0.8846  0.4495 -1.0648
 1761SOL    HW216917   2.866   1.500   6.830  0.4123 -0.4068 -0.1668
 1762SOL     OW16918   1.999   1.828  10.201  0.4385 -0.5715  0.3318
 1762SOL    HW116919   1.986   1.736  10.224  0.4761 -0.3125  1.4058
 1762SOL    HW216920   2.092   1.814  10.183  0.4701 -2.0111  1.5385
 1763SOL     OW16921   3.852   2.051   9.773  0.5071  0.0454 -0.3065
 1763SOL    HW116922   3.838   2.102   9.852  0.0649 -0.0701 -0.3137
 1763SOL    HW216923   3.766   2.019   9.747  0.3504 -0.7514  1.2268
 1764SOL     OW16924   0.484   2.932   6.328  0.3687  0.1599 -0.0853
 1764SOL    HW116925   0.448   2.851   6.293 -2.2093  1.3105 -0.0950
 1764SOL    HW216926   0.500   2.978   6.246 -3.0984  0.3755 -0.6150
 1765SOL     OW16927   2.275   4.627   6.097 -0.1210 -0.3605 -0.0596
 1765SOL    HW116928   2.247   4.543   6.136  1.4456 -0.8012  0.1119
 1765SOL    HW216929   2.274   4.599   6.006 -0.2633 -1.1758  0.1842
 1766SOL     OW16930   2.836   0.504   1.239 -0.3159  0.6760 -0.0727
 1766SOL    HW116931   2.916   0.506   1.186 -0.2758  3.5639  0.1167
 1766SOL    HW216932   2.775   0.478   1.169 -1.0571  1.7419  0.1717
 1767SOL     OW16933   3.434   2.178  17.578  0.1623 -0.3740 -0.0108
 1767SOL    HW116934   3.384   2.110  17.624  0.2907 -1.0732 -0.9144
 1767SOL    HW216935   3.375   2.202  17.507  2.4965 -2.8059 -2.7578
 1768SOL     OW16936   3.787   0.892   8.415 -0.3168  0.0687  0.4298
 1768SOL    HW116937   3.871   0.846   8.410  0.1229  0.9998 -0.6725
 1768SOL    HW216938   3.805   0.975   8.457 -0.1895  0.5242 -0.5283
 1769SOL     OW16939   3.112   3.514   2.071  0.3455 -0.0029 -0.4065
 1769SOL    HW116940   3.186   3.544   2.019  0.9940  1.3698  1.2831
 1769SOL    HW216941   3.096   3.595   2.119  2.4149  0.1642 -0.0012
 1770SOL     OW16942   1.951   1.967   5.617  0.0135  0.4413  0.2681
 1770SOL    HW116943   1.866   1.971   5.574  0.5285  1.5097 -0.6292
 1770SOL    HW216944   1.941   2.037   5.681  0.9985 -0.7008  1.6742
 1771SOL     OW16945   2.822   3.724   9.675 -0.2274  0.3715 -0.2427
 1771SOL    HW116946   2.750   3.679   9.719  1.4470 -2.3661 -0.3054
 1771SOL    HW216947   2.777   3.803   9.644  0.5624  0.7879 -0.3288
 1772SOL     OW16948   4.320   0.558   2.368  0.1980 -0.0404 -0.0864
 1772SOL    HW116949   4.312   0.588   2.278 -0.6174  0.7213  0.2395
 1772SOL    HW216950   4.226   0.552   2.383  0.3727  0.9548  1.4568
 1773SOL     OW16951   2.358   1.825   3.026 -0.1786  0.3534  0.0708
 1773SOL    HW116952   2.372   1.744   3.076 -4.6693  0.2043  1.1316
 1773SOL    HW216953   2.320   1.887   3.088 -0.2985 -0.3464  0.6945
 1774SOL     OW16954   1.183   4.532   7.908  0.0933 -0.2317  0.2729
 1774SOL    HW116955   1.249   4.517   7.976  1.0888 -0.4682 -0.7395
 1774SOL    HW216956   1.232   4.588   7.848 -0.2262  0.8313  1.0185
 1775SOL     OW16957   4.538   4.319   0.441 -0.7215  0.3861  0.4608
 1775SOL    HW116958   4.480   4.243   0.445 -2.6466  1.7748 -0.7667
 1775SOL    HW216959   4.583   4.296   0.522 -1.4482 -0.9955  0.4651
 1776SOL     OW16960   1.388   4.313   4.185 -0.5419  0.5261 -0.4794
 1776SOL    HW116961   1.319   4.359   4.233 -0.3519 -0.0112  0.3160
 1776SOL    HW216962   1.350   4.226   4.199 -0.1418  0.5036  0.4404
 1777SOL     OW16963   4.359   4.557  15.137 -0.4541 -0.2566  0.2446
 1777SOL    HW116964   4.408   4.628  15.095 -1.6681  0.9947  0.9510
 1777SOL    HW216965   4.281   4.602  15.171  0.5477  1.6270  0.0821
 1778SOL     OW16966   2.447   0.549   4.674  0.2052 -0.2969  0.7374
 1778SOL    HW116967   2.499   0.583   4.746  1.4522 -0.8692  0.0936
 1778SOL    HW216968   2.506   0.549   4.599  1.0304 -2.4185  1.3774
 1779SOL     OW16969   2.309   3.319   9.177 -0.1188  0.2150  0.4202
 1779SOL    HW116970   2.224   3.346   9.210 -0.6789 -0.4929 -0.4510
 1779SOL    HW216971   2.354   3.403   9.165 -0.8623  0.6775  0.9083
 1780SOL     OW16972   4.315   1.564   8.975  0.0570  0.2969 -0.1451
 1780SOL    HW116973   4.383   1.627   9.001  1.3975 -1.1965 -0.0698
 1780SOL    HW216974   4.362   1.490   8.939  0.1483  0.8481 -1.1664
 1781SOL     OW16975   1.480   4.209   3.225 -0.3328 -0.3918  0.0127
 1781SOL    HW116976   1.485   4.178   3.135  0.4994 -1.9108  0.5897
 1781SOL    HW216977   1.387   4.221   3.244 -0.2127 -1.9613  1.5637
 1782SOL     OW16978   3.815   3.408   0.055  0.3352  0.6822  0.5489
 1782SOL    HW116979   3.794   3.437  17.720  2.0928  0.8078  0.1769
 1782SOL    HW216980   3.750   3.338   0.067 -0.4986  1.3065 -0.3385
 1783SOL     OW16981   2.729   4.288   8.487  0.5394  0.8970 -0.6665
 1783SOL    HW116982   2.781   4.321   8.560 -0.7607  1.4946 -0.0220
 1783SOL    HW216983   2.642   4.271   8.524  0.1783  1.6538 -1.1787
 1784SOL     OW16984   2.757   0.650   2.187 -0.2690  0.3519 -0.2575
 1784SOL    HW116985   2.682   0.709   2.186 -0.0507  0.6166 -0.9227
 1784SOL    HW216986   2.793   0.660   2.276  1.3405  0.8390 -0.9687
 1785SOL     OW16987   0.434   0.852  15.887 -0.1889  0.2835  0.3081
 1785SOL    HW116988   0.382   0.861  15.967 -0.3282 -0.8220  0.3449
 1785SOL    HW216989   0.509   0.905  15.913  1.0144  0.1388 -2.8855
 1786SOL     OW16990   2.713   0.576   4.798 -0.4448  0.2190 -0.0383
 1786SOL    HW116991   2.788   0.536   4.754 -1.0594  2.0013 -2.6974
 1786SOL    HW216992   2.741   0.582   4.889 -3.0703  0.0038  0.7619
 1787SOL     OW16993   4.221   3.872   8.704  0.2614  0.1534  0.0942
 1787SOL    HW116994   4.238   3.899   8.794  1.1970  0.8526 -0.3068
 1787SOL    HW216995   4.296   3.815   8.687 -0.5233 -0.4543 -1.3332
 1788SOL     OW16996   3.655   0.096  15.000  0.3945  0.6462 -0.3730
 1788SOL    HW116997   3.573   0.047  14.997 -0.7273  2.3036  3.4562
 1788SOL    HW216998   3.654   0.154  14.924 -1.6597 -1.0555 -1.6489
 1789SOL     OW16999   0.266   0.784   5.031  0.6736 -0.2024 -0.6554
 1789SOL    HW117000   0.360   0.790   5.012  0.1201  0.3580 -3.2360
 1789SOL    HW217001   0.239   0.762   4.942  0.3532 -1.3340 -0.2731
 1790SOL     OW17002   0.468   1.355   7.054 -0.1511  0.5175 -0.0094
 1790SOL    HW117003   0.384   1.392   7.029  0.4955  0.1753 -2.6494
 1790SOL    HW217004   0.518   1.436   7.067  0.5490  0.2394 -0.9999
 1791SOL     OW17005   2.349   1.684   4.448  0.2071  0.6082 -0.5867
 1791SOL    HW117006   2.373   1.618   4.512  0.6941  2.1478  0.8222
 1791SOL    HW217007   2.286   1.738   4.496 -3.1910 -2.0506 -2.0190
 1792SOL     OW17008   3.658   0.400   4.875 -0.7386  0.1932 -0.3265
 1792SOL    HW117009   3.568   0.376   4.855 -0.6241 -0.6013  0.0969
 1792SOL    HW217010   3.640   0.409   4.969 -0.2029 -0.9659 -0.1066
 1793SOL     OW17011   3.985   3.409  11.742 -0.4830 -0.1860  0.0250
 1793SOL    HW117012   3.948   3.492  11.771  0.7668  0.2271  0.4405
 1793SOL    HW217013   4.041   3.368  11.808 -0.6339 -1.2027 -0.4841
 1794SOL     OW17014   3.769   4.497   2.095 -0.2635  0.4818 -0.1665
 1794SOL    HW117015   3.804   4.576   2.134  1.0254 -0.1731  0.0003
 1794SOL    HW217016   3.815   4.431   2.146 -1.1499  0.2576  0.3371
 1795SOL     OW17017   3.703   2.428   8.269 -0.3780  0.3804  0.1972
 1795SOL    HW117018   3.779   2.380   8.234 -0.4992  0.2851  0.0688
 1795SOL    HW217019   3.743   2.462   8.350  0.0937 -0.9357  0.5227
 1796SOL     OW17020   3.360   1.859  10.676  0.0724 -0.1053  0.3912
 1796SOL    HW117021   3.285   1.800  10.668  0.8863 -0.8497 -1.8543
 1796SOL    HW217022   3.418   1.827  10.606 -0.7687  0.8923 -0.7458
 1797SOL     OW17023   1.505   1.337  13.646 -0.2061 -0.5665 -0.0719
 1797SOL    HW117024   1.446   1.262  13.660 -0.0434 -0.7472 -0.3529
 1797SOL    HW217025   1.453   1.416  13.660  1.4560  0.2577  1.4456
 1798SOL     OW17026   2.888   1.284   7.880 -0.0306  0.2565  0.4146
 1798SOL    HW117027   2.856   1.374   7.876 -0.7276  0.0005  0.0275
 1798SOL    HW217028   2.936   1.283   7.963 -0.7272  2.1439  0.8432
 1799SOL     OW17029   3.167   1.692  10.714 -1.0769  0.8995 -0.0788
 1799SOL    HW117030   3.182   1.741  10.794 -0.5368 -0.1098  0.4429
 1799SOL    HW217031   3.112   1.616  10.736 -0.6828  0.6757  0.1238
 1800SOL     OW17032   4.376   3.881  10.937  0.4882 -0.2365 -0.3016
 1800SOL    HW117033   4.358   3.787  10.946 -0.5234 -0.0714 -0.5936
 1800SOL    HW217034   4.459   3.880  10.986  0.3277 -0.0348 -0.0224
 1801SOL     OW17035   2.653   1.144   6.660 -0.5505 -0.3364  0.2981
 1801SOL    HW117036   2.580   1.129   6.600 -0.5142  1.5545 -0.2184
 1801SOL    HW217037   2.637   1.119   6.751  0.7501 -0.2396  0.5609
 1802SOL     OW17038   0.499   1.473   7.566  0.3259 -0.8254 -0.0089
 1802SOL    HW117039   0.529   1.471   7.656 -0.5530  1.6659  0.3307
 1802SOL    HW217040   0.406   1.495   7.577  0.3508 -0.3194 -0.8272
 1803SOL     OW17041   1.102   2.602   1.899 -0.0337  0.0990 -0.4186
 1803SOL    HW117042   1.070   2.679   1.946 -2.0539  0.7550 -2.8689
 1803SOL    HW217043   1.115   2.546   1.976 -0.6187  1.8244  0.9270
 1804SOL     OW17044   3.272   4.466   3.865 -0.3850  0.0207 -0.2520
 1804SOL    HW117045   3.343   4.411   3.898 -0.3955 -0.4273 -0.9755
 1804SOL    HW217046   3.192   4.448   3.915  0.1647 -0.3527  0.4984
 1805SOL     OW17047   0.567   1.102   8.859 -0.5719  0.2149 -0.1876
 1805SOL    HW117048   0.560   1.138   8.947  1.2837  0.9021 -0.3112
 1805SOL    HW217049   0.590   1.010   8.871 -0.4574  0.2663 -0.0130
 1806SOL     OW17050   1.506   2.435   6.958 -0.0683 -0.5473  0.0004
 1806SOL    HW117051   1.449   2.400   7.027 -0.9256  0.4329 -0.2161
 1806SOL    HW217052   1.589   2.404   6.994  0.1274  1.8574  1.5979
 1807SOL     OW17053   3.656   2.921  11.451 -0.2104  0.0848 -0.0257
 1807SOL    HW117054   3.738   2.884  11.484  0.1792  0.2425 -0.8121
 1807SOL    HW217055   3.681   3.013  11.442 -1.0226  0.2271 -0.8864
 1808SOL     OW17056   1.376   1.686   4.884 -0.2175  0.4118  0.2804
 1808SOL    HW117057   1.367   1.631   4.805  0.8318  0.6663 -0.0150
 1808SOL    HW217058   1.289   1.722   4.898  0.1850  2.5739 -2.7866
 1809SOL     OW17059   2.505   2.965   8.973  0.0330  0.2051 -0.3769
 1809SOL    HW117060   2.427   2.977   9.028  0.3710 -0.6077  0.2707
 1809SOL    HW217061   2.562   3.039   8.996  2.3351 -1.9759  0.8703
 1810SOL     OW17062   2.154   1.848   6.937  0.5636  0.1575 -0.2245
 1810SOL    HW117063   2.121   1.775   6.885  1.5742 -0.1567 -0.4213
 1810SOL    HW217064   2.131   1.813   7.023  3.0856 -0.2087  0.2912
 1811SOL     OW17065   4.492   3.465   9.236 -0.0622 -0.2854 -0.5217
 1811SOL    HW117066   4.512   3.507   9.320 -1.2450  1.1022 -0.9412
 1811SOL    HW217067   4.569   3.498   9.190  0.2212  0.2736  0.3590
 1812SOL     OW17068   2.591   1.502   2.567 -0.2966 -0.4940  0.1370
 1812SOL    HW117069   2.619   1.503   2.658  1.0631  0.4858 -0.2939
 1812SOL    HW217070   2.591   1.408   2.548 -0.1568 -0.8885  2.1727
 1813SOL     OW17071   1.527   0.379  16.418  1.0296  0.1688 -0.2061
 1813SOL    HW117072   1.574   0.327  16.482 -0.7460 -2.2430 -0.8639
 1813SOL    HW217073   1.597   0.441  16.399  1.2778 -0.0948 -0.1430
 1814SOL     OW17074   4.095   0.516  11.825  0.1246 -0.2922 -0.4702
 1814SOL    HW117075   4.101   0.456  11.899 -1.3681 -0.7599 -0.7295
 1814SOL    HW217076   4.026   0.478  11.771  1.9859 -1.1390 -2.2588
 1815SOL     OW17077   4.070   2.295  16.075  0.3420 -0.3488  0.2982
 1815SOL    HW117078   4.049   2.251  16.157  0.0070  1.1702  1.0295
 1815SOL    HW217079   4.133   2.356  16.112  0.7065 -0.6364  0.1609
 1816SOL     OW17080   1.237   4.007   6.211 -0.4133  0.1184  0.6421
 1816SOL    HW117081   1.323   4.044   6.191 -0.7747  1.6108  1.8959
 1816SOL    HW217082   1.255   3.913   6.208 -2.5773 -0.2493 -0.3550
 1817SOL     OW17083   4.576   0.921   9.776  0.1391  0.2842 -0.6636
 1817SOL    HW117084   4.506   0.923   9.841  0.5420 -3.9506 -0.1078
 1817SOL    HW217085   4.650   0.876   9.816 -0.4984 -3.3773 -3.6443
 1818SOL     OW17086   1.372   4.399   0.604 -0.4284 -0.4352 -0.2617
 1818SOL    HW117087   1.348   4.444   0.685  2.0707  1.5365 -0.6282
 1818SOL    HW217088   1.319   4.319   0.611 -1.2180  0.1195  0.1615
 1819SOL     OW17089   3.155   3.726   7.571 -0.2560  0.1750  0.2957
 1819SOL    HW117090   3.188   3.641   7.543 -0.5401  0.7704 -1.8582
 1819SOL    HW217091   3.066   3.698   7.592  0.0829 -0.9597  0.2241
 1820SOL     OW17092   3.268   3.260  15.525 -0.5805 -0.1377 -0.1979
 1820SOL    HW117093   3.342   3.317  15.502 -0.6457  1.6677  4.0688
 1820SOL    HW217094   3.312   3.205  15.590 -0.4239  0.5370  0.2693
 1821SOL     OW17095   2.078   2.823   8.673  0.3274 -0.8839  0.0313
 1821SOL    HW117096   2.149   2.788   8.727  1.2470  0.7809 -0.0705
 1821SOL    HW217097   2.100   2.781   8.590  0.9461  0.0212 -0.2620
 1822SOL     OW17098   1.032   3.555   5.990  0.1469  0.0147  0.7172
 1822SOL    HW117099   1.052   3.648   5.980  0.8581 -0.1665  0.4363
 1822SOL    HW217100   0.967   3.557   6.060 -1.3725  0.6880 -0.7105
 1823SOL     OW17101   2.690   3.936   2.056 -0.1642 -0.2397  0.0770
 1823SOL    HW117102   2.718   3.867   2.117 -0.1578 -0.5654 -0.2960
 1823SOL    HW217103   2.612   3.886   2.032  0.6790 -2.5030  2.0387
 1824SOL     OW17104   2.604   3.167   7.521  0.5748  0.1541 -0.0610
 1824SOL    HW117105   2.598   3.182   7.426 -3.6457 -5.0292 -0.6077
 1824SOL    HW217106   2.555   3.085   7.531 -1.4753  1.2622 -1.1373
 1825SOL     OW17107   2.325   2.006   3.222  0.2058 -0.1089 -0.2416
 1825SOL    HW117108   2.251   1.979   3.277  2.3624 -3.2864  1.1267
 1825SOL    HW217109   2.303   2.097   3.204  1.5679  0.2213 -0.2712
 1826SOL     OW17110   3.481   3.763   8.660  0.0829 -0.3087  0.2615
 1826SOL    HW117111   3.569   3.795   8.638  0.2829 -1.9411 -1.2986
 1826SOL    HW217112   3.475   3.773   8.755  0.2642  1.0499  0.1420
 1827SOL     OW17113   3.401   4.119   3.294 -0.5238 -0.4737  0.1155
 1827SOL    HW117114   3.369   4.045   3.243  0.8725 -0.2061 -1.1487
 1827SOL    HW217115   3.411   4.078   3.380 -0.2146 -0.4443  0.0945
 1828SOL     OW17116   1.242   0.723   9.624  0.5027 -0.2135  0.0187
 1828SOL    HW117117   1.319   0.675   9.595  1.6188  2.0300 -0.7323
 1828SOL    HW217118   1.275   0.785   9.690  2.0996 -0.0913 -0.8960
 1829SOL     OW17119   4.009   3.799   6.664 -0.4075 -0.2831 -0.0029
 1829SOL    HW117120   3.947   3.865   6.636  0.6934  0.6869 -0.1699
 1829SOL    HW217121   4.031   3.752   6.583 -0.3452  0.0259 -0.1642
 1830SOL     OW17122   1.564   3.332   9.377 -0.3116  0.4684  0.0801
 1830SOL    HW117123   1.505   3.358   9.448 -1.9055 -0.4784 -0.8862
 1830SOL    HW217124   1.544   3.380   9.297 -1.4188 -0.7469 -0.3833
 1831SOL     OW17125   3.648   2.781   9.882  0.1972 -0.6941 -0.3325
 1831SOL    HW117126   3.692   2.863   9.859  0.6950 -0.6815  0.6591
 1831SOL    HW217127   3.606   2.759   9.799 -0.3407  2.9624 -1.0457
 1832SOL     OW17128   0.788   3.802   2.827 -0.1688  0.2002 -0.0310
 1832SOL    HW117129   0.756   3.888   2.803 -0.5898 -0.4975 -1.9517
 1832SOL    HW217130   0.708   3.749   2.831  0.6731 -1.0528  0.2350
 1833SOL     OW17131   2.966   0.893   6.880 -0.3082 -1.5521 -0.2680
 1833SOL    HW117132   2.890   0.844   6.912  0.1026 -0.6619  2.0633
 1833SOL    HW217133   2.959   0.881   6.785 -1.2486 -3.0271 -0.0149
 1834SOL     OW17134   2.129   0.506  15.574 -0.3582 -0.0821  0.2660
 1834SOL    HW117135   2.134   0.411  15.582 -1.5545 -0.1557  0.0537
 1834SOL    HW217136   2.220   0.524  15.549 -0.6726 -0.2455 -0.9893
 1835SOL     OW17137   1.626   2.886   1.250 -0.0008  0.0304 -0.0308
 1835SOL    HW117138   1.690   2.826   1.212 -2.9538 -1.9307 -1.9228
 1835SOL    HW217139   1.636   2.969   1.202  0.9994 -0.6643 -1.0250
 1836SOL     OW17140   4.384   4.575   7.265 -0.2435  0.7731 -0.4183
 1836SOL    HW117141   4.318   4.506   7.261  2.2124 -1.8707  3.8574
 1836SOL    HW217142   4.461   4.525   7.294 -0.0575  1.2163 -0.1535
 1837SOL     OW17143   3.999   1.978   8.501  0.1696 -0.0525  0.0094
 1837SOL    HW117144   4.076   1.996   8.556  1.7586  0.1215 -2.2730
 1837SOL    HW217145   3.920   1.986   8.554 -0.0481  0.5745 -0.4055
 1838SOL     OW17146   0.722   4.076   5.368 -0.2978  0.4298  0.5182
 1838SOL    HW117147   0.817   4.082   5.370 -0.1219 -1.9787  0.0280
 1838SOL    HW217148   0.694   3.990   5.400 -2.5468  0.7507 -0.5343
 1839SOL     OW17149   2.380   0.432  13.752  0.3138  0.6679 -0.8670
 1839SOL    HW117150   2.367   0.440  13.658 -1.5610  1.0460 -0.5855
 1839SOL    HW217151   2.289   0.414  13.777 -0.0589 -0.3666 -2.9872
 1840SOL     OW17152   3.750   1.600   3.575 -0.5139 -0.9234  0.4850
 1840SOL    HW117153   3.845   1.590   3.586 -0.2600  2.3811  1.5287
 1840SOL    HW217154   3.723   1.509   3.567 -0.1959 -1.1271  1.7181
 1841SOL     OW17155   1.623   2.716   4.730  0.0428 -0.0052 -0.6319
 1841SOL    HW117156   1.557   2.647   4.738  1.2178 -1.1207 -0.6172
 1841SOL    HW217157   1.633   2.763   4.813  0.6345 -1.4561  0.1230
 1842SOL     OW17158   4.544   3.016  11.624 -0.3422 -0.1228 -0.1045
 1842SOL    HW117159   4.469   3.071  11.599 -1.0451 -0.4565  1.2463
 1842SOL    HW217160   4.615   3.067  11.586  0.4879 -0.4941  0.9329
 1843SOL     OW17161   0.426   3.831  12.276  0.7621  0.3447 -0.7359
 1843SOL    HW117162   0.356   3.875  12.325  0.1092 -0.9748 -0.4911
 1843SOL    HW217163   0.462   3.902  12.222 -0.2042 -0.0650 -1.9214
 1844SOL     OW17164   0.501   1.082   6.073  0.3275  0.0605  0.3755
 1844SOL    HW117165   0.577   1.068   6.017 -0.0767  0.3920 -0.2446
 1844SOL    HW217166   0.527   1.126   6.154 -0.4143  0.3512  0.4537
 1845SOL     OW17167   0.283   3.425  16.116 -0.4558 -0.1855 -0.0302
 1845SOL    HW117168   0.281   3.427  16.020  0.3750 -2.4980 -0.0760
 1845SOL    HW217169   0.374   3.443  16.139 -0.2986 -0.3754 -0.5055
 1846SOL     OW17170   3.149   0.359   8.081 -0.3713  0.3320 -0.5521
 1846SOL    HW117171   3.060   0.358   8.117 -0.6656  1.0017 -1.2766
 1846SOL    HW217172   3.195   0.358   8.166  0.8522  2.1526 -1.2056
 1847SOL     OW17173   1.453   4.471   9.216 -0.0964  0.5248  0.1390
 1847SOL    HW117174   1.411   4.557   9.219 -1.3871 -0.0880 -0.3508
 1847SOL    HW217175   1.534   4.503   9.256 -1.0053 -0.2602  2.5574
 1848SOL     OW17176   0.112   1.901   6.709 -0.2402 -0.3777 -0.1508
 1848SOL    HW117177   0.017   1.899   6.701 -0.3566  2.9285  0.1949
 1848SOL    HW217178   0.132   1.993   6.724 -2.5858  0.0715  0.2352
 1849SOL     OW17179   2.635   3.966   4.700  0.4287  0.2405  0.0432
 1849SOL    HW117180   2.543   3.987   4.716 -0.3257 -2.1944 -1.1300
 1849SOL    HW217181   2.640   3.946   4.606 -0.2332 -1.4126  0.3634
 1850SOL     OW17182   2.643   2.986   3.930 -0.0430 -0.1277 -0.4661
 1850SOL    HW117183   2.622   3.076   3.905 -1.7095 -0.5555 -0.6405
 1850SOL    HW217184   2.606   2.942   3.853  0.2142 -1.2280  0.0423
 1851SOL     OW17185   3.320   3.836   8.946 -0.0592 -0.4730  0.2536
 1851SOL    HW117186   3.357   3.924   8.938  0.9090 -1.1048 -1.9765
 1851SOL    HW217187   3.231   3.846   8.912  0.2931  1.9782  0.0473
 1852SOL     OW17188   2.228   4.560  11.595  0.0746 -0.4553  0.5932
 1852SOL    HW117189   2.305   4.525  11.550  1.1808  1.7383  0.7853
 1852SOL    HW217190   2.204   4.634  11.539 -2.2326  0.2079  2.4794
 1853SOL     OW17191   1.644   3.599   3.709 -0.6064 -0.4216  0.0736
 1853SOL    HW117192   1.625   3.593   3.615  2.6276 -0.3263 -0.5843
 1853SOL    HW217193   1.705   3.528   3.731  1.2278  0.6920 -1.4081
 1854SOL     OW17194   0.297   1.183   0.222 -0.0619  0.0588 -0.1933
 1854SOL    HW117195   0.212   1.154   0.253  1.1332 -1.2175  1.8640
 1854SOL    HW217196   0.277   1.227   0.139  0.4375 -0.0276 -0.3622
 1855SOL     OW17197   3.308   2.687   6.723  0.1558  0.3045 -0.6663
 1855SOL    HW117198   3.264   2.708   6.806  0.0652  1.2163 -0.9471
 1855SOL    HW217199   3.386   2.641   6.756 -0.0935  0.9796  0.8744
 1856SOL     OW17200   3.938   1.982   8.807 -0.5956 -0.2869 -0.3893
 1856SOL    HW117201   3.865   1.919   8.815 -0.7882  0.1529  1.3568
 1856SOL    HW217202   4.006   1.927   8.847  2.1903  2.9107 -0.8024
 1857SOL     OW17203   3.069   3.626  11.764  0.6519  0.0451 -0.2751
 1857SOL    HW117204   3.012   3.645  11.839  2.3279  2.0196  0.4778
 1857SOL    HW217205   3.130   3.700  11.769 -1.3015  1.6143  0.3300
 1858SOL     OW17206   3.032   0.755   8.676 -0.8384  0.1168 -0.1658
 1858SOL    HW117207   3.033   0.682   8.738  2.1385 -1.3686 -1.9515
 1858SOL    HW217208   3.125   0.775   8.690 -0.4719 -2.4826  1.1751
 1859SOL     OW17209   1.180   4.031   9.146 -0.1953  0.4111 -0.2520
 1859SOL    HW117210   1.233   4.110   9.138  0.4966  0.0633  0.9805
 1859SOL    HW217211   1.242   3.967   9.181 -0.9375  0.8948  1.9439
 1860SOL     OW17212   2.394   3.591   6.052  0.4993 -0.1036 -0.2221
 1860SOL    HW117213   2.333   3.570   6.123 -0.2057  1.5338 -0.3403
 1860SOL    HW217214   2.338   3.582   5.975 -2.0584  3.2277  1.2246
 1861SOL     OW17215   0.355   1.592   2.447 -0.6314  0.1487 -0.0968
 1861SOL    HW117216   0.404   1.524   2.400 -0.6085  1.1248 -1.4812
 1861SOL    HW217217   0.264   1.568   2.430 -0.6110  0.2861 -0.4135
 1862SOL     OW17218   1.271   3.508  14.374 -0.4798  0.0996 -0.1473
 1862SOL    HW117219   1.179   3.534  14.375 -0.2500  0.9348 -0.6202
 1862SOL    HW217220   1.254   3.416  14.354 -1.9097  0.2101  0.5788
 1863SOL     OW17221   0.805   1.147   8.374  0.2177 -0.5015  0.6475
 1863SOL    HW117222   0.769   1.170   8.459  0.5633  0.2950  0.5762
 1863SOL    HW217223   0.900   1.148   8.386  0.4529 -1.4396 -1.0381
 1864SOL     OW17224   4.635   4.199   2.815  0.0841 -0.0803 -0.8355
 1864SOL    HW117225   4.597   4.270   2.868  1.4443 -0.4458  0.6191
 1864SOL    HW217226   4.565   4.164   2.761 -0.5034 -1.2700  0.7155
 1865SOL     OW17227   1.746   4.407  17.531 -0.0359 -0.0276  0.0787
 1865SOL    HW117228   1.713   4.474  17.470 -1.1581 -2.9628 -2.5225
 1865SOL    HW217229   1.839   4.413  17.511  0.2559 -1.1644  1.1039
 1866SOL     OW17230   3.399   1.399   3.474 -0.1098  0.4149 -0.2357
 1866SOL    HW117231   3.440   1.400   3.387  1.1269 -1.7995  0.3300
 1866SOL    HW217232   3.318   1.350   3.460 -0.9287  0.7707  3.4302
 1867SOL     OW17233   1.780   1.722   9.919 -0.2766 -0.7261  0.1293
 1867SOL    HW117234   1.871   1.740   9.896 -0.3767 -0.4559 -0.0675
 1867SOL    HW217235   1.740   1.751   9.836 -0.3430 -2.2955 -0.3854
 1868SOL     OW17236   1.626   1.520  14.509  0.6013 -0.1898  0.2058
 1868SOL    HW117237   1.540   1.486  14.483  0.8337 -1.2097  0.7898
 1868SOL    HW217238   1.617   1.610  14.542  1.4937 -0.4097  1.0512
 1869SOL     OW17239   0.364   2.368  12.601 -0.3275 -0.2369  0.4106
 1869SOL    HW117240   0.387   2.430  12.532  0.0665  0.5905  1.2833
 1869SOL    HW217241   0.420   2.294  12.578 -0.1250  0.0130  0.0962
 1870SOL     OW17242   1.857   3.311   9.385 -0.2823  0.2586 -0.0927
 1870SOL    HW117243   1.764   3.301   9.406 -0.1197  0.4438  0.7140
 1870SOL    HW217244   1.887   3.332   9.473  0.1674  0.8472 -0.3850
 1871SOL     OW17245   0.869   2.560   3.215 -0.1275  0.4465 -0.0523
 1871SOL    HW117246   0.795   2.532   3.162  0.9731  2.5957 -2.7756
 1871SOL    HW217247   0.878   2.482   3.269  2.3487 -0.8274 -2.3023
 1872SOL     OW17248   1.665   1.357   3.228 -0.1351  0.4918 -0.3272
 1872SOL    HW117249   1.697   1.284   3.282 -1.6244 -0.7487 -1.1457
 1872SOL    HW217250   1.725   1.351   3.153 -0.9752  2.8172 -1.1915
 1873SOL     OW17251   4.698   1.957   9.049 -0.2269 -0.0080 -0.1090
 1873SOL    HW117252   0.041   1.956   9.098  0.4476 -1.7009 -1.2779
 1873SOL    HW217253   4.707   1.887   8.985 -1.9173  0.1031 -0.4747
 1874SOL     OW17254   2.653   2.896   2.961 -0.2585  0.3630  0.0622
 1874SOL    HW117255   2.674   2.982   2.924 -0.4421 -0.0273 -0.9307
 1874SOL    HW217256   2.631   2.918   3.052  0.2673  1.4201 -0.0591
 1875SOL     OW17257   1.171   2.846   8.265 -0.1736 -0.2521 -0.6795
 1875SOL    HW117258   1.242   2.843   8.201  0.9084 -1.1441  0.5718
 1875SOL    HW217259   1.114   2.769   8.255 -1.0670  0.2495  0.4663
 1876SOL     OW17260   1.725   3.836  16.154  0.6047  0.1533 -0.0586
 1876SOL    HW117261   1.716   3.835  16.249  1.0477 -1.6521 -0.0243
 1876SOL    HW217262   1.638   3.866  16.128  0.3517 -1.3089 -0.9654
 1877SOL     OW17263   1.910   0.063   4.752 -0.6298  0.0962 -0.0205
 1877SOL    HW117264   1.858   0.135   4.717  0.7633  1.7277  1.2945
 1877SOL    HW217265   1.985   0.110   4.788  0.4725 -0.5099 -1.5084
 1878SOL     OW17266   4.678   0.420   3.305  0.3986  0.0857  0.0874
 1878SOL    HW117267   4.610   0.355   3.325 -2.7504  3.2339 -0.4119
 1878SOL    HW217268   4.735   0.358   3.260 -1.2909  0.0293 -1.9557
 1879SOL     OW17269   0.721   2.070   2.851 -0.3618 -0.3269 -0.0553
 1879SOL    HW117270   0.767   2.137   2.800  0.4406 -0.9056 -0.0753
 1879SOL    HW217271   0.631   2.097   2.831  0.0961  0.3905 -1.1741
 1880SOL     OW17272   3.492   1.201  10.282 -0.3054  0.0365 -0.1023
 1880SOL    HW117273   3.464   1.118  10.243  2.2895 -0.7600 -0.2541
 1880SOL    HW217274   3.494   1.185  10.376  0.1394 -0.6493 -0.2274
 1881SOL     OW17275   1.543   1.994   9.282 -0.6079  0.2993 -0.2282
 1881SOL    HW117276   1.597   1.948   9.347 -0.8899  0.1536 -0.0991
 1881SOL    HW217277   1.571   1.954   9.199  0.0002 -0.9160  0.5714
 1882SOL     OW17278   2.953   0.018   5.511  0.0246  0.1515  0.0157
 1882SOL    HW117279   2.971   0.073   5.435  1.3751  1.7022  1.4702
 1882SOL    HW217280   3.011   4.682   5.504  0.7942  0.8422 -1.0134
 1883SOL     OW17281   2.009   3.205   3.895 -0.0975 -0.1365 -0.0313
 1883SOL    HW117282   2.089   3.218   3.946  0.3054 -0.3270 -0.6120
 1883SOL    HW217283   2.025   3.113   3.872  1.6868 -0.1897  1.4218
 1884SOL     OW17284   2.089   4.335   2.621  0.3275  0.5043  0.0996
 1884SOL    HW117285   2.056   4.424   2.637  0.6278  0.6413 -0.0269
 1884SOL    HW217286   2.040   4.281   2.683  1.0779  1.1003  1.2216
 1885SOL     OW17287   3.099   3.284   8.714 -0.3703 -0.3947  0.2277
 1885SOL    HW117288   3.008   3.254   8.716 -0.3765 -0.3824  0.1480
 1885SOL    HW217289   3.118   3.279   8.807  1.6448 -2.4342 -0.2612
 1886SOL     OW17290   1.413   3.572   4.774  0.3469 -0.0833 -0.9588
 1886SOL    HW117291   1.343   3.595   4.836 -0.0892 -0.1834 -1.4095
 1886SOL    HW217292   1.366   3.503   4.729 -2.1653  0.5090  0.7284
 1887SOL     OW17293   2.872   2.408   6.040 -0.1074  0.2134  0.3009
 1887SOL    HW117294   2.875   2.439   6.131 -0.6610  1.4257 -0.0968
 1887SOL    HW217295   2.863   2.500   6.016 -1.1964 -0.4721 -1.8806
 1888SOL     OW17296   3.929   3.126   1.703 -0.0351 -0.0849 -0.1001
 1888SOL    HW117297   3.948   3.199   1.644 -0.1701  0.1823  0.1876
 1888SOL    HW217298   3.852   3.164   1.747 -0.2517  1.3021 -1.6749
 1889SOL     OW17299   2.667   1.577   4.586  0.3412 -0.4955  0.6924
 1889SOL    HW117300   2.710   1.507   4.635 -0.0458 -0.4370  1.1098
 1889SOL    HW217301   2.574   1.555   4.594  0.0613  1.3018  2.4110
 1890SOL     OW17302   4.215   3.201  10.805  0.2415  0.1250 -0.3008
 1890SOL    HW117303   4.149   3.258  10.763 -2.3637 -2.6196  0.0522
 1890SOL    HW217304   4.229   3.131  10.741 -0.8085 -0.9959  0.6937
 1891SOL     OW17305   1.445   3.148   3.675 -0.1713 -0.1022 -0.2592
 1891SOL    HW117306   1.405   3.083   3.618 -2.5813  0.3754  0.8624
 1891SOL    HW217307   1.375   3.152   3.741 -0.8616 -0.7308 -0.9571
 1892SOL     OW17308   4.415   3.386   1.248 -0.2169  0.0333 -0.0310
 1892SOL    HW117309   4.444   3.462   1.299 -0.7127  0.2270 -0.0408
 1892SOL    HW217310   4.322   3.398   1.232 -0.1336  1.6738  0.7401
 1893SOL     OW17311   0.731   0.046  11.615  0.0654 -0.2215  0.5465
 1893SOL    HW117312   0.794   0.050  11.686 -1.0231 -0.1210  1.5148
 1893SOL    HW217313   0.782   0.001  11.548 -2.3131 -0.1096 -1.3717
 1894SOL     OW17314   0.853   1.027   1.654  0.1085  0.0094  0.1654
 1894SOL    HW117315   0.840   0.933   1.643  2.1179 -0.0906 -1.4471
 1894SOL    HW217316   0.778   1.057   1.704  0.7475  2.2097 -0.1996
 1895SOL     OW17317   4.657   3.267  16.700 -0.1326  0.0422  0.2324
 1895SOL    HW117318   4.572   3.234  16.730  0.3417 -4.0673 -2.9768
 1895SOL    HW217319   4.637   3.324  16.626  3.2026  0.9472  0.0213
 1896SOL     OW17320   3.633   1.024  15.738 -0.0921  0.5589  0.2178
 1896SOL    HW117321   3.713   1.076  15.732  1.1993 -1.4278  0.3255
 1896SOL    HW217322   3.573   1.099  15.738  2.9580  2.9987 -2.2976
 1897SOL     OW17323   4.500   2.530  11.803  0.0386 -0.1105  0.3537
 1897SOL    HW117324   4.568   2.519  11.738  0.2775  2.4649  0.1945
 1897SOL    HW217325   4.507   2.623  11.825  0.0222  0.0454 -0.3076
 1898SOL     OW17326   4.503   2.001   4.389  0.5293 -0.0967  0.0828
 1898SOL    HW117327   4.554   1.978   4.312  1.0776  1.1542  0.0710
 1898SOL    HW217328   4.414   1.980   4.361  0.1620  0.3869  0.8565
 1899SOL     OW17329   2.564   0.935   7.366 -0.1598 -0.0617 -0.2988
 1899SOL    HW117330   2.523   0.849   7.367  0.0853 -0.1900 -0.9646
 1899SOL    HW217331   2.494   0.992   7.335 -2.3637 -3.2276 -1.1280
 1900SOL     OW17332   3.222   2.354   8.638  0.3216  0.6093 -0.2264
 1900SOL    HW117333   3.136   2.397   8.637  0.7956  1.5465 -0.7309
 1900SOL    HW217334   3.281   2.417   8.679 -0.2279  0.6348  0.5371
 1901SOL     OW17335   2.419   2.942  11.959  0.3789  0.4545  0.0321
 1901SOL    HW117336   2.472   2.914  12.034  2.0389 -0.4817 -1.4774
 1901SOL    HW217337   2.477   2.935  11.882  0.9822  2.1849  0.3249
 1902SOL     OW17338   0.071   2.731   2.984  0.5113 -0.5206 -0.2145
 1902SOL    HW117339   0.158   2.740   3.023  0.2271  1.7125 -0.1431
 1902SOL    HW217340   0.076   2.817   2.944 -1.9324 -0.4785 -0.4115
 1903SOL     OW17341   1.205   4.213   3.273  0.3421 -0.1075 -0.3849
 1903SOL    HW117342   1.172   4.242   3.188  1.7395 -0.5825 -1.0977
 1903SOL    HW217343   1.137   4.255   3.326  1.4061  1.2122 -0.0735
 1904SOL     OW17344   1.011   2.559  14.517  0.3068  0.4982 -0.3671
 1904SOL    HW117345   0.944   2.506  14.474 -1.4552  2.6979 -0.2913
 1904SOL    HW217346   0.979   2.649  14.511 -1.6994 -0.1639  0.3657
 1905SOL     OW17347   2.289   2.023  15.293 -0.3392  0.1765 -0.5139
 1905SOL    HW117348   2.314   2.104  15.247  3.5820 -0.4224  0.5519
 1905SOL    HW217349   2.217   1.989  15.241 -1.3305  1.4413  0.0261
 1906SOL     OW17350   0.006   0.995   8.820  0.8387 -0.7472 -0.0974
 1906SOL    HW117351   4.719   0.967   8.908 -1.9846  0.9623 -0.3710
 1906SOL    HW217352   0.054   1.076   8.838 -2.4582  1.3358 -0.7317
 1907SOL     OW17353   1.890   1.911   5.198  0.2972  0.2094  0.3239
 1907SOL    HW117354   1.949   1.978   5.163  0.0728  1.0016  1.4820
 1907SOL    HW217355   1.806   1.956   5.195 -0.8359 -1.8627  1.0524
 1908SOL     OW17356   2.308   0.180   6.015 -0.2822 -0.2567 -0.2579
 1908SOL    HW117357   2.380   0.165   5.953 -2.0966 -3.4715 -1.6074
 1908SOL    HW217358   2.279   0.092   6.041 -2.5845  0.7509  0.6488
 1909SOL     OW17359   1.007   2.079   6.761  0.4825 -0.1436  0.2633
 1909SOL    HW117360   0.993   2.172   6.773  1.3773  0.2957 -1.9758
 1909SOL    HW217361   0.942   2.068   6.691  0.5719  1.6876 -0.0874
 1910SOL     OW17362   4.512   1.400   1.187 -0.4151  0.2994 -0.2779
 1910SOL    HW117363   4.598   1.391   1.147  0.4952  2.4268  1.2174
 1910SOL    HW217364   4.520   1.352   1.269 -0.2417  0.5853 -0.1266
 1911SOL     OW17365   2.907   3.309   5.843  0.6008  0.4225  0.3540
 1911SOL    HW117366   2.859   3.243   5.893 -0.1229  0.6062 -0.0977
 1911SOL    HW217367   2.908   3.391   5.892  0.6941  1.1247 -0.8428
 1912SOL     OW17368   4.304   4.122   3.937  0.0980 -0.0352  0.6745
 1912SOL    HW117369   4.284   4.196   3.880  1.1898 -1.2406 -1.2898
 1912SOL    HW217370   4.319   4.057   3.868 -0.1217 -1.5117  1.9984
 1913SOL     OW17371   2.195   3.612   8.743  0.0755 -0.1611  0.5436
 1913SOL    HW117372   2.231   3.532   8.781  2.0256  0.3906 -0.1658
 1913SOL    HW217373   2.117   3.580   8.697  1.0796 -1.9197  0.0514
 1914SOL     OW17374   3.923   3.336   7.969  0.1994 -0.4132  0.6678
 1914SOL    HW117375   4.005   3.339   8.018  0.8857 -0.3132 -0.4853
 1914SOL    HW217376   3.940   3.381   7.886  0.1700 -1.5753  0.0434
 1915SOL     OW17377   3.835   1.334   3.463 -0.7194  0.4739 -0.0885
 1915SOL    HW117378   3.890   1.325   3.385 -2.1890 -2.1654 -0.8475
 1915SOL    HW217379   3.836   1.245   3.498  1.2796 -0.5270 -2.6819
 1916SOL     OW17380   4.236   3.108  14.406  0.3719 -0.3826 -0.2657
 1916SOL    HW117381   4.245   3.185  14.350  2.0909  2.0606  3.3727
 1916SOL    HW217382   4.286   3.138  14.482 -0.3821 -1.2720  0.5879
 1917SOL     OW17383   2.644   3.798  17.378 -0.4207  0.2794  0.1855
 1917SOL    HW117384   2.670   3.820  17.468 -1.3968 -0.7301  0.7087
 1917SOL    HW217385   2.723   3.751  17.349  0.0924 -0.0179  2.0831
 1918SOL     OW17386   2.379   0.118   3.238  0.0182  0.4766 -0.5409
 1918SOL    HW117387   2.411   0.135   3.149  0.0937  0.4150 -0.5256
 1918SOL    HW217388   2.421   0.033   3.252  2.0244  1.5955  0.3683
 1919SOL     OW17389   1.055   0.603   7.926 -0.0815  0.2099  0.5722
 1919SOL    HW117390   1.092   0.679   7.970 -0.5743  1.8137 -1.7568
 1919SOL    HW217391   1.051   0.637   7.836 -2.6493  1.4472  1.1534
 1920SOL     OW17392   3.132   3.741   2.230  0.1201 -0.2097  0.4151
 1920SOL    HW117393   3.195   3.721   2.300  1.3914  1.1856 -0.3414
 1920SOL    HW217394   3.137   3.836   2.236  0.4133 -0.2432  0.7619
 1921SOL     OW17395   1.521   4.195  13.570 -0.2218 -0.1355  0.1381
 1921SOL    HW117396   1.585   4.261  13.545  1.0620 -1.1868  0.6423
 1921SOL    HW217397   1.514   4.213  13.664  0.7379 -0.3392  0.2401
 1922SOL     OW17398   4.710   0.769   4.099  0.1775  0.1987 -0.1003
 1922SOL    HW117399   4.655   0.758   4.021 -0.2472 -0.1268  0.2477
 1922SOL    HW217400   0.015   0.683   4.097  1.1729  0.7055  0.1473
 1923SOL     OW17401   3.935   1.213  11.418  0.4079  0.2485  0.0654
 1923SOL    HW117402   3.841   1.230  11.412  0.7005  1.4777 -1.1897
 1923SOL    HW217403   3.946   1.175  11.505 -2.3172  1.4956  0.9552
 1924SOL     OW17404   4.030   0.654   9.972 -0.2326 -0.4603 -0.9426
 1924SOL    HW117405   4.026   0.619   9.883  1.5425 -0.7904 -0.8972
 1924SOL    HW217406   4.014   0.746   9.951  1.5594 -0.6690 -3.3362
 1925SOL     OW17407   0.981   3.983   6.387 -0.2099  0.0754  0.0923
 1925SOL    HW117408   0.997   3.889   6.397  0.5139  0.4480  2.3458
 1925SOL    HW217409   1.008   3.996   6.296  2.2688 -2.7602  0.4047
 1926SOL     OW17410   1.321   4.489   9.889  0.2518  0.3124  0.2896
 1926SOL    HW117411   1.368   4.444   9.818 -1.1505 -1.2889  0.3636
 1926SOL    HW217412   1.345   4.435   9.965  1.4539  2.0009  1.0999
 1927SOL     OW17413   4.245   2.209   5.870  0.4267 -0.3888 -0.0999
 1927SOL    HW117414   4.219   2.155   5.795 -2.4216 -2.0411  2.0869
 1927SOL    HW217415   4.277   2.152   5.939 -1.6531 -1.3049  0.1295
 1928SOL     OW17416   3.063   0.702   5.360  0.0956  0.5630 -0.0866
 1928SOL    HW117417   3.006   0.723   5.287  1.8958  1.3517 -1.2666
 1928SOL    HW217418   3.010   0.647   5.418 -0.1562 -1.0462 -1.8495
 1929SOL     OW17419   1.578   4.447   0.309 -0.4091  0.4779 -0.1389
 1929SOL    HW117420   1.515   4.455   0.238 -2.5841 -0.4319  1.6625
 1929SOL    HW217421   1.650   4.415   0.255 -0.7298 -1.7334  0.7102
 1930SOL     OW17422   0.950   2.976   4.005 -0.4035 -0.1813  0.0244
 1930SOL    HW117423   1.009   2.913   3.963  0.5782  1.1890 -0.6577
 1930SOL    HW217424   0.972   3.062   3.968 -1.0365  0.3122  0.7843
 1931SOL     OW17425   3.471   1.187   0.012  0.2499 -0.5482  0.1254
 1931SOL    HW117426   3.531   1.168  17.694  2.4373  0.5527  1.6166
 1931SOL    HW217427   3.528   1.211   0.085  2.2082 -0.5858 -1.3869
 1932SOL     OW17428   0.475   0.201  13.666 -0.3709  0.0092  0.4328
 1932SOL    HW117429   0.511   0.271  13.721 -0.5644  0.1321  0.4049
 1932SOL    HW217430   0.559   0.164  13.637 -0.2765  0.1413  0.5349
 1933SOL     OW17431   4.218   3.333   6.469 -0.1796  0.1655 -0.5552
 1933SOL    HW117432   4.270   3.397   6.518 -1.0856  1.4227 -1.2346
 1933SOL    HW217433   4.137   3.331   6.520  0.5905 -1.1591  0.5913
 1934SOL     OW17434   4.059   2.926  13.309  0.2753 -0.4407 -0.1662
 1934SOL    HW117435   4.064   3.004  13.254  0.5424 -0.3038  0.0545
 1934SOL    HW217436   4.104   2.972  13.379 -1.1183  2.0870 -0.8941
 1935SOL     OW17437   3.748   1.174   6.981 -0.0684 -0.0488  0.4327
 1935SOL    HW117438   3.671   1.130   6.943  0.7325  0.4543 -1.7518
 1935SOL    HW217439   3.713   1.193   7.068  1.9693 -0.8311  1.4190
 1936SOL     OW17440   4.156   4.666   5.048 -0.3592 -0.2751  0.2648
 1936SOL    HW117441   4.146   4.584   5.000 -2.0063 -1.7658  3.1823
 1936SOL    HW217442   4.249   4.685   5.035  0.0212 -0.9543  2.0770
 1937SOL     OW17443   2.442   2.196   0.269  0.4717 -0.8401 -0.4133
 1937SOL    HW117444   2.479   2.111   0.294 -1.1738 -0.4642  3.2202
 1937SOL    HW217445   2.507   2.230   0.207  0.3455 -0.8012 -0.5238
 1938SOL     OW17446   0.866   3.056   1.341  0.2417 -0.3263 -0.0917
 1938SOL    HW117447   0.815   3.084   1.266  2.2334  0.9352 -0.9745
 1938SOL    HW217448   0.808   2.997   1.389 -1.9144 -0.2843 -2.6553
 1939SOL     OW17449   2.038   2.886   4.297  0.7456 -0.1300 -0.5955
 1939SOL    HW117450   2.103   2.951   4.273  0.0906  1.1744  1.1757
 1939SOL    HW217451   1.959   2.939   4.281 -0.0991 -0.8154  1.2852
 1940SOL     OW17452   0.241   1.430   6.123  0.5910 -0.7255  0.0379
 1940SOL    HW117453   0.177   1.406   6.056  0.2491  0.3670 -0.0281
 1940SOL    HW217454   0.241   1.525   6.121  1.5368 -0.6758  2.6409
 1941SOL     OW17455   4.444   1.118  15.659 -0.1129  0.3690  0.0185
 1941SOL    HW117456   4.387   1.046  15.687 -0.0166 -0.5448 -2.1487
 1941SOL    HW217457   4.526   1.073  15.639 -0.4468 -0.2467  0.0349
 1942SOL     OW17458   4.177   3.990  17.444 -0.4015 -0.1125 -0.3670
 1942SOL    HW117459   4.086   4.018  17.431 -0.3273 -0.1768 -1.0504
 1942SOL    HW217460   4.187   3.992  17.539  0.3531  0.4621 -0.4620
 1943SOL     OW17461   0.797   3.178   1.839  0.1695 -0.0091  0.0524
 1943SOL    HW117462   0.869   3.234   1.867 -0.5578  1.0559 -0.2243
 1943SOL    HW217463   0.740   3.229   1.781  3.8001  2.7279 -1.0930
 1944SOL     OW17464   3.776   3.268   4.960 -0.0309 -0.2783 -0.0658
 1944SOL    HW117465   3.797   3.310   5.043 -2.0653 -2.5127  1.5724
 1944SOL    HW217466   3.863   3.265   4.921  0.2068 -1.7458  0.5649
 1945SOL     OW17467   1.357   0.179  13.874 -0.5449 -0.2384  0.5317
 1945SOL    HW117468   1.367   0.256  13.929  1.0716  1.0676 -1.5879
 1945SOL    HW217469   1.261   0.173  13.875 -0.5041 -0.8572  0.6666
 1946SOL     OW17470   3.437   2.274  14.994 -0.2148 -0.6424 -0.2803
 1946SOL    HW117471   3.491   2.242  15.066 -0.5241  0.8594  0.6122
 1946SOL    HW217472   3.414   2.360  15.029 -2.0021 -1.2492  0.0135
 1947SOL     OW17473   4.725   0.917   3.397  0.1888 -0.1096  0.4816
 1947SOL    HW117474   4.732   0.827   3.366 -2.2823  0.9539 -3.2125
 1947SOL    HW217475   4.643   0.943   3.355  0.8263 -2.0231 -1.9516
 1948SOL     OW17476   2.807   0.881   8.580  0.5582  0.3214 -0.1039
 1948SOL    HW117477   2.823   0.818   8.510 -0.4005 -3.2469  2.8396
 1948SOL    HW217478   2.878   0.848   8.635  1.1604  1.9114  0.0704
 1949SOL     OW17479   3.469   3.502   3.030  1.2163  0.4442 -0.4692
 1949SOL    HW117480   3.520   3.509   2.950  0.6162 -0.2580 -0.9114
 1949SOL    HW217481   3.389   3.490   2.980  2.2051 -2.2313 -1.4045
 1950SOL     OW17482   0.933   1.950   5.997 -0.7684 -0.0666  0.0447
 1950SOL    HW117483   0.846   1.986   5.988 -0.9558 -1.0020 -1.8427
 1950SOL    HW217484   0.993   2.024   5.992  1.1168 -1.6040 -0.2641
 1951SOL     OW17485   2.559   0.227   6.457  0.8011 -0.1627  0.5129
 1951SOL    HW117486   2.506   0.191   6.385 -2.3196 -0.4609  2.9480
 1951SOL    HW217487   2.641   0.181   6.442  0.4068 -0.6547 -0.1071
 1952SOL     OW17488   0.103   4.025  15.541  0.0151  0.0876 -0.3196
 1952SOL    HW117489   0.160   3.950  15.559  0.7441  0.3196 -1.7154
 1952SOL    HW217490   0.021   3.974  15.547 -1.3177  1.8878 -3.2142
 1953SOL     OW17491   1.864   2.612   0.183  0.3593  0.4656  0.1064
 1953SOL    HW117492   1.942   2.663   0.206  1.0584 -0.0612 -1.0929
 1953SOL    HW217493   1.901   2.539   0.134  1.7892  2.2915 -1.5671
 1954SOL     OW17494   0.354   2.560  16.982  0.2196 -0.0266 -0.3433
 1954SOL    HW117495   0.336   2.539  16.890 -1.5861  0.9813 -0.2340
 1954SOL    HW217496   0.280   2.620  16.992  1.5693  1.6061 -0.2458
 1955SOL     OW17497   2.941   4.373  15.683  0.8532  0.1161 -0.5627
 1955SOL    HW117498   2.941   4.320  15.763 -1.6256 -0.3469 -0.8871
 1955SOL    HW217499   3.000   4.323  15.627  1.8654  0.3924  0.2401
 1956SOL     OW17500   0.633   1.412   0.938  0.3459 -0.1084  0.3502
 1956SOL    HW117501   0.671   1.469   1.005 -0.2683 -0.1278  0.7223
 1956SOL    HW217502   0.684   1.332   0.946 -1.0180 -0.9253  0.9048
 1957SOL     OW17503   0.307   0.948   4.284  0.7131  0.4220  0.1915
 1957SOL    HW117504   0.352   0.883   4.230  0.7794  1.7754 -1.3979
 1957SOL    HW217505   0.271   1.002   4.213  1.1778 -0.1474 -0.4755
 1958SOL     OW17506   2.647   3.211   5.419 -1.0039 -0.3914 -0.4017
 1958SOL    HW117507   2.700   3.267   5.477 -0.3147 -1.5307  0.0687
 1958SOL    HW217508   2.685   3.124   5.429 -1.0942 -0.4072 -0.1986
 1959SOL     OW17509   4.466   2.441   5.043 -0.2960  0.7565 -0.2513
 1959SOL    HW117510   4.507   2.359   5.014 -0.7412  1.5583 -3.1750
 1959SOL    HW217511   4.526   2.470   5.112 -1.1731  0.1321  0.7744
 1960SOL     OW17512   1.104   4.089   4.695  0.6037 -0.3160 -0.7216
 1960SOL    HW117513   1.048   4.098   4.618  0.5876 -0.6334 -0.7473
 1960SOL    HW217514   1.154   4.171   4.697  1.7577 -0.9845 -2.4488
 1961SOL     OW17515   0.055   0.991   6.555  0.0409 -0.0478  0.0131
 1961SOL    HW117516   0.052   0.898   6.576  3.7809  0.0537  1.0022
 1961SOL    HW217517   0.022   1.032   6.635  1.2822 -1.5293  1.2744
 1962SOL     OW17518   1.734   0.648   9.229 -0.7239 -0.0850  0.4724
 1962SOL    HW117519   1.662   0.624   9.286 -0.8106 -1.8082 -0.3752
 1962SOL    HW217520   1.698   0.734   9.205  0.9781  0.4997 -0.0253
 1963SOL     OW17521   4.673   1.635   5.967 -0.2608  0.3453 -0.2870
 1963SOL    HW117522   4.671   1.674   6.054 -1.8903 -2.0290  0.7227
 1963SOL    HW217523   4.714   1.707   5.918 -1.8872 -0.0728 -2.2615
 1964SOL     OW17524   0.364   0.874  15.633  0.2908  0.5217  0.1728
 1964SOL    HW117525   0.403   0.860  15.719  0.5546  1.0131  0.1348
 1964SOL    HW217526   0.276   0.884  15.671  0.0906 -1.5212  0.2239
 1965SOL     OW17527   3.039   2.001   6.616 -0.1564  0.1143  0.1647
 1965SOL    HW117528   3.034   2.008   6.520 -2.4338 -0.5116  0.2426
 1965SOL    HW217529   3.086   1.919   6.631  0.1415  0.3155  0.3208
 1966SOL     OW17530   1.573   0.508   8.423 -0.4367  0.3740  0.8257
 1966SOL    HW117531   1.560   0.598   8.393  1.6150  0.4025  0.0187
 1966SOL    HW217532   1.535   0.462   8.348  3.1727 -2.2311  0.6177
 1967SOL     OW17533   0.022   4.021  14.584  0.2466  0.0532 -0.1520
 1967SOL    HW117534   0.085   4.068  14.639 -0.4522 -0.1922  0.8572
 1967SOL    HW217535   0.058   4.045  14.499  4.3359 -1.6445  1.1026
 1968SOL     OW17536   0.292   2.497   9.898 -0.3086  0.3846 -0.0798
 1968SOL    HW117537   0.252   2.583   9.913  0.9746  1.2478 -1.6200
 1968SOL    HW217538   0.222   2.459   9.845  0.0740 -0.2289 -0.1427
 1969SOL     OW17539   2.846   4.723   0.952 -0.1285 -0.2874 -0.3969
 1969SOL    HW117540   2.767   4.671   0.962 -1.4628  1.6362 -0.9447
 1969SOL    HW217541   2.911   4.653   0.946  1.7198  1.4495 -0.7006
 1970SOL     OW17542   2.031   0.507   5.909  0.1595 -0.3525 -0.1874
 1970SOL    HW117543   1.978   0.431   5.933 -0.0922 -1.0762 -3.0810
 1970SOL    HW217544   2.083   0.522   5.989  1.8409 -0.0484 -1.3262
 1971SOL     OW17545   4.238   3.332   6.062 -0.3479  0.5489 -0.0829
 1971SOL    HW117546   4.319   3.306   6.105  0.6050 -1.5614 -3.2199
 1971SOL    HW217547   4.232   3.424   6.085 -0.5797  0.1558  1.4489
 1972SOL     OW17548   1.229   3.035  16.308  0.0549 -0.0990 -0.0787
 1972SOL    HW117549   1.190   2.959  16.352  0.8633  0.3003  1.3461
 1972SOL    HW217550   1.288   3.063  16.378  1.1227  0.4476 -1.2032
 1973SOL     OW17551   1.927   4.551   2.632 -0.1595  0.0669 -0.4862
 1973SOL    HW117552   1.918   4.645   2.616 -2.2463  0.2825  1.9307
 1973SOL    HW217553   1.846   4.521   2.592 -0.0391 -0.8898  0.0046
 1974SOL     OW17554   1.423   1.459   7.876 -0.4108 -0.1637  0.6706
 1974SOL    HW117555   1.484   1.494   7.812 -0.6241 -2.6462 -0.9095
 1974SOL    HW217556   1.447   1.499   7.960  1.9280  0.7513 -0.4294
 1975SOL     OW17557   2.175   2.236   3.201  0.5862 -0.1294  0.4760
 1975SOL    HW117558   2.241   2.303   3.185  0.4020  0.0945  0.6578
 1975SOL    HW217559   2.145   2.258   3.289 -0.3752  0.3217  0.0379
 1976SOL     OW17560   2.712   1.508  13.603  0.6378 -0.1305 -0.4707
 1976SOL    HW117561   2.767   1.503  13.681 -0.2451  1.8090  0.2767
 1976SOL    HW217562   2.624   1.481  13.631  1.2724 -1.7025  0.0346
 1977SOL     OW17563   3.621   2.256   9.577  0.1037 -0.1037 -0.0629
 1977SOL    HW117564   3.653   2.206   9.502  0.9058  0.5159 -0.1301
 1977SOL    HW217565   3.700   2.302   9.604  0.6138 -0.9790 -0.0782
 1978SOL     OW17566   1.633   0.641  16.126 -0.1794  0.2375 -0.0525
 1978SOL    HW117567   1.589   0.709  16.076  0.2083 -0.3270 -1.1567
 1978SOL    HW217568   1.564   0.575  16.133  0.1684  0.0398  1.4754
 1979SOL     OW17569   4.187   1.563   4.958 -0.0567  0.2161 -0.0834
 1979SOL    HW117570   4.252   1.632   4.970  0.4155 -0.3696  0.7678
 1979SOL    HW217571   4.197   1.513   5.039  0.7959  2.4722  1.1931
 1980SOL     OW17572   2.819   1.847  12.247 -0.0944 -0.3285  0.0492
 1980SOL    HW117573   2.849   1.867  12.158 -0.0768  1.1205  0.3950
 1980SOL    HW217574   2.748   1.783  12.247 -0.6094  0.2601  2.1471
 1981SOL     OW17575   2.182   0.555   1.341  0.3119 -0.4121  0.1518
 1981SOL    HW117576   2.248   0.560   1.410 -0.4953  0.6774  0.8584
 1981SOL    HW217577   2.102   0.521   1.383  1.4037 -3.2615 -0.0963
 1982SOL     OW17578   0.703   0.658   9.773  0.3782 -0.0481 -0.5237
 1982SOL    HW117579   0.700   0.586   9.710 -2.1757  0.6770 -1.2439
 1982SOL    HW217580   0.609   0.664   9.788  0.3327  0.0930 -0.8550
 1983SOL     OW17581   0.213   0.676   6.284  0.0873 -0.6801  0.2648
 1983SOL    HW117582   0.219   0.670   6.188  0.6514  1.0695  0.1837
 1983SOL    HW217583   0.120   0.688   6.305  0.1307  0.4974 -0.1888
 1984SOL     OW17584   1.304   0.396   8.775 -0.1339 -0.1262 -0.7233
 1984SOL    HW117585   1.223   0.346   8.762  1.0360 -2.0069 -0.8307
 1984SOL    HW217586   1.278   0.474   8.824  1.4409 -0.5952  0.8524
 1985SOL     OW17587   1.411   2.761   6.209 -0.5353 -0.1512  0.1346
 1985SOL    HW117588   1.338   2.739   6.267  0.7669 -0.0501  1.8326
 1985SOL    HW217589   1.442   2.677   6.176  0.0955 -0.6622  2.0491
 1986SOL     OW17590   0.798   4.198   3.287  0.7727 -0.0969  0.4794
 1986SOL    HW117591   0.759   4.215   3.372 -0.8398 -0.9174 -0.0738
 1986SOL    HW217592   0.881   4.241   3.303  0.9972  0.1741 -1.3543
 1987SOL     OW17593   3.273   0.256   4.417 -0.5259 -0.4337 -0.0092
 1987SOL    HW117594   3.267   0.193   4.489 -0.2006 -0.3062  0.1259
 1987SOL    HW217595   3.272   0.193   4.345 -1.7529 -1.8951  1.2907
 1988SOL     OW17596   3.475   2.654  13.461  0.0994  0.1278 -0.5725
 1988SOL    HW117597   3.429   2.637  13.379 -0.2733  1.2386 -0.5980
 1988SOL    HW217598   3.418   2.711  13.513 -0.6934  0.4033 -1.7571
 1989SOL     OW17599   0.805   3.576   1.982 -0.1123  0.2178 -0.2756
 1989SOL    HW117600   0.825   3.669   1.989  0.1462 -0.0621  3.0334
 1989SOL    HW217601   0.721   3.579   1.936 -0.5437  0.3053  0.5018
 1990SOL     OW17602   4.358   2.721   1.322 -0.0611  0.1457  0.0407
 1990SOL    HW117603   4.335   2.687   1.408 -1.6521 -3.8468 -2.0037
 1990SOL    HW217604   4.425   2.662   1.289 -2.1063 -1.9426 -0.3215
 1991SOL     OW17605   3.362   4.235   4.543  0.3730 -0.1367  0.0605
 1991SOL    HW117606   3.442   4.284   4.521 -1.0335  1.9913 -0.3108
 1991SOL    HW217607   3.360   4.214   4.636 -0.7579  1.3333  0.3708
 1992SOL     OW17608   2.149   4.624   3.769  0.5780  0.1328  0.3332
 1992SOL    HW117609   2.148   4.596   3.860 -1.5694  0.8934  0.5462
 1992SOL    HW217610   2.243   4.613   3.756 -0.0495 -2.4610 -2.0356
 1993SOL     OW17611   0.367   2.542   0.820 -0.0310  0.0675 -1.0857
 1993SOL    HW117612   0.401   2.463   0.863 -1.6671 -1.2735 -2.2296
 1993SOL    HW217613   0.453   2.576   0.798  0.5941 -1.8072 -1.5543
 1994SOL     OW17614   4.423   0.338   6.020  0.1420  0.6870  0.0602
 1994SOL    HW117615   4.435   0.244   6.005  0.1283  0.6397  0.3555
 1994SOL    HW217616   4.344   0.350   5.967  1.0865  1.7054 -1.1516
 1995SOL     OW17617   2.573   2.307   5.103  0.0964  0.2464 -0.0176
 1995SOL    HW117618   2.498   2.251   5.081 -1.2117  2.4422 -1.1972
 1995SOL    HW217619   2.546   2.375   5.165  2.1861  1.3715 -0.3647
 1996SOL     OW17620   2.020   4.263   7.588 -0.5273 -0.3354 -0.0427
 1996SOL    HW117621   2.002   4.349   7.626  0.4607 -0.0988 -0.1018
 1996SOL    HW217622   1.950   4.254   7.524 -0.0288  3.2690 -1.0637
 1997SOL     OW17623   4.239   3.642  17.287  0.4601  0.3455 -0.4946
 1997SOL    HW117624   4.285   3.584  17.347 -1.0015 -1.4168 -1.0841
 1997SOL    HW217625   4.311   3.705  17.285 -0.2553  1.2939  2.3651
 1998SOL     OW17626   4.692   3.472  12.612 -0.6927  0.3042 -0.4625
 1998SOL    HW117627   4.688   3.495  12.705  0.2879 -0.7662 -0.1526
 1998SOL    HW217628   4.669   3.558  12.576 -0.0969  0.5042 -0.3749
 1999SOL     OW17629   3.344   2.664   2.678  0.3065 -0.2448 -0.5148
 1999SOL    HW117630   3.262   2.699   2.642 -0.2734  1.2173  2.2631
 1999SOL    HW217631   3.370   2.740   2.730 -0.2284 -1.2075  1.1333
 2000SOL     OW17632   0.373   1.947  15.389 -0.0433  0.6418  0.0833
 2000SOL    HW117633   0.299   1.899  15.424 -0.0728 -0.3453 -1.3429
 2000SOL    HW217634   0.370   2.034  15.430  1.4874  0.6764  0.1295
 2001SOL     OW17635   2.677   1.800   7.080 -1.0190 -0.4025 -0.1486
 2001SOL    HW117636   2.717   1.839   7.158 -0.5225  1.6516 -1.4113
 2001SOL    HW217637   2.697   1.707   7.089 -1.9495 -0.5661  0.2051
 2002SOL     OW17638   1.704   0.882   6.008 -0.5986  0.2048  1.1637
 2002SOL    HW117639   1.765   0.902   5.937  1.9128  1.3114  3.6460
 2002SOL    HW217640   1.648   0.819   5.963  0.3600  1.3324 -1.6136
 2003SOL     OW17641   2.350   0.636   5.373  0.1975 -0.1321 -0.2858
 2003SOL    HW117642   2.356   0.572   5.444  2.7513 -1.2630 -1.5155
 2003SOL    HW217643   2.261   0.623   5.342 -0.3076  0.2903  1.0074
 2004SOL     OW17644   2.235   1.101   8.048  0.0331  0.0000 -0.0772
 2004SOL    HW117645   2.156   1.048   8.033  1.1324 -1.8129  0.5706
 2004SOL    HW217646   2.207   1.138   8.132  0.2420 -0.6614  0.2819
 2005SOL     OW17647   4.643   2.427   8.590  0.9576 -0.7080  0.3608
 2005SOL    HW117648   4.675   2.363   8.655  0.5985 -0.8170  0.4310
 2005SOL    HW217649   4.621   2.371   8.515  1.3073  0.1437 -0.3710
 2006SOL     OW17650   1.076   0.199   9.793  0.0405  0.3854  0.6904
 2006SOL    HW117651   1.151   0.253   9.768  0.6582 -0.3120  1.0409
 2006SOL    HW217652   1.114   0.119   9.829 -1.1229 -0.8054 -0.7719
 2007SOL     OW17653   3.954   2.975   7.897  0.8676  0.1915 -0.1109
 2007SOL    HW117654   4.046   2.956   7.877  0.4877  1.6754 -3.2776
 2007SOL    HW217655   3.962   3.016   7.983 -0.5527  0.3107 -0.0433
 2008SOL     OW17656   1.863   1.309   3.048 -0.0895  0.6251 -0.0847
 2008SOL    HW117657   1.855   1.216   3.026  1.0809  0.3287  0.7731
 2008SOL    HW217658   1.856   1.344   2.959 -0.7134 -0.9261 -0.6480
 2009SOL     OW17659   2.832   3.054   2.039  0.0698 -0.6550 -0.3781
 2009SOL    HW117660   2.819   3.133   2.091  0.5031  0.2836 -1.6919
 2009SOL    HW217661   2.916   3.025   2.074 -0.0079  1.6421  1.7307
 2010SOL     OW17662   2.909   2.357  13.038  0.3716 -0.4298  0.2581
 2010SOL    HW117663   2.817   2.333  13.026  0.1811  0.3958  0.0699
 2010SOL    HW217664   2.904   2.446  13.003 -1.0023 -0.8987 -0.7336
 2011SOL     OW17665   3.273   2.632   8.994 -0.5462  0.2478 -0.2803
 2011SOL    HW117666   3.295   2.561   9.055 -0.7772  0.5787  0.1849
 2011SOL    HW217667   3.337   2.700   9.012  0.1861 -0.7818  1.0726
 2012SOL     OW17668   4.284   2.854   4.992 -0.4928  0.3312 -0.3254
 2012SOL    HW117669   4.333   2.917   4.939  1.3932 -0.7294  0.1412
 2012SOL    HW217670   4.228   2.917   5.037  0.4431 -0.9540  2.6265
 2013SOL     OW17671   3.543   2.269   8.427 -0.7777  0.3017  0.0396
 2013SOL    HW117672   3.611   2.306   8.371 -0.2683  2.4741  2.1128
 2013SOL    HW217673   3.595   2.238   8.501 -0.5724 -0.9194 -0.6103
 2014SOL     OW17674   3.835   4.512   1.545 -0.4357  0.6736  0.2247
 2014SOL    HW117675   3.868   4.601   1.530  3.1729 -1.0277 -1.9296
 2014SOL    HW217676   3.910   4.453   1.538 -0.0006  1.4180 -1.5495
 2015SOL     OW17677   0.149   0.030   9.539  0.3568  0.5304 -0.0077
 2015SOL    HW117678   0.220   4.707   9.551  0.4650  0.3392 -1.5749
 2015SOL    HW217679   0.154   0.050   9.445 -1.6067  1.6540  0.1274
 2016SOL     OW17680   3.002   4.489   3.388 -0.6844  0.0807 -0.5306
 2016SOL    HW117681   2.964   4.534   3.463 -0.1021  0.3505 -0.4027
 2016SOL    HW217682   3.068   4.435   3.429 -1.2061  0.5900  0.9835
 2017SOL     OW17683   3.308   0.795   8.747  0.2171  0.3307 -0.0764
 2017SOL    HW117684   3.318   0.709   8.706  3.1689 -0.2243  1.7440
 2017SOL    HW217685   3.386   0.835   8.709 -0.9824 -1.2164 -4.1332
 2018SOL     OW17686   2.514   4.521   7.871  0.1262 -0.3055 -0.0116
 2018SOL    HW117687   2.437   4.465   7.872 -0.1935  0.1131 -0.9959
 2018SOL    HW217688   2.549   4.510   7.960  2.5296  1.1016 -0.7762
 2019SOL     OW17689   2.060   3.255   6.570 -0.2447  0.1281  0.3655
 2019SOL    HW117690   2.030   3.213   6.489 -1.8526  2.2885 -0.1548
 2019SOL    HW217691   2.092   3.340   6.539 -0.7773  0.5388  0.9434
 2020SOL     OW17692   0.234   1.634   7.862  0.5965  0.3978 -0.0683
 2020SOL    HW117693   0.172   1.584   7.809 -0.1190  0.0691  1.0763
 2020SOL    HW217694   0.208   1.609   7.950  2.4361  1.8607  0.9036
 2021SOL     OW17695   2.543   1.013   2.741 -0.6399 -0.1550 -0.0443
 2021SOL    HW117696   2.479   1.044   2.677 -1.4435 -0.3034  0.6851
 2021SOL    HW217697   2.532   0.918   2.746 -1.2238 -0.1754 -1.5892
 2022SOL     OW17698   4.126   3.085  11.769  0.1593 -0.1723  0.3306
 2022SOL    HW117699   4.130   3.153  11.836 -1.3847  2.2034 -1.9752
 2022SOL    HW217700   4.185   3.016  11.801 -1.3864 -1.0045  1.3631
 2023SOL     OW17701   3.478   3.165  11.267  0.0104 -0.0685 -0.2639
 2023SOL    HW117702   3.461   3.243  11.320  1.2260 -0.3258  0.5096
 2023SOL    HW217703   3.571   3.155  11.286 -0.0943  1.4310  1.0029
 2024SOL     OW17704   2.578   3.152   4.824  0.1352  0.3168  0.0319
 2024SOL    HW117705   2.606   3.239   4.795  0.8924 -0.4264 -1.4439
 2024SOL    HW217706   2.505   3.187   4.875 -2.4676 -1.1794 -2.6548
 2025SOL     OW17707   1.476   0.692   2.418 -0.0845  0.4219 -0.5536
 2025SOL    HW117708   1.557   0.718   2.462  0.3722 -0.1893 -1.0248
 2025SOL    HW217709   1.411   0.731   2.476  0.2643 -0.2207  0.2684
 2026SOL     OW17710   1.095   2.573   8.724 -0.4122 -0.4209  0.4237
 2026SOL    HW117711   1.046   2.504   8.770  1.6552 -1.0250  1.7244
 2026SOL    HW217712   1.141   2.613   8.798 -0.1932 -1.7348  1.0048
 2027SOL     OW17713   3.798   3.469   6.922  0.5676 -0.3881 -0.6466
 2027SOL    HW117714   3.855   3.541   6.951  1.1541 -1.8875  1.9195
 2027SOL    HW217715   3.720   3.489   6.974  1.5748 -0.0625  0.7455
 2028SOL     OW17716   3.606   0.372  12.479 -0.2480  0.3234 -0.0671
 2028SOL    HW117717   3.625   0.463  12.458  0.9139  0.0118 -0.3434
 2028SOL    HW217718   3.696   0.340  12.483  0.0044  1.2069  1.3458
 2029SOL     OW17719   0.699   3.978   9.469 -0.1857 -0.1319 -0.0535
 2029SOL    HW117720   0.709   4.069   9.440 -3.3046  0.2390  0.0640
 2029SOL    HW217721   0.606   3.976   9.489 -0.5616 -1.1260 -1.8715
 2030SOL     OW17722   1.396   3.172  15.304 -0.2880  0.1253  0.4076
 2030SOL    HW117723   1.388   3.142  15.394 -0.1407  0.7683  0.6336
 2030SOL    HW217724   1.309   3.151  15.270  0.0693  1.7853 -1.5151
 2031SOL     OW17725   4.413   2.309  13.499  0.0886 -0.2516 -0.4672
 2031SOL    HW117726   4.434   2.280  13.588 -0.0717  0.0581 -0.3273
 2031SOL    HW217727   4.360   2.235  13.472  0.1721 -1.1599  1.8835
 2032SOL     OW17728   2.476   2.853   8.704  0.3214  0.6160  0.0317
 2032SOL    HW117729   2.454   2.778   8.759 -0.4181  1.8115  1.3808
 2032SOL    HW217730   2.511   2.905   8.776  1.0541 -0.2328  0.2912
 2033SOL     OW17731   2.968   1.902  12.021 -0.2863  0.0748  0.7623
 2033SOL    HW117732   3.008   1.939  11.942 -1.0812  0.9477  0.7640
 2033SOL    HW217733   3.020   1.952  12.084 -0.0582  1.0183 -0.1676
 2034SOL     OW17734   4.591   1.039   8.213  0.2695  0.4673  0.3540
 2034SOL    HW117735   4.515   0.980   8.218  1.6272 -1.1557  1.6925
 2034SOL    HW217736   4.641   0.980   8.156 -0.3441  0.2248  0.0523
 2035SOL     OW17737   1.979   1.282   8.582 -0.7549 -0.2186  0.0349
 2035SOL    HW117738   1.946   1.367   8.612 -1.9973 -0.9075  0.6416
 2035SOL    HW217739   1.962   1.294   8.489  0.1430 -1.0737 -0.2410
 2036SOL     OW17740   1.063   0.918   7.811 -0.2260  0.1989  0.1079
 2036SOL    HW117741   1.073   0.845   7.749  1.3338  1.6384 -1.3326
 2036SOL    HW217742   1.065   0.994   7.754  1.1010  1.0236  1.2567
 2037SOL     OW17743   0.975   3.659   3.504  0.1402  0.2724  0.1543
 2037SOL    HW117744   0.933   3.705   3.576 -0.1548 -0.6027  0.5515
 2037SOL    HW217745   1.057   3.627   3.542  0.5633  1.0601 -0.1077
 2038SOL     OW17746   2.077   4.295   1.145 -0.0176 -0.2261 -0.0015
 2038SOL    HW117747   2.081   4.381   1.104  0.1275  0.1617  0.8474
 2038SOL    HW217748   2.163   4.267   1.112  0.7183  2.9429 -0.7217
 2039SOL     OW17749   0.479   3.242  14.161 -0.4217 -0.1687 -0.0484
 2039SOL    HW117750   0.530   3.197  14.094  2.7505  1.9271  0.9208
 2039SOL    HW217751   0.395   3.200  14.177 -0.2907 -0.7275 -0.8213
 2040SOL     OW17752   3.592   2.569   5.829  0.3899  0.1625  0.0558
 2040SOL    HW117753   3.553   2.637   5.774 -0.2692  0.1781  0.5374
 2040SOL    HW217754   3.520   2.510   5.849  0.8313 -0.5629 -0.5250
 2041SOL     OW17755   1.588   2.501   1.226 -0.0223  0.2302  0.6971
 2041SOL    HW117756   1.649   2.432   1.199  0.3200  1.3645 -1.3664
 2041SOL    HW217757   1.597   2.498   1.321 -3.5483 -1.2134  0.9931
 2042SOL     OW17758   2.676   0.265   0.142  0.2733 -0.5763 -0.2201
 2042SOL    HW117759   2.724   0.345   0.164 -0.6149  0.6386 -2.6978
 2042SOL    HW217760   2.716   0.198   0.198  2.2279  0.6789 -0.1179
 2043SOL     OW17761   2.937   2.981   2.933  0.5723  0.5307 -0.4876
 2043SOL    HW117762   2.883   3.059   2.921 -0.5863  0.0835  1.7079
 2043SOL    HW217763   2.865   2.925   2.963  0.4945  1.3695  0.9310
 2044SOL     OW17764   3.168   2.558   5.499 -0.6863 -0.0327 -0.1394
 2044SOL    HW117765   3.213   2.627   5.548  0.8833 -2.0340  1.2074
 2044SOL    HW217766   3.180   2.603   5.416  0.6879 -0.5469 -0.2214
 2045SOL     OW17767   4.719   2.478  14.100 -0.5893 -0.0689  0.4769
 2045SOL    HW117768   4.706   2.447  14.010  0.2908 -1.4855  0.8432
 2045SOL    HW217769   0.049   2.423  14.135 -1.9226 -2.0032  0.0599
 2046SOL     OW17770   3.571   1.727  11.670 -0.0928 -0.4764 -0.3769
 2046SOL    HW117771   3.478   1.746  11.684  0.0012 -0.7760  0.6480
 2046SOL    HW217772   3.562   1.642  11.627  0.2153 -1.1964  0.9997
 2047SOL     OW17773   1.879   2.819   4.005  0.2104 -0.7425 -0.1157
 2047SOL    HW117774   1.844   2.880   4.070  0.2435 -0.7720 -0.0700
 2047SOL    HW217775   1.837   2.735   4.022 -1.9380  0.5029  0.7816
 2048SOL     OW17776   0.583   1.718   2.514 -0.1908  0.0667 -0.5300
 2048SOL    HW117777   0.500   1.673   2.499  0.2938 -1.1312  0.3472
 2048SOL    HW217778   0.585   1.723   2.609 -2.0617  0.5752 -0.5202
 2049SOL     OW17779   2.157   3.797   9.658  0.3052 -0.3975  0.3162
 2049SOL    HW117780   2.242   3.827   9.691 -1.0577  0.5718  2.8791
 2049SOL    HW217781   2.172   3.706   9.634  0.5539 -0.2085 -0.2705
 2050SOL     OW17782   3.293   1.902   7.845  0.5185 -0.0860 -0.5110
 2050SOL    HW117783   3.272   1.885   7.753  1.0344 -0.2055 -0.6086
 2050SOL    HW217784   3.216   1.867   7.890  1.9356 -1.0624  1.1802
 2051SOL     OW17785   2.630   2.825   4.661  0.0390  0.2052  0.0698
 2051SOL    HW117786   2.614   2.899   4.719  0.1156  0.8113 -0.6804
 2051SOL    HW217787   2.545   2.828   4.617  0.4497 -2.3369 -0.8641
 2052SOL     OW17788   4.705   2.844   8.434  0.3104  0.2052  0.1508
 2052SOL    HW117789   0.030   2.859   8.503  2.2490 -0.3440 -1.5306
 2052SOL    HW217790   4.674   2.754   8.446  2.3490 -0.6427 -0.8796
 2053SOL     OW17791   0.937   3.225   9.648 -0.2877  0.5961 -0.1685
 2053SOL    HW117792   0.935   3.256   9.557  1.5042  0.3296 -0.3004
 2053SOL    HW217793   0.845   3.243   9.667 -1.1731 -1.0075 -2.8964
 2054SOL     OW17794   0.240   0.475   0.617  0.0491  0.0206 -0.1036
 2054SOL    HW117795   0.315   0.438   0.664 -1.8173 -0.6723  2.3492
 2054SOL    HW217796   0.295   0.525   0.557  0.4921  0.8092  0.9430
 2055SOL     OW17797   3.588   2.917   4.541 -0.7638  0.2499  0.1049
 2055SOL    HW117798   3.672   2.910   4.495 -0.6281 -2.1469  0.7265
 2055SOL    HW217799   3.577   2.826   4.568  2.3713 -0.0374  0.4407
 2056SOL     OW17800   4.100   3.470   7.329  0.4855 -0.2935 -0.0184
 2056SOL    HW117801   4.099   3.403   7.397  0.1127  1.3725  1.6299
 2056SOL    HW217802   4.014   3.511   7.337  0.4870 -0.5189  1.2855
 2057SOL     OW17803   0.671   2.128   1.963  0.2241  0.1559  0.2224
 2057SOL    HW117804   0.651   2.188   2.035  0.2325 -0.5279  0.7889
 2057SOL    HW217805   0.640   2.171   1.883 -1.0571  0.6881  1.0038
 2058SOL     OW17806   4.335   4.603  12.218 -0.3270 -0.1517  0.0736
 2058SOL    HW117807   4.429   4.612  12.200 -1.1236  3.5170 -2.1918
 2058SOL    HW217808   4.311   4.687  12.258  0.7102  0.4093 -0.4852
 2059SOL     OW17809   0.596   1.502  13.960 -0.1673  0.6721 -0.0158
 2059SOL    HW117810   0.629   1.565  13.895 -2.7018  0.9580 -1.0182
 2059SOL    HW217811   0.622   1.418  13.922  0.3344 -0.4253  2.8062
 2060SOL     OW17812   2.085   1.450   2.741 -0.4311  0.2920 -0.2051
 2060SOL    HW117813   2.162   1.497   2.707  0.1545  0.0499  0.7968
 2060SOL    HW217814   2.062   1.489   2.826  0.7375  2.1905 -0.7561
 2061SOL     OW17815   0.145   0.039  17.059  0.1152  0.0803  0.2182
 2061SOL    HW117816   0.094   0.078  16.989 -0.6785 -0.9496  0.2184
 2061SOL    HW217817   0.231   0.061  17.022  1.4569 -1.2795  2.4421
 2062SOL     OW17818   0.646   1.201   3.031 -0.2702  0.3895 -0.0682
 2062SOL    HW117819   0.687   1.116   3.019 -0.1733  0.6871 -1.8540
 2062SOL    HW217820   0.683   1.220   3.117  1.4907 -2.6032 -0.1547
 2063SOL     OW17821   2.737   2.726  15.873 -0.3778  0.3465 -0.2946
 2063SOL    HW117822   2.725   2.650  15.930 -1.5300 -0.2669 -1.3726
 2063SOL    HW217823   2.650   2.731  15.833 -0.1855  0.3508 -0.7097
 2064SOL     OW17824   2.915   4.612   4.442  0.0701  0.2571 -0.3966
 2064SOL    HW117825   2.845   4.662   4.483 -1.2162 -3.1808  1.4733
 2064SOL    HW217826   2.976   4.590   4.512  0.4758  1.4046 -0.3849
 2065SOL     OW17827   2.373   0.919   5.372 -0.2008 -0.2057  0.6761
 2065SOL    HW117828   2.311   0.949   5.439 -0.0603  2.6432 -0.4571
 2065SOL    HW217829   2.373   0.824   5.379  0.1426 -0.3045 -0.6452
 2066SOL     OW17830   0.430   2.039   6.967 -0.0866  0.6301  0.6117
 2066SOL    HW117831   0.374   2.111   6.938  0.2573 -0.1281 -1.9385
 2066SOL    HW217832   0.373   1.981   7.017 -1.8381  0.6552 -1.3504
 2067SOL     OW17833   1.377   1.946   1.124  0.4420  0.0038 -0.0861
 2067SOL    HW117834   1.378   1.958   1.219  0.1685 -2.9142  0.2704
 2067SOL    HW217835   1.414   2.030   1.096  1.2792 -0.4896 -0.4641
 2068SOL     OW17836   0.708   2.275   5.780 -0.4221 -0.1479 -0.4901
 2068SOL    HW117837   0.655   2.212   5.829 -1.9281  0.4681 -1.3146
 2068SOL    HW217838   0.719   2.344   5.845  0.1795  0.7766 -1.5746
 2069SOL     OW17839   4.131   1.324   3.456  0.4556 -0.4079  0.4614
 2069SOL    HW117840   4.095   1.297   3.540 -0.1864  1.5688  0.8199
 2069SOL    HW217841   4.160   1.239   3.422  1.6945  0.3215 -0.2879
 2070SOL     OW17842   3.195   1.990   9.475  0.9414  0.1379 -0.0738
 2070SOL    HW117843   3.203   2.064   9.414 -3.1361  0.2036 -0.4842
 2070SOL    HW217844   3.288   1.990   9.500  0.9416  0.2161 -0.0736
 2071SOL     OW17845   4.157   4.279   2.374  0.4353  0.5312 -0.1386
 2071SOL    HW117846   4.116   4.319   2.451  0.5508 -0.6863  0.5498
 2071SOL    HW217847   4.213   4.355   2.359  1.0890  0.1024  0.1737
 2072SOL     OW17848   1.378   0.769   5.290  0.4321 -0.1098 -0.6705
 2072SOL    HW117849   1.389   0.761   5.195 -0.4156  1.3275 -0.8875
 2072SOL    HW217850   1.283   0.775   5.299  0.5632  0.5323  0.2633
 2073SOL     OW17851   1.377   2.663   1.114  0.0017 -0.0150  0.2424
 2073SOL    HW117852   1.461   2.627   1.142 -0.6042 -1.1830  0.5660
 2073SOL    HW217853   1.341   2.699   1.195  0.8340 -1.7471  1.3870
 2074SOL     OW17854   2.618   2.735   6.503 -0.2346  0.2180 -0.3453
 2074SOL    HW117855   2.646   2.669   6.439  1.3700  0.5195  0.0442
 2074SOL    HW217856   2.699   2.785   6.507  0.4975 -0.9728 -0.3299
 2075SOL     OW17857   3.702   0.579   6.333  0.2299 -0.9524 -0.3427
 2075SOL    HW117858   3.672   0.579   6.242 -0.6138 -2.2157 -0.0585
 2075SOL    HW217859   3.768   0.649   6.333 -1.0156  0.2280 -0.1295
 2076SOL     OW17860   2.557   2.216   5.887 -0.1923  0.4187  0.4807
 2076SOL    HW117861   2.552   2.311   5.876 -0.6735  0.5444  1.7925
 2076SOL    HW217862   2.556   2.198   5.981  0.3286  0.2380  0.4521
 2077SOL     OW17863   2.711   3.106   9.388  0.7940 -0.0016 -0.4223
 2077SOL    HW117864   2.629   3.154   9.403  1.3933  1.6105 -2.3260
 2077SOL    HW217865   2.680   3.015   9.386  1.6368 -0.3142  0.6808
 2078SOL     OW17866   3.350   1.443   8.867  0.0532 -0.2299  0.4692
 2078SOL    HW117867   3.408   1.509   8.905  1.3534 -0.5474 -0.9605
 2078SOL    HW217868   3.401   1.378   8.818  1.0613 -0.2143  1.5121
 2079SOL     OW17869   4.200   0.239  10.615 -0.2714 -0.1236 -0.0357
 2079SOL    HW117870   4.200   0.327  10.579  2.8948 -0.4547 -0.8483
 2079SOL    HW217871   4.283   0.202  10.584  1.4475  1.7447  2.4133
 2080SOL     OW17872   3.563   0.025  10.407 -0.2976  0.2595  0.6341
 2080SOL    HW117873   3.545   4.681  10.451 -0.7135 -0.0014 -0.0345
 2080SOL    HW217874   3.633   0.003  10.345  0.4950 -0.2622  1.7198
 2081SOL     OW17875   2.587   0.820   5.591  0.2890  0.2285  0.1974
 2081SOL    HW117876   2.557   0.888   5.652 -0.4124  0.4272 -0.3642
 2081SOL    HW217877   2.517   0.755   5.591 -1.1075  1.7182 -0.0288
 2082SOL     OW17878   4.009   4.307  12.620  0.3045  0.2008  0.0185
 2082SOL    HW117879   4.039   4.274  12.535 -0.8730  1.0001 -0.7067
 2082SOL    HW217880   3.930   4.351  12.590 -0.5461 -0.7976  0.7797
 2083SOL     OW17881   2.172   1.428  16.074 -0.4543 -0.4439 -0.2763
 2083SOL    HW117882   2.140   1.504  16.124  0.3334  0.3306 -0.9453
 2083SOL    HW217883   2.226   1.395  16.146  1.3541 -0.9906 -1.8811
 2084SOL     OW17884   1.892   4.233   3.940  0.6125  0.0955  0.1447
 2084SOL    HW117885   1.902   4.324   3.968  1.9285 -0.1093  0.3546
 2084SOL    HW217886   1.809   4.252   3.897  1.2912 -0.8974 -1.6448
 2085SOL     OW17887   4.556   3.508   6.803  0.0749 -0.8619  0.0592
 2085SOL    HW117888   4.565   3.592   6.847 -0.4437 -1.6032  1.5722
 2085SOL    HW217889   4.462   3.508   6.783 -0.2771 -0.4246  1.7041
 2086SOL     OW17890   1.516   3.819   9.983 -0.1190  0.3025 -0.2615
 2086SOL    HW117891   1.539   3.733   9.946  0.5328  0.8245 -1.0855
 2086SOL    HW217892   1.478   3.851   9.901 -1.5883 -1.1477 -0.1378
 2087SOL     OW17893   4.461   0.746   5.727 -0.3304 -0.0708  0.1062
 2087SOL    HW117894   4.535   0.763   5.785  1.4444  2.0748 -2.7666
 2087SOL    HW217895   4.508   0.757   5.644 -1.2301 -0.1914 -0.4224
 2088SOL     OW17896   4.064   0.402  10.332 -0.1892  0.5084 -0.1409
 2088SOL    HW117897   4.073   0.453  10.251 -1.4891  0.0519 -0.5823
 2088SOL    HW217898   4.136   0.435  10.385  2.1212 -0.6106 -2.5649
 2089SOL     OW17899   3.361   2.107   8.082  0.1018 -0.3599  0.0981
 2089SOL    HW117900   3.399   2.092   7.995 -2.2515 -0.9581 -0.8375
 2089SOL    HW217901   3.376   2.202   8.076  0.3515 -0.2073  2.9604
 2090SOL     OW17902   4.498   2.004  11.056  0.7837  0.2079  0.5891
 2090SOL    HW117903   4.503   2.097  11.076 -0.1120  0.2194  0.7746
 2090SOL    HW217904   4.571   1.976  11.110  0.7054 -2.0539 -0.4869
 2091SOL     OW17905   4.615   0.887   0.038  0.1623  0.1260  0.3575
 2091SOL    HW117906   4.539   0.831   0.025  0.3230 -0.0001 -0.0652
 2091SOL    HW217907   4.636   0.919  17.704 -2.5238 -1.4552 -0.8501
 2092SOL     OW17908   3.819   1.572  12.403 -0.1273  0.0689 -0.7140
 2092SOL    HW117909   3.801   1.607  12.316 -1.0764 -0.3466 -0.6809
 2092SOL    HW217910   3.786   1.642  12.459 -1.0833 -1.7974  1.0765
 2093SOL     OW17911   3.848   3.309   5.212 -0.2720 -0.1046 -0.5063
 2093SOL    HW117912   3.778   3.348   5.263  1.0991 -0.0208  1.3066
 2093SOL    HW217913   3.914   3.290   5.279 -0.7245 -1.9020 -0.5566
 2094SOL     OW17914   0.958   2.071   3.750  0.1118  0.0833  0.2208
 2094SOL    HW117915   0.901   2.012   3.701 -0.5139  2.2003 -1.6207
 2094SOL    HW217916   0.975   2.022   3.829  0.7302 -0.4202 -0.2290
 2095SOL     OW17917   2.646   1.053   0.148 -0.1352 -0.3825  0.6209
 2095SOL    HW117918   2.699   1.008   0.082  1.5615  1.8607  0.4226
 2095SOL    HW217919   2.652   1.145   0.123 -0.4768 -0.5792 -0.1836
 2096SOL     OW17920   4.150   3.555   5.491 -0.2184 -0.5774  0.6084
 2096SOL    HW117921   4.187   3.596   5.413 -1.7233 -2.6924 -1.1895
 2096SOL    HW217922   4.224   3.516   5.539  0.9160  1.1466  0.2676
 2097SOL     OW17923   1.757   2.139   2.704  0.0979 -0.2388  0.1791
 2097SOL    HW117924   1.852   2.150   2.709  0.0598  0.8607 -1.5505
 2097SOL    HW217925   1.730   2.199   2.774  1.2382  0.4913 -0.0041
 2098SOL     OW17926   3.366   0.387   8.309 -0.8047  0.3033  0.1877
 2098SOL    HW117927   3.397   0.477   8.307  1.7510 -0.5531  1.3882
 2098SOL    HW217928   3.410   0.358   8.389  1.3451 -0.4922 -1.2913
 2099SOL     OW17929   2.827   1.380   4.760 -0.3805  0.0407  0.1428
 2099SOL    HW117930   2.849   1.467   4.792 -1.5742  0.6505 -0.6758
 2099SOL    HW217931   2.743   1.367   4.805 -0.4729 -0.1967 -0.0988
 2100SOL     OW17932   3.519   2.917   4.224  0.1441 -0.4090 -0.6182
 2100SOL    HW117933   3.561   2.923   4.310  1.5979  1.7203 -1.4771
 2100SOL    HW217934   3.546   2.835   4.184 -1.1958 -1.2245  0.1645
 2101SOL     OW17935   2.498   4.473  14.030 -0.2396 -0.3001 -0.0994
 2101SOL    HW117936   2.554   4.547  14.007 -0.3378 -0.9608 -2.4129
 2101SOL    HW217937   2.533   4.412  13.966  0.2757  0.7439 -0.8026
 2102SOL     OW17938   0.694   0.788   1.574 -1.0620  0.1818 -0.3942
 2102SOL    HW117939   0.729   0.700   1.564 -0.4196  0.2371  1.2913
 2102SOL    HW217940   0.647   0.796   1.657 -3.3952  1.4422 -1.8482
 2103SOL     OW17941   3.237   4.722  12.306  0.8644 -0.4269  0.0162
 2103SOL    HW117942   3.164   4.662  12.290  0.8053 -0.3038 -0.1656
 2103SOL    HW217943   3.250   4.696  12.397  0.7206 -1.5627 -0.2878
 2104SOL     OW17944   2.646   3.729   2.235  0.2774 -0.1566 -0.0100
 2104SOL    HW117945   2.719   3.694   2.286  0.4575 -0.4518 -0.4712
 2104SOL    HW217946   2.587   3.757   2.306 -2.8097 -3.1448 -1.3991
 2105SOL     OW17947   4.409   1.072   2.163  0.1281  0.2199  0.5000
 2105SOL    HW117948   4.466   1.007   2.122 -2.3259 -1.8617  0.3764
 2105SOL    HW217949   4.446   1.143   2.111  1.9609 -0.7001  0.5393
 2106SOL     OW17950   0.726   2.371   6.981  0.1616  0.1006  0.3470
 2106SOL    HW117951   0.732   2.294   7.038 -0.6752  0.9831  1.6349
 2106SOL    HW217952   0.798   2.351   6.921 -0.5319  0.5306 -0.6373
 2107SOL     OW17953   2.376   0.075   3.725  0.0952  0.0078 -0.5962
 2107SOL    HW117954   2.460   0.063   3.681  2.0382 -0.2735  3.1736
 2107SOL    HW217955   2.316   0.056   3.652  1.7120 -1.6094 -1.5179
 2108SOL     OW17956   3.723   3.675   4.285 -0.2735  0.3700 -0.2361
 2108SOL    HW117957   3.793   3.615   4.311 -1.8753 -1.4404  0.0057
 2108SOL    HW217958   3.758   3.711   4.204  0.2931 -2.1335 -1.0976
 2109SOL     OW17959   1.738   0.470  12.240  0.5140  0.1510  0.5473
 2109SOL    HW117960   1.689   0.552  12.244 -0.0768 -0.2070  0.5742
 2109SOL    HW217961   1.692   0.422  12.309 -2.1318  0.5246 -0.9596
 2110SOL     OW17962   0.571   0.421   6.822 -0.5842 -0.1925 -0.3833
 2110SOL    HW117963   0.653   0.376   6.843 -0.4522  0.5091  0.6140
 2110SOL    HW217964   0.503   0.361   6.854 -0.4028  1.3305  2.9131
 2111SOL     OW17965   0.479   2.269   4.592  0.1518 -0.3815 -0.5892
 2111SOL    HW117966   0.442   2.188   4.557 -1.1662  0.0650 -0.2196
 2111SOL    HW217967   0.574   2.252   4.588 -0.1333 -2.0407 -0.1788
 2112SOL     OW17968   2.427   1.408   5.896 -0.6376 -0.4358 -0.1490
 2112SOL    HW117969   2.419   1.502   5.878  0.2551 -0.4313 -0.5164
 2112SOL    HW217970   2.517   1.388   5.921 -1.0240 -1.4492  0.4590
 2113SOL     OW17971   3.283   1.842   4.936  0.0773 -1.1440  0.7154
 2113SOL    HW117972   3.237   1.914   4.893 -0.8894 -1.8009  0.6423
 2113SOL    HW217973   3.284   1.780   4.863  1.8518 -0.4631  0.1741
 2114SOL     OW17974   1.396   3.800   2.981 -0.0210 -0.3523  0.3723
 2114SOL    HW117975   1.316   3.846   3.007 -0.2735  0.5007 -1.8816
 2114SOL    HW217976   1.359   3.712   2.981 -0.5961 -0.1151 -1.2590
 2115SOL     OW17977   4.287   4.041   4.608 -0.3189  0.7593  0.4674
 2115SOL    HW117978   4.312   4.119   4.559 -0.7876 -0.2507 -1.3583
 2115SOL    HW217979   4.220   4.005   4.551  1.6936 -0.7209 -0.9415
 2116SOL     OW17980   2.366   4.025   0.683 -0.0058  0.1717  0.0446
 2116SOL    HW117981   2.365   3.932   0.705  1.0382  0.1052 -0.2065
 2116SOL    HW217982   2.271   4.032   0.692 -0.2107 -2.2826 -0.1889
 2117SOL     OW17983   0.870   0.639  12.614  0.3577  0.4252 -0.2407
 2117SOL    HW117984   0.941   0.625  12.551  0.0778 -0.3098 -0.3874
 2117SOL    HW217985   0.805   0.571  12.597  0.5268  0.3703 -0.6697
 2118SOL     OW17986   0.547   3.003   8.878  0.5064  0.1823  0.0216
 2118SOL    HW117987   0.526   3.040   8.792 -0.7790 -0.2590  0.1403
 2118SOL    HW217988   0.621   3.057   8.906  2.1720 -0.9318 -2.2472
 2119SOL     OW17989   2.453   1.028  17.540 -0.5760 -0.2289 -0.4704
 2119SOL    HW117990   2.397   0.965  17.494  0.0021 -0.8973 -0.2500
 2119SOL    HW217991   2.519   0.969  17.575  0.3461  1.5290  0.7783
 2120SOL     OW17992   3.212   1.089   4.907  0.3081  0.5272  0.1893
 2120SOL    HW117993   3.117   1.080   4.902  0.3635 -0.4221  0.7845
 2120SOL    HW217994   3.232   1.079   4.814 -0.6768  1.2639 -0.0994
 2121SOL     OW17995   2.541   1.975   5.755 -0.0578 -0.5829  0.3110
 2121SOL    HW117996   2.537   2.059   5.801 -1.3943 -1.4627  1.8100
 2121SOL    HW217997   2.633   1.972   5.729  0.1826 -0.6028  1.1371
 2122SOL     OW17998   4.562   2.502  13.391  0.0676  0.0399  0.5184
 2122SOL    HW117999   4.489   2.441  13.395  0.5749 -0.5232  1.1629
 2122SOL    HW218000   4.616   2.474  13.317 -0.0134  0.9457  0.1161
 2123SOL     OW18001   0.000   3.026  11.873 -0.1148  0.2745  0.6290
 2123SOL    HW118002   4.707   3.049  11.786  0.0992  0.1744  0.5229
 2123SOL    HW218003   0.009   3.110  11.917  0.5280  1.8170 -2.5044
 2124SOL     OW18004   1.455   2.001   4.719  0.0773 -0.6257 -0.3604
 2124SOL    HW118005   1.472   2.049   4.638 -2.3777  0.3866 -0.2564
 2124SOL    HW218006   1.547   1.985   4.743  0.0083 -1.0705 -0.3814
 2125SOL     OW18007   1.445   4.148   2.954  0.2504 -0.2081  0.1751
 2125SOL    HW118008   1.507   4.220   2.941  0.3645 -0.5296 -1.0450
 2125SOL    HW218009   1.406   4.145   2.866 -1.2818 -0.7675  0.8789
 2126SOL     OW18010   4.285   1.823  10.992 -0.1448  0.2494 -0.2939
 2126SOL    HW118011   4.342   1.885  11.036  2.2841 -0.3136 -2.6612
 2126SOL    HW218012   4.347   1.787  10.929 -1.2088 -2.2674  0.0480
 2127SOL     OW18013   3.764   2.941   9.452  0.1135  0.4846 -0.2704
 2127SOL    HW118014   3.690   2.883   9.432 -1.0426  1.7407  0.2798
 2127SOL    HW218015   3.774   2.991   9.371 -0.1923  0.3738 -0.3780
 2128SOL     OW18016   4.376   2.198   3.116  0.3889  0.4123 -0.0474
 2128SOL    HW118017   4.468   2.189   3.139 -0.0628 -2.4455  0.6503
 2128SOL    HW218018   4.346   2.230   3.201  0.5121 -0.2117  0.2217
 2129SOL     OW18019   3.053   1.790   6.029 -0.4582  0.6278  0.3799
 2129SOL    HW118020   3.047   1.792   5.933 -2.3116  0.8990  0.4915
 2129SOL    HW218021   3.115   1.862   6.038 -1.1580  1.1315  1.2019
 2130SOL     OW18022   2.805   0.884  16.635 -0.2635 -0.1650  0.2012
 2130SOL    HW118023   2.782   0.817  16.699 -1.2269 -0.0649 -0.0364
 2130SOL    HW218024   2.817   0.833  16.555 -1.9545 -0.6215  0.2303
 2131SOL     OW18025   4.572   0.220   6.512  0.2757  0.2026  0.5865
 2131SOL    HW118026   4.654   0.254   6.476  0.8686 -0.7895  0.9861
 2131SOL    HW218027   4.515   0.272   6.455 -0.4602  0.0026  1.1419
 2132SOL     OW18028   0.463   3.222   7.463 -0.0965 -0.0955 -0.2861
 2132SOL    HW118029   0.370   3.242   7.467 -0.3153 -1.4039  1.4312
 2132SOL    HW218030   0.464   3.138   7.416  0.7781  0.0929 -0.6158
 2133SOL     OW18031   3.556   0.254   7.135  0.0728  0.1913  0.0477
 2133SOL    HW118032   3.492   0.319   7.108  0.5073  1.1277  1.2764
 2133SOL    HW218033   3.639   0.296   7.111 -0.0422 -0.4406 -1.4529
 2134SOL     OW18034   1.889   3.239   8.009  0.3335  0.1804  0.0714
 2134SOL    HW118035   1.908   3.259   8.100 -0.0908 -0.1629  0.2363
 2134SOL    HW218036   1.850   3.153   8.025  0.9813 -0.1246  0.0058
 2135SOL     OW18037   2.311   2.007   7.888  0.3352  0.5532  0.4397
 2135SOL    HW118038   2.353   1.993   7.804  1.1010  0.3861  0.8456
 2135SOL    HW218039   2.383   2.035   7.946 -1.2465  2.9725  1.2293
 2136SOL     OW18040   4.654   3.951   7.331 -0.2338  0.2699 -0.3835
 2136SOL    HW118041   4.661   4.045   7.318 -0.2063  0.1629 -1.1244
 2136SOL    HW218042   0.010   3.948   7.343 -0.0481  0.2024 -1.9598
 2137SOL     OW18043   1.037   0.093  14.642  0.1626 -1.2490  0.0543
 2137SOL    HW118044   1.068   0.145  14.568 -2.6138  1.8436  1.0636
 2137SOL    HW218045   0.956   0.143  14.651  1.8462  1.7994 -1.6787
 2138SOL     OW18046   2.761   1.605   5.658 -0.2978 -0.0774 -0.3446
 2138SOL    HW118047   2.856   1.604   5.667 -0.2628  0.6319 -0.6525
 2138SOL    HW218048   2.739   1.531   5.715  0.6137  0.8696  1.2581
 2139SOL     OW18049   0.322   1.751   3.025 -0.0636 -0.0315 -0.0862
 2139SOL    HW118050   0.343   1.699   3.102 -1.5815  0.6664  0.7923
 2139SOL    HW218051   0.304   1.680   2.963 -1.9883  2.0905 -1.9549
 2140SOL     OW18052   0.498   1.608   2.782 -0.0570 -0.3413 -0.0748
 2140SOL    HW118053   0.511   1.677   2.847 -0.6747  1.2559 -1.6605
 2140SOL    HW218054   0.573   1.552   2.806  1.7134  2.3687  0.6851
 2141SOL     OW18055   4.086   0.455   1.437 -0.1486 -0.5644  0.2802
 2141SOL    HW118056   4.031   0.384   1.470 -1.3598 -0.0651 -0.7062
 2141SOL    HW218057   4.029   0.505   1.379 -0.1230 -2.1383 -1.1020
 2142SOL     OW18058   0.879   2.357  15.696 -0.1126  0.0038  0.2693
 2142SOL    HW118059   0.899   2.294  15.627  2.6618  0.6651  0.4960
 2142SOL    HW218060   0.831   2.424  15.647 -2.5133 -0.9440  1.2936
 2143SOL     OW18061   0.064   4.321   0.955  0.4347  0.5664  0.0978
 2143SOL    HW118062   0.159   4.322   0.939  0.2897 -1.7802 -1.0231
 2143SOL    HW218063   0.046   4.414   0.964 -0.1278  0.3738  0.9637
 2144SOL     OW18064   2.924   4.511   6.057 -0.1533 -0.2379  0.2418
 2144SOL    HW118065   2.996   4.497   5.996  0.1318 -0.3545  0.6064
 2144SOL    HW218066   2.939   4.597   6.096 -2.2024 -0.1680  0.8652
 2145SOL     OW18067   1.089   1.913   5.265  0.2642 -0.3946  0.1697
 2145SOL    HW118068   1.117   1.852   5.197 -1.0703 -1.0130  0.1769
 2145SOL    HW218069   0.995   1.899   5.274 -0.4006  2.7429 -1.9013
 2146SOL     OW18070   4.526   1.987  16.063  0.4044 -0.6748  0.4504
 2146SOL    HW118071   4.515   1.972  15.969  2.3355  0.8761 -0.0200
 2146SOL    HW218072   4.535   2.082  16.058 -0.1953 -0.8014 -3.2872
 2147SOL     OW18073   0.549   3.079   5.505 -0.0808  0.6881  0.3166
 2147SOL    HW118074   0.640   3.051   5.521 -0.5374 -0.8685  0.1784
 2147SOL    HW218075   0.495   3.038   5.573 -0.1481 -0.0747 -0.2015
 2148SOL     OW18076   1.121   0.742   4.881  0.0905 -0.6169  0.0590
 2148SOL    HW118077   1.034   0.707   4.898  0.1747 -1.9377 -2.2511
 2148SOL    HW218078   1.095   0.825   4.842  1.0801  0.5775  1.8964
 2149SOL     OW18079   2.827   1.498  12.266  0.6380  0.5006  0.1726
 2149SOL    HW118080   2.779   1.569  12.223  0.8526  0.0249 -0.8440
 2149SOL    HW218081   2.850   1.543  12.348  3.4297  0.6851 -0.7071
 2150SOL     OW18082   0.071   4.420   4.521  0.5929  0.0617  0.2400
 2150SOL    HW118083   4.718   4.437   4.501  0.5253  0.3932  0.8608
 2150SOL    HW218084   0.061   4.333   4.558 -1.3367  0.7856  1.4016
 2151SOL     OW18085   4.151   0.460   3.551 -0.1096  0.1986  0.2890
 2151SOL    HW118086   4.120   0.548   3.531 -1.9518 -0.2968  0.9160
 2151SOL    HW218087   4.077   0.408   3.583  1.2748 -1.5504  0.6383
 2152SOL     OW18088   2.679   1.659   2.384  0.3822 -0.3323  0.0610
 2152SOL    HW118089   2.615   1.600   2.425  0.3670  1.8499  3.1979
 2152SOL    HW218090   2.679   1.726   2.452 -0.2818 -0.3693  0.0953
 2153SOL     OW18091   1.005   1.892   2.345  0.1154 -0.2746  0.1384
 2153SOL    HW118092   0.954   1.866   2.268 -0.3149 -0.1833  0.3938
 2153SOL    HW218093   1.032   1.809   2.382  1.6072  0.3991  0.5329
 2154SOL     OW18094   1.161   2.914   5.393  0.1978 -0.1386 -0.2889
 2154SOL    HW118095   1.179   2.820   5.381  2.7101  0.1763  0.8157
 2154SOL    HW218096   1.235   2.945   5.445 -0.1531 -1.3909  0.9597
 2155SOL     OW18097   0.268   1.156   5.976  0.2526  0.1090  0.3735
 2155SOL    HW118098   0.357   1.133   6.004  0.7744 -0.4663 -1.7425
 2155SOL    HW218099   0.278   1.249   5.954 -2.0589  0.3224  0.2721
 2156SOL     OW18100   3.559   4.561  15.894  0.8528 -0.0030  0.0862
 2156SOL    HW118101   3.546   4.600  15.808 -1.9610  1.3863  1.1182
 2156SOL    HW218102   3.639   4.511  15.881  1.6719  2.1162 -2.9458
 2157SOL     OW18103   0.207   2.308   1.398  0.0501 -0.4190  0.3816
 2157SOL    HW118104   0.192   2.260   1.316 -0.9665  0.4889  0.0337
 2157SOL    HW218105   0.294   2.282   1.427 -0.3285  0.2673  2.1165
 2158SOL     OW18106   1.511   1.328   5.351  0.2779 -0.6264  0.0466
 2158SOL    HW118107   1.559   1.273   5.290 -0.7076  0.6436 -1.8605
 2158SOL    HW218108   1.540   1.319   5.442 -0.9896 -0.6194  0.4613
 2159SOL     OW18109   3.899   1.441   3.155 -0.7383 -0.2253  0.0768
 2159SOL    HW118110   3.828   1.499   3.128 -0.8114  0.0284  0.8271
 2159SOL    HW218111   3.955   1.510   3.192 -1.9635  1.1843 -0.6843
 2160SOL     OW18112   3.582   4.224   0.290  0.2913 -0.0275  0.1642
 2160SOL    HW118113   3.575   4.289   0.360 -1.1212  0.0252 -0.0191
 2160SOL    HW218114   3.676   4.233   0.276  0.3752  0.0640  0.7795
 2161SOL     OW18115   0.408   3.599   8.114 -0.1293  0.0725 -0.0208
 2161SOL    HW118116   0.436   3.683   8.148 -1.3225  0.2725  0.4944
 2161SOL    HW218117   0.454   3.535   8.168 -0.5130 -0.0651  0.1423
 2162SOL     OW18118   2.810   4.428   4.275 -0.2738  0.0429  0.2048
 2162SOL    HW118119   2.826   4.507   4.326  1.4162  0.5243 -1.1012
 2162SOL    HW218120   2.760   4.476   4.209  0.3591  2.0203  1.1598
 2163SOL     OW18121   4.053   0.973   3.999  0.1106  0.7373  0.0589
 2163SOL    HW118122   4.118   0.948   4.065  1.6805  1.4878 -1.2052
 2163SOL    HW218123   4.059   1.068   3.998 -1.5916  0.8269 -0.6263
 2164SOL     OW18124   2.655   0.101   1.245 -0.0777 -0.5998  0.5916
 2164SOL    HW118125   2.741   0.091   1.286  0.1530  1.5240  0.6144
 2164SOL    HW218126   2.635   0.191   1.269 -2.4555 -0.7346 -0.8807
 2165SOL     OW18127   3.644   3.819   8.016 -0.3029  0.0559  0.4209
 2165SOL    HW118128   3.722   3.803   7.962 -1.0957 -0.8809 -0.4316
 2165SOL    HW218129   3.641   3.742   8.072  1.3145 -2.8298 -3.4311
 2166SOL     OW18130   2.917   4.000  16.062  0.6545  0.4997 -0.1360
 2166SOL    HW118131   2.938   4.057  16.136  0.0580  0.4993  0.0351
 2166SOL    HW218132   2.851   3.942  16.101  2.0394 -1.1000 -0.1396
 2167SOL     OW18133   4.370   2.061  16.474  0.2335  0.8026  0.7975
 2167SOL    HW118134   4.442   1.998  16.473  1.2316  1.9567  0.1207
 2167SOL    HW218135   4.412   2.147  16.475  2.0987 -0.1217 -0.2504
 2168SOL     OW18136   0.129   2.921   8.636 -0.5643 -0.3606  0.1193
 2168SOL    HW118137   0.210   2.879   8.666 -0.2890 -1.2311 -1.8279
 2168SOL    HW218138   0.128   2.983   8.709  1.2234  0.9598 -0.9670
 2169SOL     OW18139   1.981   4.079  11.171 -0.1621 -0.2174 -1.0106
 2169SOL    HW118140   2.037   4.157  11.182 -0.5355  0.1196 -1.4902
 2169SOL    HW218141   2.023   4.014  11.228 -0.8849  0.4564  0.2963
 2170SOL     OW18142   2.469   0.624   3.810  1.1610  0.2731 -0.0610
 2170SOL    HW118143   2.545   0.665   3.768 -0.0555  0.8503 -1.6794
 2170SOL    HW218144   2.400   0.677   3.769  0.9863 -0.4552 -0.7013
 2171SOL     OW18145   4.594   0.523   3.718 -0.2425 -0.2988  0.2410
 2171SOL    HW118146   4.521   0.494   3.664  0.5958 -1.3516 -0.3235
 2171SOL    HW218147   4.630   0.448   3.766 -1.8646 -1.6259 -0.6169
 2172SOL     OW18148   4.597   0.311   3.908  0.5013 -0.2085  0.2495
 2172SOL    HW118149   4.524   0.365   3.938  1.6271  1.0363  0.7319
 2172SOL    HW218150   4.618   0.247   3.977 -0.5589  0.6655  1.3972
 2173SOL     OW18151   0.014   0.238  16.935 -0.0311 -0.2407  0.1211
 2173SOL    HW118152   4.661   0.263  16.936  0.3724  1.1189  1.9343
 2173SOL    HW218153   0.041   0.287  17.013 -0.8907  0.4487 -0.0096
 2174SOL     OW18154   1.449   2.852  12.685  0.1236 -0.6211 -0.5894
 2174SOL    HW118155   1.505   2.924  12.658 -1.7804  0.8733 -0.5311
 2174SOL    HW218156   1.443   2.864  12.780 -1.3460 -4.3198 -0.2073
 2175SOL     OW18157   3.512   4.442  14.878 -0.0683  0.0950 -0.4251
 2175SOL    HW118158   3.498   4.348  14.890  0.8057 -0.0946 -0.8917
 2175SOL    HW218159   3.422   4.473  14.869  0.4078  2.2744  2.3376
 2176SOL     OW18160   0.926   4.677  12.959 -0.1588 -0.0186  0.5276
 2176SOL    HW118161   0.971   4.736  13.020 -2.1791  1.5393  0.5182
 2176SOL    HW218162   0.985   4.658  12.887  0.8151  0.0202  1.3086
 2177SOL     OW18163   3.633   4.110   5.951  0.0052  0.1419  0.5239
 2177SOL    HW118164   3.630   4.193   5.999 -1.9692  0.4550 -0.1524
 2177SOL    HW218165   3.618   4.131   5.859  2.3771  1.0598  0.3463
 2178SOL     OW18166   1.079   3.738   5.708  0.2286  0.0801 -0.1546
 2178SOL    HW118167   1.081   3.658   5.760 -3.2058  0.0179 -0.0950
 2178SOL    HW218168   1.027   3.799   5.759  1.9228 -1.6768  3.7018
 2179SOL     OW18169   2.401   0.737   0.192 -0.3415 -0.2885 -0.2743
 2179SOL    HW118170   2.447   0.661   0.228  0.4999  0.3658  0.0292
 2179SOL    HW218171   2.326   0.700   0.147 -1.3994  0.8285  0.5784
 2180SOL     OW18172   1.753   4.421  16.463  0.2945 -0.2202 -0.5284
 2180SOL    HW118173   1.714   4.363  16.398 -0.7806 -0.9023  0.7248
 2180SOL    HW218174   1.716   4.500  16.425 -0.4963 -0.9175 -1.2165
 2181SOL     OW18175   2.668   0.109  17.559  0.4301 -0.5263  0.0058
 2181SOL    HW118176   2.627   0.129  17.643  1.3610 -2.8542  1.0227
 2181SOL    HW218177   2.720   0.031  17.577 -0.3077 -0.4825  2.2856
 2182SOL     OW18178   1.219   4.174   0.626 -0.3159  0.3781 -0.4195
 2182SOL    HW118179   1.149   4.186   0.562 -0.4255  0.0089 -0.3661
 2182SOL    HW218180   1.272   4.100   0.597  1.8868  1.4015  1.0149
 2183SOL     OW18181   1.519   3.728  12.251  0.0877 -0.0321  0.1008
 2183SOL    HW118182   1.497   3.731  12.158 -0.3799 -1.7655  0.1429
 2183SOL    HW218183   1.601   3.776  12.249  2.1061 -3.5715 -1.3190
 2184SOL     OW18184   2.509   1.977   6.941  0.3217  0.0716  0.5118
 2184SOL    HW118185   2.429   1.972   6.993 -1.4470  0.6984 -2.1831
 2184SOL    HW218186   2.567   1.915   6.986 -1.1957 -2.8182 -1.5103
 2185SOL     OW18187   4.338   0.900   9.922 -0.3336  0.2194 -0.8860
 2185SOL    HW118188   4.315   0.946  10.003  0.4562 -0.6758 -0.1470
 2185SOL    HW218189   4.260   0.866   9.879 -2.1028  2.5582  0.5136
 2186SOL     OW18190   0.905   0.904   9.206 -0.0386  0.2305  0.1638
 2186SOL    HW118191   0.935   0.993   9.223  2.3744 -0.7526  0.9895
 2186SOL    HW218192   0.858   0.880   9.286 -0.3651 -0.2712 -0.1784
 2187SOL     OW18193   2.922   2.389   3.269  0.1848 -0.1097 -0.2560
 2187SOL    HW118194   2.957   2.473   3.298  1.1246 -0.0588 -1.5380
 2187SOL    HW218195   2.882   2.343   3.343 -0.8697 -0.5933 -1.1422
 2188SOL     OW18196   2.883   3.011   8.230 -0.0364 -0.0235 -1.0586
 2188SOL    HW118197   2.788   3.014   8.244  0.2230  0.9207  0.5129
 2188SOL    HW218198   2.921   3.093   8.263  0.9667 -1.1267  0.5135
 2189SOL     OW18199   1.445   3.410   7.028  0.2857 -0.7951  0.5357
 2189SOL    HW118200   1.457   3.427   6.935 -1.5944  0.7178  0.5581
 2189SOL    HW218201   1.350   3.421   7.041  0.2673  0.9479 -1.0942
 2190SOL     OW18202   1.288   3.335   0.864 -0.0639 -0.1240 -0.3110
 2190SOL    HW118203   1.324   3.246   0.864 -1.4661 -0.6915  0.2258
 2190SOL    HW218204   1.193   3.326   0.853 -0.1778  0.5130  0.1272
 2191SOL     OW18205   0.487   1.909  13.133  0.2155  0.1889 -0.1661
 2191SOL    HW118206   0.456   1.999  13.127  0.1723 -0.0345 -3.7495
 2191SOL    HW218207   0.576   1.917  13.097 -0.6586 -0.6314 -2.5022
 2192SOL     OW18208   1.913   3.765   8.397  0.1152  0.7114  0.2970
 2192SOL    HW118209   1.861   3.714   8.458  1.2451  0.4287  1.0342
 2192SOL    HW218210   1.920   3.703   8.324  0.7178 -0.8805  1.7101
 2193SOL     OW18211   3.853   1.061   6.313 -0.2447 -0.4741 -0.1820
 2193SOL    HW118212   3.887   1.140   6.271  0.2861  0.1589  1.4150
 2193SOL    HW218213   3.787   1.094   6.374 -1.8872 -1.1549 -1.5858
 2194SOL     OW18214   4.355   4.606   1.996  0.2860 -0.6816  0.4672
 2194SOL    HW118215   4.414   4.619   1.923 -0.6652 -1.7647 -0.4938
 2194SOL    HW218216   4.278   4.570   1.951  2.0508 -3.7988 -0.0208
 2195SOL     OW18217   3.046   0.125   7.154  0.3590  0.0681  0.0130
 2195SOL    HW118218   3.009   0.161   7.235 -1.7173 -0.2466 -0.7864
 2195SOL    HW218219   3.099   0.197   7.121  0.1451  0.1628 -0.1240
 2196SOL     OW18220   1.490   1.202  14.572  0.0484 -0.1401 -0.1524
 2196SOL    HW118221   1.537   1.167  14.496 -0.4597 -0.3335 -0.3801
 2196SOL    HW218222   1.458   1.283  14.533 -4.2411 -0.9960  1.6112
 2197SOL     OW18223   0.508   0.591   8.654 -0.3819 -0.7117  0.0578
 2197SOL    HW118224   0.527   0.531   8.726  0.9551  0.8878  1.0338
 2197SOL    HW218225   0.597   0.609   8.623 -0.7365  1.9200  0.5913
 2198SOL     OW18226   3.527   1.463   3.208  0.1466  0.8102  0.2406
 2198SOL    HW118227   3.436   1.493   3.209  0.2290  0.9766  1.6814
 2198SOL    HW218228   3.574   1.546   3.196  0.9632  0.4374  0.8973
 2199SOL     OW18229   0.858   1.418  15.692 -0.6793 -0.5299 -0.2402
 2199SOL    HW118230   0.822   1.488  15.639 -0.7472  1.5995  2.6187
 2199SOL    HW218231   0.927   1.469  15.736 -0.9635  0.4128 -0.9010
 2200SOL     OW18232   0.300   1.076   9.163  0.3104 -0.4509  0.4116
 2200SOL    HW118233   0.304   1.043   9.252  0.6508  2.7012  1.5567
 2200SOL    HW218234   0.388   1.108   9.145  0.0707  0.1120  0.2316
 2201SOL     OW18235   2.496   3.935  13.046  0.1281 -0.1963  0.3232
 2201SOL    HW118236   2.403   3.923  13.024 -0.5676  0.6456  2.8653
 2201SOL    HW218237   2.525   3.844  13.042 -0.3111 -0.3726  1.3514
 2202SOL     OW18238   1.048   3.304   4.422  0.3840  0.1045  0.5708
 2202SOL    HW118239   1.077   3.247   4.494  1.4701 -1.0621 -0.8022
 2202SOL    HW218240   0.953   3.290   4.422  0.5918 -1.3532 -0.2254
 2203SOL     OW18241   1.659   3.978  16.956  0.2252  0.5650 -0.5888
 2203SOL    HW118242   1.571   3.994  16.990  0.6521 -0.4496  1.0280
 2203SOL    HW218243   1.674   3.888  16.987  0.7994  0.8347 -0.0914
 2204SOL     OW18244   3.644   0.883   2.740 -0.0656  0.1365  0.3627
 2204SOL    HW118245   3.583   0.929   2.682  2.1055  0.1256 -1.9525
 2204SOL    HW218246   3.700   0.951   2.777  1.7632 -1.2042  0.0546
 2205SOL     OW18247   2.786   1.127   3.336 -0.0733 -0.1561  0.5804
 2205SOL    HW118248   2.698   1.153   3.308 -0.9891 -0.5672  3.1051
 2205SOL    HW218249   2.823   1.108   3.250 -2.2182  2.3507 -0.8869
 2206SOL     OW18250   2.834   4.512   8.628  0.2693  0.1070 -0.0247
 2206SOL    HW118251   2.924   4.520   8.598  0.4947  0.1109  0.6528
 2206SOL    HW218252   2.797   4.577   8.569 -0.7763 -0.1473  0.3464
 2207SOL     OW18253   0.319   1.167  10.090  0.3241 -0.1525  0.2380
 2207SOL    HW118254   0.408   1.193  10.068 -0.0690 -0.1413 -1.3315
 2207SOL    HW218255   0.264   1.230  10.044 -1.6652 -1.9832  0.1082
 2208SOL     OW18256   2.502   0.580  14.760 -0.2486 -0.2069  0.6809
 2208SOL    HW118257   2.438   0.510  14.747 -0.2132 -0.0589 -0.3024
 2208SOL    HW218258   2.539   0.546  14.841 -2.4284 -1.3782  1.1802
 2209SOL     OW18259   2.339   3.584  11.765 -0.4723 -0.0213 -0.5545
 2209SOL    HW118260   2.281   3.511  11.744 -1.2851 -0.0777  1.8999
 2209SOL    HW218261   2.295   3.617  11.844  1.7066  2.5702 -0.4262
 2210SOL     OW18262   1.471   2.239   3.588 -0.0993  0.4945 -0.0523
 2210SOL    HW118263   1.411   2.307   3.620  1.9199  2.4688 -0.4573
 2210SOL    HW218264   1.490   2.271   3.500  1.0880 -0.2938 -0.0763
 2211SOL     OW18265   1.647   0.162   1.203 -0.5126 -0.2572  0.2260
 2211SOL    HW118266   1.687   0.087   1.159 -0.3419 -1.7341  2.8678
 2211SOL    HW218267   1.554   0.143   1.191 -0.1266 -1.4461 -0.8337
 2212SOL     OW18268   0.946   2.703  12.239 -0.4833 -0.2653 -0.3153
 2212SOL    HW118269   0.955   2.736  12.150 -3.6569 -0.7331 -0.7918
 2212SOL    HW218270   1.019   2.641  12.230 -0.0515 -0.0314  1.5168
 2213SOL     OW18271   4.488   3.396  14.875 -0.7551 -0.1653 -0.2309
 2213SOL    HW118272   4.420   3.385  14.942  1.1697 -0.6030  1.6640
 2213SOL    HW218273   4.467   3.484  14.846  2.0338  0.9778  1.2108
 2214SOL     OW18274   1.942   4.038  12.756 -0.2655 -0.0282 -0.7982
 2214SOL    HW118275   2.033   4.057  12.732  1.0128 -0.8216  3.3816
 2214SOL    HW218276   1.947   3.943  12.768 -3.1369 -0.2878 -1.7765
 2215SOL     OW18277   3.586   1.964   2.642 -0.3611  0.1419 -0.5883
 2215SOL    HW118278   3.615   1.877   2.670  0.0148  0.0503 -1.2728
 2215SOL    HW218279   3.655   1.998   2.586  1.5513 -2.9793 -0.1431
 2216SOL     OW18280   1.238   3.521   4.033  0.0098 -0.4418  0.2648
 2216SOL    HW118281   1.244   3.495   3.942 -0.9039 -2.5183  0.8046
 2216SOL    HW218282   1.180   3.455   4.072 -0.8268 -0.3402 -0.7909
 2217SOL     OW18283   2.485   4.688   8.327  0.0197  0.2305  0.0153
 2217SOL    HW118284   2.440   4.702   8.243  1.3815  0.0931 -0.7358
 2217SOL    HW218285   2.474   4.593   8.333  0.2469  0.1282 -1.0854
 2218SOL     OW18286   1.861   2.177   8.430 -0.0848 -0.3451 -0.4544
 2218SOL    HW118287   1.941   2.163   8.481 -0.3652 -0.5877 -0.0833
 2218SOL    HW218288   1.805   2.209   8.500  0.2627  0.5462 -0.5791
 2219SOL     OW18289   4.048   2.977  14.710 -0.1346  0.0573  0.2476
 2219SOL    HW118290   4.119   3.013  14.657  0.8893 -1.4432  0.6339
 2219SOL    HW218291   4.056   2.882  14.700 -1.7321  0.2523 -3.0840
 2220SOL     OW18292   0.930   3.102   2.518 -0.3840 -0.1046 -0.0741
 2220SOL    HW118293   0.922   3.174   2.455 -0.6016  0.4166  0.5509
 2220SOL    HW218294   1.018   3.124   2.550 -1.3359 -0.6220  2.8509
 2221SOL     OW18295   4.082   2.912   0.088 -0.1687  0.4602  0.4847
 2221SOL    HW118296   4.079   2.930   0.182 -0.4900 -0.8074  0.7257
 2221SOL    HW218297   4.054   2.821   0.079 -0.8708  0.7681 -0.3434
 2222SOL     OW18298   1.713   0.756   9.556 -0.0908 -0.1169  0.0069
 2222SOL    HW118299   1.641   0.749   9.494 -2.9731  2.0720  3.1297
 2222SOL    HW218300   1.740   0.664   9.557 -2.4765 -0.7913  2.9461
 2223SOL     OW18301   3.628   2.893  15.595  0.0735  0.0453  0.3697
 2223SOL    HW118302   3.695   2.830  15.567  0.6264  0.2523  1.2192
 2223SOL    HW218303   3.639   2.878  15.689  1.0671  2.4274  0.6298
 2224SOL     OW18304   1.827   2.944  13.151 -0.5314  0.1283 -0.1537
 2224SOL    HW118305   1.799   2.853  13.158 -3.7763  1.2481  1.6462
 2224SOL    HW218306   1.831   2.958  13.057  0.5838 -1.4038 -0.3438
 2225SOL     OW18307   1.365   2.293   5.800 -0.5016  0.4572  0.5137
 2225SOL    HW118308   1.280   2.256   5.825 -1.1855 -0.5095 -3.1086
 2225SOL    HW218309   1.419   2.271   5.876  3.2205  1.8134 -1.7383
 2226SOL     OW18310   3.431   2.887   7.062 -0.7037 -0.0107  0.0696
 2226SOL    HW118311   3.378   2.807   7.074 -1.0154  0.2817  0.6854
 2226SOL    HW218312   3.456   2.909   7.152 -2.1013  0.4704  0.3437
 2227SOL     OW18313   3.270   4.127  12.690  0.1513  0.0361 -0.4240
 2227SOL    HW118314   3.265   4.209  12.640 -1.5327  1.1194  1.5263
 2227SOL    HW218315   3.176   4.113  12.700 -0.0853  0.4592 -2.0611
 2228SOL     OW18316   3.600   0.260  14.768  0.9799 -0.0851 -0.7692
 2228SOL    HW118317   3.558   0.178  14.743  0.2087 -0.8213  2.8838
 2228SOL    HW218318   3.579   0.319  14.696 -0.8154 -1.0001 -1.0023
 2229SOL     OW18319   3.235   0.761   4.634 -0.1611  0.0110  0.2243
 2229SOL    HW118320   3.196   0.778   4.720  0.3439 -0.2773  0.5095
 2229SOL    HW218321   3.249   0.853   4.609 -0.5293  0.6587  2.3750
 2230SOL     OW18322   4.524   4.044   4.400 -0.4354 -0.1812  0.0630
 2230SOL    HW118323   4.505   4.056   4.307 -0.3993 -1.7443 -0.1368
 2230SOL    HW218324   4.482   3.963   4.428 -0.6961  0.5673  1.8821
 2231SOL     OW18325   3.271   2.749   7.282  0.5260  0.3580 -0.5601
 2231SOL    HW118326   3.262   2.844   7.297  0.7594  0.5561 -1.6742
 2231SOL    HW218327   3.323   2.715   7.355 -0.7379  0.9517  0.6353
 2232SOL     OW18328   4.167   4.296   7.205  0.2409 -1.0073 -0.2501
 2232SOL    HW118329   4.208   4.302   7.292 -1.3223 -1.0715  0.4894
 2232SOL    HW218330   4.081   4.332   7.223  0.1719 -0.9546 -0.6896
 2233SOL     OW18331   0.107   0.094   9.811 -0.7133  0.0086  0.0363
 2233SOL    HW118332   0.011   0.093   9.820 -0.3541 -0.9304  3.9318
 2233SOL    HW218333   0.120   0.098   9.717  0.3378  0.4133  0.2064
 2234SOL     OW18334   2.519   2.356   6.539 -0.3841  0.4027  0.4416
 2234SOL    HW118335   2.594   2.298   6.550  0.2705  1.0974 -0.4001
 2234SOL    HW218336   2.537   2.389   6.452 -1.3658 -0.9939 -0.2914
 2235SOL     OW18337   4.446   3.906   5.974  0.4425  0.3946 -0.3012
 2235SOL    HW118338   4.497   3.952   6.040  1.7651  0.0073 -1.0544
 2235SOL    HW218339   4.355   3.918   6.002  0.0529 -0.8247 -1.0201
 2236SOL     OW18340   3.134   1.500   0.794 -0.1346  0.2310  0.3590
 2236SOL    HW118341   3.205   1.440   0.814 -0.2583  0.8304  2.6430
 2236SOL    HW218342   3.132   1.549   0.877  0.9288  2.7136 -1.0764
 2237SOL     OW18343   3.028   1.147  13.549 -0.9311 -0.0722  0.4082
 2237SOL    HW118344   3.089   1.177  13.482 -1.0917 -1.7481 -0.4643
 2237SOL    HW218345   2.953   1.204  13.527 -1.5768  0.1089  3.0608
 2238SOL     OW18346   2.457   2.183   2.844 -0.2484  0.3841  1.1503
 2238SOL    HW118347   2.442   2.268   2.803  0.3659  0.0632  0.2487
 2238SOL    HW218348   2.443   2.121   2.773  0.4891  2.6363 -0.9952
 2239SOL     OW18349   3.546   3.398   9.325 -0.2295 -0.5362 -0.3877
 2239SOL    HW118350   3.593   3.481   9.316  1.0720 -1.4236 -1.7138
 2239SOL    HW218351   3.521   3.390   9.417 -0.0631 -0.5694 -0.3453
 2240SOL     OW18352   2.412   0.790  10.992  0.2328  0.1204 -0.6269
 2240SOL    HW118353   2.459   0.791  10.909  1.0172  0.0342 -0.1833
 2240SOL    HW218354   2.469   0.730  11.040 -0.3906  0.0462  0.0258
 2241SOL     OW18355   3.249   0.620   7.480 -0.3905 -0.2096 -0.2870
 2241SOL    HW118356   3.181   0.569   7.522 -1.2152  1.2836  0.1934
 2241SOL    HW218357   3.305   0.638   7.555  1.0851  0.4581 -1.5464
 2242SOL     OW18358   0.922   0.850   2.647 -0.1105  0.2083  0.5139
 2242SOL    HW118359   0.893   0.801   2.570  2.2214  2.8712 -2.0926
 2242SOL    HW218360   0.955   0.781   2.703 -0.8378 -0.4739  0.1000
 2243SOL     OW18361   1.149   1.844   6.709 -0.2767  0.4458 -0.1756
 2243SOL    HW118362   1.105   1.928   6.713  1.2350  1.2737 -0.9150
 2243SOL    HW218363   1.078   1.788   6.678  0.4751 -0.9209  0.5277
 2244SOL     OW18364   2.498   2.343   1.977  0.2940 -0.0166  0.2848
 2244SOL    HW118365   2.434   2.379   2.039  0.4107  1.0204 -0.2021
 2244SOL    HW218366   2.443   2.344   1.899 -1.4918 -0.2748  1.5222
 2245SOL     OW18367   1.069   2.963   3.266  0.1881  0.5692 -0.3085
 2245SOL    HW118368   0.995   3.018   3.240 -1.0626 -0.6011  0.7780
 2245SOL    HW218369   1.129   2.987   3.195  0.9582 -0.0746  0.1288
 2246SOL     OW18370   3.191   0.556  17.016  0.3152  0.8000  0.2009
 2246SOL    HW118371   3.233   0.628  17.063  0.9133  1.1302 -0.8357
 2246SOL    HW218372   3.208   0.477  17.066 -0.7761 -0.4799 -1.4086
 2247SOL     OW18373   1.928   1.727  15.239 -0.1454 -0.0914 -0.3732
 2247SOL    HW118374   1.984   1.795  15.200  1.4527 -1.0632  0.2158
 2247SOL    HW218375   1.995   1.665  15.268  0.9728  0.1781 -2.3172
 2248SOL     OW18376   0.366   0.181   6.281 -0.9750  0.2316  0.0091
 2248SOL    HW118377   0.318   0.246   6.230  0.1712  1.9427  1.1021
 2248SOL    HW218378   0.419   0.129   6.220  0.0793  1.1397  0.1429
 2249SOL     OW18379   0.831   4.191  16.205 -0.7686 -0.1071  0.5398
 2249SOL    HW118380   0.839   4.277  16.247  0.7850  0.8310 -1.6930
 2249SOL    HW218381   0.802   4.208  16.115  0.0558 -2.4904 -0.1775
 2250SOL     OW18382   3.282   0.371   1.193 -0.0302 -0.0569 -0.0280
 2250SOL    HW118383   3.192   0.399   1.174 -0.9042 -0.8634  2.9636
 2250SOL    HW218384   3.304   0.344   1.104 -0.0208  0.9891 -0.3387
 2251SOL     OW18385   2.042   1.382   9.016 -0.1341  0.2723 -0.2546
 2251SOL    HW118386   2.112   1.400   8.954 -1.3381  1.2386 -1.3251
 2251SOL    HW218387   2.000   1.307   8.974  1.3879 -0.3024 -0.7266
 2252SOL     OW18388   1.452   4.403   1.401  0.2112 -0.6296  0.0920
 2252SOL    HW118389   1.449   4.484   1.351  0.2712 -0.4737  0.3440
 2252SOL    HW218390   1.503   4.431   1.477  0.0445 -0.5085  0.1594
 2253SOL     OW18391   1.200   4.468   4.299  0.0706 -0.0690  0.1972
 2253SOL    HW118392   1.141   4.452   4.372  0.8264  0.7846  0.9964
 2253SOL    HW218393   1.249   4.542   4.335 -0.3502  0.7765 -1.0039
 2254SOL     OW18394   2.314   3.230   2.929 -0.3083 -0.0244 -0.1086
 2254SOL    HW118395   2.271   3.311   2.900  1.3668  1.3447  1.2455
 2254SOL    HW218396   2.404   3.250   2.955 -0.0741 -1.4392  0.1919
 2255SOL     OW18397   4.578   0.367   9.011 -0.0129  1.3738  0.0979
 2255SOL    HW118398   4.641   0.393   9.077  0.0737  0.0079  0.5609
 2255SOL    HW218399   4.525   0.308   9.065 -1.3044  1.0002 -1.5768
 2256SOL     OW18400   1.962   0.792  17.600 -0.3059 -0.3648 -0.0279
 2256SOL    HW118401   1.926   0.787  17.689 -2.6819 -0.4382 -0.9802
 2256SOL    HW218402   2.051   0.824  17.612 -0.9863  1.4032  0.2276
 2257SOL     OW18403   3.024   2.520   8.094 -0.0978 -0.8586  0.6720
 2257SOL    HW118404   3.025   2.612   8.066 -0.6348 -0.8466  0.6876
 2257SOL    HW218405   3.011   2.473   8.012 -1.8296 -2.0917  1.6525
 2258SOL     OW18406   1.101   4.670   8.702  0.0407  0.6987  0.2199
 2258SOL    HW118407   1.186   4.672   8.746  1.1142  0.0182 -1.7958
 2258SOL    HW218408   1.098   4.576   8.682 -1.2326  0.9449 -0.7547
 2259SOL     OW18409   3.214   1.185  12.953  0.8360 -0.1400 -0.3623
 2259SOL    HW118410   3.174   1.164  12.868  0.6682 -0.5990 -0.1695
 2259SOL    HW218411   3.146   1.235  12.998  0.1467 -0.2669 -1.2628
 2260SOL     OW18412   2.050   3.180   4.871  0.1537 -0.0016  0.0932
 2260SOL    HW118413   2.006   3.108   4.916 -1.0786  0.0141 -1.1001
 2260SOL    HW218414   2.135   3.140   4.857  0.7717  1.5915 -0.6818
 2261SOL     OW18415   1.531   3.192   2.380 -0.4954  0.4721  0.6607
 2261SOL    HW118416   1.624   3.191   2.403 -0.2013  1.1277 -0.4739
 2261SOL    HW218417   1.492   3.236   2.456 -2.7365  0.6942 -0.6135
 2262SOL     OW18418   3.551   0.422   0.576  0.4108  0.5140  0.0755
 2262SOL    HW118419   3.487   0.456   0.638  0.9514 -1.8441  1.9322
 2262SOL    HW218420   3.585   0.502   0.537 -1.6916  0.9459 -0.9072
 2263SOL     OW18421   1.231   4.042  15.567  0.0418  0.6706  0.0571
 2263SOL    HW118422   1.270   4.103  15.630  0.1556  0.7199 -0.0581
 2263SOL    HW218423   1.289   4.055  15.491  0.1595  0.0324  0.0377
 2264SOL     OW18424   0.683   2.412   8.100 -0.7508  0.0523  0.3181
 2264SOL    HW118425   0.636   2.421   8.017 -0.0411 -1.7765 -0.2895
 2264SOL    HW218426   0.737   2.488   8.077 -0.2681 -0.4032 -0.0396
 2265SOL     OW18427   0.276   2.343   2.728 -0.0259  0.0627 -0.8464
 2265SOL    HW118428   0.347   2.282   2.707 -0.7557 -1.1195  0.1228
 2265SOL    HW218429   0.209   2.286   2.766  0.0280  0.3550 -0.3148
 2266SOL     OW18430   1.639   3.760  14.640  0.2816  0.4267  0.3626
 2266SOL    HW118431   1.733   3.756  14.621  0.3126 -0.6799  0.7054
 2266SOL    HW218432   1.606   3.688  14.587 -2.8272  1.3205  1.1045
 2267SOL     OW18433   3.452   1.054   7.668  0.2065 -0.2515  0.7269
 2267SOL    HW118434   3.473   1.073   7.759 -1.5921 -0.1139  1.1085
 2267SOL    HW218435   3.533   1.009   7.642 -0.0058 -0.2241  0.0238
 2268SOL     OW18436   2.348   1.114   7.399 -0.0213 -0.0666  1.0191
 2268SOL    HW118437   2.427   1.135   7.449  1.8783 -2.2047 -1.0778
 2268SOL    HW218438   2.297   1.053   7.451 -0.3461 -0.7475 -0.0826
 2269SOL     OW18439   2.018   3.094  15.111 -0.3274 -0.1279 -0.0419
 2269SOL    HW118440   2.028   3.023  15.047  0.1436 -1.2652  1.2944
 2269SOL    HW218441   1.998   3.169  15.055  1.1774 -0.3741 -0.8959
 2270SOL     OW18442   4.212   4.488  17.537 -0.3279  0.1894 -0.0485
 2270SOL    HW118443   4.235   4.411  17.485 -0.7081 -0.4991  0.7777
 2270SOL    HW218444   4.296   4.528  17.555 -0.0746 -1.4143  2.4235
 2271SOL     OW18445   3.809   2.228   7.275  0.2443 -0.4225 -0.1808
 2271SOL    HW118446   3.867   2.296   7.240 -0.0688  0.8913  1.8445
 2271SOL    HW218447   3.830   2.230   7.369  0.4207 -0.9076 -0.2108
 2272SOL     OW18448   2.672   4.226   1.266  0.6469  0.4659  0.1121
 2272SOL    HW118449   2.703   4.164   1.200  0.8038 -0.2780  0.8822
 2272SOL    HW218450   2.612   4.173   1.318  0.1373  0.9523  0.0180
 2273SOL     OW18451   4.141   3.994  11.049  0.4564 -0.0779 -0.3185
 2273SOL    HW118452   4.213   3.937  11.023 -2.2623 -2.4183 -2.6682
 2273SOL    HW218453   4.158   3.995  11.143  0.5544 -2.0197 -0.3207
 2274SOL     OW18454   2.369   2.654   6.576 -0.4398  0.1557 -0.3505
 2274SOL    HW118455   2.463   2.670   6.576 -0.4902  0.4329  0.1433
 2274SOL    HW218456   2.346   2.677   6.666  2.0589 -0.5564  0.4810
 2275SOL     OW18457   2.103   4.605   7.354  0.0262 -0.5510  0.5871
 2275SOL    HW118458   2.104   4.606   7.258  1.8485  1.2511  0.6243
 2275SOL    HW218459   2.020   4.559   7.362  0.0105 -0.7063 -0.4996
 2276SOL     OW18460   2.802   0.076   6.485  0.0378 -0.5101 -0.2555
 2276SOL    HW118461   2.806   4.732   6.531  1.7939  0.6739  1.7148
 2276SOL    HW218462   2.860   0.126   6.542  0.2913 -0.0244 -0.9440
 2277SOL     OW18463   3.854   0.702   8.008 -0.0813  0.3870  0.0844
 2277SOL    HW118464   3.933   0.649   8.015 -2.2135 -2.8181 -0.1121
 2277SOL    HW218465   3.853   0.740   7.920 -0.3782 -0.4033 -0.2506
 2278SOL     OW18466   1.150   1.196   9.483  0.3671 -0.4239  0.2516
 2278SOL    HW118467   1.062   1.221   9.456  0.5819 -0.0761 -0.1221
 2278SOL    HW218468   1.129   1.127   9.546 -0.0632 -0.8154 -0.3290
 2279SOL     OW18469   4.137   0.671   7.473  0.4329 -0.4749 -0.4872
 2279SOL    HW118470   4.137   0.601   7.538  0.9213 -1.7028 -1.8013
 2279SOL    HW218471   4.069   0.631   7.419 -1.9779 -1.6738  3.4324
 2280SOL     OW18472   0.314   4.330  14.610 -0.0382  0.1106  0.5776
 2280SOL    HW118473   0.258   4.320  14.533  1.2857 -0.0154 -0.3748
 2280SOL    HW218474   0.289   4.250  14.655  0.6542 -1.8498 -2.5564
 2281SOL     OW18475   1.195   3.733   6.843 -0.2300 -0.1089 -0.1496
 2281SOL    HW118476   1.186   3.740   6.938  0.9674  1.0927 -0.1207
 2281SOL    HW218477   1.116   3.680   6.834 -0.2455 -0.2703  0.9163
 2282SOL     OW18478   3.035   4.493   4.005 -0.0055  0.1721 -0.6006
 2282SOL    HW118479   3.035   4.540   4.089 -0.6896 -1.0148  0.0553
 2282SOL    HW218480   3.020   4.558   3.937 -0.0990  1.3203  0.5101
 2283SOL     OW18481   0.654   3.013   9.508 -0.0908 -0.0165 -0.5749
 2283SOL    HW118482   0.604   2.938   9.540 -1.7189  0.5813 -1.7289
 2283SOL    HW218483   0.610   3.081   9.560  1.1109  0.0927  0.3074
 2284SOL     OW18484   2.031   1.115   5.988  0.1265 -0.0496 -0.4377
 2284SOL    HW118485   2.077   1.199   5.991  0.1475 -0.1419  2.5630
 2284SOL    HW218486   2.034   1.081   6.078  2.0391  1.3568  0.0281
 2285SOL     OW18487   4.555   2.470  16.935  0.7019  0.1128 -0.1549
 2285SOL    HW118488   4.487   2.408  16.909  0.0955  0.2160  1.2268
 2285SOL    HW218489   4.543   2.484  17.029 -2.3133 -3.3110 -0.0323
 2286SOL     OW18490   4.203   4.619  10.729  0.3922 -0.2158  1.1056
 2286SOL    HW118491   4.130   4.558  10.725  0.5734 -0.1406 -3.7805
 2286SOL    HW218492   4.193   4.664  10.645 -1.3954  0.8758  1.9066
 2287SOL     OW18493   3.413   4.675  17.678  0.6340  0.2396  0.3119
 2287SOL    HW118494   3.414   4.716   0.011  0.7667 -0.7305  0.7717
 2287SOL    HW218495   3.437   0.012  17.625 -3.8772  1.6390  0.3012
 2288SOL     OW18496   2.791   4.688  17.336  0.3765  0.4411 -0.3155
 2288SOL    HW118497   2.828   0.034  17.313  1.5589 -0.1023 -0.3819
 2288SOL    HW218498   2.868   4.632  17.345 -0.9482 -1.3817 -0.2394
 2289SOL     OW18499   2.205   1.510   0.189 -0.3573 -0.6149  0.3693
 2289SOL    HW118500   2.122   1.558   0.185 -0.1260 -0.3598 -1.2912
 2289SOL    HW218501   2.175   1.436   0.242 -0.8373 -0.4812  0.2858
 2290SOL     OW18502   1.976   4.415   0.403 -0.1711 -0.5695  0.3343
 2290SOL    HW118503   2.034   4.347   0.368  1.5444  0.6402  0.8163
 2290SOL    HW218504   2.029   4.493   0.391 -1.5083  0.1199 -1.1102
 2291SOL     OW18505   0.111   2.577   9.217 -0.0604 -0.3801  0.4379
 2291SOL    HW118506   0.128   2.670   9.206 -2.2015  0.1471  1.4466
 2291SOL    HW218507   0.015   2.585   9.217 -0.0020  0.3800 -1.9417
 2292SOL     OW18508   0.961   0.623  11.303 -0.5155 -0.0695  0.3822
 2292SOL    HW118509   0.952   0.633  11.398  0.6367 -1.4001  0.6283
 2292SOL    HW218510   1.002   0.537  11.301 -2.5689 -1.0910  1.2267
 2293SOL     OW18511   0.225   3.126   0.886  0.3090  0.3783 -0.2354
 2293SOL    HW118512   0.255   3.182   0.814  0.5423  0.3145 -0.1880
 2293SOL    HW218513   0.197   3.194   0.948  3.9637  2.1462 -0.4943
 2294SOL     OW18514   3.783   2.199   4.125 -0.6079 -0.0339 -0.0613
 2294SOL    HW118515   3.816   2.126   4.073  0.1333 -0.7255  1.3623
 2294SOL    HW218516   3.689   2.195   4.108 -0.4012  1.8380 -1.6236
 2295SOL     OW18517   2.605   2.525  11.718 -0.0660  0.4978  0.2991
 2295SOL    HW118518   2.532   2.563  11.765  0.4029  1.8014 -0.0346
 2295SOL    HW218519   2.564   2.466  11.655  0.3657 -1.1635  1.5753
 2296SOL     OW18520   3.427   1.478   4.706  0.3363 -0.3426  0.3186
 2296SOL    HW118521   3.372   1.555   4.689 -0.9736 -0.9025  2.0401
 2296SOL    HW218522   3.472   1.494   4.789 -0.6202 -0.6015  0.8830
 2297SOL     OW18523   4.110   2.786   5.875 -0.0293 -0.2053 -0.3726
 2297SOL    HW118524   4.099   2.858   5.938 -1.4837 -0.5430 -0.2390
 2297SOL    HW218525   4.205   2.777   5.871 -0.0654 -0.2942 -1.0146
 2298SOL     OW18526   0.341   3.134   6.625 -0.3921  0.1617 -0.3315
 2298SOL    HW118527   0.375   3.048   6.600 -0.4182  0.0845 -0.0958
 2298SOL    HW218528   0.408   3.171   6.682  0.5359  1.9722 -2.5450
 2299SOL     OW18529   1.092   3.566   4.767  0.4321  0.2803  0.2583
 2299SOL    HW118530   1.133   3.491   4.810 -0.0931 -1.0632 -1.5529
 2299SOL    HW218531   1.010   3.531   4.733  0.0874  1.0333  0.3187
 2300SOL     OW18532   3.339   0.930   4.249 -0.1465 -0.3582  0.3306
 2300SOL    HW118533   3.276   0.885   4.192 -0.7029 -0.0720  0.7210
 2300SOL    HW218534   3.277   0.959   4.316  0.5041  2.5749 -0.3517
 2301SOL     OW18535   4.280   0.994  11.475 -0.5289  0.6633 -0.1490
 2301SOL    HW118536   4.350   0.942  11.514 -1.0706 -0.6917 -0.9378
 2301SOL    HW218537   4.268   1.067  11.535 -1.6397 -0.4290  0.9638
 2302SOL     OW18538   2.022   1.706   8.511  0.3057  0.2852 -0.4482
 2302SOL    HW118539   1.980   1.780   8.467 -1.8060  0.5679  2.0414
 2302SOL    HW218540   2.109   1.716   8.473  0.9332  0.3808  1.0137
 2303SOL     OW18541   0.750   0.903   7.313  0.3723  0.3576  0.4277
 2303SOL    HW118542   0.768   0.815   7.279 -1.4803  0.4309 -0.7319
 2303SOL    HW218543   0.715   0.882   7.399  3.4341 -1.7878  1.1520
 2304SOL     OW18544   2.033   1.331  11.504 -0.6979  0.2429  0.2533
 2304SOL    HW118545   2.116   1.297  11.536  0.0985  0.3693 -1.6964
 2304SOL    HW218546   2.000   1.380  11.580 -0.0006 -1.0387  1.3772
 2305SOL     OW18547   2.227   0.325   3.351  0.0521 -0.4624 -0.2995
 2305SOL    HW118548   2.281   0.250   3.327  0.9972 -0.3368  1.4367
 2305SOL    HW218549   2.292   0.388   3.382  1.6701 -2.1083 -0.4194
 2306SOL     OW18550   3.096   3.831   6.661 -0.1423  0.2014 -0.3004
 2306SOL    HW118551   3.085   3.875   6.746  0.7175  2.2017 -1.2420
 2306SOL    HW218552   3.055   3.749   6.687 -0.0986  0.1521 -0.3902
 2307SOL     OW18553   3.470   0.229  14.360 -0.0913 -0.3034 -0.3013
 2307SOL    HW118554   3.491   0.139  14.334 -0.2341 -0.6256  0.7026
 2307SOL    HW218555   3.459   0.264  14.272 -1.2223 -0.1022 -0.0889
 2308SOL     OW18556   2.730   0.061   0.310  0.4309  0.1038  1.0101
 2308SOL    HW118557   2.653   0.071   0.366 -0.5562 -2.0371  0.0470
 2308SOL    HW218558   2.709   4.713   0.276 -1.7384  0.3872  1.6584
 2309SOL     OW18559   1.275   0.619   8.934  0.7183 -0.0982  0.1982
 2309SOL    HW118560   1.368   0.640   8.947  0.8948 -1.0476  0.4516
 2309SOL    HW218561   1.238   0.705   8.954  0.5157  0.4061 -2.4212
 2310SOL     OW18562   1.175   1.490  12.187  0.5452 -0.0924  0.1663
 2310SOL    HW118563   1.252   1.519  12.138  0.6136  0.7250  0.7325
 2310SOL    HW218564   1.139   1.431  12.122  0.9787  0.4934 -0.6010
 2311SOL     OW18565   3.795   1.532   6.496  0.6875  0.8848 -0.0836
 2311SOL    HW118566   3.700   1.544   6.501  0.5953  0.2569 -0.4202
 2311SOL    HW218567   3.807   1.438   6.487 -2.5461  0.5107 -0.2118
 2312SOL     OW18568   4.146   2.687   3.864 -0.0714  0.1570 -0.4651
 2312SOL    HW118569   4.144   2.691   3.769 -0.2338 -0.3820 -0.4868
 2312SOL    HW218570   4.069   2.731   3.899 -0.1901  1.0193 -1.8391
 2313SOL     OW18571   3.490   0.817   6.374  0.2047 -0.1128 -0.3055
 2313SOL    HW118572   3.546   0.740   6.372 -0.8855 -0.8472 -2.4734
 2313SOL    HW218573   3.405   0.772   6.382 -0.1417  0.4001 -1.1151
 2314SOL     OW18574   2.830   3.252   7.170  0.1754 -0.4076 -0.2459
 2314SOL    HW118575   2.815   3.325   7.111 -0.5278 -0.7612 -0.5004
 2314SOL    HW218576   2.868   3.198   7.101 -2.2607 -2.1390 -0.2263
 2315SOL     OW18577   4.516   4.598   6.458 -0.1672  0.9735 -0.2603
 2315SOL    HW118578   4.554   4.667   6.511 -2.1254  0.1452  2.1833
 2315SOL    HW218579   4.516   4.522   6.516 -1.0505  1.9846  1.0511
 2316SOL     OW18580   2.878   1.771   0.924 -0.7104 -0.4924  0.2931
 2316SOL    HW118581   2.943   1.715   0.965  0.7431  0.2304 -1.0440
 2316SOL    HW218582   2.937   1.813   0.861 -1.9126 -1.2938 -1.3819
 2317SOL     OW18583   3.676   3.418   3.472 -0.3275  0.1509  0.4690
 2317SOL    HW118584   3.763   3.418   3.512  0.6047 -1.6058 -1.5616
 2317SOL    HW218585   3.702   3.464   3.393 -0.3171  0.6781  0.7775
 2318SOL     OW18586   2.001   2.806   7.202  0.2215  0.3939 -0.0911
 2318SOL    HW118587   2.046   2.837   7.123  1.9629 -0.1876  0.6646
 2318SOL    HW218588   1.916   2.781   7.168  1.7686 -2.4478 -1.8401
 2319SOL     OW18589   2.666   1.803   8.123  0.1756  0.1857  0.8005
 2319SOL    HW118590   2.715   1.814   8.204 -1.6629 -1.8081  2.1834
 2319SOL    HW218591   2.596   1.748   8.159 -1.7930  2.2320  0.0891
 2320SOL     OW18592   3.912   1.271   4.953  0.5628 -0.1101  0.1399
 2320SOL    HW118593   3.929   1.360   4.923  1.7516 -0.7101 -0.9413
 2320SOL    HW218594   3.989   1.229   4.915 -0.6634 -2.3013  0.0815
 2321SOL     OW18595   3.235   4.287  15.574  0.0053  1.0905  0.0355
 2321SOL    HW118596   3.315   4.307  15.525  0.3611  1.0670  0.6122
 2321SOL    HW218597   3.274   4.311  15.658  2.7589  0.9211 -1.1865
 2322SOL     OW18598   0.867   0.048   2.533  0.2535  0.1894 -0.0709
 2322SOL    HW118599   0.782   0.033   2.491 -0.4582 -0.1113  1.4878
 2322SOL    HW218600   0.918   0.101   2.472  0.6422 -1.1990 -0.9607
 2323SOL     OW18601   3.851   1.774  11.582  0.2930 -0.5746  0.8992
 2323SOL    HW118602   3.841   1.773  11.486  1.0411  1.4605  0.8068
 2323SOL    HW218603   3.763   1.742  11.601 -0.1944 -0.1143 -0.5950
 2324SOL     OW18604   1.137   2.480   3.485  0.5953  0.5808 -0.3927
 2324SOL    HW118605   1.100   2.441   3.564 -0.8989 -1.9653 -2.3688
 2324SOL    HW218606   1.100   2.569   3.482 -1.1432  0.0151  3.5962
 2325SOL     OW18607   4.684   0.265  17.445 -0.4361  0.0040 -0.3428
 2325SOL    HW118608   4.633   0.261  17.364 -0.9849  2.7203 -0.1414
 2325SOL    HW218609   4.625   0.327  17.488 -0.9058  0.0715 -1.0843
 2326SOL     OW18610   1.598   2.207   2.935 -0.2837 -0.2131 -0.1197
 2326SOL    HW118611   1.541   2.281   2.915  2.2138  1.9333  0.7416
 2326SOL    HW218612   1.536   2.138   2.958  2.6621 -3.2996 -1.3103
 2327SOL     OW18613   0.810   1.190  15.548  0.2672 -0.1916  0.1197
 2327SOL    HW118614   0.841   1.263  15.602  1.9238 -0.7087 -0.1494
 2327SOL    HW218615   0.726   1.227  15.518  0.9704 -1.3028 -3.1667
 2328SOL     OW18616   1.268   4.264  10.673 -0.1259 -0.5093 -0.3331
 2328SOL    HW118617   1.349   4.287  10.628  1.2219  0.7274  2.7864
 2328SOL    HW218618   1.314   4.212  10.739  0.3919 -0.9727 -1.0487
 2329SOL     OW18619   0.490   4.696   0.604  0.1437  0.2942  0.0959
 2329SOL    HW118620   0.557   4.661   0.545  0.0027  1.5589 -0.8280
 2329SOL    HW218621   0.475   0.037   0.553  0.6841  0.4639  0.2005
 2330SOL     OW18622   3.286   3.537   2.590 -0.2209 -0.1478  0.3989
 2330SOL    HW118623   3.326   3.452   2.607  0.6200  0.1349 -0.1851
 2330SOL    HW218624   3.239   3.569   2.667  0.5455 -1.0716  1.2363
 2331SOL     OW18625   3.405   0.645   8.235  0.2356  0.3083  0.0099
 2331SOL    HW118626   3.406   0.606   8.147  0.3704 -0.8348  0.5122
 2331SOL    HW218627   3.489   0.691   8.236  1.0463 -1.1132 -0.9287
 2332SOL     OW18628   4.468   0.191  16.967 -0.3147  0.0036  0.1814
 2332SOL    HW118629   4.468   0.165  16.875 -0.2233  2.9208 -0.6423
 2332SOL    HW218630   4.377   0.161  16.973  0.4596 -2.3146  0.4485
 2333SOL     OW18631   3.070   0.699   7.881  0.0887 -0.1983 -0.5422
 2333SOL    HW118632   3.125   0.666   7.810  0.4690 -0.7090 -0.0175
 2333SOL    HW218633   3.112   0.784   7.893 -0.1029 -0.2730  0.7225
 2334SOL     OW18634   0.528   2.487  11.084 -0.1407  0.3133 -0.0040
 2334SOL    HW118635   0.553   2.579  11.085  1.4011 -0.1194  0.6371
 2334SOL    HW218636   0.594   2.447  11.027 -0.2362 -0.8089  0.6656
 2335SOL     OW18637   4.171   0.625  10.187  0.3899 -0.0141  0.2572
 2335SOL    HW118638   4.139   0.664  10.106 -2.9770 -2.0798  0.6071
 2335SOL    HW218639   4.264   0.639  10.171  0.7200 -0.7156  1.5505
 2336SOL     OW18640   2.440   4.373  11.146  0.1453 -0.4777  1.2801
 2336SOL    HW118641   2.394   4.456  11.129  1.9677 -0.0068 -1.3546
 2336SOL    HW218642   2.533   4.394  11.155  0.7340 -1.2864 -2.8033
 2337SOL     OW18643   4.064   4.419   2.582 -0.2143 -0.1555  0.6119
 2337SOL    HW118644   4.118   4.490   2.617  1.1809 -0.3211 -1.2207
 2337SOL    HW218645   3.983   4.429   2.633 -0.8270  0.7437 -0.5227
 2338SOL     OW18646   1.793   3.440  14.811  0.9696  0.7667  0.1821
 2338SOL    HW118647   1.737   3.449  14.734 -0.6045 -1.7878  1.0119
 2338SOL    HW218648   1.813   3.530  14.837 -0.8586  0.7554  1.5878
 2339SOL     OW18649   2.041   1.239   4.359  0.3270  0.1495 -0.1745
 2339SOL    HW118650   2.047   1.294   4.437  0.6321  0.1762 -0.2149
 2339SOL    HW218651   2.128   1.199   4.354  0.2802  0.1805 -1.4026
 2340SOL     OW18652   0.582   3.428   6.189 -0.7545  0.0677 -0.0500
 2340SOL    HW118653   0.529   3.377   6.128  0.3991 -0.5437 -0.5379
 2340SOL    HW218654   0.544   3.387   6.266  0.7973 -1.1041  0.0834
 2341SOL     OW18655   1.576   4.309   8.837 -0.2984 -0.2215  0.4609
 2341SOL    HW118656   1.547   4.260   8.913  2.0179  1.1727  2.2804
 2341SOL    HW218657   1.649   4.251   8.813 -0.5925 -0.7841  0.9301
 2342SOL     OW18658   0.681   1.808   2.883 -0.0302  0.1883 -0.1976
 2342SOL    HW118659   0.699   1.901   2.871 -1.8032  0.2557 -2.4639
 2342SOL    HW218660   0.742   1.764   2.941  0.1200 -1.7958 -1.8647
 2343SOL     OW18661   0.185   4.524   6.068 -0.6657  0.7315  0.4634
 2343SOL    HW118662   0.127   4.577   6.013 -0.3830  0.6380  0.0764
 2343SOL    HW218663   0.221   4.462   6.004 -2.0429  0.5028 -0.0856
 2344SOL     OW18664   4.534   0.948   4.205 -0.2283 -0.1210  0.1456
 2344SOL    HW118665   4.606   0.890   4.179 -1.3783 -0.5631 -2.0074
 2344SOL    HW218666   4.513   0.922   4.295 -0.9477  2.8433  0.8513
 2345SOL     OW18667   0.439   2.090   5.100  0.1407 -0.4144  0.3316
 2345SOL    HW118668   0.367   2.072   5.039  0.7587 -1.8487  0.0091
 2345SOL    HW218669   0.471   2.000   5.108  0.7899 -0.2875 -0.7217
 2346SOL     OW18670   2.664   4.453   3.461 -0.2531 -0.0140  0.3085
 2346SOL    HW118671   2.692   4.536   3.499 -0.4028 -0.4977  1.4605
 2346SOL    HW218672   2.718   4.453   3.382 -1.2464  0.9100 -0.3594
 2347SOL     OW18673   4.111   1.515   9.178  0.3914 -1.0945  0.3098
 2347SOL    HW118674   4.171   1.532   9.106 -0.6223 -1.1998 -0.5531
 2347SOL    HW218675   4.123   1.422   9.198 -1.7220 -1.2733  0.7826
 2348SOL     OW18676   1.334   0.557   7.060  0.4990 -0.6933  0.1607
 2348SOL    HW118677   1.315   0.628   6.998  1.9844 -0.5780 -0.1674
 2348SOL    HW218678   1.315   0.480   7.007 -0.1561 -0.6630  0.3556
 2349SOL     OW18679   0.763   2.532   4.314 -0.0093  0.3643  0.0249
 2349SOL    HW118680   0.724   2.468   4.255 -0.6948 -0.2847  1.1987
 2349SOL    HW218681   0.815   2.478   4.373  1.4743  0.7238 -0.9471
 2350SOL     OW18682   2.643   2.195   7.026 -0.0636  0.0026  0.3298
 2350SOL    HW118683   2.656   2.234   6.939 -0.2655  0.7042  0.6127
 2350SOL    HW218684   2.554   2.162   7.036  0.2113 -0.4346  1.2750
 2351SOL     OW18685   2.949   1.089   4.878 -0.6818  0.4048  0.4498
 2351SOL    HW118686   2.918   1.171   4.839 -2.2750  0.3506  1.6194
 2351SOL    HW218687   2.868   1.043   4.900 -0.3088 -0.3963  0.1359
 2352SOL     OW18688   4.428   2.715   0.764  0.0274 -0.5428  0.0689
 2352SOL    HW118689   4.462   2.674   0.843  2.7965  1.8258  0.0870
 2352SOL    HW218690   4.502   2.692   0.709 -0.1721 -1.3289  0.1367
 2353SOL     OW18691   2.397   0.210   1.051 -0.2769  0.3044 -0.2916
 2353SOL    HW118692   2.482   0.167   1.062 -0.7642 -0.6422 -0.1633
 2353SOL    HW218693   2.388   0.222   0.957  2.4510 -1.9270 -0.8521
 2354SOL     OW18694   0.359   4.246  12.391 -0.6153 -0.4469  0.2639
 2354SOL    HW118695   0.374   4.330  12.348 -1.2183 -0.4334  0.0764
 2354SOL    HW218696   0.446   4.208  12.379 -0.9926 -0.8389 -1.1537
 2355SOL     OW18697   4.727   0.067  13.731  0.0290 -0.4706  0.3884
 2355SOL    HW118698   0.075   0.077  13.769  0.6233 -0.6767 -0.9093
 2355SOL    HW218699   4.687   4.735  13.780  1.8272 -0.0428  2.4853
 2356SOL     OW18700   1.074   3.488   0.784 -0.2318 -0.0653  0.5423
 2356SOL    HW118701   1.066   3.551   0.855  0.9681 -0.6520  1.1940
 2356SOL    HW218702   1.007   3.518   0.722 -0.0511  2.5941  1.6322
 2357SOL     OW18703   4.259   3.779   1.253  0.0447  0.0067  0.4479
 2357SOL    HW118704   4.341   3.738   1.282  1.1537  2.1566  0.3491
 2357SOL    HW218705   4.237   3.724   1.178  0.7832  0.9317 -0.4405
 2358SOL     OW18706   3.430   3.220   1.810  0.0746 -0.2921  0.2139
 2358SOL    HW118707   3.416   3.187   1.721  1.5307 -1.1755  0.3118
 2358SOL    HW218708   3.525   3.225   1.808  0.0685  0.5150  2.1175
 2359SOL     OW18709   2.237   4.147   7.458 -0.0403  0.2723  0.3724
 2359SOL    HW118710   2.250   4.087   7.531 -0.4364  2.4488  2.2205
 2359SOL    HW218711   2.202   4.227   7.495 -0.2729 -0.4040  1.6148
 2360SOL     OW18712   2.424   3.469   6.874 -0.1760 -0.6303 -0.0979
 2360SOL    HW118713   2.453   3.388   6.914  1.6816  0.2428  0.3190
 2360SOL    HW218714   2.332   3.450   6.855 -0.5455  1.8050 -0.7505
 2361SOL     OW18715   4.559   1.580   0.551 -0.2681  0.2316  0.7666
 2361SOL    HW118716   4.554   1.675   0.537  2.0040  0.0239 -1.4492
 2361SOL    HW218717   4.638   1.551   0.507 -0.8786 -1.9149  1.0592
 2362SOL     OW18718   1.842   0.915  17.408  0.4283  0.1542  0.5771
 2362SOL    HW118719   1.858   0.997  17.455 -0.1636 -0.6869  2.2529
 2362SOL    HW218720   1.862   0.856  17.480 -0.0611  1.9351  2.1688
 2363SOL     OW18721   3.316   2.419   4.753  0.5914  0.6603  0.4736
 2363SOL    HW118722   3.401   2.375   4.754  0.4825  0.2769 -3.9228
 2363SOL    HW218723   3.328   2.484   4.822 -1.2945  0.1585  1.2607
 2364SOL     OW18724   3.356   0.939   0.124 -0.0227 -0.2873  0.0859
 2364SOL    HW118725   3.404   0.876   0.069  0.9633 -0.5842  1.2904
 2364SOL    HW218726   3.398   1.014   0.084  1.1413 -0.7112  0.5189
 2365SOL     OW18727   4.158   1.261   9.212  0.1317 -0.2279  0.1654
 2365SOL    HW118728   4.195   1.207   9.282 -1.9181 -0.5610  1.0051
 2365SOL    HW218729   4.141   1.187   9.154  0.6910  0.3805 -0.7846
 2366SOL     OW18730   4.632   0.184  11.544  0.0150  0.6132 -0.7148
 2366SOL    HW118731   4.561   0.181  11.608  0.0025  0.1073 -0.7525
 2366SOL    HW218732   4.590   0.137  11.472  0.7176 -2.7606  1.0733
 2367SOL     OW18733   0.692   3.975  15.777 -0.0913  0.1999  0.4767
 2367SOL    HW118734   0.720   3.927  15.700  0.2147 -0.8055  1.2168
 2367SOL    HW218735   0.598   3.975  15.759  0.4115  1.4142 -2.1395
 2368SOL     OW18736   2.690   2.475   7.091 -0.5361  0.1396  0.2216
 2368SOL    HW118737   2.713   2.411   7.024  1.5124 -0.5281  1.5744
 2368SOL    HW218738   2.638   2.541   7.045  1.6562  2.1199  0.5863
 2369SOL     OW18739   1.565   1.651  10.073 -0.4296 -0.1502 -0.7570
 2369SOL    HW118740   1.600   1.615  10.154  1.3228 -0.3732 -1.5933
 2369SOL    HW218741   1.642   1.680  10.022  1.4546 -0.8347  1.7144
 2370SOL     OW18742   3.177   1.755   6.500  0.0618 -0.3966  0.5919
 2370SOL    HW118743   3.084   1.735   6.487 -0.2161  0.2395  1.5901
 2370SOL    HW218744   3.191   1.830   6.442  0.8674 -1.3572 -0.4392
 2371SOL     OW18745   0.491   2.726   1.829  0.3111  0.3875  0.2615
 2371SOL    HW118746   0.569   2.780   1.814  2.8210 -2.1566  4.2058
 2371SOL    HW218747   0.419   2.788   1.818 -0.2700 -0.5405 -1.1183
 2372SOL     OW18748   4.375   1.994   8.435  0.0536 -0.0681  0.1368
 2372SOL    HW118749   4.393   1.908   8.398  1.8218  0.4150 -0.1265
 2372SOL    HW218750   4.451   2.017   8.489  1.1123 -3.0208 -0.1294
 2373SOL     OW18751   1.250   2.697   7.569 -0.2968 -0.3544  0.3487
 2373SOL    HW118752   1.236   2.636   7.640 -0.6275  0.1242  0.6958
 2373SOL    HW218753   1.346   2.698   7.560 -0.3797 -0.0042 -0.6017
 2374SOL     OW18754   2.493   2.892   2.749 -0.1879  0.2235  0.7488
 2374SOL    HW118755   2.408   2.919   2.784 -0.0565  0.8367  0.5953
 2374SOL    HW218756   2.545   2.900   2.829  1.3725 -0.8488 -0.1659
 2375SOL     OW18757   2.023   4.317   1.998 -0.1293 -0.4325 -0.2968
 2375SOL    HW118758   1.987   4.357   1.919  1.5392 -1.0054 -1.3460
 2375SOL    HW218759   2.110   4.285   1.973 -0.2124 -0.1272 -0.9775
 2376SOL     OW18760   4.129   4.435   0.734  0.1997 -0.7266  0.3658
 2376SOL    HW118761   4.098   4.345   0.748 -2.2827  0.0369 -0.0997
 2376SOL    HW218762   4.223   4.429   0.724  0.3257  0.9098  0.5209
 2377SOL     OW18763   1.356   1.942   6.252 -0.4904  0.6164  0.2833
 2377SOL    HW118764   1.429   1.915   6.308 -1.2573 -0.5350  0.7323
 2377SOL    HW218765   1.370   1.882   6.179  0.2309 -0.1383  1.0427
 2378SOL     OW18766   1.746   3.615   9.705 -0.2599  0.1592 -0.0428
 2378SOL    HW118767   1.697   3.624   9.787 -1.3296 -0.8875 -0.5679
 2378SOL    HW218768   1.710   3.686   9.652 -2.3176 -0.7101  0.1938
 2379SOL     OW18769   4.209   0.793   5.752  0.1179 -0.7545 -0.4622
 2379SOL    HW118770   4.192   0.871   5.805  1.0075 -1.4118  0.8173
 2379SOL    HW218771   4.303   0.778   5.756  0.4885  1.3212 -1.7538
 2380SOL     OW18772   4.012   1.915   4.356 -0.4359  0.5177 -0.7205
 2380SOL    HW118773   4.042   1.946   4.271 -0.0568  1.9111 -0.0802
 2380SOL    HW218774   4.031   1.821   4.361 -2.2455  0.2828  1.5101
 2381SOL     OW18775   0.875   3.400  12.661 -0.3793 -0.2350 -0.1174
 2381SOL    HW118776   0.805   3.335  12.648 -0.1987 -0.6417  0.9194
 2381SOL    HW218777   0.827   3.483  12.661 -2.8383 -1.6457 -3.3280
 2382SOL     OW18778   1.275   1.362  10.401  0.1779  0.0990  0.3061
 2382SOL    HW118779   1.323   1.363  10.485 -0.7136 -1.9026  0.8234
 2382SOL    HW218780   1.326   1.304  10.345  0.1728  4.0463 -3.7337
 2383SOL     OW18781   4.545   0.301   2.793  0.3697  0.6982 -0.0034
 2383SOL    HW118782   4.557   0.370   2.728  3.5740 -0.3418 -0.4966
 2383SOL    HW218783   4.459   0.314   2.834  0.5588  1.3020  0.2040
 2384SOL     OW18784   4.220   2.096   6.632 -0.4565 -0.1868 -0.5705
 2384SOL    HW118785   4.179   2.017   6.666  3.1784 -1.5750  0.5918
 2384SOL    HW218786   4.298   2.100   6.687 -1.0647  0.2313  0.2454
 2385SOL     OW18787   1.694   2.624   4.000 -0.2475 -0.5728 -0.1094
 2385SOL    HW118788   1.626   2.691   4.014 -0.0192 -0.1858 -0.8543
 2385SOL    HW218789   1.669   2.576   3.921 -1.5261  0.2746 -0.2147
 2386SOL     OW18790   4.060   1.230   2.355  0.0898 -0.1166  0.1400
 2386SOL    HW118791   4.020   1.220   2.441  1.3871 -1.0953  0.6191
 2386SOL    HW218792   4.105   1.148   2.339  2.0313  1.4358 -2.3542
 2387SOL     OW18793   3.857   0.553   9.065  0.1382 -0.5507  0.0678
 2387SOL    HW118794   3.903   0.631   9.036 -0.9531 -0.3237 -1.0435
 2387SOL    HW218795   3.788   0.539   8.999 -1.6927 -0.1755  1.8847
 2388SOL     OW18796   4.133   2.720   9.958 -0.3497 -0.1326 -0.2596
 2388SOL    HW118797   4.177   2.667   9.892 -1.5704 -4.7963  2.6527
 2388SOL    HW218798   4.040   2.697   9.953 -0.2897 -0.2428 -0.8881
 2389SOL     OW18799   0.600   1.465   7.818  0.1224 -0.3663 -0.7448
 2389SOL    HW118800   0.692   1.439   7.829 -0.1940 -1.0839  0.2387
 2389SOL    HW218801   0.594   1.547   7.868 -0.0066 -2.1257  2.1322
 2390SOL     OW18802   2.020   2.493   8.230 -0.2936  0.0753 -0.2487
 2390SOL    HW118803   1.964   2.491   8.152  0.7795  0.4707 -1.0378
 2390SOL    HW218804   2.083   2.423   8.214 -0.3168  0.0419 -0.1935
 2391SOL     OW18805   0.892   0.103   8.837  0.2546  0.0729 -0.8102
 2391SOL    HW118806   0.962   0.076   8.778  1.3937  1.5721 -0.1212
 2391SOL    HW218807   0.822   0.095   8.772  0.5048 -1.6038 -0.8839
 2392SOL     OW18808   0.876   0.746   3.221  0.0485 -0.3174 -0.3837
 2392SOL    HW118809   0.955   0.757   3.274  2.1065 -1.6627 -3.1697
 2392SOL    HW218810   0.821   0.819   3.249  0.9811  0.2938 -0.1501
 2393SOL     OW18811   1.336   3.129   7.576 -0.7067 -0.0028  0.3473
 2393SOL    HW118812   1.337   3.091   7.664 -2.2397  0.6156  0.6256
 2393SOL    HW218813   1.268   3.085   7.524  1.9718 -1.0427 -2.2578
 2394SOL     OW18814   4.416   0.085   2.657 -0.9187  0.2794  0.2337
 2394SOL    HW118815   4.382   0.112   2.571 -0.0549  1.9916  0.4332
 2394SOL    HW218816   4.460   0.164   2.686 -3.0467  1.3441  0.5325
 2395SOL     OW18817   2.528   1.246   2.429  0.6118 -0.6453  0.3883
 2395SOL    HW118818   2.512   1.295   2.348  1.0510 -2.2096 -0.6536
 2395SOL    HW218819   2.613   1.209   2.404  0.3224 -0.8668 -0.2694
 2396SOL     OW18820   2.232   2.040   6.745  0.2805 -1.1158  0.0126
 2396SOL    HW118821   2.199   1.962   6.790 -1.1878 -1.3402 -1.4502
 2396SOL    HW218822   2.150   2.091   6.740 -0.0318 -1.5235  1.0651
 2397SOL     OW18823   0.327   2.114   1.753 -0.2517 -0.2610 -0.1201
 2397SOL    HW118824   0.244   2.161   1.748 -0.1183  0.1370  1.2033
 2397SOL    HW218825   0.377   2.166   1.817 -0.1249  2.0864 -2.1265
 2398SOL     OW18826   0.293   2.856   9.536  0.0332  0.3980  0.4699
 2398SOL    HW118827   0.364   2.815   9.487 -0.7224 -0.7366  0.3304
 2398SOL    HW218828   0.326   2.871   9.624 -0.5629 -1.0086  0.9291
 2399SOL     OW18829   3.119   3.382   6.885 -0.0849  0.8481  0.0313
 2399SOL    HW118830   3.041   3.419   6.927 -0.3271  0.7005 -0.2887
 2399SOL    HW218831   3.186   3.448   6.908  1.1101 -1.0356  1.9373
 2400SOL     OW18832   2.528   3.881   2.457 -0.2014  0.3468  0.2077
 2400SOL    HW118833   2.442   3.845   2.435  0.2851 -0.2343 -0.7507
 2400SOL    HW218834   2.516   3.973   2.480 -1.0546  0.0785  0.8553
 2401SOL     OW18835   2.634   4.630   9.126  0.9318 -0.1826  1.0177
 2401SOL    HW118836   2.654   4.609   9.218 -3.1670 -0.0088  1.9418
 2401SOL    HW218837   2.539   4.614   9.122  1.1634 -1.6302  1.2147
 2402SOL     OW18838   0.699   4.735   3.544 -0.0788  0.1097 -0.4821
 2402SOL    HW118839   0.685   4.702   3.633 -0.1896  1.4972  0.0181
 2402SOL    HW218840   0.725   0.087   3.560 -1.5773  0.5669 -0.6852
 2403SOL     OW18841   3.815   3.563   2.988 -0.4662 -0.3674 -0.0990
 2403SOL    HW118842   3.852   3.652   2.997  1.7581 -0.9180 -3.6625
 2403SOL    HW218843   3.800   3.579   2.895 -1.4051  1.6907  0.3988
 2404SOL     OW18844   4.266   3.140   7.412 -0.0717  0.1165  0.4847
 2404SOL    HW118845   4.327   3.148   7.339 -2.2881  0.7149 -1.3362
 2404SOL    HW218846   4.180   3.122   7.373  0.0019  0.4515  0.1559
 2405SOL     OW18847   0.881   3.694   6.472 -0.0273 -0.6147 -0.3183
 2405SOL    HW118848   0.809   3.699   6.409 -1.0982 -3.7256  0.6602
 2405SOL    HW218849   0.829   3.681   6.551 -1.3413 -0.3485 -1.1418
 2406SOL     OW18850   2.140   4.179   9.137  0.3066 -0.0109 -0.5504
 2406SOL    HW118851   2.220   4.153   9.183  0.2418 -1.2076 -1.0981
 2406SOL    HW218852   2.092   4.097   9.146  0.5922 -0.1357 -0.1933
 2407SOL     OW18853   3.269   1.166  13.782  0.3496  0.0125 -0.7164
 2407SOL    HW118854   3.363   1.184  13.774 -0.0513  3.1717  1.4814
 2407SOL    HW218855   3.253   1.111  13.705  1.1441 -1.4239  0.1503
 2408SOL     OW18856   3.979   1.607  15.266 -0.4729  0.3483 -0.7500
 2408SOL    HW118857   3.925   1.668  15.216  0.1931  0.4856 -1.2955
 2408SOL    HW218858   3.946   1.522  15.237 -0.2747 -0.3641  1.1143
 2409SOL     OW18859   4.181   0.844   7.831 -0.2024  0.0950 -0.4125
 2409SOL    HW118860   4.217   0.756   7.835  0.8002  0.4730 -1.0898
 2409SOL    HW218861   4.249   0.901   7.867  0.2090  0.0262 -1.0999
 2410SOL     OW18862   2.174   4.141   6.987 -0.3264  0.7586  0.3226
 2410SOL    HW118863   2.141   4.223   6.950 -2.2423 -0.5481 -0.8983
 2410SOL    HW218864   2.268   4.160   6.983 -0.1349 -0.2194  0.3286
 2411SOL     OW18865   2.300   2.159  16.152 -0.0432 -0.0164 -0.4922
 2411SOL    HW118866   2.225   2.194  16.201  0.8157  0.2349  0.6497
 2411SOL    HW218867   2.382   2.185  16.194  0.8690  0.0747 -2.3505
 2412SOL     OW18868   4.371   2.766   5.814  0.5797  0.0359  0.5888
 2412SOL    HW118869   4.356   2.676   5.784 -0.9818  0.5238 -0.0469
 2412SOL    HW218870   4.458   2.761   5.853  0.3042  1.7079  1.3877
 2413SOL     OW18871   3.834   3.359   2.525  0.5292  0.5962  0.2496
 2413SOL    HW118872   3.918   3.355   2.570 -0.0608  0.4360  1.3371
 2413SOL    HW218873   3.861   3.393   2.440 -2.0634  0.8623 -0.4659
 2414SOL     OW18874   2.890   2.373  13.701 -0.1905  0.3906 -0.5749
 2414SOL    HW118875   2.861   2.463  13.689  1.2083  0.9368  0.1277
 2414SOL    HW218876   2.909   2.370  13.794  2.3377  2.8501 -1.0126
 2415SOL     OW18877   4.710   0.496   6.576  0.1233 -0.1305 -0.6106
 2415SOL    HW118878   4.717   0.456   6.489  2.3350 -2.1505  0.4895
 2415SOL    HW218879   4.618   0.484   6.600  1.3332 -3.7260  2.2220
 2416SOL     OW18880   1.575   0.434  15.610  0.6377  0.0255  0.3446
 2416SOL    HW118881   1.621   0.381  15.545 -0.2083  1.1245 -1.1573
 2416SOL    HW218882   1.568   0.521  15.570 -0.0868 -0.1080  0.1712
 2417SOL     OW18883   3.413   2.072   9.616 -0.3449  0.7168  0.1430
 2417SOL    HW118884   3.415   2.091   9.710  1.4692 -0.5990  0.3604
 2417SOL    HW218885   3.436   2.157   9.580  1.4391 -0.4605 -1.4843
 2418SOL     OW18886   2.250   2.632   2.642  0.5252  0.4879  0.1922
 2418SOL    HW118887   2.206   2.716   2.649 -1.3905 -0.5585  0.8994
 2418SOL    HW218888   2.323   2.663   2.589  0.0382  0.2134 -0.6308
 2419SOL     OW18889   1.263   3.507   8.628  0.9418  0.6384 -0.5163
 2419SOL    HW118890   1.326   3.472   8.691 -0.1180 -0.1078  0.1229
 2419SOL    HW218891   1.277   3.601   8.640  0.0374  0.8263 -0.9755
 2420SOL     OW18892   0.757   3.450  15.989 -0.4423  0.2550  0.2748
 2420SOL    HW118893   0.809   3.382  16.032  0.4797  1.9584  1.8291
 2420SOL    HW218894   0.681   3.438  16.045 -0.5578 -0.0440  0.0562
 2421SOL     OW18895   1.075   2.470   0.755  0.3517  0.0122 -0.0955
 2421SOL    HW118896   1.083   2.532   0.828 -0.0276 -0.3174  0.2269
 2421SOL    HW218897   1.164   2.466   0.720 -0.2433 -0.7199 -1.5639
 2422SOL     OW18898   1.286   2.629   5.510 -0.0855  0.1795 -0.1933
 2422SOL    HW118899   1.369   2.586   5.488 -0.4608 -0.8046  0.3097
 2422SOL    HW218900   1.261   2.646   5.420  0.6188  0.3068 -0.3644
 2423SOL     OW18901   4.531   0.194   5.464  0.0470  0.3758 -0.1840
 2423SOL    HW118902   4.466   0.131   5.431  1.2291  0.1753 -2.1101
 2423SOL    HW218903   4.522   0.268   5.404  0.1149  0.5597  0.0324
 2424SOL     OW18904   0.301   1.512   8.840  0.0510 -0.9070 -1.0302
 2424SOL    HW118905   0.298   1.423   8.804  0.2666 -2.6339  3.3237
 2424SOL    HW218906   0.383   1.538   8.797  0.3277  0.5633  0.4041
 2425SOL     OW18907   3.844   2.932  12.524 -0.2398  0.2910  0.1947
 2425SOL    HW118908   3.818   2.875  12.452 -1.6946  0.4536  0.6019
 2425SOL    HW218909   3.778   3.002  12.521  0.1056  0.5983 -0.2237
 2426SOL     OW18910   2.969   4.012   3.831 -0.1441  0.2068 -0.3004
 2426SOL    HW118911   3.008   4.079   3.888 -0.2680  0.5477 -0.6148
 2426SOL    HW218912   3.032   3.940   3.823  0.7601  1.0889 -1.3090
 2427SOL     OW18913   1.562   4.293   2.244 -0.2003  0.5142  0.0602
 2427SOL    HW118914   1.611   4.214   2.221 -0.1078  0.4195  0.5778
 2427SOL    HW218915   1.624   4.360   2.214 -2.0885  1.9563 -0.6347
 2428SOL     OW18916   2.839   3.511   4.196  0.1797  0.6773  0.7552
 2428SOL    HW118917   2.822   3.596   4.157  1.0567 -0.2790 -1.7326
 2428SOL    HW218918   2.771   3.522   4.263  0.4251  1.4031  0.8770
 2429SOL     OW18919   3.189   0.936   6.146 -0.1432 -0.0448 -0.1496
 2429SOL    HW118920   3.228   0.991   6.214  1.4863  1.0262 -1.9332
 2429SOL    HW218921   3.254   0.929   6.076  0.8226  0.4863  0.6986
 2430SOL     OW18922   1.563   0.508   4.148 -0.1734  0.1396 -0.2799
 2430SOL    HW118923   1.556   0.591   4.196  0.9060 -0.0209  0.1476
 2430SOL    HW218924   1.531   0.444   4.212  2.0632 -0.3261  0.3774
 2431SOL     OW18925   4.717   3.022   4.422  0.3856  0.7397  0.3817
 2431SOL    HW118926   0.058   3.061   4.455 -0.8835  1.8981  2.0798
 2431SOL    HW218927   4.696   2.953   4.485 -2.3572  1.5290  0.3378
 2432SOL     OW18928   3.228   1.291   2.903 -0.3860 -0.1146 -0.1541
 2432SOL    HW118929   3.136   1.292   2.875 -0.0268 -0.6198 -1.3446
 2432SOL    HW218930   3.237   1.197   2.886 -0.8919 -0.2298  0.2047
 2433SOL     OW18931   0.993   0.778   7.010 -0.0975 -0.4705  0.2010
 2433SOL    HW118932   0.984   0.834   6.934  1.0502 -0.4565  0.0766
 2433SOL    HW218933   1.052   0.832   7.062 -0.9562 -0.3135  1.0145
 2434SOL     OW18934   1.063   3.636   0.243  0.0033 -0.0645  0.0260
 2434SOL    HW118935   1.019   3.688   0.176  1.3700  1.2083  0.1046
 2434SOL    HW218936   1.074   3.701   0.313  1.6880  0.4285 -0.6887
 2435SOL     OW18937   0.913   4.470   2.956  0.1595  0.5620 -0.0437
 2435SOL    HW118938   0.981   4.529   2.990 -2.0226  1.7277  2.3045
 2435SOL    HW218939   0.906   4.484   2.862  1.9683  0.5991 -0.1660
 2436SOL     OW18940   1.688   2.116   5.207  0.5992 -0.2197  0.4741
 2436SOL    HW118941   1.669   2.121   5.113 -0.3543  0.7906  0.7217
 2436SOL    HW218942   1.711   2.206   5.230 -1.0294  0.5398 -0.8327
 2437SOL     OW18943   1.304   3.028  13.929  0.1037 -0.1585 -0.0870
 2437SOL    HW118944   1.309   3.100  13.866 -3.2122  0.2595  0.1028
 2437SOL    HW218945   1.215   3.041  13.962  1.0739  2.4369  1.4653
 2438SOL     OW18946   4.486   0.716  14.866 -0.0804  0.0421 -0.7531
 2438SOL    HW118947   4.418   0.771  14.828  0.3311  2.8654  2.5119
 2438SOL    HW218948   4.453   0.700  14.954 -2.4929  0.4221 -1.6043
 2439SOL     OW18949   4.512   2.744   1.066 -0.6075 -0.5564 -0.4967
 2439SOL    HW118950   4.418   2.746   1.085  0.1339  0.4861  3.0262
 2439SOL    HW218951   4.520   2.657   1.028 -4.2427 -0.6146 -1.1197
 2440SOL     OW18952   1.042   0.266   3.080 -0.1541 -0.0587  0.5447
 2440SOL    HW118953   0.996   0.260   3.164 -0.6751  0.1421  0.2699
 2440SOL    HW218954   1.041   0.361   3.074  1.9022  0.0606  2.1069
 2441SOL     OW18955   3.276   4.302   4.288 -0.0992  0.5767 -0.2763
 2441SOL    HW118956   3.307   4.263   4.369 -0.1719 -0.4709 -0.7618
 2441SOL    HW218957   3.183   4.291   4.305 -0.4116  0.2560 -2.1510
 2442SOL     OW18958   0.444   2.541   5.623 -0.0309 -0.7434 -0.0397
 2442SOL    HW118959   0.411   2.631   5.613 -1.8046 -1.1322  2.1035
 2442SOL    HW218960   0.363   2.493   5.640 -0.9495  0.8069  0.0277
 2443SOL     OW18961   4.299   2.369   6.654 -0.2228  0.2554 -0.4792
 2443SOL    HW118962   4.229   2.432   6.671 -0.8681  0.0778 -2.5152
 2443SOL    HW218963   4.247   2.289   6.656 -0.9514  0.7559  0.5340
 2444SOL     OW18964   1.073   3.830   0.485 -0.2527  0.3637 -0.1679
 2444SOL    HW118965   1.030   3.895   0.541 -0.3624 -1.0995  1.4657
 2444SOL    HW218966   1.130   3.891   0.439  1.4023 -1.8126 -1.0380
 2445SOL     OW18967   2.707   3.486  12.072  0.7729 -0.4039 -0.0718
 2445SOL    HW118968   2.656   3.528  12.141 -0.6584  0.1499 -1.4612
 2445SOL    HW218969   2.682   3.395  12.084 -1.4614  0.0906 -1.0360
 2446SOL     OW18970   4.318   0.564   3.229  0.0425 -0.6575  0.4853
 2446SOL    HW118971   4.394   0.565   3.287  0.8220  0.4216 -0.5332
 2446SOL    HW218972   4.251   0.515   3.277 -0.9006  0.8141  0.6663
 2447SOL     OW18973   3.170   2.158   7.049  0.6384 -0.4086 -0.3852
 2447SOL    HW118974   3.121   2.164   6.967  0.2821  0.6711 -0.0958
 2447SOL    HW218975   3.254   2.132   7.011  0.6052 -0.7167 -0.2463
 2448SOL     OW18976   3.647   0.813   4.242  0.0756 -0.9201 -0.3079
 2448SOL    HW118977   3.612   0.897   4.270  2.3457 -0.6378  1.6765
 2448SOL    HW218978   3.740   0.835   4.235 -0.2795  0.0047 -1.9013
 2449SOL     OW18979   3.291   0.100   1.522  0.3922 -0.5794 -0.3926
 2449SOL    HW118980   3.262   0.079   1.611  1.1392  0.3571  0.0660
 2449SOL    HW218981   3.230   0.170   1.500  0.1140 -1.2074 -1.6554
 2450SOL     OW18982   0.773   3.240   3.877 -0.1319 -0.5220 -0.1865
 2450SOL    HW118983   0.863   3.208   3.866 -0.1738 -0.6966 -0.0235
 2450SOL    HW218984   0.725   3.158   3.864 -0.9564  0.1019 -1.1261
 2451SOL     OW18985   3.077   3.894   6.356 -0.1902 -0.4894  0.1884
 2451SOL    HW118986   3.054   3.892   6.449  2.2586 -1.9801  0.7777
 2451SOL    HW218987   3.166   3.861   6.347  0.3696  1.3917 -1.0218
 2452SOL     OW18988   0.533   1.238   9.366  0.4683  0.2126  0.2806
 2452SOL    HW118989   0.527   1.316   9.420 -1.1563  0.1185  0.2355
 2452SOL    HW218990   0.458   1.190   9.401  0.3098 -0.9556 -1.6466
 2453SOL     OW18991   4.129   1.519   4.062 -0.4227  0.3738 -0.0009
 2453SOL    HW118992   4.068   1.591   4.051 -0.1561  0.6294  0.1840
 2453SOL    HW218993   4.212   1.565   4.047  0.7902 -2.3370 -1.6292
 2454SOL     OW18994   3.851   3.821   6.282  0.1439 -0.2199  0.3819
 2454SOL    HW118995   3.808   3.906   6.291 -0.0742  0.0040 -2.6357
 2454SOL    HW218996   3.776   3.760   6.278 -0.2030  0.3489 -1.5502
 2455SOL     OW18997   1.539   4.344   9.585 -0.1421  0.5028 -0.3542
 2455SOL    HW118998   1.485   4.296   9.647  0.4310 -1.4521 -1.3786
 2455SOL    HW218999   1.498   4.313   9.504  1.5826  1.6874 -1.6827
 2456SOL     OW19000   4.455   0.158   7.703 -0.0607 -0.2100  0.7651
 2456SOL    HW119001   4.412   0.096   7.643  2.0591 -0.6462 -0.2880
 2456SOL    HW219002   4.540   0.179   7.664 -0.7758  1.6710  0.2239
 2457SOL     OW19003   3.288   0.182   3.243 -0.1646 -0.3634  0.6006
 2457SOL    HW119004   3.328   0.268   3.232  0.1256 -0.4322  1.1139
 2457SOL    HW219005   3.311   0.143   3.159  0.9752 -0.6683  1.0548
 2458SOL     OW19006   2.359   0.314   6.933 -0.1585  0.6362 -0.1296
 2458SOL    HW119007   2.439   0.289   6.887  1.4528  2.5453  1.6355
 2458SOL    HW219008   2.344   0.236   6.986  0.9829 -0.7324 -1.8098
 2459SOL     OW19009   1.785   0.329   6.394  0.4022 -0.1629  0.2529
 2459SOL    HW119010   1.879   0.320   6.380  0.4085 -0.7919  0.6842
 2459SOL    HW219011   1.781   0.422   6.417  0.8442  0.3099 -1.6213
 2460SOL     OW19012   0.283   2.748   7.054 -0.9749  0.0113 -0.0543
 2460SOL    HW119013   0.364   2.698   7.052 -1.2066 -0.4296  1.3792
 2460SOL    HW219014   0.312   2.839   7.058  2.3127 -0.9826 -1.5183
 2461SOL     OW19015   4.569   1.639   7.344 -0.0815 -0.5074 -0.2406
 2461SOL    HW119016   4.558   1.620   7.438  0.8181 -0.6251 -0.1591
 2461SOL    HW219017   4.509   1.575   7.306  0.5989 -0.8742 -0.6948
 2462SOL     OW19018   1.800   0.285   3.661  0.4816 -0.1063 -0.2789
 2462SOL    HW119019   1.848   0.351   3.611 -0.5421  1.4469  0.8112
 2462SOL    HW219020   1.867   0.235   3.707  1.5734  0.9993 -0.6678
 2463SOL     OW19021   0.685   4.425  15.551 -0.4294 -0.1985 -0.2180
 2463SOL    HW119022   0.687   4.427  15.455  0.9508  2.3324 -0.1287
 2463SOL    HW219023   0.724   4.337  15.557  0.0527  0.0348  0.0773
 2464SOL     OW19024   0.690   1.681  11.628  0.2160  0.3897 -0.6120
 2464SOL    HW119025   0.599   1.651  11.630 -0.4425  2.2337 -2.9433
 2464SOL    HW219026   0.678   1.776  11.621 -0.3768  0.3224 -0.5470
 2465SOL     OW19027   4.283   2.030   9.629 -0.3412  0.0574 -0.5675
 2465SOL    HW119028   4.198   2.025   9.584 -0.6141  0.6292 -0.1056
 2465SOL    HW219029   4.258   2.091   9.698 -1.0760  0.1854 -0.9492
 2466SOL     OW19030   0.185   2.844  17.733  0.2404  0.4506 -0.1045
 2466SOL    HW119031   0.275   2.814  17.741 -0.5857 -1.8059  0.8340
 2466SOL    HW219032   0.192   2.935   0.006  2.7266 -0.4760  2.4465
 2467SOL     OW19033   0.858   2.529   5.140 -0.1120 -0.1570 -0.4515
 2467SOL    HW119034   0.917   2.469   5.187 -0.8829  0.1753  0.9494
 2467SOL    HW219035   0.778   2.498   5.182 -0.3836  0.4837 -0.5003
 2468SOL     OW19036   1.302   2.701  16.523  0.0295  0.3167  0.4076
 2468SOL    HW119037   1.225   2.729  16.473 -0.7358  1.1536  2.0969
 2468SOL    HW219038   1.262   2.657  16.598 -2.1449 -0.9115 -1.4275
 2469SOL     OW19039   0.504   0.882   7.176  0.5245 -0.1784  0.2887
 2469SOL    HW119040   0.450   0.961   7.178 -2.8294 -2.4570 -0.0074
 2469SOL    HW219041   0.581   0.919   7.219  0.8428 -0.4303 -0.0637
 2470SOL     OW19042   1.856   1.335   7.431  0.7424 -0.4795 -0.4728
 2470SOL    HW119043   1.853   1.312   7.524  3.7932  0.1316 -0.2113
 2470SOL    HW219044   1.827   1.251   7.397  0.8616 -1.0562  0.8518
 2471SOL     OW19045   4.263   4.305   3.723  0.1360 -0.3416  0.0486
 2471SOL    HW119046   4.167   4.308   3.718  0.0717 -1.3675  0.6050
 2471SOL    HW219047   4.285   4.257   3.643  1.8404  2.7259 -1.3393
 2472SOL     OW19048   1.958   0.260   1.598  0.0313 -0.3503  1.0338
 2472SOL    HW119049   1.944   0.332   1.537 -2.5770  0.3099  2.3840
 2472SOL    HW219050   1.910   0.296   1.673  2.2580 -1.1906  2.8657
 2473SOL     OW19051   3.787   4.715  10.226  0.3742  0.3348  0.1103
 2473SOL    HW119052   3.852   0.033  10.269  1.5677  0.9138 -2.4143
 2473SOL    HW219053   3.855   4.670  10.176  1.4179 -1.0484  2.7529
 2474SOL     OW19054   3.422   2.230   9.086 -0.0219  0.3932 -0.0565
 2474SOL    HW119055   3.348   2.205   9.032  0.5703  1.0157 -1.1599
 2474SOL    HW219056   3.456   2.309   9.044  1.1172  0.6835  1.4168
 2475SOL     OW19057   2.897   4.189   0.116  0.7367 -0.3335 -0.4192
 2475SOL    HW119058   2.969   4.206   0.055  0.1842  1.0275 -0.6862
 2475SOL    HW219059   2.880   4.096   0.100  0.5215 -0.2016 -0.9204
 2476SOL     OW19060   0.691   2.915   1.751 -0.2857  0.3010  0.4232
 2476SOL    HW119061   0.657   2.974   1.684 -1.7538  0.1377  1.0090
 2476SOL    HW219062   0.785   2.921   1.734 -0.3060  1.5229  0.7336
 2477SOL     OW19063   3.016   0.013  15.338  0.0651  0.0351  0.0398
 2477SOL    HW119064   3.067   4.688  15.387  1.2998  1.4227  0.5431
 2477SOL    HW219065   2.983   0.071  15.407  1.8060 -1.7802  2.3935
 2478SOL     OW19066   4.353   2.446   2.671  0.1834  0.5385 -0.1277
 2478SOL    HW119067   4.329   2.382   2.736 -1.2103 -0.1973 -1.3744
 2478SOL    HW219068   4.268   2.478   2.642  0.1924  0.2423 -0.4835
 2479SOL     OW19069   2.557   0.380  13.122 -0.5411 -0.5568 -0.2086
 2479SOL    HW119070   2.607   0.367  13.203  1.0511 -0.8300 -1.2280
 2479SOL    HW219071   2.548   0.475  13.118  0.5204 -0.3502  2.1472
 2480SOL     OW19072   0.151   4.225  16.094  0.3295  0.0185 -0.7064
 2480SOL    HW119073   0.207   4.168  16.041  1.4826  0.8476 -0.3572
 2480SOL    HW219074   0.174   4.313  16.065  1.1961 -0.2381 -0.7758
 2481SOL     OW19075   2.838   4.391   9.683 -0.2077 -0.1289 -0.3175
 2481SOL    HW119076   2.878   4.454   9.622 -0.5266 -1.3421 -1.7966
 2481SOL    HW219077   2.861   4.428   9.768 -1.8637 -0.4834  0.2770
 2482SOL     OW19078   0.769   3.501   4.017  0.0790  0.0279 -0.0591
 2482SOL    HW119079   0.833   3.435   4.045 -1.7820 -2.8159 -2.4095
 2482SOL    HW219080   0.824   3.570   3.981  0.8261 -0.9172 -0.7382
 2483SOL     OW19081   3.169   4.490   6.529 -0.4738  0.2377  0.7356
 2483SOL    HW119082   3.244   4.489   6.589  0.5346  0.6172 -0.5337
 2483SOL    HW219083   3.194   4.559   6.468  0.2740 -0.6833  0.0047
 2484SOL     OW19084   4.089   1.410   1.967 -0.1685 -1.3848 -0.1512
 2484SOL    HW119085   4.050   1.386   2.051 -1.3774 -2.3064 -0.9880
 2484SOL    HW219086   4.105   1.504   1.974 -0.5654 -1.3932  0.8627
 2485SOL     OW19087   2.508   4.605   3.228  0.2325 -0.1176  0.2016
 2485SOL    HW119088   2.492   4.542   3.157  3.3649  0.1265 -0.7148
 2485SOL    HW219089   2.570   4.554   3.279  1.7156  1.6388  0.1487
 2486SOL     OW19090   3.702   0.507   8.841  0.0233  0.0460 -0.1751
 2486SOL    HW119091   3.635   0.443   8.814 -1.4666  1.3017  0.5343
 2486SOL    HW219092   3.699   0.568   8.767 -1.0156  0.6979  0.4081
 2487SOL     OW19093   1.314   1.799   1.532  0.5343  0.5550  0.3420
 2487SOL    HW119094   1.369   1.831   1.460  0.4258 -1.0708 -0.4851
 2487SOL    HW219095   1.384   1.780   1.594 -1.7578  0.6475  2.9608
 2488SOL     OW19096   1.692   4.565   1.907  0.1811  0.8166  0.0314
 2488SOL    HW119097   1.728   4.515   1.980 -2.5975 -1.2072  0.0028
 2488SOL    HW219098   1.615   4.509   1.895  0.2510  0.4124  1.5135
 2489SOL     OW19099   1.246   1.839   3.998 -0.0884  0.3697 -0.1665
 2489SOL    HW119100   1.218   1.763   3.947  1.7772  0.4555 -1.3281
 2489SOL    HW219101   1.163   1.877   4.026 -0.3877  0.1557 -0.7669
 2490SOL     OW19102   0.694   4.709   2.260  0.2182  0.2643 -0.1283
 2490SOL    HW119103   0.710   0.015   2.178 -2.0355  1.3681  0.0459
 2490SOL    HW219104   0.631   0.021   2.310  0.0007 -0.2943  0.1708
 2491SOL     OW19105   0.056   1.847   3.078  0.3625  0.7788 -0.6981
 2491SOL    HW119106   0.131   1.844   3.019  0.4176  3.8469 -0.7776
 2491SOL    HW219107   0.086   1.802   3.158  0.6437 -0.6107 -1.5804
 2492SOL     OW19108   4.481   2.011   9.186  0.2176 -0.3308 -0.1298
 2492SOL    HW119109   4.510   2.051   9.267  1.1767  0.4679 -0.8646
 2492SOL    HW219110   4.560   2.018   9.132 -0.2151 -2.8304 -1.0880
 2493SOL     OW19111   3.493   1.259   4.920  0.0268 -0.2717  0.2262
 2493SOL    HW119112   3.515   1.340   4.874  2.2456 -0.8754  0.2072
 2493SOL    HW219113   3.408   1.240   4.880 -1.2505  1.2746  2.1752
 2494SOL     OW19114   3.376   1.348   5.484  0.0584  0.7352 -0.3369
 2494SOL    HW119115   3.392   1.286   5.556  1.1516  0.2063 -1.0348
 2494SOL    HW219116   3.344   1.286   5.418  0.0092  2.0927 -1.5698
 2495SOL     OW19117   2.148   3.785  13.838 -0.5481 -0.4727  0.0069
 2495SOL    HW119118   2.099   3.855  13.880  0.5193 -0.3201  1.0107
 2495SOL    HW219119   2.228   3.806  13.888 -0.5262 -0.2630 -0.1177
 2496SOL     OW19120   4.076   2.045   8.076 -0.5837 -0.6149  0.3835
 2496SOL    HW119121   3.996   2.073   8.121 -0.2524  0.2911  0.4144
 2496SOL    HW219122   4.149   2.085   8.124 -0.6762  0.6539 -0.5311
 2497SOL     OW19123   3.529   4.657   8.581  0.0476 -0.0897 -0.2161
 2497SOL    HW119124   3.528   4.710   8.660  0.8083  0.9306 -0.8966
 2497SOL    HW219125   3.476   4.709   8.522 -0.0740 -0.3438 -0.3333
 2498SOL     OW19126   4.338   3.617   4.023  1.0211 -0.1715  0.9494
 2498SOL    HW119127   4.289   3.534   4.025  1.5822 -0.5203  0.3212
 2498SOL    HW219128   4.344   3.645   3.932  0.7588 -0.6178  0.7930
 2499SOL     OW19129   4.462   1.994   5.829  0.0042  0.6282 -0.1944
 2499SOL    HW119130   4.444   2.062   5.764 -2.2666 -0.2130 -0.4320
 2499SOL    HW219131   4.505   1.926   5.778  0.6062  2.8036 -2.5540
 2500SOL     OW19132   0.339   4.587   9.568 -0.5668 -0.3488 -0.3471
 2500SOL    HW119133   0.400   4.617   9.635 -1.5666 -2.0623  1.3315
 2500SOL    HW219134   0.312   4.502   9.603 -0.3435 -0.9970 -1.7276
 2501SOL     OW19135   1.118   3.365   0.250  0.2163 -0.1217 -0.5394
 2501SOL    HW119136   1.106   3.456   0.275  0.1222  0.0441 -1.1913
 2501SOL    HW219137   1.030   3.330   0.263 -0.1622  0.5560 -1.2989
 2502SOL     OW19138   4.387   4.712   5.403 -0.3190  0.5148  0.2439
 2502SOL    HW119139   4.352   0.022   5.328  1.2569 -0.0261 -0.8281
 2502SOL    HW219140   4.307   4.710   5.456 -0.0806 -2.0847  0.4716
 2503SOL     OW19141   3.752   4.555  13.679  0.3217 -0.5253 -0.0352
 2503SOL    HW119142   3.813   4.523  13.745  0.8343 -1.5576 -1.0159
 2503SOL    HW219143   3.782   4.646  13.673 -0.3156 -0.2428  1.0158
 2504SOL     OW19144   1.859   1.707  11.326 -0.5109 -0.3303  0.0775
 2504SOL    HW119145   1.829   1.714  11.416  1.6684  2.7193  0.5757
 2504SOL    HW219146   1.856   1.611  11.316 -0.5850 -0.2552 -0.6549
 2505SOL     OW19147   3.694   1.283  11.390  0.4784 -0.1636 -0.1732
 2505SOL    HW119148   3.611   1.290  11.343  0.7990 -2.7736 -1.1450
 2505SOL    HW219149   3.672   1.339  11.465 -0.7301 -1.5650  0.5220
 2506SOL     OW19150   4.411   3.955   3.046 -0.3191  0.3917  0.7181
 2506SOL    HW119151   4.333   3.996   3.009 -1.4743 -0.0670  2.6566
 2506SOL    HW219152   4.454   4.029   3.088 -0.4244  1.1113 -0.4546
 2507SOL     OW19153   1.228   4.432   8.393 -0.8761  1.1115  0.1075
 2507SOL    HW119154   1.218   4.349   8.347 -2.5157  1.3366  0.0811
 2507SOL    HW219155   1.205   4.405   8.482  1.4116  2.5855  1.1542
 2508SOL     OW19156   0.416   3.864  15.516  0.0792 -0.1161  0.0060
 2508SOL    HW119157   0.405   3.918  15.594 -1.0526  0.1254 -0.3266
 2508SOL    HW219158   0.480   3.918  15.467 -0.4883 -0.6856 -1.3741
 2509SOL     OW19159   3.116   4.658  17.680  0.6214 -0.6473  0.0293
 2509SOL    HW119160   3.130   0.012  17.661  0.4867 -0.3635  1.3493
 2509SOL    HW219161   3.205   4.627  17.699  1.4951  2.9819  1.7921
 2510SOL     OW19162   0.326   4.736   3.406 -0.0324 -0.1386 -0.5015
 2510SOL    HW119163   0.358   4.731   3.496 -2.9822 -1.6546  0.4616
 2510SOL    HW219164   0.286   0.084   3.396  0.0061 -0.0586  0.0396
 2511SOL     OW19165   3.738   4.176   3.575 -0.3546  0.1133  0.1246
 2511SOL    HW119166   3.729   4.195   3.669 -0.9956 -1.2794  0.3446
 2511SOL    HW219167   3.817   4.124   3.566  0.0919  0.0869  3.9002
 2512SOL     OW19168   0.086   1.823   5.860 -0.0076 -0.2619  0.2656
 2512SOL    HW119169   0.153   1.795   5.797  0.7354 -0.3541  1.0975
 2512SOL    HW219170   0.137   1.881   5.916  1.5518  0.0658 -1.5035
 2513SOL     OW19171   0.019   2.846   3.409 -0.2740 -0.4914  0.3494
 2513SOL    HW119172   0.067   2.928   3.424 -0.5444  0.0973 -2.0636
 2513SOL    HW219173   4.671   2.887   3.414  0.3225  0.8194 -0.0104
 2514SOL     OW19174   4.495   1.277  13.584  0.5010 -0.0617  0.1766
 2514SOL    HW119175   4.498   1.269  13.489 -1.9062  0.4914  0.0534
 2514SOL    HW219176   4.577   1.324  13.602  0.5940  0.0234 -0.4885
 2515SOL     OW19177   1.899   0.582   2.806 -0.1663  0.6225  0.0587
 2515SOL    HW119178   1.880   0.660   2.754  0.4857 -0.1493 -1.3590
 2515SOL    HW219179   1.937   0.620   2.885 -0.5852 -0.4668  0.7962
 2516SOL     OW19180   1.479   1.642   9.029 -0.0125 -0.4206  0.1237
 2516SOL    HW119181   1.462   1.574   8.964  0.0255  1.0731 -1.4527
 2516SOL    HW219182   1.572   1.626   9.045 -0.0955 -2.2127 -1.1513
 2517SOL     OW19183   0.789   0.686   5.683 -0.4004 -0.5601 -0.1484
 2517SOL    HW119184   0.815   0.629   5.611  0.0718  0.3381 -0.6825
 2517SOL    HW219185   0.850   0.672   5.755  0.2281 -1.2175 -0.8081
 2518SOL     OW19186   2.713   0.724  10.043 -0.2802  0.4314 -0.4997
 2518SOL    HW119187   2.683   0.758  10.127  0.5508  0.7145 -0.3157
 2518SOL    HW219188   2.792   0.677  10.069  1.7527  2.8569 -2.2511
 2519SOL     OW19189   2.954   3.854   5.111 -0.4027 -0.3419 -0.8628
 2519SOL    HW119190   2.873   3.900   5.089  0.1010  0.3555 -1.2704
 2519SOL    HW219191   2.936   3.799   5.188  1.2244 -0.4573 -0.5658
 2520SOL     OW19192   0.491   2.441   9.100 -0.7942  0.0985  0.3407
 2520SOL    HW119193   0.485   2.526   9.056  0.4452 -0.2703 -0.5473
 2520SOL    HW219194   0.466   2.471   9.187  1.2675  0.1511  0.9126
 2521SOL     OW19195   4.089   0.156   7.913  0.0593  0.0055  0.0417
 2521SOL    HW119196   4.037   0.113   7.845 -0.9467 -1.0773  1.4955
 2521SOL    HW219197   4.031   0.143   7.988 -0.4941 -1.2989 -0.6251
 2522SOL     OW19198   0.332   4.009   7.109 -0.2212 -0.3716  0.9247
 2522SOL    HW119199   0.398   3.941   7.105  0.4253  0.2204  1.5430
 2522SOL    HW219200   0.319   4.020   7.015  0.6598 -1.8344  0.6500
 2523SOL     OW19201   2.593   1.019   4.146 -0.5809  0.4473 -0.1489
 2523SOL    HW119202   2.630   0.942   4.104 -1.2306  1.3399 -2.3519
 2523SOL    HW219203   2.585   1.072   4.067  0.9629  0.5024 -0.2745
 2524SOL     OW19204   0.368   4.604   4.078 -0.1489 -0.5503 -0.6680
 2524SOL    HW119205   0.433   4.672   4.093 -0.3340 -0.8620  1.5074
 2524SOL    HW219206   0.347   4.576   4.167  0.8336  0.2531 -0.1875
 2525SOL     OW19207   4.481   1.387   2.760  0.0337  0.2011 -0.2391
 2525SOL    HW119208   4.429   1.309   2.743  1.6625 -0.4282 -2.3316
 2525SOL    HW219209   4.521   1.380   2.847  0.9538 -1.1760 -0.7695
 2526SOL     OW19210   2.352   2.526   9.363  0.1189  0.3133 -0.1492
 2526SOL    HW119211   2.311   2.530   9.276 -3.0162 -0.5074  1.2840
 2526SOL    HW219212   2.432   2.480   9.337 -0.3796 -1.5054  1.5915
 2527SOL     OW19213   0.989   1.276   3.036 -0.4419  0.5476  0.0182
 2527SOL    HW119214   0.977   1.352   2.978  1.6073  1.3894  0.6901
 2527SOL    HW219215   0.961   1.305   3.123  1.1298  0.6918  0.4626
 2528SOL     OW19216   2.564   3.636   1.980  0.8039  0.1485 -0.0547
 2528SOL    HW119217   2.529   3.552   2.010  2.6026 -0.3518  0.5842
 2528SOL    HW219218   2.611   3.660   2.059  2.5909 -0.5503 -0.9192
 2529SOL     OW19219   0.145   1.745  16.473  0.1776 -0.0557 -0.2380
 2529SOL    HW119220   0.182   1.680  16.532 -0.2847 -0.7067 -0.6717
 2529SOL    HW219221   0.214   1.810  16.486  0.5419 -0.3166 -0.8723
 2530SOL     OW19222   3.974   4.247   4.534 -0.4500  0.2477  0.0068
 2530SOL    HW119223   3.901   4.193   4.503  1.0348 -0.4306 -2.3110
 2530SOL    HW219224   4.046   4.190   4.507  0.1061  0.7512  0.4277
 2531SOL     OW19225   1.529   4.309   8.250  0.0549  1.0478  0.0816
 2531SOL    HW119226   1.509   4.259   8.329 -0.2842  1.8730  0.5182
 2531SOL    HW219227   1.621   4.313   8.226  0.1391  1.0323  0.3981
 2532SOL     OW19228   4.153   3.764  10.468 -0.3360  0.0930 -0.4753
 2532SOL    HW119229   4.206   3.803  10.537 -0.1228 -0.0203 -0.5759
 2532SOL    HW219230   4.087   3.834  10.468  0.3239  0.6944 -1.8721
 2533SOL     OW19231   1.096   1.062   6.364  0.2705 -0.3835 -0.2482
 2533SOL    HW119232   1.001   1.066   6.365  0.4005  1.6081  5.0900
 2533SOL    HW219233   1.115   0.990   6.304 -0.0713 -0.4930 -0.2200
 2534SOL     OW19234   4.386   1.620  10.099  0.0889  0.2576 -0.0033
 2534SOL    HW119235   4.372   1.638  10.006  3.7885  1.0325 -0.4174
 2534SOL    HW219236   4.416   1.702  10.139  1.5726 -0.2022 -0.1638
 2535SOL     OW19237   3.290   4.506   9.098  0.1700  0.1777  0.5476
 2535SOL    HW119238   3.210   4.453   9.103 -0.4145  0.8718 -1.2911
 2535SOL    HW219239   3.264   4.555   9.020  0.6004  1.2809  1.1128
 2536SOL     OW19240   1.303   0.201   0.054  0.0046  0.2505 -0.1461
 2536SOL    HW119241   1.325   0.256  17.733  0.7224  0.8070  0.4628
 2536SOL    HW219242   1.350   0.122   0.028  1.0630  1.6344 -2.3999
 2537SOL     OW19243   2.161   3.499   9.583 -0.1706 -0.3708  0.2880
 2537SOL    HW119244   2.204   3.413   9.579  1.1445  0.2921  0.1309
 2537SOL    HW219245   2.075   3.467   9.609 -0.4395 -0.6597 -0.9554
 2538SOL     OW19246   4.435   3.088   7.195 -0.0730 -0.0779  0.0541
 2538SOL    HW119247   4.367   3.036   7.152  0.5000 -1.5274  0.8983
 2538SOL    HW219248   4.515   3.041   7.173 -0.8277 -1.0704 -0.5517
 2539SOL     OW19249   2.700   2.941   5.399  0.8140 -0.3217  0.1533
 2539SOL    HW119250   2.760   2.891   5.344 -0.9067 -2.8955  0.6321
 2539SOL    HW219251   2.724   2.934   5.491  1.2590  0.7463  0.1213
 2540SOL     OW19252   2.833   1.962   6.138  0.4781  0.5823 -0.4719
 2540SOL    HW119253   2.763   1.930   6.195 -1.1655  3.1668 -1.0340
 2540SOL    HW219254   2.859   1.875   6.106 -1.7685 -0.1680 -0.2915
 2541SOL     OW19255   1.597   3.140   1.141 -0.4916 -0.2687  0.0239
 2541SOL    HW119256   1.673   3.153   1.084 -0.2130  0.7141  0.6098
 2541SOL    HW219257   1.606   3.221   1.192 -0.1248 -0.1802 -0.1835
 2542SOL     OW19258   0.131   4.054   0.087 -0.3536  0.1500 -0.0753
 2542SOL    HW119259   0.058   4.087   0.035 -0.7725 -0.4045  0.1716
 2542SOL    HW219260   0.201   4.112   0.056 -0.0186  0.0414  0.4721
 2543SOL     OW19261   4.432   0.277   0.037 -0.1054 -0.1075  0.0966
 2543SOL    HW119262   4.435   0.297  17.697  0.1371  0.5427  0.2415
 2543SOL    HW219263   4.501   0.211   0.041  0.4607  0.5816  2.0184
 2544SOL     OW19264   3.557   4.512   4.246  0.8097  0.0029  0.0428
 2544SOL    HW119265   3.619   4.582   4.226 -1.1523  1.2680 -1.7282
 2544SOL    HW219266   3.579   4.475   4.331  0.6291 -1.5710 -0.6058
 2545SOL     OW19267   2.718   3.627   0.269  0.0561 -0.7818  0.6447
 2545SOL    HW119268   2.813   3.631   0.258  0.0425  2.6697  1.8702
 2545SOL    HW219269   2.704   3.721   0.276 -3.8903 -1.4911  2.4352
 2546SOL     OW19270   1.935   4.636   4.956  0.6067 -0.2035  0.2129
 2546SOL    HW119271   1.915   4.697   4.884  2.1178 -1.1431 -1.0003
 2546SOL    HW219272   2.002   4.679   5.009  0.2783 -0.7541  1.0751
 2547SOL     OW19273   3.938   0.562   7.300  0.3918 -0.8449  0.1138
 2547SOL    HW119274   3.888   0.606   7.231  1.2496 -1.3634 -0.8408
 2547SOL    HW219275   3.984   0.496   7.248  0.5898 -0.8093  0.2422
 2548SOL     OW19276   1.779   4.626   6.670  0.1401  0.4304 -0.5690
 2548SOL    HW119277   1.792   4.579   6.753  1.8141 -3.4649 -3.0496
 2548SOL    HW219278   1.711   4.691   6.688  0.9757  1.0199  0.4417
 2549SOL     OW19279   1.413   2.167  10.612 -0.3671  0.1561  0.0787
 2549SOL    HW119280   1.443   2.256  10.629 -1.2229  0.5689 -0.5651
 2549SOL    HW219281   1.318   2.181  10.602 -0.5615 -1.0746  0.1956
 2550SOL     OW19282   4.716   1.152   8.477 -0.0454 -0.1564 -0.3150
 2550SOL    HW119283   0.026   1.080   8.516 -0.6661 -0.1624  0.4491
 2550SOL    HW219284   4.694   1.115   8.391 -1.5645  0.9017 -0.3780
 2551SOL     OW19285   1.357   0.683   5.025  0.6314 -0.1310 -0.8467
 2551SOL    HW119286   1.428   0.743   4.999 -0.2475  1.3156  0.1076
 2551SOL    HW219287   1.301   0.701   4.949 -1.8383  1.7294  1.4351
 2552SOL     OW19288   0.449   0.477  12.320 -0.2030  0.4541  1.0237
 2552SOL    HW119289   0.424   0.568  12.311  2.0664  1.1233  1.3065
 2552SOL    HW219290   0.386   0.437  12.261  1.1817  0.6086 -0.5388
 2553SOL     OW19291   2.789   3.088   5.938 -0.1112 -0.1197  0.2412
 2553SOL    HW119292   2.711   3.061   5.890 -0.1269  1.7901 -0.8071
 2553SOL    HW219293   2.858   3.025   5.920  0.4574  0.1414  1.4620
 2554SOL     OW19294   1.327   3.485   7.790  0.2386  0.3344 -0.2511
 2554SOL    HW119295   1.347   3.578   7.802 -2.6415  1.0171 -0.7311
 2554SOL    HW219296   1.236   3.501   7.763 -0.5580 -0.8209  1.7273
 2555SOL     OW19297   4.694   3.971   0.739 -0.7237 -0.3053  0.2423
 2555SOL    HW119298   4.662   4.059   0.722 -0.8987 -0.0604  1.8535
 2555SOL    HW219299   4.623   3.939   0.795  1.0198 -0.8393  2.1553
 2556SOL     OW19300   2.055   4.112   3.670 -0.6451 -0.5519  0.4701
 2556SOL    HW119301   2.127   4.173   3.685 -0.3425 -0.7351 -0.2340
 2556SOL    HW219302   1.977   4.154   3.706 -0.4313  2.3149 -2.4088
 2557SOL     OW19303   0.979   1.546   8.852  0.1255 -0.2280 -0.4323
 2557SOL    HW119304   1.069   1.567   8.880  1.0176 -2.8146 -1.3809
 2557SOL    HW219305   0.922   1.597   8.909  1.2434 -2.1815  2.4231
 2558SOL     OW19306   1.185   4.662   6.001  0.8954 -0.1884 -0.4356
 2558SOL    HW119307   1.146   4.718   5.934  0.0005  0.3026  0.4952
 2558SOL    HW219308   1.187   4.726   6.073 -0.3493 -1.2637  0.5403
 2559SOL     OW19309   1.640   2.248   3.848  0.1950 -0.2486  0.4294
 2559SOL    HW119310   1.570   2.232   3.786  1.6527 -0.2638 -1.2185
 2559SOL    HW219311   1.634   2.344   3.850  1.5173 -0.1512 -0.1960
 2560SOL     OW19312   4.616   1.289   6.484 -0.0839  0.4039  0.3166
 2560SOL    HW119313   4.639   1.349   6.554  0.3846  0.0918  0.4342
 2560SOL    HW219314   4.686   1.299   6.420 -0.7577 -0.4616 -0.5453
 2561SOL     OW19315   4.676   3.438   0.354  0.6154 -0.6829  0.1854
 2561SOL    HW119316   4.617   3.502   0.393  2.1095  0.8257 -0.0017
 2561SOL    HW219317   4.620   3.363   0.334  0.7890 -0.9314  0.6217
 2562SOL     OW19318   2.119   4.618   8.351 -0.2323 -0.0871 -0.5631
 2562SOL    HW119319   2.084   4.574   8.429  0.4587 -1.2133 -0.8854
 2562SOL    HW219320   2.156   4.691   8.400  1.8099 -1.4686 -0.0426
 2563SOL     OW19321   4.119   3.787  11.480 -0.5178  0.4644  0.6656
 2563SOL    HW119322   4.106   3.824  11.567  0.2979  1.2479  0.4562
 2563SOL    HW219323   4.038   3.812  11.436  0.0072 -0.3149 -0.7420
 2564SOL     OW19324   3.438   2.339   3.582 -0.4284 -0.3857  0.1733
 2564SOL    HW119325   3.452   2.358   3.489 -0.3321  2.2069  0.7095
 2564SOL    HW219326   3.528   2.351   3.612 -0.6150  1.0699  0.1654
 2565SOL     OW19327   0.447   1.127   5.263 -0.0213 -0.2153  0.2378
 2565SOL    HW119328   0.466   1.083   5.181 -0.4223 -1.9482  1.0693
 2565SOL    HW219329   0.453   1.054   5.326  0.9117 -2.2303 -2.2052
 2566SOL     OW19330   2.278   4.336   5.614 -0.6145 -0.0988 -0.6368
 2566SOL    HW119331   2.268   4.363   5.523 -1.1702 -1.0169 -0.8525
 2566SOL    HW219332   2.361   4.288   5.611 -0.2312  0.7419 -3.1707
 2567SOL     OW19333   3.355   0.001  15.400  0.2486 -0.2398  0.3750
 2567SOL    HW119334   3.421   4.682  15.362 -0.1478  0.9358 -2.1137
 2567SOL    HW219335   3.308   4.676  15.453 -0.3602 -0.4859 -0.4588
 2568SOL     OW19336   0.438   3.668   2.488 -0.3325  0.4730  0.0721
 2568SOL    HW119337   0.458   3.575   2.492  2.0532  0.9418 -1.1848
 2568SOL    HW219338   0.494   3.695   2.415  1.3708 -0.2804  1.1079
 2569SOL     OW19339   1.121   2.473   2.795 -0.4010 -0.1768  0.2785
 2569SOL    HW119340   1.147   2.426   2.875 -1.0120 -1.3194 -0.1916
 2569SOL    HW219341   1.158   2.417   2.727 -1.7523  0.2421 -0.8090
 2570SOL     OW19342   3.354   4.669   2.885 -0.7723  0.0968 -0.3413
 2570SOL    HW119343   3.264   4.689   2.858 -0.7337 -0.0000 -0.5391
 2570SOL    HW219344   3.374   4.624   2.803 -0.8478  1.2786 -1.0089
 2571SOL     OW19345   0.484   1.911   6.619 -0.1399  0.1821  0.0455
 2571SOL    HW119346   0.526   1.918   6.705  0.1764  0.6941 -0.1542
 2571SOL    HW219347   0.468   2.003   6.599 -1.6730 -0.3162 -1.0262
 2572SOL     OW19348   4.305   1.002  11.215  0.0377  0.4993  0.6254
 2572SOL    HW119349   4.296   1.019  11.308 -1.1927  1.6368  0.3051
 2572SOL    HW219350   4.396   0.971  11.221  0.4108  1.8829  2.0768
 2573SOL     OW19351   0.303   0.380   3.305 -0.5193  0.5554 -0.5364
 2573SOL    HW119352   0.296   0.326   3.384 -1.7560 -0.6769 -1.4672
 2573SOL    HW219353   0.373   0.327   3.265 -0.4471  0.6789 -0.5720
 2574SOL     OW19354   0.195   0.141   2.500  0.2360  0.4721 -0.0335
 2574SOL    HW119355   0.107   0.108   2.519  1.0500 -1.3455  0.6139
 2574SOL    HW219356   0.249   0.062   2.495 -0.3087  0.0277  1.0943
 2575SOL     OW19357   3.686   2.283   3.221 -0.5161  0.4329  0.9376
 2575SOL    HW119358   3.639   2.352   3.269  1.3982  2.1278  0.3785
 2575SOL    HW219359   3.641   2.209   3.263 -0.2224  0.2586  0.9482
 2576SOL     OW19360   4.627   4.081   0.235  0.4226 -1.7679  0.2267
 2576SOL    HW119361   4.572   4.158   0.221 -0.6849 -2.3785  1.2136
 2576SOL    HW219362   4.716   4.115   0.223 -0.9447  1.4880 -0.6501
 2577SOL     OW19363   0.349   1.392   1.112  0.2573 -0.1887 -0.3028
 2577SOL    HW119364   0.412   1.325   1.137 -1.9003 -2.4874 -0.9923
 2577SOL    HW219365   0.295   1.355   1.042 -0.6538  0.7819 -0.1177
 2578SOL     OW19366   3.455   3.370  13.585 -0.7693  0.1114  0.4326
 2578SOL    HW119367   3.464   3.353  13.679 -0.6325  1.3888  0.6519
 2578SOL    HW219368   3.424   3.461  13.584 -0.3966  0.2196 -0.8223
 2579SOL     OW19369   4.145   3.378   1.273 -0.1350 -0.4510 -1.0836
 2579SOL    HW119370   4.079   3.435   1.233 -1.1197  0.5408  2.0120
 2579SOL    HW219371   4.090   3.317   1.323 -2.6058 -0.4559 -3.8053
 2580SOL     OW19372   2.437   0.191  10.417 -0.8406 -0.0430  0.0532
 2580SOL    HW119373   2.521   0.221  10.384 -2.2748  1.6860 -2.0815
 2580SOL    HW219374   2.461   0.194  10.510 -1.4248 -2.2097  0.2733
 2581SOL     OW19375   1.838   0.551   8.528 -0.5697 -0.6888  0.4512
 2581SOL    HW119376   1.862   0.637   8.562 -0.1459  0.1153 -1.8298
 2581SOL    HW219377   1.744   0.547   8.543 -0.4469 -0.1892  1.3115
 2582SOL     OW19378   1.652   4.031  10.074  0.2418 -0.3407 -0.0024
 2582SOL    HW119379   1.592   4.061  10.142 -1.2861 -0.3969 -1.3078
 2582SOL    HW219380   1.605   3.955  10.039 -2.0308  0.4298  1.3677
 2583SOL     OW19381   2.432   2.513   4.122  0.3518  0.6453  0.0214
 2583SOL    HW119382   2.363   2.491   4.185 -0.3927 -0.9790 -1.3323
 2583SOL    HW219383   2.402   2.602   4.102  1.0910  0.5642 -1.4219
 2584SOL     OW19384   1.350   4.370  14.593  0.2568  0.3316 -0.0768
 2584SOL    HW119385   1.433   4.322  14.599  1.0460  1.5122 -1.7441
 2584SOL    HW219386   1.377   4.454  14.555  0.5146  1.1496  1.9036
 2585SOL     OW19387   0.431   3.024   1.050 -0.0171  0.0897  0.5117
 2585SOL    HW119388   0.354   3.045   0.997 -0.5131 -1.6760  0.5588
 2585SOL    HW219389   0.437   2.933   1.022  1.6447  0.1072  0.8158
 2586SOL     OW19390   2.048   0.225  15.856 -0.0831  0.5825  0.1025
 2586SOL    HW119391   1.997   0.207  15.777  0.0239 -2.4420  0.7340
 2586SOL    HW219392   2.129   0.242  15.809 -0.8055  1.2119 -0.9262
 2587SOL     OW19393   1.792   1.392   9.564  0.0889  0.4964 -0.0670
 2587SOL    HW119394   1.717   1.423   9.615 -1.1884 -0.6047 -1.2634
 2587SOL    HW219395   1.752   1.371   9.479 -1.2263 -1.2262  0.9537
 2588SOL     OW19396   1.942   1.523   9.235  0.0964 -0.0715  0.2499
 2588SOL    HW119397   1.993   1.454   9.192  0.0204 -0.6271  1.0554
 2588SOL    HW219398   1.900   1.474   9.306 -1.1128  3.1635  1.7220
 2589SOL     OW19399   3.017   4.219   7.054 -0.0510  0.2143  0.0948
 2589SOL    HW119400   3.077   4.281   7.095 -1.0631  0.5619  1.0727
 2589SOL    HW219401   2.969   4.281   6.999  0.8451  2.8262  2.2486
 2590SOL     OW19402   1.070   4.638   3.089  0.4260  0.6558 -0.1730
 2590SOL    HW119403   1.114   4.715   3.053 -2.1363  2.3151  0.2315
 2590SOL    HW219404   1.038   4.667   3.174 -0.0119  0.2049 -0.1837
 2591SOL     OW19405   3.513   2.210   2.764  0.2161 -0.0280  0.1649
 2591SOL    HW119406   3.479   2.233   2.678  0.7117  0.4094  0.0816
 2591SOL    HW219407   3.522   2.115   2.752 -2.4982 -0.2739  0.1339
 2592SOL     OW19408   4.357   1.779   9.541 -0.0739 -0.2755  0.4087
 2592SOL    HW119409   4.322   1.794   9.453  1.5610  1.7475  0.1106
 2592SOL    HW219410   4.327   1.863   9.577  1.0993  0.1103  0.4875
 2593SOL     OW19411   1.938   2.109  12.420 -0.6792 -0.5007  0.0131
 2593SOL    HW119412   2.017   2.116  12.367 -0.0085 -0.1958  1.0396
 2593SOL    HW219413   1.876   2.123  12.349  0.2861  2.6906 -0.1910
 2594SOL     OW19414   2.452   3.264  15.412 -0.3426  0.0313  0.0044
 2594SOL    HW119415   2.469   3.185  15.361 -0.7748 -0.1616  0.1628
 2594SOL    HW219416   2.528   3.262  15.469 -2.1424 -2.2083  2.3116
 2595SOL     OW19417   1.714   2.513   8.580  0.1953 -0.5617 -0.0171
 2595SOL    HW119418   1.685   2.425   8.605 -1.0524  0.1771  1.1280
 2595SOL    HW219419   1.775   2.524   8.653 -2.1775  0.3612  1.8565
 2596SOL     OW19420   3.862   4.694   2.248  0.0785 -0.0438 -0.3736
 2596SOL    HW119421   3.851   0.048   2.225  1.5254  0.4876  1.0893
 2596SOL    HW219422   3.929   4.696   2.316  1.0985 -0.1725 -1.3892
 2597SOL     OW19423   2.465   4.124   2.551  0.4069 -0.2440 -0.0783
 2597SOL    HW119424   2.380   4.113   2.595  0.4699 -1.1250 -0.1779
 2597SOL    HW219425   2.509   4.190   2.603 -1.4005  0.1320  0.9988
 2598SOL     OW19426   3.058   0.171   2.531 -0.0760  0.5233 -0.1925
 2598SOL    HW119427   2.968   0.204   2.523  0.1265  0.9452 -0.7564
 2598SOL    HW219428   3.066   0.146   2.438 -1.6149  0.2429 -0.2581
 2599SOL     OW19429   2.110   0.526  10.770 -0.0016 -0.0044 -0.0923
 2599SOL    HW119430   2.141   0.604  10.816  0.2100 -1.0531  1.5511
 2599SOL    HW219431   2.089   0.550  10.680  1.2524 -2.8676 -1.1726
 2600SOL     OW19432   3.469   2.356   8.049  0.2095 -0.0426 -0.1670
 2600SOL    HW119433   3.414   2.403   7.987  0.5079  1.7422  0.9004
 2600SOL    HW219434   3.555   2.352   8.007 -0.1009 -2.6443 -0.5494
 2601SOL     OW19435   3.624   2.913   8.678 -0.2818  0.2146 -0.0305
 2601SOL    HW119436   3.544   2.905   8.731  0.5502  0.0747  1.2091
 2601SOL    HW219437   3.579   2.908   8.593  0.7018 -0.0293 -0.5308
 2602SOL     OW19438   1.837   0.610   3.679  0.0164 -0.0345  0.3195
 2602SOL    HW119439   1.781   0.536   3.701  0.9014 -1.0608 -0.8710
 2602SOL    HW219440   1.922   0.599   3.722  0.1834  0.5627  0.1405
 2603SOL     OW19441   2.845   1.937  16.949  0.1785 -0.1941 -0.1767
 2603SOL    HW119442   2.826   1.898  17.034 -0.3937 -1.6480 -0.9696
 2603SOL    HW219443   2.776   1.895  16.897 -2.0396  0.4816  2.1997
 2604SOL     OW19444   0.088   3.348   2.679 -0.4562  0.3229  0.0856
 2604SOL    HW119445   0.064   3.343   2.586  2.5923 -1.5447 -0.5741
 2604SOL    HW219446   0.139   3.429   2.678 -0.1224  0.0861 -1.6616
 2605SOL     OW19447   4.254   4.587   8.968 -0.4730 -0.3400 -0.0092
 2605SOL    HW119448   4.183   4.550   9.021  0.3455 -2.3096 -0.2578
 2605SOL    HW219449   4.322   4.604   9.033 -1.3428  1.1645  0.5026
 2606SOL     OW19450   0.326   1.249  14.987  0.3874  0.3104 -0.0005
 2606SOL    HW119451   0.282   1.185  14.931  0.1542  1.0612 -0.6800
 2606SOL    HW219452   0.270   1.325  15.004 -0.5738 -0.2450 -0.6639
 2607SOL     OW19453   4.715   3.322  15.029  0.4610 -0.0975 -0.0291
 2607SOL    HW119454   4.643   3.361  14.980  0.3288 -0.0101  0.2301
 2607SOL    HW219455   4.684   3.232  15.027 -2.8629  1.0114  0.3019
 2608SOL     OW19456   0.894   0.201   9.080 -0.3522 -0.4356 -0.0652
 2608SOL    HW119457   0.885   0.160   8.994 -0.4145 -1.9105  0.6431
 2608SOL    HW219458   0.985   0.230   9.077 -0.6386  0.4920  0.0838
 2609SOL     OW19459   4.735   2.321   4.642 -0.4523  0.3928  0.0315
 2609SOL    HW119460   4.649   2.363   4.648 -1.6514 -2.1750  0.9025
 2609SOL    HW219461   4.716   2.228   4.654  1.8275 -0.0575 -0.0206
 2610SOL     OW19462   3.308   0.555   5.889  0.3592  0.2874  0.9622
 2610SOL    HW119463   3.332   0.533   5.980  0.7289  1.3288  1.1196
 2610SOL    HW219464   3.308   0.651   5.890  1.4864  0.2874  0.6607
 2611SOL     OW19465   2.084   4.710  11.758  0.0028 -0.3162 -0.5528
 2611SOL    HW119466   2.139   4.665  11.694  1.0686  1.1375 -0.6719
 2611SOL    HW219467   2.112   4.664  11.837 -2.2802 -0.9612 -0.1427
 2612SOL     OW19468   1.254   3.858  13.802 -0.3773  0.0511  0.2961
 2612SOL    HW119469   1.193   3.838  13.731  0.5775 -1.0983 -0.2014
 2612SOL    HW219470   1.328   3.877  13.744  0.3253  0.2006  1.2315
 2613SOL     OW19471   0.562   1.612   8.853 -0.1155 -0.1909 -0.8012
 2613SOL    HW119472   0.600   1.588   8.769 -1.7490 -0.8370 -1.3395
 2613SOL    HW219473   0.642   1.604   8.906 -1.0736 -2.0377  0.3525
 2614SOL     OW19474   2.089   0.706  17.300 -0.5410  0.2843 -0.5998
 2614SOL    HW119475   2.101   0.707  17.205 -0.3919  1.5030 -0.5674
 2614SOL    HW219476   1.999   0.675  17.306 -0.5302  0.3801  0.0319
 2615SOL     OW19477   1.406   1.228   3.219 -0.5144  0.0797 -0.3444
 2615SOL    HW119478   1.491   1.270   3.205  0.1257 -1.2031 -0.3577
 2615SOL    HW219479   1.409   1.171   3.142 -0.4118  0.4699 -0.6261
 2616SOL     OW19480   2.199   0.253   2.992 -0.0882  0.2075  1.2079
 2616SOL    HW119481   2.158   0.208   2.917  1.0213  0.5970  0.3700
 2616SOL    HW219482   2.289   0.220   2.988 -0.1197  0.2947 -0.3893
 2617SOL     OW19483   0.622   2.306   8.476 -0.0842  0.8659  0.3761
 2617SOL    HW119484   0.687   2.253   8.430 -0.6133  0.5678 -0.0459
 2617SOL    HW219485   0.683   2.361   8.524 -1.0732  2.3102  0.0027
 2618SOL     OW19486   2.808   3.586   8.731  0.5672  0.1339  0.9394
 2618SOL    HW119487   2.748   3.523   8.692  0.3352  1.1890 -0.4143
 2618SOL    HW219488   2.766   3.670   8.713  3.4851  1.3316 -0.3241
 2619SOL     OW19489   2.959   0.927  15.212  0.2994  0.3643 -0.1518
 2619SOL    HW119490   2.966   1.022  15.204 -2.2246  0.5726  0.0256
 2619SOL    HW219491   3.019   0.914  15.285  0.6119 -1.0330 -0.6557
 2620SOL     OW19492   0.907   3.367   8.338 -0.0641 -0.6332 -0.7116
 2620SOL    HW119493   0.844   3.337   8.403 -1.0318  0.2338 -1.2469
 2620SOL    HW219494   0.970   3.295   8.342 -0.4229 -0.9742 -1.2545
 2621SOL     OW19495   1.488   4.051   4.581 -0.0267 -0.1198 -0.0010
 2621SOL    HW119496   1.501   4.018   4.492  1.5967  0.6768 -0.0524
 2621SOL    HW219497   1.440   3.981   4.626  2.1234 -0.5644  1.5839
 2622SOL     OW19498   1.485   3.873   5.400  0.4702  0.3101 -0.0816
 2622SOL    HW119499   1.515   3.784   5.381  2.6686  0.8768  0.7668
 2622SOL    HW219500   1.567   3.921   5.411 -0.4355  1.8776 -0.2308
 2623SOL     OW19501   0.446   1.541   5.811  0.8143  0.1491  0.3282
 2623SOL    HW119502   0.523   1.536   5.754 -0.5870  0.4965 -1.5985
 2623SOL    HW219503   0.477   1.479   5.876  2.2216  0.1888 -0.3018
 2624SOL     OW19504   1.368   0.676  17.091 -0.7019  0.2403 -0.4231
 2624SOL    HW119505   1.362   0.682  16.996 -0.5945 -1.0806 -0.5159
 2624SOL    HW219506   1.320   0.754  17.119  0.9817  1.8773 -2.1106
 2625SOL     OW19507   2.238   3.508   7.895 -0.1323  0.1275 -1.1198
 2625SOL    HW119508   2.206   3.566   7.964 -0.2919 -0.2830 -0.8492
 2625SOL    HW219509   2.150   3.484   7.867 -0.3768  0.4191 -0.6035
 2626SOL     OW19510   0.511   1.404  11.324 -0.3107 -0.0136  0.4311
 2626SOL    HW119511   0.493   1.310  11.325 -0.9456  0.1161  1.6293
 2626SOL    HW219512   0.486   1.431  11.413 -0.0580 -0.7352  0.7238
 2627SOL     OW19513   3.825   2.805   7.437 -0.4778  0.0679 -0.1867
 2627SOL    HW119514   3.874   2.843   7.510  0.4653  1.8867 -1.7876
 2627SOL    HW219515   3.842   2.712   7.455 -2.1291 -0.0973  0.5883
 2628SOL     OW19516   1.600   4.096   5.846  0.3073  0.3741 -0.1202
 2628SOL    HW119517   1.542   4.167   5.818  1.2515  0.9231 -0.6886
 2628SOL    HW219518   1.565   4.018   5.803 -1.9017  1.0934  0.3575
 2629SOL     OW19519   4.723   0.942  16.346  0.3553 -0.3645 -0.1833
 2629SOL    HW119520   4.686   0.896  16.271  0.7983 -0.0870 -0.5715
 2629SOL    HW219521   4.675   1.025  16.345 -0.2858 -0.7059  1.9109
 2630SOL     OW19522   2.913   3.837   7.212  0.3265  0.4539 -0.2644
 2630SOL    HW119523   2.993   3.807   7.169 -0.9455 -1.0662 -1.5785
 2630SOL    HW219524   2.951   3.909   7.263  0.6511  1.0723 -1.3986
 2631SOL     OW19525   1.439   4.631  13.527  0.3484 -0.1560  0.5718
 2631SOL    HW119526   1.444   4.610  13.620  1.6585 -0.0656  0.5174
 2631SOL    HW219527   1.445   4.726  13.531  2.4926 -0.2965  0.7258
 2632SOL     OW19528   3.131   1.334   8.758 -0.0743  0.1085 -0.0610
 2632SOL    HW119529   3.199   1.348   8.824  0.4658 -1.5753 -0.2455
 2632SOL    HW219530   3.141   1.239   8.754 -1.9211 -0.0026 -1.8577
 2633SOL     OW19531   2.717   2.158  13.706  0.0451 -0.0558 -0.7033
 2633SOL    HW119532   2.657   2.187  13.637  0.1446  0.3552 -0.6145
 2633SOL    HW219533   2.781   2.229  13.705  0.3158 -0.3036 -0.9428
 2634SOL     OW19534   3.275   3.684   5.014 -0.4781 -0.0207  0.4445
 2634SOL    HW119535   3.181   3.681   4.999 -0.3834  1.1799 -0.3623
 2634SOL    HW219536   3.301   3.679   4.922 -0.8385 -0.0598  0.3453
 2635SOL     OW19537   3.853   3.422   2.018  0.4037  0.5318 -0.0451
 2635SOL    HW119538   3.853   3.511   1.983  2.0566  0.1965 -0.8940
 2635SOL    HW219539   3.818   3.432   2.107 -0.7353  0.0796 -0.4412
 2636SOL     OW19540   1.047   0.909  10.828  0.0526 -0.1205  0.5028
 2636SOL    HW119541   1.119   0.870  10.779 -1.5424 -0.4919 -1.5529
 2636SOL    HW219542   1.054   0.870  10.915  2.6027 -1.9861 -0.5377
 2637SOL     OW19543   0.047   4.436  16.491  0.6197 -0.3419 -0.3942
 2637SOL    HW119544   0.083   4.369  16.549 -1.0538 -0.4842  0.4800
 2637SOL    HW219545   0.066   4.390  16.409  0.2439  0.1746 -0.7694
 2638SOL     OW19546   0.524   2.761   9.700  0.3938  0.2117 -0.5956
 2638SOL    HW119547   0.508   2.668   9.689 -1.4942  0.5530 -0.6516
 2638SOL    HW219548   0.548   2.767   9.793  1.0510  2.8893 -0.9281
 2639SOL     OW19549   3.626   4.392   4.553 -0.0551  0.6826 -0.1440
 2639SOL    HW119550   3.621   4.444   4.633  2.5538 -0.6644  0.8819
 2639SOL    HW219551   3.685   4.322   4.580 -0.1664  0.8766  0.5988
 2640SOL     OW19552   4.147   0.080  11.851  0.2425  0.2598  0.6443
 2640SOL    HW119553   4.093   0.062  11.774 -0.8996 -0.1858  1.5515
 2640SOL    HW219554   4.085   0.126  11.908 -0.1626  0.9451 -0.3400
 2641SOL     OW19555   2.273   3.864   8.276  0.4702 -0.0066  0.1564
 2641SOL    HW119556   2.279   3.921   8.200  0.4943  0.6605  0.6581
 2641SOL    HW219557   2.366   3.850   8.297  0.7778  2.2221  0.2880
 2642SOL     OW19558   2.092   1.672  13.779 -0.5792  0.1609  0.8950
 2642SOL    HW119559   2.015   1.708  13.823 -1.0295  0.3477 -0.0606
 2642SOL    HW219560   2.162   1.688  13.842  1.1578  1.6907 -1.4563
 2643SOL     OW19561   3.671   4.104  14.416  0.0225 -0.2678 -0.8150
 2643SOL    HW119562   3.627   4.167  14.359  0.2158  2.2271  1.7745
 2643SOL    HW219563   3.620   4.025  14.401  0.7327 -1.1671  1.4039
 2644SOL     OW19564   2.212   3.696   2.628 -0.4393 -0.0468  0.6073
 2644SOL    HW119565   2.132   3.747   2.615 -2.5020 -3.4764 -0.3629
 2644SOL    HW219566   2.197   3.610   2.588  0.8265 -0.6090  1.3310
 2645SOL     OW19567   2.757   3.290  16.754 -0.0156 -0.0146 -0.1710
 2645SOL    HW119568   2.744   3.384  16.744 -1.4930 -0.2087 -0.1418
 2645SOL    HW219569   2.683   3.266  16.810 -0.4199 -0.0774 -0.7324
 2646SOL     OW19570   3.642   0.063   5.976  0.7768 -0.4502  0.4386
 2646SOL    HW119571   3.616   0.149   5.942  0.4209 -0.9441 -0.5252
 2646SOL    HW219572   3.561   0.014   5.961  0.1293  0.6870  0.1349
 2647SOL     OW19573   2.926   4.449  10.876  0.5388 -0.3381  0.5397
 2647SOL    HW119574   2.857   4.394  10.840  0.7934  0.6763 -1.4907
 2647SOL    HW219575   2.935   4.394  10.954  3.0994 -1.0146 -0.2397
 2648SOL     OW19576   0.470   2.480  12.853  0.3448 -0.4644 -0.3016
 2648SOL    HW119577   0.426   2.449  12.774  2.0468 -2.5689 -0.4236
 2648SOL    HW219578   0.442   2.571  12.856 -2.2050 -1.2476 -0.0515
 2649SOL     OW19579   4.044   2.893   6.152 -0.3282 -0.7863  0.3180
 2649SOL    HW119580   4.118   2.915   6.209 -0.4815 -0.1608  0.2749
 2649SOL    HW219581   3.991   2.969   6.180  1.8749  0.8840 -0.0865
 2650SOL     OW19582   4.658   0.683  10.123 -0.3177 -0.3117  0.4022
 2650SOL    HW119583   4.721   0.712  10.189  0.1813 -2.5928  0.9583
 2650SOL    HW219584   4.685   0.718  10.038 -0.7296  0.1287  0.4569
 2651SOL     OW19585   0.102   0.209  13.931 -0.3922  0.3297 -0.7067
 2651SOL    HW119586   0.091   0.162  14.014 -1.2951  0.6828 -0.6242
 2651SOL    HW219587   0.053   0.291  13.938 -0.6572 -0.0623  1.9934
 2652SOL     OW19588   2.525   1.829   5.988  0.1931 -0.2478  0.0336
 2652SOL    HW119589   2.434   1.857   5.997  0.0536 -0.6330 -0.1442
 2652SOL    HW219590   2.551   1.873   5.907 -2.2399 -0.1071 -0.6767
 2653SOL     OW19591   4.056   3.344   9.255  0.1914 -0.2430 -0.2219
 2653SOL    HW119592   4.112   3.298   9.318 -1.0899  0.1930  1.2250
 2653SOL    HW219593   4.013   3.273   9.207 -0.9356 -0.3023  0.8805
 2654SOL     OW19594   4.250   0.869   5.223 -0.0075  0.0286 -0.6742
 2654SOL    HW119595   4.323   0.872   5.284 -1.2848 -0.2148  0.8591
 2654SOL    HW219596   4.171   0.876   5.276  1.4002  1.4725  1.2168
 2655SOL     OW19597   2.845   3.389  12.771  0.1293 -0.4265  0.5200
 2655SOL    HW119598   2.868   3.432  12.853 -0.2024  1.3852 -0.3314
 2655SOL    HW219599   2.783   3.447  12.726 -0.2878  0.0077  1.6567
 2656SOL     OW19600   4.303   0.600   7.256  0.3915  0.1805  0.4917
 2656SOL    HW119601   4.279   0.593   7.348  0.2698 -1.0589  0.3685
 2656SOL    HW219602   4.284   0.509   7.230  0.9998  0.2967 -0.3606
 2657SOL     OW19603   1.821   0.020   0.514  0.0376 -0.1934  0.0073
 2657SOL    HW119604   1.846   4.711   0.435  0.2395 -0.8164  0.4525
 2657SOL    HW219605   1.726   0.018   0.520 -0.0766  0.2063 -1.7611
 2658SOL     OW19606   1.245   4.368   6.024 -0.6438  0.0100 -0.0556
 2658SOL    HW119607   1.254   4.431   5.952 -0.7202 -0.4234 -0.4430
 2658SOL    HW219608   1.337   4.343   6.034 -1.3173 -2.1643  0.6334
 2659SOL     OW19609   4.261   1.823  15.493  0.0001  0.1821  0.0611
 2659SOL    HW119610   4.278   1.879  15.418  1.0927 -1.3211 -0.8015
 2659SOL    HW219611   4.224   1.872  15.567 -0.1571  0.2849 -0.0859
 2660SOL     OW19612   3.954   1.335   7.239 -0.0476 -0.3250 -0.3937
 2660SOL    HW119613   3.955   1.247   7.203  0.1008 -0.6479  0.3856
 2660SOL    HW219614   3.913   1.384   7.168  1.0655  0.6091 -0.3809
 2661SOL     OW19615   3.407   1.233   6.547 -0.3455 -0.2481  0.1245
 2661SOL    HW119616   3.362   1.292   6.607 -1.8646 -1.0724 -0.1958
 2661SOL    HW219617   3.388   1.275   6.463 -0.1274 -0.8011 -0.2004
 2662SOL     OW19618   4.647   0.093   1.161 -0.0552  0.9466  0.2958
 2662SOL    HW119619   4.658   0.183   1.192  2.8623  1.0232 -0.9548
 2662SOL    HW219620   4.696   0.113   1.081 -2.4037  0.4258 -1.2646
 2663SOL     OW19621   1.519   4.523  14.124  0.2407 -0.4912 -0.3053
 2663SOL    HW119622   1.552   4.594  14.069  2.6167  0.4281  2.2576
 2663SOL    HW219623   1.546   4.450  14.069 -2.1433 -1.4790 -0.1536
 2664SOL     OW19624   0.177   2.273   9.521 -0.1835  0.2586 -0.7992
 2664SOL    HW119625   0.154   2.188   9.483 -1.3980 -0.5308  1.7086
 2664SOL    HW219626   0.108   2.335   9.499  0.5072  0.4777 -2.3670
 2665SOL     OW19627   1.368   3.354   7.425 -0.0654  0.2505  0.4762
 2665SOL    HW119628   1.286   3.356   7.376  0.6074 -1.6426 -0.7283
 2665SOL    HW219629   1.365   3.268   7.468  2.7920 -0.2331 -0.2982
 2666SOL     OW19630   2.922   1.688   8.544 -0.1174 -0.1316  0.0086
 2666SOL    HW119631   2.896   1.777   8.568 -1.4508 -0.5811  0.1948
 2666SOL    HW219632   2.955   1.653   8.626 -1.2790 -0.5691  0.2878
 2667SOL     OW19633   3.720   0.865   7.475 -0.0581 -0.3850  0.3365
 2667SOL    HW119634   3.669   0.817   7.409 -0.8858 -0.5173  1.0726
 2667SOL    HW219635   3.727   0.954   7.441 -1.1094 -1.7897 -3.6903
 2668SOL     OW19636   2.628   3.486  16.266 -0.6437  0.2360 -0.1682
 2668SOL    HW119637   2.614   3.448  16.179 -0.6456  2.5169 -1.1675
 2668SOL    HW219638   2.703   3.435  16.296 -1.2541 -2.3360 -3.0557
 2669SOL     OW19639   1.722   1.092   2.057 -0.1071  0.6222 -0.0790
 2669SOL    HW119640   1.807   1.048   2.063 -0.4798 -0.3478 -1.7486
 2669SOL    HW219641   1.697   1.069   1.967  1.8324  1.1286 -0.7654
 2670SOL     OW19642   2.697   3.282  13.378 -0.5049 -1.3217  0.2542
 2670SOL    HW119643   2.670   3.374  13.380  0.3913 -1.0377 -1.0814
 2670SOL    HW219644   2.792   3.292  13.371 -0.6160  0.5530  1.5228
 2671SOL     OW19645   0.582   1.825   5.825  0.1741  0.1639  0.2291
 2671SOL    HW119646   0.658   1.768   5.815 -1.4442 -2.2839  1.7200
 2671SOL    HW219647   0.509   1.770   5.798  0.3823 -1.2231  2.4158
 2672SOL     OW19648   2.581   1.490   7.947 -0.1621  0.6483 -0.5462
 2672SOL    HW119649   2.586   1.416   8.007  1.8764  1.5129  0.3466
 2672SOL    HW219650   2.487   1.488   7.927  0.1133 -2.1532 -1.6714
 2673SOL     OW19651   0.942   4.470   5.715  0.5502 -0.0607 -0.0278
 2673SOL    HW119652   0.943   4.513   5.800 -1.6133 -1.6417  0.7843
 2673SOL    HW219653   1.035   4.452   5.698  0.7611  0.2781  0.7908
 2674SOL     OW19654   2.746   3.363   1.937  0.9936 -0.1001 -0.0516
 2674SOL    HW119655   2.711   3.428   1.876  0.2731  0.7795  1.2934
 2674SOL    HW219656   2.669   3.357   1.994 -0.0082  1.2946 -1.2528
 2675SOL     OW19657   1.479   2.514   6.475  0.2039 -0.1683 -0.3647
 2675SOL    HW119658   1.506   2.437   6.425  0.5569 -0.3945  0.1738
 2675SOL    HW219659   1.386   2.510   6.452  0.3537  0.7143 -1.1213
 2676SOL     OW19660   2.382   1.701   2.302  0.0906  0.1768  0.2812
 2676SOL    HW119661   2.443   1.768   2.271 -0.2539  0.9941  1.3709
 2676SOL    HW219662   2.316   1.733   2.363 -0.3961  0.8055 -0.5666
 2677SOL     OW19663   1.008   3.489   8.074  0.7872 -0.3464  0.2815
 2677SOL    HW119664   0.997   3.401   8.039 -1.7764 -1.1251  3.1090
 2677SOL    HW219665   0.964   3.479   8.158 -0.3550 -2.0578 -0.5235
 2678SOL     OW19666   3.232   3.095  17.141  0.1845 -0.3020 -0.4092
 2678SOL    HW119667   3.326   3.091  17.122 -0.3344 -2.0059 -2.5186
 2678SOL    HW219668   3.225   3.001  17.154 -0.8715 -0.2490 -0.6503
 2679SOL     OW19669   2.533   2.521   8.829  0.1344 -0.5959 -0.1300
 2679SOL    HW119670   2.586   2.582   8.880 -0.5748  0.7647 -0.9984
 2679SOL    HW219671   2.596   2.506   8.758 -1.2131  2.3340 -1.9543
 2680SOL     OW19672   2.016   1.975   8.143 -0.0288  0.9144  0.6897
 2680SOL    HW119673   1.989   1.944   8.230  0.2379 -0.5326  0.2651
 2680SOL    HW219674   1.925   1.995   8.122 -0.0540 -0.1074 -0.1724
 2681SOL     OW19675   4.162   1.065   4.692  0.2552  0.5826  0.3745
 2681SOL    HW119676   4.249   1.104   4.686 -0.1066  1.5820  1.8666
 2681SOL    HW219677   4.117   1.143   4.724 -0.8561 -0.2537  0.8299
 2682SOL     OW19678   3.809   2.757   3.326 -0.4787  0.7449  0.5337
 2682SOL    HW119679   3.807   2.751   3.230 -0.4758 -0.9624  0.6324
 2682SOL    HW219680   3.763   2.840   3.333 -1.2278  0.4296 -0.5001
 2683SOL     OW19681   2.150   2.141   7.026  0.2162  0.6009 -0.6316
 2683SOL    HW119682   2.078   2.146   6.964  0.2898 -0.6772 -0.8156
 2683SOL    HW219683   2.179   2.053   7.002  1.6897  0.8634  0.2196
 2684SOL     OW19684   0.785   0.121   1.257  0.1923  0.7326  0.1283
 2684SOL    HW119685   0.826   0.118   1.344 -1.1405  2.2715  0.8219
 2684SOL    HW219686   0.800   0.031   1.227 -2.1107 -0.0875  1.4021
 2685SOL     OW19687   1.946   3.968   5.997  0.0204 -0.1661  0.1101
 2685SOL    HW119688   1.864   3.939   6.038  1.9795 -3.0587  2.0014
 2685SOL    HW219689   1.993   3.885   6.007  0.1240 -0.0150  0.8423
 2686SOL     OW19690   4.193   4.590   3.585 -0.4074 -0.4172  0.1391
 2686SOL    HW119691   4.251   4.572   3.660  0.2013 -0.6288 -0.3798
 2686SOL    HW219692   4.243   4.560   3.509 -2.0278  0.7703 -1.3691
 2687SOL     OW19693   0.056   1.153  17.719 -0.2509 -1.1936 -0.2994
 2687SOL    HW119694   0.089   1.067  17.695 -0.3309 -1.8959  2.1351
 2687SOL    HW219695   0.137   1.204  17.718 -2.2755  2.0360  1.0482
 2688SOL     OW19696   1.607   3.076  11.672  0.4339  0.2391  0.3249
 2688SOL    HW119697   1.557   2.996  11.685  0.0256  0.2928 -0.9275
 2688SOL    HW219698   1.603   3.071  11.576 -0.0331  3.7589  0.1553
 2689SOL     OW19699   0.231   1.431   7.584 -0.5200 -0.3626  0.1933
 2689SOL    HW119700   0.151   1.384   7.606 -2.2263  2.5671  0.2443
 2689SOL    HW219701   0.200   1.471   7.503  3.1802  2.5261  0.1821
 2690SOL     OW19702   3.652   3.861   0.956  0.5292 -0.4169 -0.3565
 2690SOL    HW119703   3.642   3.942   0.905  3.1321  0.9254  1.2289
 2690SOL    HW219704   3.731   3.823   0.917  2.2826  0.9751  1.8405
 2691SOL     OW19705   3.455   3.338   9.594  0.1061  0.4044  0.0285
 2691SOL    HW119706   3.484   3.253   9.625  0.6655  1.1119  1.4534
 2691SOL    HW219707   3.364   3.338   9.623  0.0708  0.6509 -0.0847
 2692SOL     OW19708   0.788   2.755   9.308 -0.5062 -0.4641 -0.0340
 2692SOL    HW119709   0.852   2.826   9.317  1.0212 -2.0791  1.7678
 2692SOL    HW219710   0.845   2.701   9.253  0.2009 -0.0464  0.2891
 2693SOL     OW19711   4.251   1.877   1.815  0.0108 -0.0431 -0.0196
 2693SOL    HW119712   4.218   1.897   1.728 -1.7131  0.2892  0.7118
 2693SOL    HW219713   4.171   1.878   1.868  1.8551 -0.7045  2.8243
 2694SOL     OW19714   3.256   4.243   2.962  0.0923  0.0054  0.6510
 2694SOL    HW119715   3.231   4.168   2.909  1.7814  1.1551 -1.7596
 2694SOL    HW219716   3.168   4.280   2.974 -0.1393 -1.0597  2.2394
 2695SOL     OW19717   1.045   0.636   9.326  0.5277  0.0114  0.2848
 2695SOL    HW119718   1.137   0.647   9.350 -0.1846  3.1729  1.4573
 2695SOL    HW219719   1.037   0.725   9.291  3.6558  0.4392  0.5861
 2696SOL     OW19720   2.607   1.232  16.781 -0.2331 -0.2803 -0.3225
 2696SOL    HW119721   2.576   1.152  16.737 -0.2477  0.0981 -0.9920
 2696SOL    HW219722   2.701   1.223  16.765  0.0908 -0.9190  1.8552
 2697SOL     OW19723   1.770   0.783   3.469 -0.3073  0.1384 -0.2511
 2697SOL    HW119724   1.803   0.740   3.548 -2.8933  0.6352  1.1003
 2697SOL    HW219725   1.681   0.749   3.466 -0.5152  0.6037  0.5593
 2698SOL     OW19726   2.164   4.073  13.062 -0.0286 -0.1834 -0.1015
 2698SOL    HW119727   2.094   4.102  13.120  0.7462 -0.0406  0.7568
 2698SOL    HW219728   2.232   4.138  13.080 -1.5504  0.2128  4.0443
 2699SOL     OW19729   3.400   3.078   9.214  0.0527  0.9291  0.3394
 2699SOL    HW119730   3.334   3.098   9.147  1.4558  0.6392 -1.1286
 2699SOL    HW219731   3.351   3.108   9.290  1.4744  0.4796  1.4380
 2700SOL     OW19732   4.247   2.187   9.364 -0.4541 -0.7176  0.1627
 2700SOL    HW119733   4.316   2.142   9.414 -0.8223  0.1470  1.4444
 2700SOL    HW219734   4.170   2.170   9.419 -0.0873 -0.7560  0.6707
 2701SOL     OW19735   2.984   3.090   8.934  0.0177 -0.5327 -0.3586
 2701SOL    HW119736   2.930   3.113   8.858  2.6542  1.6914 -1.5373
 2701SOL    HW219737   2.919   3.085   9.004 -0.8264 -3.0207 -1.3076
 2702SOL     OW19738   2.123   4.514   9.224 -0.8722 -0.2493  0.7796
 2702SOL    HW119739   2.041   4.531   9.178 -0.4749  1.5327  0.7219
 2702SOL    HW219740   2.085   4.448   9.282 -0.4176 -2.2972 -1.2579
 2703SOL     OW19741   0.043   2.296   8.387  0.4355 -0.4959  0.0966
 2703SOL    HW119742   0.028   2.266   8.297 -2.4552  1.0280  0.0567
 2703SOL    HW219743   0.115   2.238   8.412  0.5652  0.1637  1.2045
 2704SOL     OW19744   0.790   3.045   7.232  0.1356  0.1550 -0.0181
 2704SOL    HW119745   0.883   3.061   7.220 -0.1333  0.0498 -2.1888
 2704SOL    HW219746   0.764   3.129   7.272  0.9304  0.4746 -0.1718
 2705SOL     OW19747   4.718   2.293   9.264  0.1240  0.1284  0.3985
 2705SOL    HW119748   4.638   2.254   9.301 -0.3447 -1.8572 -2.7122
 2705SOL    HW219749   0.011   2.365   9.318  0.0593 -1.9449  3.2357
 2706SOL     OW19750   1.438   1.243   2.300  0.4043  0.3069  0.4365
 2706SOL    HW119751   1.457   1.270   2.390  1.3371  0.7738  0.0958
 2706SOL    HW219752   1.474   1.156   2.284 -0.1741 -0.1813  1.7804
 2707SOL     OW19753   0.710   4.197   8.342 -0.0291 -0.3322  0.1970
 2707SOL    HW119754   0.783   4.226   8.397  1.2364 -1.2405 -0.9760
 2707SOL    HW219755   0.741   4.109   8.322 -1.9147 -1.2961  1.5230
 2708SOL     OW19756   3.122   4.018   3.491 -0.5460 -0.4394 -0.1082
 2708SOL    HW119757   3.165   3.974   3.564 -1.0883  0.4619  0.7460
 2708SOL    HW219758   3.198   4.020   3.433  0.5602  2.8100  1.4722
 2709SOL     OW19759   0.100   0.339   5.842 -0.2977  0.4319 -0.4407
 2709SOL    HW119760   0.122   0.393   5.766 -0.3595  0.7031 -0.2644
 2709SOL    HW219761   0.024   0.297   5.800 -0.3079 -0.9897  1.0007
 2710SOL     OW19762   3.551   3.521   4.485 -0.0482 -0.3441  0.3160
 2710SOL    HW119763   3.581   3.431   4.495  2.9683  0.4443 -1.5893
 2710SOL    HW219764   3.624   3.575   4.513  0.1829 -1.2574  1.4918
 2711SOL     OW19765   0.531   0.563   2.743  0.2206 -0.5566  0.3004
 2711SOL    HW119766   0.456   0.568   2.684  0.1410 -0.8511  0.3741
 2711SOL    HW219767   0.595   0.544   2.674 -2.2028 -0.3024 -2.0174
 2712SOL     OW19768   3.082   1.213   7.720 -0.7982 -0.0321  0.0948
 2712SOL    HW119769   3.144   1.190   7.790 -0.6484  0.1419  0.0174
 2712SOL    HW219770   3.002   1.233   7.770 -0.2466  0.7575  0.6555
 2713SOL     OW19771   1.196   3.703   0.932  0.5009 -0.2270  0.3782
 2713SOL    HW119772   1.219   3.718   0.840  0.5269 -0.6570  0.3148
 2713SOL    HW219773   1.283   3.709   0.971  0.7158 -1.5121  0.0900
 2714SOL     OW19774   4.198   1.207  13.300 -0.3403  0.0458  0.2018
 2714SOL    HW119775   4.132   1.220  13.232  2.4269 -1.9913 -2.9156
 2714SOL    HW219776   4.254   1.283  13.282 -0.6694  0.3694  0.5637
 2715SOL     OW19777   2.711   1.431   4.012 -0.5061  0.0813  0.2499
 2715SOL    HW119778   2.769   1.502   4.039 -2.0498  1.9700 -1.3711
 2715SOL    HW219779   2.681   1.464   3.927 -1.0453  1.2237  0.8954
 2716SOL     OW19780   4.186   2.232   4.091  0.4319  0.4555  0.0432
 2716SOL    HW119781   4.153   2.240   4.001  2.7860  0.3160 -0.8176
 2716SOL    HW219782   4.159   2.143   4.112  2.6376 -0.9969 -3.3132
 2717SOL     OW19783   3.195   0.564   0.331 -0.2154 -0.5081 -0.0956
 2717SOL    HW119784   3.225   0.641   0.379 -0.2045 -1.0542  0.7782
 2717SOL    HW219785   3.145   0.521   0.401  0.8181  0.9897  1.5902
 2718SOL     OW19786   4.519   3.776   8.878 -0.3623  0.5405 -0.1194
 2718SOL    HW119787   4.573   3.799   8.954 -1.3475 -0.2636  0.8089
 2718SOL    HW219788   4.449   3.719   8.908 -0.1190 -0.5524 -1.6503
 2719SOL     OW19789   2.600   4.614   1.035 -0.3706  0.3230 -0.7925
 2719SOL    HW119790   2.647   4.684   1.081  0.4060 -0.1060 -0.9269
 2719SOL    HW219791   2.558   4.569   1.109  0.4525  2.2386  0.8530
 2720SOL     OW19792   1.710   4.617   1.060  0.3169  0.1294 -0.1426
 2720SOL    HW119793   1.725   4.550   0.994 -1.9473  0.1715 -0.6954
 2720SOL    HW219794   1.768   4.684   1.022  1.7414 -2.2612 -2.1838
 2721SOL     OW19795   1.187   2.744   2.776 -0.2214 -0.8385  0.1027
 2721SOL    HW119796   1.123   2.673   2.789 -0.4573 -0.4339  1.1089
 2721SOL    HW219797   1.186   2.762   2.682 -2.7524 -0.0641  0.2837
 2722SOL     OW19798   4.604   4.429   5.201  0.2791 -0.1577 -0.2420
 2722SOL    HW119799   4.597   4.445   5.295 -2.0230  0.3387 -0.5048
 2722SOL    HW219800   4.514   4.399   5.187  0.7720 -0.5545 -2.6879
 2723SOL     OW19801   0.551   0.792   5.627  0.5771  0.7180  0.0844
 2723SOL    HW119802   0.494   0.726   5.666  1.2281 -0.1193 -0.3799
 2723SOL    HW219803   0.636   0.747   5.620  0.0152 -0.1035 -1.3794
 2724SOL     OW19804   4.310   1.194   2.708 -0.6971  0.0986  0.1475
 2724SOL    HW119805   4.231   1.227   2.665  0.2898 -3.1870 -4.1540
 2724SOL    HW219806   4.344   1.115   2.666 -0.5176  0.9181 -1.2582
 2725SOL     OW19807   2.098   3.530   2.377 -0.6372  0.2282 -0.0437
 2725SOL    HW119808   2.004   3.521   2.388 -0.8160 -0.2790 -2.0633
 2725SOL    HW219809   2.117   3.480   2.298 -1.1659 -0.9374  0.5697
 2726SOL     OW19810   2.166   0.599   0.068 -0.1923 -0.3472  0.6369
 2726SOL    HW119811   2.089   0.573   0.119 -1.3215 -0.3415 -1.0861
 2726SOL    HW219812   2.184   0.510   0.037  0.4678 -0.0483  0.1575
 2727SOL     OW19813   3.914   4.199   3.367  0.2564  0.4795  0.8479
 2727SOL    HW119814   3.986   4.253   3.401  2.0029 -1.3214  0.0093
 2727SOL    HW219815   3.836   4.229   3.414 -0.6442  0.1682 -0.4581
 2728SOL     OW19816   0.980   2.148   1.440 -0.5499  0.5411  0.3471
 2728SOL    HW119817   0.913   2.203   1.399 -1.6897 -0.0780  1.3662
 2728SOL    HW219818   1.045   2.143   1.370  1.0374 -1.7221  2.0071
 2729SOL     OW19819   2.870   4.618   7.945  0.4737 -0.2544 -0.1881
 2729SOL    HW119820   2.863   4.636   7.852 -3.3370  1.5030  0.4339
 2729SOL    HW219821   2.781   4.589   7.966  0.5336 -0.6345 -0.4643
 2730SOL     OW19822   3.789   4.452  14.257 -0.5071 -0.0770 -0.0564
 2730SOL    HW119823   3.816   4.523  14.198 -1.9677  0.8320  0.3613
 2730SOL    HW219824   3.840   4.473  14.336 -1.8494 -0.8665  1.0277
 2731SOL     OW19825   0.287   2.814   1.401  0.0152  0.1395  0.3681
 2731SOL    HW119826   0.321   2.724   1.399 -0.1463  0.0248  2.6355
 2731SOL    HW219827   0.195   2.801   1.378 -0.0535 -0.5177  0.9883
 2732SOL     OW19828   3.598   3.186   7.263 -0.0668  0.2331 -0.6163
 2732SOL    HW119829   3.532   3.195   7.332 -0.9613 -2.7428 -1.0638
 2732SOL    HW219830   3.682   3.184   7.309  0.4257 -0.2600 -1.5525
 2733SOL     OW19831   1.760   3.137   2.538 -0.3380  0.1187 -0.0807
 2733SOL    HW119832   1.815   3.199   2.586 -0.7658  1.0474 -0.7848
 2733SOL    HW219833   1.727   3.080   2.608 -1.1318  1.8304  0.9232
 2734SOL     OW19834   1.554   2.288  13.601 -1.0849  0.4784  0.3619
 2734SOL    HW119835   1.595   2.338  13.530  1.2193 -0.4936  0.9825
 2734SOL    HW219836   1.512   2.223  13.545  0.4728 -0.1743 -0.0605
 2735SOL     OW19837   2.232   4.106   8.768  0.3117 -0.0529  0.3829
 2735SOL    HW119838   2.210   4.023   8.809 -1.3600 -0.4609 -1.3606
 2735SOL    HW219839   2.153   4.159   8.779 -0.1528 -0.3588 -1.5606
 2736SOL     OW19840   3.323   3.199   8.569 -0.2810  0.1850 -0.3093
 2736SOL    HW119841   3.275   3.247   8.637 -1.9679 -0.8224 -0.7837
 2736SOL    HW219842   3.327   3.119   8.621  0.0518 -0.5561 -1.4641
 2737SOL     OW19843   3.092   1.402   4.663 -0.4450 -0.2824  0.1939
 2737SOL    HW119844   3.142   1.362   4.592 -1.7981 -2.0976  0.2764
 2737SOL    HW219845   3.002   1.376   4.644 -0.1173  1.0260 -3.0781
 2738SOL     OW19846   1.023   4.292   3.443  0.0026 -0.1627  0.6514
 2738SOL    HW119847   1.010   4.383   3.469 -0.0431 -0.4975  1.8018
 2738SOL    HW219848   0.981   4.244   3.514 -1.1272 -0.7107 -0.3829
 2739SOL     OW19849   1.171   1.616   3.853  0.6811  0.1786  0.5298
 2739SOL    HW119850   1.187   1.635   3.760  0.4449 -2.9653 -0.1358
 2739SOL    HW219851   1.118   1.537   3.848  0.7175  0.2581 -1.2397
 2740SOL     OW19852   0.633   0.075   5.456  0.3771  0.0037 -0.1944
 2740SOL    HW119853   0.624   0.044   5.366 -1.0643 -1.0434  0.3158
 2740SOL    HW219854   0.634   0.168   5.434  1.8835 -0.5627 -2.5756
 2741SOL     OW19855   2.908   3.557  13.785  0.1793 -0.0470 -0.3962
 2741SOL    HW119856   2.846   3.626  13.809 -0.1922  0.0637 -1.6315
 2741SOL    HW219857   2.936   3.596  13.702  1.2197  0.0311 -0.0049
 2742SOL     OW19858   2.195   1.790   2.465 -0.6414 -0.2320  0.4858
 2742SOL    HW119859   2.154   1.712   2.429 -1.0999  0.6754 -0.9531
 2742SOL    HW219860   2.129   1.806   2.532 -0.0932  2.8207  0.3108
 2743SOL     OW19861   3.963   2.091  17.313 -0.8021 -0.2603  0.0955
 2743SOL    HW119862   3.953   2.044  17.396 -0.0426  1.4813  1.1588
 2743SOL    HW219863   4.009   2.169  17.344 -0.3514 -1.1324  1.5971
 2744SOL     OW19864   3.875   1.429   0.406 -0.1350  0.1764 -0.2772
 2744SOL    HW119865   3.781   1.449   0.406  0.3956  2.6673  0.0003
 2744SOL    HW219866   3.882   1.400   0.496  1.0648  0.7739 -0.1802
 2745SOL     OW19867   2.343   2.312   3.908  0.4303 -0.7155 -0.2456
 2745SOL    HW119868   2.370   2.382   3.968  0.1905 -0.4430 -0.4523
 2745SOL    HW219869   2.295   2.247   3.959  0.5388 -1.1138 -0.6524
 2746SOL     OW19870   1.429   4.574   6.614  0.4882  0.4619 -0.0531
 2746SOL    HW119871   1.482   4.498   6.590 -2.2626 -1.4047 -0.2287
 2746SOL    HW219872   1.342   4.537   6.598  1.2584 -0.0609 -3.0105
 2747SOL     OW19873   1.850   1.666   6.476 -0.6450 -0.4290  0.4226
 2747SOL    HW119874   1.813   1.681   6.389 -0.0247 -3.4850 -0.3680
 2747SOL    HW219875   1.771   1.626   6.514 -0.7651  1.5295  2.2168
 2748SOL     OW19876   0.759   4.250   3.038 -0.1907  0.4308  0.2300
 2748SOL    HW119877   0.796   4.210   3.117  0.2366  0.9554  0.2945
 2748SOL    HW219878   0.811   4.329   3.025 -0.7085  0.5504 -1.1380
 2749SOL     OW19879   0.951   4.205   5.631 -0.1812 -0.4305  0.3049
 2749SOL    HW119880   0.928   4.218   5.539  0.7356  0.2958  0.1657
 2749SOL    HW219881   0.941   4.297   5.656  1.3560 -0.1389 -0.1483
 2750SOL     OW19882   1.767   3.268  13.008  0.0260 -0.7955  0.1258
 2750SOL    HW119883   1.801   3.221  13.084 -0.4661  0.0128  0.8584
 2750SOL    HW219884   1.840   3.314  12.967 -0.2793  0.3134  0.8058
 2751SOL     OW19885   2.077   1.341   6.631  0.3805 -0.0262 -0.2491
 2751SOL    HW119886   2.090   1.258   6.676 -0.9444  0.9888  1.9844
 2751SOL    HW219887   2.165   1.359   6.597  1.4424 -1.4661  1.7216
 2752SOL     OW19888   2.573   1.816   7.829 -0.5476  0.1029  0.1533
 2752SOL    HW119889   2.652   1.841   7.877 -1.5152  2.5516  0.4473
 2752SOL    HW219890   2.539   1.735   7.869 -1.5599  0.8110  0.7261
 2753SOL     OW19891   3.333   4.725   8.396 -0.3006 -0.3554  0.2672
 2753SOL    HW119892   3.339   4.642   8.349  0.8823  0.2338 -0.6649
 2753SOL    HW219893   3.242   0.015   8.390 -0.8076 -2.0172  0.0379
 2754SOL     OW19894   0.515   1.426   3.442 -0.1948 -0.4820  0.6740
 2754SOL    HW119895   0.524   1.331   3.451  0.2604 -0.5801 -0.8094
 2754SOL    HW219896   0.492   1.448   3.532  0.4956  0.0797  0.7171
 2755SOL     OW19897   2.510   2.910  15.363  0.3308  0.1285  0.4323
 2755SOL    HW119898   2.503   2.820  15.396  0.5643 -0.4049 -0.9774
 2755SOL    HW219899   2.425   2.924  15.321  0.9252 -1.2865 -1.2752
 2756SOL     OW19900   2.158   4.378  16.574  0.4809 -0.1174  0.4010
 2756SOL    HW119901   2.227   4.423  16.525  2.0253 -2.0937  0.7620
 2756SOL    HW219902   2.141   4.435  16.649 -0.2469 -0.9076  0.8350
 2757SOL     OW19903   0.323   0.084  15.232  0.3287  0.0617 -0.1076
 2757SOL    HW119904   0.350   0.054  15.319  0.8429  0.7446 -0.0339
 2757SOL    HW219905   0.352   0.175  15.229  2.0558 -0.5378 -1.1731
 2758SOL     OW19906   2.936   2.832   6.185 -0.1951 -0.2987  0.0030
 2758SOL    HW119907   3.011   2.822   6.245 -1.0876 -0.3892  1.0992
 2758SOL    HW219908   2.976   2.777   6.118 -2.1856 -1.6586 -0.0599
 2759SOL     OW19909   2.659   0.849   6.209  0.0266  0.0439 -0.0085
 2759SOL    HW119910   2.601   0.777   6.233  1.0912  0.0144  2.4871
 2759SOL    HW219911   2.748   0.813   6.210  0.0434  0.0513 -1.1068
 2760SOL     OW19912   2.884   1.911   7.989 -0.6212 -0.4075  0.0531
 2760SOL    HW119913   2.879   1.969   7.913 -0.8871  0.6493  0.8626
 2760SOL    HW219914   2.896   1.979   8.056  1.2935  0.1423 -0.8426
 2761SOL     OW19915   4.649   0.269   9.581 -0.1255  0.8799  0.4044
 2761SOL    HW119916   4.561   0.255   9.617 -0.7604 -1.3960 -1.9870
 2761SOL    HW219917   4.655   0.199   9.516 -2.2511  0.2937  0.8353
 2762SOL     OW19918   0.688   2.674   7.842 -0.0418  0.0625  0.5614
 2762SOL    HW119919   0.784   2.675   7.837 -0.0920 -3.0676 -0.5900
 2762SOL    HW219920   0.662   2.758   7.880 -0.5767  0.7564 -1.3396
 2763SOL     OW19921   1.464   0.559   9.655 -0.6515  0.1467  1.0551
 2763SOL    HW119922   1.540   0.618   9.664 -0.6427  0.5534 -1.6532
 2763SOL    HW219923   1.505   0.474   9.643  0.4262  0.3070  3.4389
 2764SOL     OW19924   3.647   2.847   3.904  0.1965  0.0510 -0.8057
 2764SOL    HW119925   3.692   2.931   3.916  0.8118 -0.3993  0.0622
 2764SOL    HW219926   3.677   2.796   3.979  0.6365  0.6647 -0.5584
 2765SOL     OW19927   3.544   0.288   1.635  0.2696  0.4019  0.1110
 2765SOL    HW119928   3.611   0.354   1.616 -0.4476  0.5625 -1.8070
 2765SOL    HW219929   3.499   0.262   1.555  2.1945  0.1128 -0.8660
 2766SOL     OW19930   3.730   4.711   4.180 -0.0614  0.2828  0.1454
 2766SOL    HW119931   3.728   0.056   4.225  1.2174  0.0573  0.6471
 2766SOL    HW219932   3.701   0.003   4.095 -2.9062 -1.5844  0.4164
 2767SOL     OW19933   3.283   1.613   4.149 -0.0382  0.1187  0.4186
 2767SOL    HW119934   3.254   1.552   4.080 -0.5166 -0.8066  1.4421
 2767SOL    HW219935   3.226   1.687   4.126  1.1520  1.9633  3.4847
 2768SOL     OW19936   0.705   3.064   9.239  0.1910 -0.0029 -0.1240
 2768SOL    HW119937   0.613   3.091   9.228 -0.0210 -0.9447 -0.6524
 2768SOL    HW219938   0.697   3.030   9.328  0.5822  0.4886  0.0992
 2769SOL     OW19939   1.009   0.570  12.848  0.3473  0.0745  0.7350
 2769SOL    HW119940   0.972   0.608  12.928 -1.2330  1.3739 -0.6131
 2769SOL    HW219941   0.954   0.590  12.773  2.1155 -0.5757 -0.7485
 2770SOL     OW19942   1.300   1.099   3.588 -0.6065  0.2853  0.2017
 2770SOL    HW119943   1.248   1.113   3.509  0.3625  1.6602 -0.2037
 2770SOL    HW219944   1.253   1.026   3.629  0.0084 -0.4427 -0.3871
 2771SOL     OW19945   2.867   4.577  15.198  0.3029 -0.0602  0.1872
 2771SOL    HW119946   2.901   4.659  15.233 -2.8510  0.3745  2.1836
 2771SOL    HW219947   2.909   4.515  15.258  0.7080  1.9039  1.9567
 2772SOL     OW19948   0.117   1.841  12.556 -0.1295 -0.1263 -0.3212
 2772SOL    HW119949   0.104   1.783  12.631  1.2195 -2.3215 -1.8071
 2772SOL    HW219950   0.029   1.870  12.532  0.2085  0.0030 -1.3730
 2773SOL     OW19951   3.519   3.734   4.790 -0.5747 -0.1687 -0.2141
 2773SOL    HW119952   3.469   3.772   4.718 -0.9415  1.8804  1.0995
 2773SOL    HW219953   3.575   3.674   4.742  1.4283  2.4479 -1.1535
 2774SOL     OW19954   4.558   1.479   5.063 -0.3187  0.2523 -0.1590
 2774SOL    HW119955   4.523   1.555   5.017 -2.0747 -0.0075  0.7608
 2774SOL    HW219956   4.632   1.512   5.113 -0.2012  1.7118 -1.2866
 2775SOL     OW19957   3.750   3.698  13.638 -0.1364  0.3990  0.3558
 2775SOL    HW119958   3.827   3.751  13.661  0.5906 -0.5292  0.0774
 2775SOL    HW219959   3.795   3.625  13.593 -1.0939 -0.4032  0.7006
 2776SOL     OW19960   3.448   0.645   9.943  0.0722 -0.7716  0.4041
 2776SOL    HW119961   3.462   0.733   9.908 -0.7265 -1.3484 -1.3416
 2776SOL    HW219962   3.512   0.641  10.014 -1.1640 -0.0759  1.5836
 2777SOL     OW19963   3.036   4.627   7.302 -0.2219 -0.5483 -0.0808
 2777SOL    HW119964   3.045   4.682   7.380 -0.5749 -1.3963  0.5682
 2777SOL    HW219965   3.053   4.692   7.235 -0.0311 -0.4231  0.0857
 2778SOL     OW19966   0.845   3.669  15.797 -0.9761  0.0149 -0.2159
 2778SOL    HW119967   0.823   3.602  15.861 -0.9128  0.3848  0.1974
 2778SOL    HW219968   0.940   3.682  15.799 -1.1202  0.8769  0.7928
 2779SOL     OW19969   0.680   2.173  10.780 -0.1480  0.2208 -0.3464
 2779SOL    HW119970   0.621   2.104  10.813 -1.6558  1.4362 -0.4916
 2779SOL    HW219971   0.744   2.122  10.731 -0.6466  0.0557 -0.8286
 2780SOL     OW19972   0.309   4.052   8.853 -0.0646  0.1052 -1.1168
 2780SOL    HW119973   0.373   4.048   8.924 -2.6400  0.2706  1.1905
 2780SOL    HW219974   0.297   4.147   8.850 -0.1191  0.1426  0.6202
 2781SOL     OW19975   3.670   4.693   4.510  0.4794  0.2672 -0.5923
 2781SOL    HW119976   3.630   4.716   4.426  1.8268  2.3402 -0.6981
 2781SOL    HW219977   3.631   0.020   4.568 -1.9336 -0.2427 -1.6307
 2782SOL     OW19978   2.877   2.604  12.893 -0.1340 -0.1797 -0.5857
 2782SOL    HW119979   2.918   2.683  12.856 -0.3223 -0.2444 -0.9355
 2782SOL    HW219980   2.828   2.648  12.963  0.1272 -2.4286  0.9950
 2783SOL     OW19981   0.866   2.522   1.133 -0.2152  0.0940  0.4046
 2783SOL    HW119982   0.773   2.542   1.145 -0.8132 -2.6341  0.1386
 2783SOL    HW219983   0.907   2.608   1.121 -0.2348  0.1485  0.7534
 2784SOL     OW19984   3.697   0.552   3.149  0.2869  0.0742  0.8263
 2784SOL    HW119985   3.791   0.549   3.131 -0.0781 -0.0206 -1.0177
 2784SOL    HW219986   3.687   0.644   3.174  0.9742  0.6833 -1.1896
 2785SOL     OW19987   4.149   3.105  10.289 -0.1343 -0.4370 -0.7250
 2785SOL    HW119988   4.181   3.072  10.205  0.1651  1.2217 -1.2472
 2785SOL    HW219989   4.054   3.099  10.276 -0.3408  2.0841 -0.2575
 2786SOL     OW19990   3.298   1.965  13.160  0.6196 -0.0876  0.0221
 2786SOL    HW119991   3.283   2.055  13.187 -1.1244 -0.6524  0.9470
 2786SOL    HW219992   3.380   1.946  13.205  1.2962 -0.0107 -1.1722
 2787SOL     OW19993   2.196   4.345  11.790 -0.8400  0.5838 -0.0109
 2787SOL    HW119994   2.193   4.412  11.722 -2.2484 -0.3469 -0.8537
 2787SOL    HW219995   2.171   4.388  11.872  0.1060 -1.2908  1.2834
 2788SOL     OW19996   3.030   2.227   0.646 -0.0091 -0.0138  0.0042
 2788SOL    HW119997   3.022   2.257   0.556 -1.5888 -0.5438 -0.0355
 2788SOL    HW219998   3.015   2.311   0.690  0.3632 -1.4265  2.8734
 2789SOL     OW19999   2.313   1.723   8.432 -0.0121 -0.3572 -0.6354
 2789SOL    HW120000   2.318   1.653   8.497  0.7646 -0.1279 -0.4383
 2789SOL    HW220001   2.364   1.695   8.356  1.8699 -1.1677  0.9100
 2790SOL     OW20002   4.356   0.430   1.382  0.1959  0.0640 -0.1548
 2790SOL    HW120003   4.382   0.339   1.398 -2.5563 -0.3717  1.9728
 2790SOL    HW220004   4.267   0.429   1.419 -0.1288  0.8540 -0.9226
 2791SOL     OW20005   2.614   2.664   4.370 -0.0413  0.3243  0.6877
 2791SOL    HW120006   2.605   2.759   4.365 -1.2195  0.3513  3.2630
 2791SOL    HW220007   2.543   2.644   4.431  0.8689 -1.2214  1.2296
 2792SOL     OW20008   0.656   0.347   6.129 -0.4118 -0.0585 -0.1855
 2792SOL    HW120009   0.576   0.400   6.126 -0.4588 -0.1894 -1.5523
 2792SOL    HW220010   0.676   0.341   6.035  1.5681  0.1406  0.2260
 2793SOL     OW20011   1.204   2.439   7.731  0.4773  0.8225  0.1095
 2793SOL    HW120012   1.122   2.389   7.725  0.1003  1.3303  1.0817
 2793SOL    HW220013   1.236   2.413   7.817 -0.9391  1.6669  0.8907
 2794SOL     OW20014   2.547   2.989   4.346  0.3574 -0.6123  0.2590
 2794SOL    HW120015   2.495   2.982   4.427  0.9578  1.1013  0.7910
 2794SOL    HW220016   2.602   3.065   4.366 -1.7610  1.1232 -0.5402
 2795SOL     OW20017   3.602   1.976  16.734  0.1422  0.2810  0.2508
 2795SOL    HW120018   3.588   1.881  16.735  0.5370  0.2092 -0.6586
 2795SOL    HW220019   3.572   2.000  16.821 -0.7565  0.1558 -0.0299
 2796SOL     OW20020   4.721   3.752   4.876  0.2255  0.3525 -0.1548
 2796SOL    HW120021   4.678   3.711   4.951  2.7087  0.5118  1.3354
 2796SOL    HW220022   4.663   3.826   4.855 -2.1506 -1.5513 -0.2839
 2797SOL     OW20023   3.276   3.298  17.317  0.1623 -0.3332  0.6024
 2797SOL    HW120024   3.275   3.372  17.256 -0.1114  1.4581  2.7701
 2797SOL    HW220025   3.240   3.234  17.256 -1.5510 -0.2977  1.5952
 2798SOL     OW20026   2.394   0.457   6.539 -0.0781  0.0354 -0.1867
 2798SOL    HW120027   2.490   0.465   6.539 -0.0337 -0.4284  1.1670
 2798SOL    HW220028   2.371   0.393   6.472  0.7205 -1.5520  1.0579
 2799SOL     OW20029   3.330   4.620   1.165  0.7546  0.0735 -0.0133
 2799SOL    HW120030   3.249   4.583   1.201  2.3312 -0.4940  2.9103
 2799SOL    HW220031   3.300   4.663   1.084  1.8474  0.1925 -0.3461
 2800SOL     OW20032   2.283   3.525   2.935 -0.2654  0.5516 -0.3068
 2800SOL    HW120033   2.361   3.537   2.881 -1.2702 -4.4549 -2.8177
 2800SOL    HW220034   2.321   3.544   3.021 -0.2745  2.4402 -0.7223
 2801SOL     OW20035   2.585   1.089   5.326 -0.2597  0.5367 -0.1699
 2801SOL    HW120036   2.537   1.155   5.375 -2.5105 -1.3265  0.1284
 2801SOL    HW220037   2.521   1.017   5.334  0.2195 -0.3660 -4.2908
 2802SOL     OW20038   0.693   0.400   7.159  0.0572 -0.0556  0.5056
 2802SOL    HW120039   0.697   0.330   7.093  1.3555 -0.9996  1.5859
 2802SOL    HW220040   0.601   0.401   7.186 -0.0891  0.9039 -0.0183
 2803SOL     OW20041   2.412   1.483  14.193  0.0491 -0.2231 -0.2593
 2803SOL    HW120042   2.395   1.464  14.285  3.0123 -0.2678  0.2783
 2803SOL    HW220043   2.331   1.466  14.145  0.0798  1.9092 -1.0407
 2804SOL     OW20044   1.481   0.508   6.603 -0.0604  0.0446 -0.1742
 2804SOL    HW120045   1.425   0.457   6.544  0.3061 -0.5130 -0.0471
 2804SOL    HW220046   1.428   0.587   6.604  0.5172  0.4215  0.6808
 2805SOL     OW20047   1.246   1.306  12.395 -0.1302  0.0603  0.4484
 2805SOL    HW120048   1.231   1.353  12.477  1.5898  0.1387  0.7055
 2805SOL    HW220049   1.234   1.371  12.326  0.4747  0.0177  0.3030
 2806SOL     OW20050   4.086   0.472   4.563  0.3969  0.3168  0.1175
 2806SOL    HW120051   4.051   0.515   4.485  0.5549 -0.9635 -0.6459
 2806SOL    HW220052   4.015   0.473   4.628  1.1929 -1.1961  0.9949
 2807SOL     OW20053   0.981   3.540  13.931 -0.1710 -1.0065 -0.0181
 2807SOL    HW120054   0.936   3.465  13.970 -1.7638  0.4816  1.0060
 2807SOL    HW220055   0.908   3.601  13.937 -0.1436 -0.8890 -0.8811
 2808SOL     OW20056   3.639   3.916  10.260  0.0941 -0.7477 -0.1779
 2808SOL    HW120057   3.566   3.902  10.200 -1.2279  0.6503  1.1120
 2808SOL    HW220058   3.646   3.836  10.313  2.8945  1.6931  3.1432
 2809SOL     OW20059   3.234   3.666   1.896  0.0689 -0.8251  0.2026
 2809SOL    HW120060   3.157   3.682   1.841 -0.1673 -0.2490  0.7081
 2809SOL    HW220061   3.266   3.755   1.904  0.0759 -0.8705  0.6872
 2810SOL     OW20062   2.755   4.035   1.069 -0.0413 -0.1594 -0.3249
 2810SOL    HW120063   2.672   4.027   1.022  0.0883 -0.0479 -0.5752
 2810SOL    HW220064   2.809   3.979   1.014  1.5991  0.7954  0.3130
 2811SOL     OW20065   3.615   4.404   8.602  0.0464 -0.5677  0.1021
 2811SOL    HW120066   3.592   4.497   8.594 -0.2017 -0.7161 -0.8964
 2811SOL    HW220067   3.699   4.407   8.556  0.8573  2.0175  1.7452
 2812SOL     OW20068   1.096   3.992   6.709 -0.2826 -0.0154  0.2600
 2812SOL    HW120069   1.138   3.923   6.761  2.4751  2.3316  1.1505
 2812SOL    HW220070   1.160   4.009   6.640 -2.0492 -0.1968 -1.4219
 2813SOL     OW20071   2.256   4.726   7.845 -0.1916 -0.0112 -0.0013
 2813SOL    HW120072   2.228   4.645   7.801 -1.1954  0.5154 -0.3304
 2813SOL    HW220073   2.180   0.031   7.883  0.1033  1.1746 -0.7991
 2814SOL     OW20074   0.658   3.839   5.484  0.3786 -0.4962 -0.0727
 2814SOL    HW120075   0.660   3.759   5.536  0.5263  0.5090  1.4639
 2814SOL    HW220076   0.567   3.860   5.504  0.8673 -0.3072  1.9705
 2815SOL     OW20077   0.736   3.028   7.741  0.1383 -0.9296  0.2276
 2815SOL    HW120078   0.816   3.081   7.742 -0.1505 -0.5100  1.1187
 2815SOL    HW220079   0.737   2.961   7.673 -0.1077 -0.8419  0.1407
 2816SOL     OW20080   3.148   2.148   1.001 -0.0780  0.0830 -0.1554
 2816SOL    HW120081   3.184   2.097   0.929  0.6929 -1.0599  1.0428
 2816SOL    HW220082   3.100   2.078   1.046 -3.2313  1.4011 -1.4672
 2817SOL     OW20083   1.555   1.169   4.907 -0.4564 -0.3895 -0.1530
 2817SOL    HW120084   1.508   1.236   4.955 -0.9666 -2.4225  2.1947
 2817SOL    HW220085   1.560   1.215   4.823 -1.2851 -1.5087 -0.8313
 2818SOL     OW20086   4.461   0.410   5.281  0.3499  0.5882  0.2475
 2818SOL    HW120087   4.536   0.460   5.250 -1.2986  0.8641 -3.3714
 2818SOL    HW220088   4.413   0.468   5.341 -0.1362  0.1688  0.2591
 2819SOL     OW20089   3.346   3.556   1.655 -0.0602 -0.2182  0.3237
 2819SOL    HW120090   3.315   3.563   1.745  1.5783 -0.8953  0.9424
 2819SOL    HW220091   3.315   3.639   1.618 -0.9811 -0.8096 -0.2329
 2820SOL     OW20092   3.185   1.321   4.418  0.0299 -0.3399  0.8984
 2820SOL    HW120093   3.160   1.392   4.359  0.3917 -0.5244  0.5215
 2820SOL    HW220094   3.118   1.257   4.395  2.2206 -1.7601 -1.4904
 2821SOL     OW20095   0.791   2.963   5.289  0.8148  0.3781 -0.1904
 2821SOL    HW120096   0.720   2.925   5.237  2.6076 -2.2968 -0.6654
 2821SOL    HW220097   0.869   2.916   5.259  1.2119 -0.4146  2.0842
 2822SOL     OW20098   0.064   1.465   0.452 -0.5256 -1.1791 -0.3592
 2822SOL    HW120099   0.146   1.473   0.501 -2.2036  2.0259  1.9561
 2822SOL    HW220100   0.050   1.372   0.437 -2.9139 -0.8817  0.0946
 2823SOL     OW20101   2.095   2.756   6.072  0.3768  0.7425  0.1144
 2823SOL    HW120102   2.059   2.711   6.148  1.2622  0.6444  0.4780
 2823SOL    HW220103   2.167   2.698   6.051 -0.6815 -0.8957  1.0509
 2824SOL     OW20104   1.320   1.490   9.253 -1.0945  0.1228 -0.0894
 2824SOL    HW120105   1.331   1.420   9.188  1.0241  0.5050 -0.1636
 2824SOL    HW220106   1.352   1.569   9.209 -0.5173  0.5926  1.1795
 2825SOL     OW20107   0.115   4.206  16.370 -0.1548  0.6801  0.4102
 2825SOL    HW120108   0.108   4.225  16.277 -1.0616 -0.2259  0.2955
 2825SOL    HW220109   0.194   4.150  16.370 -0.5682  0.1080 -0.6552
 2826SOL     OW20110   4.511   2.658   8.143  0.0193 -0.0199 -0.0538
 2826SOL    HW120111   4.509   2.740   8.194  1.9103  0.7216 -1.1761
 2826SOL    HW220112   4.458   2.601   8.199 -2.5833  0.9844 -1.4856
 2827SOL     OW20113   4.320   4.145   2.043  0.2239 -0.5642 -0.3416
 2827SOL    HW120114   4.336   4.190   2.126  2.2972 -1.2974 -0.3274
 2827SOL    HW220115   4.243   4.090   2.055  1.0654 -1.2006  2.2093
 2828SOL     OW20116   0.079   4.630   7.853  0.6724  0.1067 -0.2855
 2828SOL    HW120117   0.077   4.602   7.944  0.6048  1.9414  0.2823
 2828SOL    HW220118   0.110   4.719   7.869 -1.7566  1.0088 -0.5606
 2829SOL     OW20119   1.396   0.777   6.017 -0.4363 -0.3773  0.1445
 2829SOL    HW120120   1.381   0.871   6.022  0.7872 -0.2287  1.0326
 2829SOL    HW220121   1.401   0.765   5.922 -1.2428  1.0991 -0.0891
 2830SOL     OW20122   0.829   2.996   4.251  0.0592  0.0891  0.2937
 2830SOL    HW120123   0.891   2.972   4.181 -0.0939  1.7368 -0.4147
 2830SOL    HW220124   0.755   3.027   4.198 -0.4684 -0.6040  0.6281
 2831SOL     OW20125   1.001   0.246   6.455  0.1647  0.2619 -0.5456
 2831SOL    HW120126   0.979   0.308   6.524  1.6234  0.6117 -0.4059
 2831SOL    HW220127   0.965   0.160   6.479  1.2485  0.4049  1.5967
 2832SOL     OW20128   3.697   2.232   5.331 -0.0201  0.1225 -0.3973
 2832SOL    HW120129   3.723   2.324   5.328  0.3847  0.0349  0.4280
 2832SOL    HW220130   3.721   2.201   5.244 -2.6003  0.3507 -1.2043
 2833SOL     OW20131   4.149   4.638  13.501  0.0397 -0.3152 -0.1023
 2833SOL    HW120132   4.238   4.635  13.534 -0.2781  0.7135  0.8506
 2833SOL    HW220133   4.110   4.574  13.560  2.0491 -2.1936 -0.8268
 2834SOL     OW20134   0.825   2.023   9.933  0.1337  0.0234  0.4076
 2834SOL    HW120135   0.851   1.977   9.853 -0.1338  0.5315  0.0323
 2834SOL    HW220136   0.898   2.081   9.953  0.8516 -1.2633  1.5467
 2835SOL     OW20137   2.863   0.059  16.976 -0.7082 -0.3963 -0.0480
 2835SOL    HW120138   2.833   4.716  16.937 -0.2391  0.2558 -1.7916
 2835SOL    HW220139   2.781   0.099  17.004 -0.4727 -0.3580  0.5912
 2836SOL     OW20140   4.609   0.893   2.129 -0.4929 -0.2524  0.3989
 2836SOL    HW120141   4.699   0.882   2.099 -0.0615 -0.8496  1.9011
 2836SOL    HW220142   4.616   0.826   2.198  0.7685 -0.1167  0.4084
 2837SOL     OW20143   2.606   2.953   6.761 -0.2795 -0.2923 -0.6480
 2837SOL    HW120144   2.659   2.874   6.762 -0.4767 -0.3934  1.7432
 2837SOL    HW220145   2.556   2.940   6.842 -0.1792  0.7091 -0.4240
 2838SOL     OW20146   1.320   4.450  11.168  0.4363 -0.7584 -0.1947
 2838SOL    HW120147   1.283   4.500  11.096 -1.8824 -0.1053  1.4586
 2838SOL    HW220148   1.373   4.383  11.126 -0.9875 -1.0557 -1.5040
 2839SOL     OW20149   0.615   3.884   8.753 -0.1825 -0.0163 -0.3688
 2839SOL    HW120150   0.622   3.811   8.692  0.2898 -0.2375 -0.0464
 2839SOL    HW220151   0.629   3.956   8.693 -1.6367 -0.6310 -1.4644
 2840SOL     OW20152   1.070   0.794   3.402  0.0161 -0.2509  0.3373
 2840SOL    HW120153   1.076   0.748   3.486  0.8174  1.2321  1.0878
 2840SOL    HW220154   1.162   0.812   3.380  0.4057 -1.7674  0.6845
 2841SOL     OW20155   0.322   1.273   4.975  0.0111 -0.0022 -0.0328
 2841SOL    HW120156   0.391   1.291   5.039  1.6296 -4.0430 -0.6092
 2841SOL    HW220157   0.271   1.353   4.969 -0.0332  0.1906  2.7617
 2842SOL     OW20158   2.799   2.370   9.295  0.7552  0.2808  0.0736
 2842SOL    HW120159   2.819   2.289   9.248  1.4343  0.9691 -0.8087
 2842SOL    HW220160   2.703   2.361   9.295  0.7970 -0.2668  1.5177
 2843SOL     OW20161   2.870   0.478  11.123  0.2815  0.3088 -0.1642
 2843SOL    HW120162   2.856   0.570  11.145  2.5472  0.5946  0.1149
 2843SOL    HW220163   2.907   0.452  11.208  0.6013 -1.4300 -0.8303
 2844SOL     OW20164   1.207   4.526   7.389  0.2691 -0.2139  0.5418
 2844SOL    HW120165   1.228   4.610   7.429 -0.5217 -0.0510  0.6234
 2844SOL    HW220166   1.117   4.501   7.410  0.2424  0.8621  1.7087
 2845SOL     OW20167   2.849   0.539   3.649 -0.1358 -0.1224 -0.4100
 2845SOL    HW120168   2.855   0.490   3.567  2.3490 -2.1871  0.9663
 2845SOL    HW220169   2.941   0.552   3.672  0.3736 -2.5864 -1.0068
 2846SOL     OW20170   2.447   0.464   2.521 -0.1468 -0.4066 -0.4109
 2846SOL    HW120171   2.496   0.383   2.521  1.8533  0.8255  1.6777
 2846SOL    HW220172   2.518   0.527   2.505 -0.3331 -0.4338 -1.3566
 2847SOL     OW20173   3.971   4.157   8.511 -0.0574  0.2915  0.0971
 2847SOL    HW120174   4.018   4.219   8.455  0.4687  0.1258  0.3519
 2847SOL    HW220175   3.887   4.150   8.467 -0.0442  0.0999  0.1052
 2848SOL     OW20176   3.797   2.524   6.560 -0.6525 -0.4056  0.1971
 2848SOL    HW120177   3.878   2.476   6.578  0.4776  1.7261  0.8098
 2848SOL    HW220178   3.782   2.556   6.649 -1.6650 -0.4359  0.0443
 2849SOL     OW20179   0.789   0.969   3.033  0.0945  0.7253 -0.2027
 2849SOL    HW120180   0.873   0.985   3.076  0.6446  1.4691 -1.5526
 2849SOL    HW220181   0.792   0.875   3.015 -2.5801  0.7184 -0.6833
 2850SOL     OW20182   0.084   3.169   4.159  0.5383  0.5358 -1.0269
 2850SOL    HW120183   0.030   3.116   4.216  0.9380 -0.9218 -2.0021
 2850SOL    HW220184   0.140   3.210   4.225 -0.9389  0.5828  0.1850
 2851SOL     OW20185   1.466   1.648   2.096  0.2938 -0.5189  0.0114
 2851SOL    HW120186   1.466   1.738   2.126 -2.1614  0.7441 -3.7682
 2851SOL    HW220187   1.438   1.597   2.172 -0.0950  0.3350  0.4414
 2852SOL     OW20188   3.460   3.870   9.261 -0.4288 -0.2345 -0.6378
 2852SOL    HW120189   3.494   3.959   9.261  1.6723 -1.0360  0.9043
 2852SOL    HW220190   3.368   3.886   9.240 -0.9449  0.0079  1.8543
 2853SOL     OW20191   0.508   0.373   2.389 -0.0839 -0.0271 -0.2870
 2853SOL    HW120192   0.539   0.415   2.309 -0.4209  0.4336 -0.1776
 2853SOL    HW220193   0.577   0.403   2.448  1.3716 -0.5272 -1.7705
 2854SOL     OW20194   3.481   3.178   5.768 -0.2242 -0.1419  0.1291
 2854SOL    HW120195   3.555   3.222   5.810 -0.5874  1.8530 -1.3117
 2854SOL    HW220196   3.475   3.218   5.681 -0.1219  0.0177  0.1950
 2855SOL     OW20197   4.385   0.875  10.797 -0.0523  0.1946  0.7008
 2855SOL    HW120198   4.447   0.926  10.745  0.7913 -1.7825 -0.2448
 2855SOL    HW220199   4.439   0.825  10.858  1.8999  0.0495 -1.1127
 2856SOL     OW20200   2.599   4.463  14.313 -0.0526  0.9067 -0.2578
 2856SOL    HW120201   2.570   4.427  14.230 -0.7354  1.7996 -0.4014
 2856SOL    HW220202   2.516   4.501  14.340 -1.4953 -2.6038  0.1672
 2857SOL     OW20203   1.726   2.647   2.778  0.3153 -0.5749 -0.5831
 2857SOL    HW120204   1.720   2.663   2.872  1.0917 -0.2136 -0.6024
 2857SOL    HW220205   1.745   2.728   2.731 -0.0550 -1.2341 -1.8663
 2858SOL     OW20206   0.383   0.429   5.077  1.0229  0.6262 -0.6610
 2858SOL    HW120207   0.317   0.496   5.056 -0.2998 -0.4321  0.1390
 2858SOL    HW220208   0.333   0.349   5.060  1.8247 -0.0690  0.3016
 2859SOL     OW20209   2.752   2.710   9.209 -0.1110  0.4982  0.0175
 2859SOL    HW120210   2.686   2.747   9.268 -0.1924  1.8605 -0.9024
 2859SOL    HW220211   2.800   2.648   9.263 -0.7119  0.1914  0.2043
 2860SOL     OW20212   4.297   0.609   7.838 -0.1774 -0.0736  0.0685
 2860SOL    HW120213   4.311   0.521   7.802  1.2367 -0.1735  0.8473
 2860SOL    HW220214   4.384   0.613   7.878  0.2048 -0.1688 -0.7552
 2861SOL     OW20215   1.103   2.593   6.002 -0.0851 -0.0052  0.6497
 2861SOL    HW120216   1.082   2.511   6.046  0.6753  0.2714  1.5321
 2861SOL    HW220217   1.024   2.608   5.950  0.1173  1.2987  0.7021
 2862SOL     OW20218   4.263   3.352   1.579 -0.4319 -0.5806  0.3891
 2862SOL    HW120219   4.215   3.365   1.498  0.2928  1.6926  0.3347
 2862SOL    HW220220   4.283   3.258   1.575  0.4620 -0.3250 -1.2738
 2863SOL     OW20221   3.893   0.792   7.742 -0.3253  0.1656  0.0845
 2863SOL    HW120222   3.986   0.814   7.733 -0.4417 -0.4223 -2.5013
 2863SOL    HW220223   3.864   0.823   7.656 -3.0927  2.3044  1.7645
 2864SOL     OW20224   1.078   2.309   3.708 -0.6855  0.0978 -0.0101
 2864SOL    HW120225   1.051   2.217   3.698  2.0494 -0.7420  0.3726
 2864SOL    HW220226   1.121   2.304   3.793  2.3656 -0.0882 -1.5512
 2865SOL     OW20227   3.726   4.549  15.005 -0.3420  0.2987  0.1607
 2865SOL    HW120228   3.641   4.513  14.978 -0.9818  0.3101  2.1738
 2865SOL    HW220229   3.714   4.638  14.974  0.0154  0.5800  0.8192
 2866SOL     OW20230   1.248   0.354   6.861  0.3802 -0.0102 -0.4566
 2866SOL    HW120231   1.165   0.400   6.857  0.8452  0.9234  0.5897
 2866SOL    HW220232   1.215   0.264   6.858  0.2523  0.1636 -3.5693
 2867SOL     OW20233   3.901   1.727  10.077  0.3807  0.4137  0.0501
 2867SOL    HW120234   3.815   1.699  10.107 -0.3798  3.1760  0.4427
 2867SOL    HW220235   3.943   1.755  10.158 -3.2312  1.0580  1.6867
 2868SOL     OW20236   0.031   1.577   5.222  0.2963 -0.3715  0.1189
 2868SOL    HW120237   0.005   1.572   5.314 -0.8545  1.4053 -0.0981
 2868SOL    HW220238   0.115   1.622   5.229  0.2660 -0.0584 -1.5205
 2869SOL     OW20239   0.059   3.849   3.562 -0.7559 -0.1412 -0.7618
 2869SOL    HW120240   0.098   3.805   3.486 -0.3903 -0.7084 -0.2461
 2869SOL    HW220241   0.085   3.781   3.624 -2.2378  0.2463  0.2890
 2870SOL     OW20242   2.945   3.438   1.550  0.1824  0.3399 -0.0190
 2870SOL    HW120243   2.971   3.367   1.609 -0.6735 -0.6815 -0.8732
 2870SOL    HW220244   2.856   3.416   1.523 -0.4190  1.0691  1.3483
 2871SOL     OW20245   3.579   4.013   4.340 -0.0326  0.5221  0.3650
 2871SOL    HW120246   3.541   4.015   4.428  3.3107 -1.9991  1.8526
 2871SOL    HW220247   3.508   3.970   4.292 -0.8533  0.1888  1.8739
 2872SOL     OW20248   1.836   0.207   5.120  0.2244  0.2869  0.6028
 2872SOL    HW120249   1.816   0.122   5.158  0.3202 -0.8887 -1.9689
 2872SOL    HW220250   1.895   0.172   5.053 -1.9393 -1.1399 -0.5481
 2873SOL     OW20251   4.366   4.599   5.716 -0.0002  0.3057  0.3082
 2873SOL    HW120252   4.405   4.515   5.741 -2.3756 -0.8067  0.2352
 2873SOL    HW220253   4.318   4.575   5.637  1.4617 -0.6245 -0.3015
 2874SOL     OW20254   1.484   0.743   7.608  0.7369  0.0763  0.2850
 2874SOL    HW120255   1.528   0.822   7.637 -0.3548  0.4219  1.0215
 2874SOL    HW220256   1.538   0.704   7.539  2.5993 -0.3521  1.9943
 2875SOL     OW20257   0.110   0.071  17.631  0.6765  0.9489  0.0942
 2875SOL    HW120258   0.114   0.077  17.536  3.5130  1.6804  0.2704
 2875SOL    HW220259   0.021   0.105  17.639 -0.1776 -1.1400 -0.3514
 2876SOL     OW20260   3.372   3.070   4.057 -0.2726  0.0576 -0.0159
 2876SOL    HW120261   3.288   3.023   4.058 -0.6802  0.7716 -1.0925
 2876SOL    HW220262   3.429   3.013   4.108  0.0868  1.6793  1.3639
 2877SOL     OW20263   4.588   3.742  11.047 -0.4404  0.0678  0.8926
 2877SOL    HW120264   4.664   3.688  11.069 -2.2994 -2.7787  0.2000
 2877SOL    HW220265   4.517   3.683  11.023  1.4016 -1.6593 -0.1962
 2878SOL     OW20266   4.301   3.256   0.536 -0.3895 -0.5519 -0.7514
 2878SOL    HW120267   4.388   3.217   0.544  0.4167  1.3757 -0.2466
 2878SOL    HW220268   4.319   3.333   0.482  0.1832  1.2426  2.0235
 2879SOL     OW20269   4.061   2.448   7.560  0.0086  0.8574 -0.6964
 2879SOL    HW120270   4.124   2.471   7.629 -1.9891  1.5810  0.8730
 2879SOL    HW220271   3.991   2.513   7.567 -2.0790 -1.7685  2.6903
 2880SOL     OW20272   3.305   2.772   8.395  0.0725  0.0945 -0.1808
 2880SOL    HW120273   3.247   2.742   8.465 -0.9985 -3.7288 -2.6736
 2880SOL    HW220274   3.301   2.698   8.333 -0.1966 -0.8330  0.9461
 2881SOL     OW20275   0.796   1.901   5.162 -0.5648  0.4113  0.5541
 2881SOL    HW120276   0.700   1.902   5.158 -0.6517  1.0521  2.7975
 2881SOL    HW220277   0.820   1.839   5.093 -0.3420 -1.2509  2.1230
 2882SOL     OW20278   4.350   3.202  14.643 -0.1129  0.0453  0.2800
 2882SOL    HW120279   4.441   3.230  14.643  0.2238 -1.0570  0.5020
 2882SOL    HW220280   4.315   3.253  14.716 -0.7917  0.3992 -0.2932
 2883SOL     OW20281   1.274   4.275  14.316  0.2814  0.0842 -0.1581
 2883SOL    HW120282   1.346   4.333  14.339 -0.4523  1.2193 -0.7288
 2883SOL    HW220283   1.214   4.291  14.389 -0.5502 -2.1618 -0.3548
 2884SOL     OW20284   2.348   1.438  15.368  0.0823  0.2688 -0.3022
 2884SOL    HW120285   2.383   1.356  15.334  2.3589  0.5957  1.2600
 2884SOL    HW220286   2.419   1.490  15.407  0.2699  1.0236 -1.6251
 2885SOL     OW20287   0.348   2.379   2.410 -0.3348  0.0272 -0.6409
 2885SOL    HW120288   0.404   2.455   2.392 -0.9532  0.3612 -1.1608
 2885SOL    HW220289   0.262   2.408   2.380 -0.6149 -0.7941 -0.6294
 2886SOL     OW20290   0.947   1.353   4.991  0.0032 -0.3254 -0.0270
 2886SOL    HW120291   0.854   1.374   4.979  0.0108  0.4271  1.1990
 2886SOL    HW220292   0.950   1.381   5.083  0.8532 -0.9000  0.1210
 2887SOL     OW20293   0.786   1.180  12.692 -0.3598 -0.4311  0.0025
 2887SOL    HW120294   0.837   1.219  12.621  1.0619  0.9961  1.8135
 2887SOL    HW220295   0.774   1.091  12.657 -1.0541  0.0703 -1.0218
 2888SOL     OW20296   0.842   3.241  16.122  0.6645  0.3418 -0.4703
 2888SOL    HW120297   0.782   3.210  16.190 -0.0357 -1.2268 -1.8079
 2888SOL    HW220298   0.925   3.195  16.140  0.0098 -0.4631  0.4906
 2889SOL     OW20299   1.328   2.433  13.017  0.2383  0.2448 -0.0472
 2889SOL    HW120300   1.258   2.442  13.081  1.2183 -0.9564  1.1830
 2889SOL    HW220301   1.278   2.395  12.945  2.4240 -2.5579 -0.0643
 2890SOL     OW20302   2.384   2.954   3.788 -0.1144 -0.2433  0.1662
 2890SOL    HW120303   2.423   2.869   3.807 -0.1348  0.1603  2.0429
 2890SOL    HW220304   2.333   2.972   3.867 -1.1649  0.0041 -0.5640
 2891SOL     OW20305   0.812   0.083   4.608  0.4542  0.1343 -0.2307
 2891SOL    HW120306   0.884   0.030   4.642  0.0303  0.7623  1.6169
 2891SOL    HW220307   0.793   0.040   4.525  1.0935  0.1161 -0.3714
 2892SOL     OW20308   1.991   3.964   9.251  0.1438  0.3993  0.4291
 2892SOL    HW120309   2.000   3.976   9.345  2.2541  0.8301  0.1803
 2892SOL    HW220310   1.897   3.949   9.253  0.2948 -0.6245  0.1833
 2893SOL     OW20311   2.832   4.382   8.272  0.1669 -0.3782 -0.0107
 2893SOL    HW120312   2.911   4.333   8.293  0.6321  1.6522  2.9148
 2893SOL    HW220313   2.782   4.349   8.347 -2.3600 -0.4524 -1.7091
 2894SOL     OW20314   4.218   1.605  11.161  0.2744  0.9298 -0.1455
 2894SOL    HW120315   4.252   1.681  11.113  0.4786  0.1571 -1.2269
 2894SOL    HW220316   4.263   1.609  11.245 -0.1299 -1.5289  0.1791
 2895SOL     OW20317   1.966   0.911   3.368  0.0306  0.1525 -0.3839
 2895SOL    HW120318   1.893   0.862   3.405 -0.8780  0.2947 -1.9795
 2895SOL    HW220319   2.043   0.854   3.365  1.5717  2.0152  4.0725
 2896SOL     OW20320   1.329   0.532   7.335  0.1861 -0.0967 -0.3502
 2896SOL    HW120321   1.259   0.597   7.338  1.5366  1.4917 -2.9842
 2896SOL    HW220322   1.338   0.517   7.241 -0.0091 -2.7987  0.0553
 2897SOL     OW20323   3.226   3.608   5.948 -0.4729 -0.0610  0.3462
 2897SOL    HW120324   3.252   3.602   5.856 -1.3839  0.1107  0.0759
 2897SOL    HW220325   3.158   3.541   5.954  0.2553 -0.4723  3.6166
 2898SOL     OW20326   4.116   0.023   2.373  0.2695  0.2934 -0.0682
 2898SOL    HW120327   4.098   0.013   2.467 -1.9285  0.1804 -0.5134
 2898SOL    HW220328   4.118   0.118   2.363  0.0475  0.5566  2.3844
 2899SOL     OW20329   0.638   0.475  15.171  0.4118  0.4374  0.3089
 2899SOL    HW120330   0.652   0.551  15.227 -0.8671  0.6543  0.3512
 2899SOL    HW220331   0.731   0.456  15.168  0.3519  0.3608 -1.1809
 2900SOL     OW20332   2.396   0.989   0.081  1.0328 -0.5414 -0.2149
 2900SOL    HW120333   2.405   0.907   0.129 -0.4866 -0.7269 -0.2493
 2900SOL    HW220334   2.485   1.022   0.075  0.8124  0.1038  0.0332
 2901SOL     OW20335   4.141   2.346   0.407 -1.1589  0.1716  0.1810
 2901SOL    HW120336   4.130   2.252   0.392  0.8974 -0.0038 -0.1647
 2901SOL    HW220337   4.220   2.351   0.461  0.6737  1.7040 -2.6804
 2902SOL     OW20338   3.526   1.203   3.049  0.0647  0.1151 -0.1211
 2902SOL    HW120339   3.522   1.293   3.081  2.5845  0.6945 -1.3972
 2902SOL    HW220340   3.521   1.223   2.956 -0.6057 -0.9398 -0.3184
 2903SOL     OW20341   4.140   2.191   5.258  0.1934  0.1799 -0.0916
 2903SOL    HW120342   4.077   2.259   5.233  0.8703  0.1907 -1.7807
 2903SOL    HW220343   4.190   2.170   5.179 -0.1440 -0.9821 -0.0024
 2904SOL     OW20344   1.580   3.109  12.676 -0.0168  0.1824 -0.9717
 2904SOL    HW120345   1.540   3.163  12.744  1.1631  0.0487 -0.1665
 2904SOL    HW220346   1.531   3.132  12.597  3.0513  0.0235 -2.9314
 2905SOL     OW20347   0.844   1.786   9.241 -0.4724 -0.5037  0.3200
 2905SOL    HW120348   0.875   1.837   9.167  0.3569  2.4248  2.6428
 2905SOL    HW220349   0.930   1.760   9.274 -0.0180 -0.0072 -0.4885
 2906SOL     OW20350   1.785   2.171   3.122 -0.4215  0.2437  0.0235
 2906SOL    HW120351   1.773   2.264   3.141 -0.7941  0.6323 -2.0841
 2906SOL    HW220352   1.718   2.147   3.057  0.1861  3.5249 -1.8487
 2907SOL     OW20353   1.274   1.029   5.482  0.4598  0.1767  0.2389
 2907SOL    HW120354   1.348   1.086   5.500  0.8944 -0.3724  0.1894
 2907SOL    HW220355   1.215   1.058   5.552  1.6420  0.9596  0.9035
 2908SOL     OW20356   4.568   3.760   4.583  0.3089  0.6933  0.2956
 2908SOL    HW120357   4.567   3.729   4.492 -2.7314  0.8371  0.2642
 2908SOL    HW220358   4.653   3.803   4.589  0.5725 -0.1348  2.5625
 2909SOL     OW20359   3.024   3.932  15.773  0.5006 -0.2289 -0.2253
 2909SOL    HW120360   3.017   3.926  15.869  1.5087  0.1533 -0.1200
 2909SOL    HW220361   3.119   3.934  15.759  0.2528 -0.7542 -1.9619
 2910SOL     OW20362   0.387   0.426   7.901  0.0191  0.1763 -0.2167
 2910SOL    HW120363   0.430   0.469   7.826  0.2033  0.5525  0.1057
 2910SOL    HW220364   0.395   0.334   7.875  0.6493  0.4185 -0.8936
 2911SOL     OW20365   3.414   2.087   6.931 -0.1948  0.5253  0.1015
 2911SOL    HW120366   3.498   2.059   6.967 -0.4762 -1.4642 -0.7945
 2911SOL    HW220367   3.453   2.109   6.847  1.2453  3.0961  1.4611
 2912SOL     OW20368   3.181   3.544  15.152 -0.1946  0.1372  0.0828
 2912SOL    HW120369   3.226   3.521  15.071  0.0049 -1.2984  0.5850
 2912SOL    HW220370   3.095   3.551  15.112 -0.8641 -1.4367  1.2236
 2913SOL     OW20371   3.602   2.438  17.417 -0.5042  0.8713 -0.2499
 2913SOL    HW120372   3.689   2.400  17.404 -1.5326 -0.7296 -2.4116
 2913SOL    HW220373   3.579   2.477  17.333 -0.3872 -0.8316 -1.0662
 2914SOL     OW20374   2.717   3.905   9.017 -0.4023 -0.3120 -0.2983
 2914SOL    HW120375   2.769   3.826   8.999 -1.2775 -1.1036  0.6433
 2914SOL    HW220376   2.725   3.962   8.941 -1.1885  2.4143  1.6867
 2915SOL     OW20377   0.796   0.948   5.770 -0.3157  0.1015 -0.4229
 2915SOL    HW120378   0.765   0.860   5.750  0.6545 -0.4777  0.6692
 2915SOL    HW220379   0.811   0.944   5.864 -2.0169  1.5744 -0.0734
 2916SOL     OW20380   3.463   3.274   6.782 -0.2572 -0.1937  0.6448
 2916SOL    HW120381   3.436   3.327   6.857 -0.9830 -0.4462  0.5618
 2916SOL    HW220382   3.421   3.192   6.806 -1.5615  0.3762  0.3140
 2917SOL     OW20383   2.153   1.471   8.779  0.4842 -0.4504  0.5157
 2917SOL    HW120384   2.210   1.548   8.787  0.1418 -0.1510  0.0407
 2917SOL    HW220385   2.095   1.500   8.709 -1.2312 -0.6721  1.8299
 2918SOL     OW20386   2.971   2.252   4.417 -0.2159  0.6240  0.2591
 2918SOL    HW120387   2.994   2.273   4.508  2.0467  0.3674 -0.2519
 2918SOL    HW220388   2.877   2.238   4.427 -0.1437  0.2603  0.4254
 2919SOL     OW20389   4.283   0.100   8.540  0.2777 -0.1138  0.3321
 2919SOL    HW120390   4.345   0.106   8.467  1.1627  0.5575  1.1331
 2919SOL    HW220391   4.263   0.188   8.570  0.6701  0.6527 -1.6444
 2920SOL     OW20392   3.364   1.882   8.489 -0.1019 -0.0540  0.1886
 2920SOL    HW120393   3.334   1.971   8.472  2.0081  0.6942  0.3238
 2920SOL    HW220394   3.393   1.864   8.400 -0.2210  0.0196  0.1346
 2921SOL     OW20395   0.736   0.491   1.539  0.5801 -0.1126 -0.0944
 2921SOL    HW120396   0.737   0.443   1.457  2.1713 -0.4582  0.1251
 2921SOL    HW220397   0.646   0.472   1.565  0.8812  0.5368  1.4520
 2922SOL     OW20398   2.039   0.203   8.867  0.3919  0.0210  0.4271
 2922SOL    HW120399   2.023   0.247   8.951 -1.6450 -0.2733  0.2023
 2922SOL    HW220400   2.070   0.119   8.900  2.5648  0.1793 -1.1992
 2923SOL     OW20401   2.409   3.930   1.808 -0.4792  0.4491 -0.1637
 2923SOL    HW120402   2.362   3.978   1.739 -0.2222  2.1589  0.8479
 2923SOL    HW220403   2.344   3.885   1.862 -0.2572  1.6097  1.0398
 2924SOL     OW20404   1.298   1.755   4.327 -0.5090 -0.1735  0.3626
 2924SOL    HW120405   1.268   1.754   4.237  0.6197 -0.1277 -0.0128
 2924SOL    HW220406   1.355   1.832   4.318 -1.4463  0.5109  0.3047
 2925SOL     OW20407   4.050   1.682   3.305 -0.1145  0.4708 -0.4057
 2925SOL    HW120408   4.107   1.658   3.378 -2.1847 -0.0010  1.0750
 2925SOL    HW220409   3.972   1.715   3.351 -0.9009  0.8062 -1.9735
 2926SOL     OW20410   3.393   3.469   5.165 -0.5030 -0.3310 -0.3905
 2926SOL    HW120411   3.321   3.518   5.127  0.7398  1.7535 -0.0113
 2926SOL    HW220412   3.468   3.503   5.117 -0.7888  2.2204  0.9930
 2927SOL     OW20413   4.718   2.057   2.102 -0.2496  0.2648  0.1931
 2927SOL    HW120414   4.636   2.084   2.061  0.3534 -1.3803 -2.0718
 2927SOL    HW220415   4.712   2.099   2.188  1.1815 -0.6466  0.7465
 2928SOL     OW20416   2.279   3.642   1.983  0.9049  0.3177  0.2308
 2928SOL    HW120417   2.370   3.653   2.009  1.5757  0.9372 -2.3875
 2928SOL    HW220418   2.296   3.616   1.892 -0.7455  1.0625 -0.2985
 2929SOL     OW20419   4.300   0.950  16.554 -0.4446 -0.0087 -0.6473
 2929SOL    HW120420   4.322   1.020  16.614 -1.1203 -0.4713  0.1540
 2929SOL    HW220421   4.386   0.910  16.544 -0.2774  0.1439  0.2418
 2930SOL     OW20422   3.938   1.072   7.215  0.1653  0.2245 -0.0150
 2930SOL    HW120423   3.989   1.051   7.136 -0.6704 -0.4934 -0.3580
 2930SOL    HW220424   3.980   1.015   7.280  0.2233 -0.6700 -0.8377
 2931SOL     OW20425   1.058   1.426   7.137  0.0654 -0.3999  0.4402
 2931SOL    HW120426   1.016   1.413   7.051 -0.8337 -3.1424  1.3048
 2931SOL    HW220427   0.977   1.440   7.185  0.2051 -0.6071  0.7365
 2932SOL     OW20428   0.756   1.200   8.098 -0.4208 -0.9053  0.0422
 2932SOL    HW120429   0.789   1.143   8.028 -0.9711 -2.1713  0.8224
 2932SOL    HW220430   0.784   1.153   8.176 -0.8775  1.1468  1.4487
 2933SOL     OW20431   4.273   0.114   1.733  0.0242  0.0595  0.4473
 2933SOL    HW120432   4.212   0.099   1.806  1.8750 -1.8204  1.6159
 2933SOL    HW220433   4.308   0.026   1.724 -3.4577 -1.2050 -0.5472
 2934SOL     OW20434   3.882   1.182   5.963  0.5601 -0.1968  0.1910
 2934SOL    HW120435   3.828   1.249   6.004 -3.9351 -2.4129 -2.1656
 2934SOL    HW220436   3.972   1.216   5.968  0.2711  0.3829  1.3615
 2935SOL     OW20437   0.016   4.458   6.783 -0.0355  0.3859  0.3503
 2935SOL    HW120438   0.058   4.537   6.751  0.9016 -0.6372 -0.9743
 2935SOL    HW220439   4.670   4.494   6.808  0.6897  2.7262 -0.6284
 2936SOL     OW20440   1.324   3.910   2.458 -0.5874  0.1171  0.0094
 2936SOL    HW120441   1.240   3.893   2.415 -0.2825 -0.4035 -0.3693
 2936SOL    HW220442   1.305   3.996   2.497 -0.6502 -0.3077  0.9083
 2937SOL     OW20443   0.094   4.067   7.764  0.3397 -0.1365  0.2177
 2937SOL    HW120444   0.124   4.128   7.696 -3.0039 -0.2731 -1.3613
 2937SOL    HW220445   0.153   4.105   7.829 -0.2123  0.8524  0.1314
 2938SOL     OW20446   1.245   0.903   7.398 -0.4318  0.0949 -0.0551
 2938SOL    HW120447   1.283   0.846   7.465  0.5178 -0.7755 -1.3434
 2938SOL    HW220448   1.279   0.865   7.316 -1.8834 -1.4927  0.0765
 2939SOL     OW20449   0.074   2.029  16.640  0.3620 -0.2536  0.1005
 2939SOL    HW120450   0.109   1.953  16.593 -1.4938 -0.3899 -1.0760
 2939SOL    HW220451   0.089   2.003  16.731 -1.3493  0.5164  0.5961
 2940SOL     OW20452   4.246   2.661  14.751 -0.1150  0.1528 -0.1204
 2940SOL    HW120453   4.225   2.571  14.724 -0.0958  0.3810 -0.8927
 2940SOL    HW220454   4.341   2.657  14.739 -0.4513 -3.7986 -1.5787
 2941SOL     OW20455   0.696   2.789   5.061  0.6225 -0.1256  0.7946
 2941SOL    HW120456   0.762   2.721   5.078  0.1468 -0.3746  1.6419
 2941SOL    HW220457   0.732   2.817   4.977 -0.6650  0.9022  0.5985
 2942SOL     OW20458   1.446   3.431   6.756  0.3605  0.0165  0.5310
 2942SOL    HW120459   1.438   3.514   6.710 -0.4011  0.5216  1.5716
 2942SOL    HW220460   1.512   3.385   6.703 -0.0415 -0.2854  0.2963
 2943SOL     OW20461   2.281   1.022   5.122 -0.0749  0.2607 -0.2322
 2943SOL    HW120462   2.294   1.115   5.138 -0.1258  0.2070  0.1372
 2943SOL    HW220463   2.331   0.987   5.196 -0.1294  1.4959  0.3910
 2944SOL     OW20464   3.657   3.150   9.974 -0.0460 -0.4191  0.2163
 2944SOL    HW120465   3.625   3.224  10.025  2.2069 -0.2815  1.4088
 2944SOL    HW220466   3.744   3.140  10.013  0.7049  2.0193 -0.8715
 2945SOL     OW20467   4.461   4.011  11.274 -0.2247 -0.2196  0.4779
 2945SOL    HW120468   4.375   4.035  11.308 -0.9899  0.1061 -1.7084
 2945SOL    HW220469   4.447   4.027  11.181  1.6061 -1.8939 -0.0787
 2946SOL     OW20470   1.447   0.955   2.291 -0.3635  0.2799  0.1371
 2946SOL    HW120471   1.522   0.940   2.234  0.3496  1.0092  0.8858
 2946SOL    HW220472   1.441   0.876   2.345 -0.6354 -0.1438 -0.5196
 2947SOL     OW20473   2.073   4.092   7.231  0.1721  0.6479 -0.3008
 2947SOL    HW120474   2.115   4.080   7.146  0.5802 -1.5329  0.2074
 2947SOL    HW220475   2.148   4.107   7.287 -0.5484  2.0808  0.2880
 2948SOL     OW20476   3.365   3.704   4.006 -0.6971  0.0706 -0.4605
 2948SOL    HW120477   3.422   3.677   4.078  0.4649  0.9425 -1.0400
 2948SOL    HW220478   3.420   3.764   3.954 -1.1598  0.1099 -0.8966
 2949SOL     OW20479   3.509   2.433   4.286 -0.0512 -0.2963  0.0303
 2949SOL    HW120480   3.544   2.367   4.345  1.0055  0.2765  0.0497
 2949SOL    HW220481   3.418   2.441   4.316 -0.4370  0.2298 -1.2846
 2950SOL     OW20482   4.361   2.327   2.416 -0.2813  0.4549 -0.6006
 2950SOL    HW120483   4.340   2.393   2.482  0.0192 -1.2234  1.2050
 2950SOL    HW220484   4.350   2.376   2.335  0.1711  0.4903 -0.6406
 2951SOL     OW20485   0.536   2.695   7.480 -0.2388 -0.2968  0.1964
 2951SOL    HW120486   0.473   2.668   7.546 -2.0494 -0.3899 -1.5765
 2951SOL    HW220487   0.521   2.629   7.412 -0.8057 -0.6306  0.6550
 2952SOL     OW20488   2.930   2.136  11.227 -0.8191  0.8747 -0.4798
 2952SOL    HW120489   2.903   2.121  11.317 -0.5751  0.5251 -0.4698
 2952SOL    HW220490   2.870   2.203  11.193 -1.5832 -0.0758 -0.9986
 2953SOL     OW20491   4.510   0.755  17.344  0.1320 -0.1384  0.0197
 2953SOL    HW120492   4.431   0.702  17.360 -0.0894  0.3216  0.4550
 2953SOL    HW220493   4.514   0.818  17.416 -0.9504  1.1985 -1.0791
 2954SOL     OW20494   2.872   2.894   0.156  0.5246  0.5925  0.5560
 2954SOL    HW120495   2.833   2.981   0.164 -2.3568 -0.5588 -0.9285
 2954SOL    HW220496   2.924   2.891   0.236  0.6444  2.0100  0.5347
 2955SOL     OW20497   2.289   1.196  13.657 -0.1723 -0.2388 -0.2105
 2955SOL    HW120498   2.207   1.239  13.680  0.4684  0.8313  0.0873
 2955SOL    HW220499   2.315   1.164  13.744 -0.1128  2.1445  0.6496
 2956SOL     OW20500   0.661   0.113   0.880 -0.2978  0.2237 -0.3809
 2956SOL    HW120501   0.682   0.020   0.866  1.1150  0.5635 -0.5181
 2956SOL    HW220502   0.632   0.144   0.794 -0.3047 -1.8155 -1.1304
 2957SOL     OW20503   2.044   0.080   2.864 -0.0145  0.3893  0.2518
 2957SOL    HW120504   1.987   0.025   2.811 -2.0273  1.2732  1.4800
 2957SOL    HW220505   1.993   0.160   2.880 -0.1805  0.6342 -1.5631
 2958SOL     OW20506   1.101   0.018   4.494  0.6311 -0.2586 -0.7659
 2958SOL    HW120507   1.084   4.685   4.554 -0.4860  0.9711  0.3748
 2958SOL    HW220508   1.197   0.009   4.490  0.9166  2.6045 -0.7178
 2959SOL     OW20509   0.038   3.552   3.111 -0.2563 -0.0930  0.2379
 2959SOL    HW120510   0.047   3.486   3.042  0.7902  0.4843 -0.1794
 2959SOL    HW220511   0.073   3.626   3.060 -0.2129 -1.7359 -2.1047
 2960SOL     OW20512   1.128   3.655   1.898 -0.1203  0.0506  0.2266
 2960SOL    HW120513   1.186   3.633   1.971  0.5765  0.8240 -0.0934
 2960SOL    HW220514   1.174   3.726   1.853 -0.1108  0.2929  0.6151
 2961SOL     OW20515   1.752   3.663   2.138 -0.5139 -0.1503  0.0121
 2961SOL    HW120516   1.795   3.683   2.220  2.6518 -2.0398 -1.2041
 2961SOL    HW220517   1.699   3.740   2.116 -3.7385 -2.3971 -0.0772
 2962SOL     OW20518   3.473   3.343   1.529 -0.7770  0.3000  0.1695
 2962SOL    HW120519   3.408   3.336   1.459  1.0057  3.2395 -1.7549
 2962SOL    HW220520   3.437   3.410   1.588  0.7762  0.9572  0.3603
 2963SOL     OW20521   3.008   0.948   2.642 -0.3067 -0.3660  0.2178
 2963SOL    HW120522   3.014   0.979   2.551 -2.1398  2.1782  0.9615
 2963SOL    HW220523   2.935   1.005   2.667  2.1181  2.1181  1.6586
 2964SOL     OW20524   3.058   2.800   8.052 -0.1987  0.0065  0.2144
 2964SOL    HW120525   3.006   2.853   8.112 -0.6439 -0.4132  0.2009
 2964SOL    HW220526   3.121   2.862   8.014 -0.1702  0.5821  1.1909
 2965SOL     OW20527   4.494   2.144   7.102 -0.3803 -0.0609 -0.6334
 2965SOL    HW120528   4.534   2.156   7.188  0.4773 -0.4582 -0.9838
 2965SOL    HW220529   4.484   2.236   7.080  2.7518  0.0276 -1.5791
 2966SOL     OW20530   1.181   1.020   2.388 -0.4160  0.0121 -0.6199
 2966SOL    HW120531   1.138   1.063   2.314  0.1065 -1.0101 -1.5087
 2966SOL    HW220532   1.253   0.985   2.336 -0.7591 -1.5737 -0.0094
 2967SOL     OW20533   4.474   0.451  17.518  0.3195  0.2571 -0.3992
 2967SOL    HW120534   4.457   0.526  17.575  2.3826 -0.3211  0.9573
 2967SOL    HW220535   4.403   0.459  17.453  0.1675  0.8519 -0.1659
 2968SOL     OW20536   0.176   1.390   9.729 -0.4163 -0.4870 -0.3668
 2968SOL    HW120537   0.153   1.418   9.818 -0.8085 -1.4262 -0.1720
 2968SOL    HW220538   0.264   1.428   9.733 -0.8970  0.5751  0.1090
 2969SOL     OW20539   0.397   4.736  15.476  0.0606 -0.2507 -0.0532
 2969SOL    HW120540   0.422   0.016  15.566  0.5831 -0.7441 -0.0919
 2969SOL    HW220541   0.382   4.642  15.470 -1.3366  0.0783 -1.5537
 2970SOL     OW20542   1.692   3.178   5.013 -0.3561 -0.2376  0.2999
 2970SOL    HW120543   1.680   3.264   4.971  1.6081 -0.1993 -0.1948
 2970SOL    HW220544   1.677   3.189   5.107 -0.6136 -3.1466  0.5747
 2971SOL     OW20545   4.000   2.143   4.526  0.0722  0.0378 -0.3236
 2971SOL    HW120546   3.970   2.073   4.468 -0.3206  0.0240 -0.1007
 2971SOL    HW220547   4.029   2.205   4.459  1.3401  1.8282  1.8963
 2972SOL     OW20548   3.350   0.621  16.366  0.9781 -0.2981  0.2375
 2972SOL    HW120549   3.360   0.640  16.272  0.2988 -1.4183 -0.0642
 2972SOL    HW220550   3.359   0.526  16.377 -0.1065 -0.4172  0.1003
 2973SOL     OW20551   4.545   2.347  15.559 -0.4554  0.3044 -0.3007
 2973SOL    HW120552   4.610   2.290  15.519 -0.4667 -0.5579  0.9143
 2973SOL    HW220553   4.589   2.381  15.636  0.9554 -1.9386 -0.1351
 2974SOL     OW20554   4.085   0.434   6.304 -0.1611 -0.1322  0.3327
 2974SOL    HW120555   4.067   0.490   6.229 -0.3297  0.0378  0.5013
 2974SOL    HW220556   4.179   0.420   6.308 -0.1376 -0.2606 -0.8428
 2975SOL     OW20557   4.246   3.131   2.241 -0.0139 -0.5943 -0.0492
 2975SOL    HW120558   4.282   3.060   2.187  0.0762 -1.4359  1.1117
 2975SOL    HW220559   4.153   3.124   2.219  0.3744  0.7095 -2.1031
 2976SOL     OW20560   2.628   3.999   6.154  0.0940  0.5975  0.2351
 2976SOL    HW120561   2.649   3.934   6.221  0.1054 -0.6763 -1.0108
 2976SOL    HW220562   2.713   4.012   6.114  0.1421 -0.6051 -0.0462
 2977SOL     OW20563   0.827   2.259  12.993  0.6546  0.3073 -0.2142
 2977SOL    HW120564   0.919   2.234  12.982  0.3019 -2.5705  3.0062
 2977SOL    HW220565   0.829   2.351  12.967  1.7526  0.8844  1.8577
 2978SOL     OW20566   0.900   3.959   5.719  0.2076  0.3449 -0.0313
 2978SOL    HW120567   0.846   3.960   5.640 -2.2275  0.8534  1.6517
 2978SOL    HW220568   0.930   4.050   5.722 -1.6212  0.8837  1.6424
 2979SOL     OW20569   3.363   4.157   3.735  0.6402  0.0565 -0.1398
 2979SOL    HW120570   3.292   4.135   3.795  1.1595 -0.1589  0.4040
 2979SOL    HW220571   3.412   4.225   3.781  0.4206  0.0707  0.0739
 2980SOL     OW20572   1.279   1.144   6.820  0.3554  0.5626 -0.2009
 2980SOL    HW120573   1.259   1.113   6.731 -0.2591  0.7401 -0.1270
 2980SOL    HW220574   1.365   1.184   6.808 -0.6125  2.6730 -0.1714
 2981SOL     OW20575   4.543   2.006  16.781  0.0573  0.0356 -0.1104
 2981SOL    HW120576   4.593   1.935  16.823 -0.5128  0.1273  0.7015
 2981SOL    HW220577   4.595   2.013  16.700  1.4995  0.4549  0.8424
 2982SOL     OW20578   2.049   2.002   7.297 -0.0043  0.0492  0.0959
 2982SOL    HW120579   2.075   2.037   7.381 -1.1766 -0.4080  0.6464
 2982SOL    HW220580   2.103   2.050   7.234  0.5399 -1.5361 -0.6700
 2983SOL     OW20581   1.742   3.206   7.386  0.4714  0.6135 -0.2648
 2983SOL    HW120582   1.721   3.234   7.475  0.1706 -0.9402  0.1656
 2983SOL    HW220583   1.661   3.229   7.340 -0.2425 -0.7479  0.2953
 2984SOL     OW20584   2.345   3.495   3.641 -0.2718 -0.5560 -0.2168
 2984SOL    HW120585   2.423   3.452   3.675  0.4198  1.6735  1.0221
 2984SOL    HW220586   2.374   3.586   3.637 -1.1357 -0.2265  1.0668
 2985SOL     OW20587   3.834   3.800   9.611  0.6059  0.0635 -0.2193
 2985SOL    HW120588   3.785   3.760   9.539 -1.7459 -0.9680  1.9476
 2985SOL    HW220589   3.803   3.889   9.628 -2.8649 -1.2267  0.1656
 2986SOL     OW20590   4.294   1.630  10.523 -0.1665  0.0947 -0.0831
 2986SOL    HW120591   4.314   1.621  10.617  1.3911  1.5379 -0.2736
 2986SOL    HW220592   4.221   1.692  10.530  0.4956  0.8979 -0.3959
 2987SOL     OW20593   3.948   2.099   7.777 -0.0168  0.0422  0.0765
 2987SOL    HW120594   4.038   2.128   7.773  0.1421 -0.7560 -2.3660
 2987SOL    HW220595   3.920   2.100   7.869 -0.0150 -1.8295  0.1009
 2988SOL     OW20596   2.425   4.099   7.254 -0.1399  0.0565  0.9187
 2988SOL    HW120597   2.352   4.122   7.312 -0.3861  0.1335  0.5760
 2988SOL    HW220598   2.391   4.019   7.214  0.4581  0.4777 -0.4204
 2989SOL     OW20599   3.528   4.477   7.860 -0.1750 -0.0998  0.5304
 2989SOL    HW120600   3.483   4.431   7.931  0.5500  0.3111  1.2658
 2989SOL    HW220601   3.510   4.568   7.882 -1.2859  0.5440 -3.1156
 2990SOL     OW20602   3.609   4.352   6.088  0.1855 -0.5343  0.4069
 2990SOL    HW120603   3.521   4.381   6.111 -0.3805 -0.9877 -1.2200
 2990SOL    HW220604   3.659   4.390   6.161 -2.9499  0.6850  1.9189
 2991SOL     OW20605   0.385   2.477  17.663  0.0773 -0.1092 -0.2951
 2991SOL    HW120606   0.437   2.555  17.685 -0.8008 -0.1662  2.0545
 2991SOL    HW220607   0.433   2.449  17.585  1.4385  0.4540  0.3307
 2992SOL     OW20608   0.898   2.910   6.198 -0.3587  0.4043 -0.5097
 2992SOL    HW120609   0.883   2.989   6.249  1.5745 -0.8707  2.0580
 2992SOL    HW220610   0.878   2.946   6.112  1.3605  3.9178  0.5646
 2993SOL     OW20611   4.498   4.452   3.460 -0.1453 -0.2099 -0.2031
 2993SOL    HW120612   4.559   4.519   3.430  0.1058  0.2345  1.3058
 2993SOL    HW220613   4.551   4.372   3.459  1.4692  0.8798 -0.0085
 2994SOL     OW20614   4.337   3.827  12.827  0.4733  0.3861  0.6201
 2994SOL    HW120615   4.251   3.816  12.869  0.5823 -1.0485  0.4395
 2994SOL    HW220616   4.368   3.889  12.894 -0.2218  0.7744  0.5870
 2995SOL     OW20617   2.967   1.917   3.025  0.0289 -0.2276  0.4083
 2995SOL    HW120618   3.044   1.974   3.021  0.4422 -0.8120  0.0417
 2995SOL    HW220619   2.900   1.981   3.047 -1.1694 -0.1069 -3.6802
 2996SOL     OW20620   3.875   2.163  15.130  0.0893 -0.5025 -0.0599
 2996SOL    HW120621   3.913   2.247  15.103  2.2742 -0.9752  1.5226
 2996SOL    HW220622   3.784   2.177  15.153  0.8325  2.2382  1.2708
 2997SOL     OW20623   1.634   1.513   1.844  0.5037 -0.2592 -0.1055
 2997SOL    HW120624   1.656   1.425   1.812  0.3747 -0.6636  0.9219
 2997SOL    HW220625   1.601   1.493   1.932  1.1811 -1.4483 -0.1125
 2998SOL     OW20626   2.802   0.937   6.549  0.2181  0.4066 -0.2653
 2998SOL    HW120627   2.761   0.851   6.545  1.5266 -0.3785  2.6920
 2998SOL    HW220628   2.745   0.992   6.602 -2.2548 -1.4571 -0.9543
 2999SOL     OW20629   0.873   0.595   1.763  0.1993 -0.8684 -0.8689
 2999SOL    HW120630   0.825   0.537   1.704 -2.5568  0.3434  0.1489
 2999SOL    HW220631   0.836   0.567   1.846 -1.6770 -1.4646 -1.8911
 3000SOL     OW20632   3.943   4.631  14.057 -0.0214  0.2770  0.3605
 3000SOL    HW120633   3.931   4.605  13.966 -0.9917  0.0378  0.5517
 3000SOL    HW220634   4.031   4.668  14.054  0.3869 -0.7306  0.0911
 3001SOL     OW20635   1.011   0.911  11.392 -0.0002  0.0305  0.0360
 3001SOL    HW120636   0.946   0.948  11.332  1.6128  1.5953 -0.7226
 3001SOL    HW220637   0.999   0.818  11.369 -2.7319  0.7022 -1.2476
 3002SOL     OW20638   0.111   2.680  17.041  0.1303 -0.4878 -0.3236
 3002SOL    HW120639   0.103   2.735  16.963  1.8269 -1.2514 -1.0434
 3002SOL    HW220640   0.142   2.741  17.107  0.1594 -1.4239  0.5282
 3003SOL     OW20641   3.529   4.365   2.424  0.8751 -0.2477  0.0606
 3003SOL    HW120642   3.570   4.451   2.436  4.1859 -1.8900  0.4859
 3003SOL    HW220643   3.575   4.330   2.348  0.1916  0.5525 -0.7185
 3004SOL     OW20644   0.186   3.705   2.403  0.2666 -1.2865  0.2530
 3004SOL    HW120645   0.145   3.745   2.479  2.8468  1.9678 -0.0661
 3004SOL    HW220646   0.268   3.692   2.451  0.8531  2.2705  0.1995
 3005SOL     OW20647   3.960   0.141   1.731  0.2214  0.0997  0.0591
 3005SOL    HW120648   4.017   0.122   1.656  0.4715  1.1270 -0.0066
 3005SOL    HW220649   3.875   0.110   1.698  0.2735  1.0578 -0.9852
 3006SOL     OW20650   3.039   1.962   2.606  0.2608  0.1573 -0.3564
 3006SOL    HW120651   2.991   1.922   2.679 -0.1785 -0.0715 -0.7733
 3006SOL    HW220652   3.088   1.887   2.574  1.1256  0.4675  0.2537
 3007SOL     OW20653   0.183   0.351   6.139  0.0722 -0.1500  0.4887
 3007SOL    HW120654   0.232   0.434   6.143 -0.9693  0.5615 -1.4872
 3007SOL    HW220655   0.184   0.334   6.045 -2.6172  0.9779  0.2654
 3008SOL     OW20656   0.770   0.272   2.782 -0.4588 -0.2137  0.3503
 3008SOL    HW120657   0.726   0.214   2.720  0.8021 -0.0415 -0.7265
 3008SOL    HW220658   0.715   0.274   2.860  0.1596 -1.0805  0.8061
 3009SOL     OW20659   1.550   3.855   4.827  0.7783 -0.2337  0.4125
 3009SOL    HW120660   1.464   3.865   4.788  1.3606 -0.0800 -0.8319
 3009SOL    HW220661   1.545   3.761   4.842 -3.2492  0.1382  1.4144
 3010SOL     OW20662   1.792   2.506   5.924 -0.6559  0.2601 -0.6516
 3010SOL    HW120663   1.847   2.440   5.966 -1.2760  0.3578  0.2993
 3010SOL    HW220664   1.757   2.541   6.005 -0.1034 -1.5265  0.3590
 3011SOL     OW20665   2.610   1.668  12.184 -0.3737  0.1704 -0.5676
 3011SOL    HW120666   2.621   1.639  12.094  1.0506 -0.2800 -0.2349
 3011SOL    HW220667   2.532   1.620  12.213 -0.6471  1.3630  0.6723
 3012SOL     OW20668   3.941   3.201   9.716 -0.1963  0.0114 -0.4498
 3012SOL    HW120669   3.956   3.197   9.810 -0.3171 -1.2277 -0.4930
 3012SOL    HW220670   3.945   3.297   9.710 -1.3522  0.1790  1.7300
 3013SOL     OW20671   0.546   3.997   6.855  0.0855 -0.1330 -0.4577
 3013SOL    HW120672   0.641   4.002   6.868 -0.1021  0.4836  0.6304
 3013SOL    HW220673   0.538   3.930   6.787 -2.5429  1.4389 -1.6680
 3014SOL     OW20674   3.123   0.398   5.416  0.0211 -0.1240  0.0078
 3014SOL    HW120675   3.043   0.447   5.437  0.6978  0.5294  1.0544
 3014SOL    HW220676   3.187   0.432   5.479  0.0741  0.4646 -0.3706
 3015SOL     OW20677   0.356   3.230  12.734  0.1315  0.0787  0.1162
 3015SOL    HW120678   0.337   3.291  12.663 -0.2956  2.7841  2.5314
 3015SOL    HW220679   0.404   3.289  12.792  0.1402  0.4867 -0.3072
 3016SOL     OW20680   0.352   1.517  11.133 -0.4762  0.0303  0.4431
 3016SOL    HW120681   0.418   1.474  11.187  0.5782 -0.1840 -1.0003
 3016SOL    HW220682   0.288   1.531  11.203 -0.9644 -2.6182  0.5440
 3017SOL     OW20683   4.286   0.192   5.185  0.2050 -0.5064 -0.0589
 3017SOL    HW120684   4.354   0.259   5.183 -0.6842  0.3834 -0.6839
 3017SOL    HW220685   4.228   0.220   5.115 -0.3640 -1.7483 -0.0940
 3018SOL     OW20686   1.851   4.700  11.589  0.3460  0.1649  0.2666
 3018SOL    HW120687   1.815   4.706  11.677  0.9118  0.7298  0.4625
 3018SOL    HW220688   1.934   0.008  11.593 -1.2265  2.9806  0.4532
 3019SOL     OW20689   3.599   1.331   2.568 -0.0164 -0.2866  0.4820
 3019SOL    HW120690   3.583   1.341   2.662 -0.4988 -1.5203  0.5336
 3019SOL    HW220691   3.509   1.339   2.537  0.6238 -0.2453 -1.3135
 3020SOL     OW20692   3.671   1.467   0.762  0.3377  0.0974  0.4218
 3020SOL    HW120693   3.756   1.434   0.732  0.7255  1.6497 -0.2031
 3020SOL    HW220694   3.700   1.513   0.841  1.5202  1.5379 -0.8497
 3021SOL     OW20695   2.918   3.712  13.514  0.0553 -0.1675  0.6837
 3021SOL    HW120696   2.970   3.707  13.434  0.1280  1.8478  0.6050
 3021SOL    HW220697   2.908   3.806  13.529  0.9361 -0.1438  1.1440
 3022SOL     OW20698   2.845   3.827   9.316 -0.3414 -0.6821 -0.2302
 3022SOL    HW120699   2.890   3.839   9.400 -2.4878  3.1570  0.3853
 3022SOL    HW220700   2.861   3.733   9.304  0.5850 -0.9738  3.2024
 3023SOL     OW20701   0.999   4.470   1.115 -0.1043 -0.0452 -0.3251
 3023SOL    HW120702   1.011   4.525   1.038  3.2969  0.5320  0.6182
 3023SOL    HW220703   0.966   4.394   1.066 -1.5178 -0.3513  1.0972
 3024SOL     OW20704   2.683   1.070   2.235  0.5949  0.0126 -0.0141
 3024SOL    HW120705   2.602   1.065   2.183 -0.6057 -0.6833  1.9296
 3024SOL    HW220706   2.681   0.993   2.291 -1.9168 -1.1323 -1.6741
 3025SOL     OW20707   4.455   3.959   7.547  0.1813 -0.2262 -0.0935
 3025SOL    HW120708   4.534   3.937   7.499  0.9555 -2.0265  1.9525
 3025SOL    HW220709   4.490   4.010   7.620 -0.4292 -2.6689  1.9455
 3026SOL     OW20710   2.419   3.704   1.134  0.6066  0.6840  0.0248
 3026SOL    HW120711   2.372   3.747   1.206  2.1091  1.7989  0.3629
 3026SOL    HW220712   2.491   3.670   1.187 -0.5310 -1.1777  0.3487
 3027SOL     OW20713   2.252   1.643  17.378 -0.1584 -0.1225 -0.0485
 3027SOL    HW120714   2.250   1.549  17.361  1.7618 -0.2975  0.6698
 3027SOL    HW220715   2.276   1.640  17.471 -1.7131 -0.5828  0.3554
 3028SOL     OW20716   0.784   0.598   6.500  0.4473 -0.3030 -0.2227
 3028SOL    HW120717   0.809   0.549   6.578 -1.7059  1.2823  1.4725
 3028SOL    HW220718   0.786   0.525   6.439 -1.3123  1.3241 -2.2324
 3029SOL     OW20719   4.081   1.610   8.574  0.8184  0.1655 -0.0469
 3029SOL    HW120720   4.055   1.520   8.596 -3.8670  1.2052 -1.1927
 3029SOL    HW220721   4.070   1.619   8.479 -2.2722  0.7502  0.3417
 3030SOL     OW20722   3.879   0.021   4.735 -0.3993 -0.0469  0.3885
 3030SOL    HW120723   3.832   0.062   4.662  0.5877  0.7409  0.2006
 3030SOL    HW220724   3.896   4.678   4.689 -2.0834 -0.5693  0.7070
 3031SOL     OW20725   2.721   4.706   8.448  0.5072 -0.5525 -0.2766
 3031SOL    HW120726   2.625   4.713   8.442  0.4744 -0.9420 -0.1645
 3031SOL    HW220727   2.752   4.705   8.357  0.3697 -1.4599 -0.3113
 3032SOL     OW20728   2.977   0.784   1.974 -0.0089  0.2115  0.1574
 3032SOL    HW120729   2.903   0.726   1.991  0.5407 -0.6297 -0.3039
 3032SOL    HW220730   2.937   0.868   1.998 -0.7108  0.0983 -0.6588
 3033SOL     OW20731   0.923   0.121   9.540  0.1637 -0.2712  0.1073
 3033SOL    HW120732   0.940   0.208   9.504  2.4498 -0.5430  0.5320
 3033SOL    HW220733   0.977   0.124   9.618 -0.4821 -0.3886  0.5617
 3034SOL     OW20734   3.422   2.703   3.506 -0.5165  0.0502  0.1035
 3034SOL    HW120735   3.389   2.774   3.452  0.4335  1.5568  1.5307
 3034SOL    HW220736   3.491   2.749   3.552 -0.7085 -0.6435  1.0897
 3035SOL     OW20737   0.774   3.269   2.710 -0.0321 -0.2150  0.3775
 3035SOL    HW120738   0.809   3.202   2.651  1.4361  0.5259  0.4041
 3035SOL    HW220739   0.844   3.277   2.774 -0.9831 -1.1622  1.5488
 3036SOL     OW20740   0.415   3.186  11.503 -0.1390 -0.0900  0.4089
 3036SOL    HW120741   0.447   3.124  11.568 -0.8181  2.0287  2.7445
 3036SOL    HW220742   0.484   3.180  11.437  0.6565  2.7879  0.9996
 3037SOL     OW20743   2.097   3.768   4.206  0.0953  0.5750  1.0146
 3037SOL    HW120744   2.162   3.834   4.183  2.9889 -2.5791 -0.0105
 3037SOL    HW220745   2.060   3.741   4.121  1.8117  1.3138  0.0282
 3038SOL     OW20746   1.639   4.484   4.370 -0.0664  0.2266  0.3825
 3038SOL    HW120747   1.673   4.401   4.337 -0.5713  0.4307 -0.6693
 3038SOL    HW220748   1.644   4.466   4.464  4.0782  1.3498  0.3918
 3039SOL     OW20749   1.460   0.862  13.117  0.6606 -0.1079  1.0255
 3039SOL    HW120750   1.544   0.905  13.136  1.2955 -0.1910 -1.6354
 3039SOL    HW220751   1.490   0.831  13.032  0.0877  3.3686 -0.4343
 3040SOL     OW20752   0.533   3.528   2.927 -0.3082  0.2198 -0.1878
 3040SOL    HW120753   0.576   3.546   3.011  1.1884 -2.2540 -0.4260
 3040SOL    HW220754   0.539   3.615   2.887  0.9945  0.6242  0.8577
 3041SOL     OW20755   0.007   2.329   0.876 -0.0283  0.5026 -0.0660
 3041SOL    HW120756   0.061   2.359   0.803  3.1328  0.6146  2.3124
 3041SOL    HW220757   4.690   2.267   0.830 -1.0214  2.2532 -1.2337
 3042SOL     OW20758   4.663   4.283   0.056 -0.2577 -0.1521 -0.4531
 3042SOL    HW120759   4.720   4.344   0.010  1.8037 -1.9504 -0.2669
 3042SOL    HW220760   4.590   4.274  17.749 -0.7747  0.5188  0.0670
 3043SOL     OW20761   4.269   4.106  12.143 -0.5625 -0.8291 -0.5395
 3043SOL    HW120762   4.179   4.107  12.110 -0.9772  1.5865  0.7122
 3043SOL    HW220763   4.283   4.192  12.182  0.4322 -0.3192 -2.0148
 3044SOL     OW20764   1.279   2.016   8.334 -0.2461  0.3402 -0.5555
 3044SOL    HW120765   1.250   1.926   8.317 -0.8058  0.8061 -2.0476
 3044SOL    HW220766   1.337   2.043   8.263  2.9910 -1.9218  1.2592
 3045SOL     OW20767   4.467   2.218   5.667  0.3476 -0.0016  0.1908
 3045SOL    HW120768   4.392   2.217   5.607 -0.5735  0.0667  1.3544
 3045SOL    HW220769   4.535   2.243   5.604  0.7295  0.1503  0.6664
 3046SOL     OW20770   0.790   1.260   5.741 -0.1441 -0.1360  0.2212
 3046SOL    HW120771   0.866   1.236   5.794  0.7125 -3.0465 -2.3244
 3046SOL    HW220772   0.726   1.190   5.753 -1.8009  1.4709  0.8147
 3047SOL     OW20773   0.164   0.083   4.317 -0.4128 -0.1198  0.8507
 3047SOL    HW120774   0.202   4.737   4.297  3.2575  1.4334  1.2818
 3047SOL    HW220775   0.226   0.137   4.365 -0.1970  0.0030  0.4362
 3048SOL     OW20776   0.226   1.167   2.502  0.2562  0.3667  0.3322
 3048SOL    HW120777   0.302   1.123   2.540  0.6277  0.5501 -0.2007
 3048SOL    HW220778   0.280   1.213   2.438 -0.4307 -1.1476 -1.3427
 3049SOL     OW20779   2.085   0.218   8.232  0.2782  0.1198  1.1471
 3049SOL    HW120780   2.031   0.297   8.234 -0.9453 -0.6727  0.0332
 3049SOL    HW220781   2.167   0.239   8.275 -0.1590  2.4692  0.8441
 3050SOL     OW20782   4.268   2.768  16.260 -0.0825 -0.4966 -0.0627
 3050SOL    HW120783   4.352   2.811  16.279 -0.0149 -1.5913  2.1618
 3050SOL    HW220784   4.251   2.795  16.170  1.4080 -0.6168 -0.3800
 3051SOL     OW20785   4.446   3.183   9.251  0.1360 -0.5774 -0.2395
 3051SOL    HW120786   4.539   3.182   9.275 -0.0352  1.6282  0.5388
 3051SOL    HW220787   4.429   3.273   9.225  0.3803 -0.6948 -0.7901
 3052SOL     OW20788   2.322   2.443   6.215  0.0728 -0.0489 -0.2557
 3052SOL    HW120789   2.292   2.360   6.253  1.4208  0.2051  1.3531
 3052SOL    HW220790   2.414   2.455   6.241 -0.7897 -0.9350  3.2219
 3053SOL     OW20791   0.486   3.517   0.414  0.2422 -0.7071 -0.4226
 3053SOL    HW120792   0.442   3.586   0.364 -0.3752 -0.5244  0.3813
 3053SOL    HW220793   0.463   3.533   0.505 -1.9247  0.0975 -1.0864
 3054SOL     OW20794   1.632   2.316   2.322 -0.0558  0.0515  0.1479
 3054SOL    HW120795   1.724   2.302   2.342  0.3729  1.9535 -0.4467
 3054SOL    HW220796   1.611   2.381   2.389  2.0182 -0.5690  1.3766
 3055SOL     OW20797   0.985   4.173   5.368 -0.4715  0.3354 -0.1560
 3055SOL    HW120798   1.071   4.133   5.352  0.5938  0.6318  4.8650
 3055SOL    HW220799   0.976   4.229   5.291  0.2967 -1.5755 -1.6313
 3056SOL     OW20800   2.775   4.073   2.399  0.0513  0.3113  0.6260
 3056SOL    HW120801   2.751   3.981   2.401 -0.3475  0.3771 -0.9583
 3056SOL    HW220802   2.704   4.111   2.348  0.0943  0.0080  0.3427
 3057SOL     OW20803   4.663   4.509   0.279  0.1498  0.2040 -0.0760
 3057SOL    HW120804   4.618   4.441   0.328  1.0186 -0.0721  0.3376
 3057SOL    HW220805   4.643   4.488   0.187 -0.4754 -0.7113  0.2710
 3058SOL     OW20806   1.682   3.004   3.418  0.3799  0.4051  0.1000
 3058SOL    HW120807   1.644   2.956   3.491  1.6298 -0.8013 -0.0335
 3058SOL    HW220808   1.667   3.095   3.444  1.3182  0.9985 -1.3855
 3059SOL     OW20809   4.382   2.477   2.192  0.0801  0.5563 -0.2928
 3059SOL    HW120810   4.398   2.447   2.102  0.6874  0.7597 -0.2548
 3059SOL    HW220811   4.303   2.530   2.178 -0.4739 -0.2998 -0.4105
 3060SOL     OW20812   0.647   0.877   6.887 -0.0748 -0.3354 -0.2201
 3060SOL    HW120813   0.666   0.953   6.941 -1.0646 -0.3530  0.1523
 3060SOL    HW220814   0.715   0.883   6.819  2.4973  1.1825  2.4675
 3061SOL     OW20815   0.674   2.678   3.659 -0.4101 -0.0377  0.0167
 3061SOL    HW120816   0.699   2.770   3.651 -1.0497  0.1001 -0.3475
 3061SOL    HW220817   0.765   2.657   3.682 -0.3908  2.2449  2.0627
 3062SOL     OW20818   2.185   2.709  14.764 -0.5182 -0.2187  0.3353
 3062SOL    HW120819   2.198   2.616  14.745 -1.5049 -0.1111 -0.8719
 3062SOL    HW220820   2.248   2.753  14.707  0.0250  0.1624  1.2340
 3063SOL     OW20821   0.113   2.852   2.563 -0.1680  0.3586 -0.0206
 3063SOL    HW120822   0.118   2.941   2.527 -0.9583 -0.0024 -1.0099
 3063SOL    HW220823   0.081   2.880   2.649 -0.5424 -0.7213  0.1793
 3064SOL     OW20824   1.311   0.845   2.572  0.3789  0.2735 -0.6371
 3064SOL    HW120825   1.262   0.920   2.540  0.5482  0.6502 -0.0111
 3064SOL    HW220826   1.351   0.884   2.650  0.1600 -1.0221  0.1353
 3065SOL     OW20827   0.343   1.176   3.332  0.2977  0.5743  0.0950
 3065SOL    HW120828   0.319   1.109   3.268  1.3476 -0.1505  0.4623
 3065SOL    HW220829   0.403   1.228   3.278 -0.3341  0.6255 -0.5563
 3066SOL     OW20830   1.303   3.409  12.361  0.3998 -0.2628  0.2791
 3066SOL    HW120831   1.256   3.406  12.444 -0.5596  2.0595 -0.1842
 3066SOL    HW220832   1.361   3.333  12.369  1.2762  0.6525  2.8903
 3067SOL     OW20833   1.925   4.426   1.775  0.3070 -0.1048 -0.5266
 3067SOL    HW120834   1.945   4.517   1.754 -0.5269  0.2405  0.1805
 3067SOL    HW220835   1.934   4.385   1.689  0.2447  1.0896 -1.1068
 3068SOL     OW20836   4.299   3.552   8.839 -0.5114 -0.2279 -0.0887
 3068SOL    HW120837   4.213   3.534   8.800 -0.9937  0.1744  0.7951
 3068SOL    HW220838   4.294   3.537   8.933 -0.7335  1.2323  0.1218
 3069SOL     OW20839   2.365   3.696  11.128 -0.0578 -0.1786 -0.5868
 3069SOL    HW120840   2.350   3.629  11.062 -0.7491  1.4618 -2.0778
 3069SOL    HW220841   2.386   3.655  11.212 -0.8130  3.7495  1.5241
 3070SOL     OW20842   0.342   4.475  15.496  0.0555  0.4007  0.5009
 3070SOL    HW120843   0.433   4.447  15.500  0.1034  0.4713 -0.0590
 3070SOL    HW220844   0.298   4.392  15.480  1.0121 -0.3757  1.9350
 3071SOL     OW20845   2.546   2.906  17.232 -0.8268 -0.1428  0.4191
 3071SOL    HW120846   2.458   2.913  17.197 -1.6899  0.0290  2.6203
 3071SOL    HW220847   2.589   2.848  17.170  0.6972  2.0424 -0.5939
 3072SOL     OW20848   2.300   1.230   0.085 -0.4600  0.0089  0.0041
 3072SOL    HW120849   2.324   1.138   0.077 -1.6116 -0.1985 -1.0566
 3072SOL    HW220850   2.223   1.227   0.143  0.2361 -1.7465  0.8205
 3073SOL     OW20851   1.339   3.678   3.378  0.3699 -0.4766  0.2176
 3073SOL    HW120852   1.295   3.759   3.352 -0.6316 -0.6811  1.2965
 3073SOL    HW220853   1.311   3.682   3.469 -1.6328 -0.7312 -0.4015
 3074SOL     OW20854   4.648   4.380   4.844  0.3239 -0.0099  0.1549
 3074SOL    HW120855   4.665   4.298   4.889 -1.5585  0.9166  2.6021
 3074SOL    HW220856   4.728   4.426   4.869  1.0272 -1.5832  0.7570
 3075SOL     OW20857   2.011   0.704   5.737  0.0690  0.2582 -0.4419
 3075SOL    HW120858   1.995   0.637   5.803 -0.8880 -0.3073 -1.2389
 3075SOL    HW220859   1.972   0.785   5.769 -1.7411 -1.7287  2.3197
 3076SOL     OW20860   3.218   4.323  17.343  0.2580 -0.1621 -0.6548
 3076SOL    HW120861   3.255   4.408  17.365 -0.8642  0.0937  0.2442
 3076SOL    HW220862   3.242   4.280  17.426  1.8668 -1.4062 -1.7639
 3077SOL     OW20863   2.213   1.597  17.652 -0.2825 -0.4307 -0.1239
 3077SOL    HW120864   2.245   1.530  17.712 -0.6942 -1.1982 -0.7689
 3077SOL    HW220865   2.130   1.616  17.696  0.1662  0.9666  0.1151
 3078SOL     OW20866   1.707   4.311  11.578  0.2457 -0.0368  0.5233
 3078SOL    HW120867   1.713   4.349  11.665  0.3123  0.1280  0.4472
 3078SOL    HW220868   1.761   4.372  11.528 -0.0201  1.3578  1.9501
 3079SOL     OW20869   2.041   1.897  13.412 -0.3072 -0.1327  0.3443
 3079SOL    HW120870   2.045   1.808  13.448 -0.8088 -1.4719 -2.9042
 3079SOL    HW220871   2.101   1.891  13.338  1.6582  3.6250  1.6691
 3080SOL     OW20872   0.134   4.187   6.818  0.1646 -0.1516 -0.4797
 3080SOL    HW120873   0.110   4.266   6.769  0.0025 -0.3002 -0.6439
 3080SOL    HW220874   0.107   4.202   6.908 -0.8360 -0.2837 -0.7573
 3081SOL     OW20875   2.166   3.150   7.626 -0.2052 -0.3586 -0.1780
 3081SOL    HW120876   2.102   3.212   7.591 -1.4076 -1.1036  0.7246
 3081SOL    HW220877   2.250   3.187   7.597 -1.2909  2.7560  0.6026
 3082SOL     OW20878   1.494   1.242  16.081  0.4140 -0.1439  0.2022
 3082SOL    HW120879   1.422   1.208  16.133  0.7114  0.7527  1.2038
 3082SOL    HW220880   1.558   1.173  16.099  0.1642 -0.9167 -1.8498
 3083SOL     OW20881   0.163   4.052  13.506  0.8527 -0.2962 -0.2009
 3083SOL    HW120882   0.182   4.063  13.413  1.4978 -1.2766 -0.1754
 3083SOL    HW220883   0.154   4.144  13.533 -0.9618 -0.7570  0.7788
 3084SOL     OW20884   3.829   0.682   3.890  0.2674  0.6017  0.4433
 3084SOL    HW120885   3.733   0.673   3.890  0.5339 -2.1999  2.2786
 3084SOL    HW220886   3.837   0.592   3.922 -1.9562  0.1429 -0.2256
 3085SOL     OW20887   3.911   3.824   8.413 -0.0251 -0.0677 -0.1314
 3085SOL    HW120888   3.941   3.902   8.367 -1.8524 -0.7861 -2.5511
 3085SOL    HW220889   3.927   3.753   8.350 -2.2777 -1.3120  0.7133
 3086SOL     OW20890   1.972   0.115  13.214  0.0615  0.0661  0.3383
 3086SOL    HW120891   1.925   0.095  13.133  1.1693  0.9384 -0.5238
 3086SOL    HW220892   1.928   0.057  13.276 -0.9729  0.1091 -0.3529
 3087SOL     OW20893   1.815   0.915   8.114  0.8351  0.0571  0.1953
 3087SOL    HW120894   1.788   1.004   8.137  1.0643  0.3656 -0.7335
 3087SOL    HW220895   1.783   0.859   8.185 -1.2454  1.0399  0.0345
 3088SOL     OW20896   1.604   1.671   9.375  0.5131  0.1333  0.5622
 3088SOL    HW120897   1.595   1.653   9.282 -1.5189 -0.6609  0.9104
 3088SOL    HW220898   1.550   1.597   9.404 -0.2069  0.9146  1.2115
 3089SOL     OW20899   0.682   3.003   3.774 -0.2871 -0.1979 -0.4123
 3089SOL    HW120900   0.751   2.944   3.745  0.7750  0.7954  0.1086
 3089SOL    HW220901   0.649   2.943   3.842  1.1829 -0.9360 -0.3482
 3090SOL     OW20902   1.707   4.406   7.689 -0.0691 -0.4480  0.2347
 3090SOL    HW120903   1.788   4.456   7.698 -0.7777  1.0234 -1.5288
 3090SOL    HW220904   1.724   4.327   7.740  2.1521 -0.0264  0.1546
 3091SOL     OW20905   1.579   3.389   6.379  0.1640  0.0727  0.4906
 3091SOL    HW120906   1.657   3.442   6.392  0.2648 -0.2822  1.3344
 3091SOL    HW220907   1.519   3.455   6.344  0.9342  1.0461  1.0077
 3092SOL     OW20908   1.366   4.418   7.185 -0.4441 -0.1971 -0.6395
 3092SOL    HW120909   1.342   4.448   7.273  1.3058  0.0444 -0.2396
 3092SOL    HW220910   1.420   4.339   7.191  0.0716  0.0052 -2.8780
 3093SOL     OW20911   2.666   2.921   2.534 -0.4959  0.3708  0.2302
 3093SOL    HW120912   2.691   3.012   2.549 -3.0011  1.1718 -0.4298
 3093SOL    HW220913   2.629   2.899   2.619 -1.5253  0.7674 -0.1199
 3094SOL     OW20914   4.404   0.183  12.257  0.0929 -0.9079  0.0957
 3094SOL    HW120915   4.481   0.206  12.310 -1.2658  2.3117  0.6912
 3094SOL    HW220916   4.436   0.177  12.167  0.6545  0.7739  0.1708
 3095SOL     OW20917   3.002   3.173   2.609 -0.4808  0.4715 -0.2572
 3095SOL    HW120918   2.986   3.133   2.524 -0.7768  1.7925 -0.8198
 3095SOL    HW220919   3.054   3.100   2.644 -2.4543 -0.3435  0.9867
 3096SOL     OW20920   4.118   2.916   7.124  0.2779  0.2229 -0.4617
 3096SOL    HW120921   4.122   2.976   7.049  0.8177  1.3371  0.4616
 3096SOL    HW220922   4.201   2.876   7.098  0.2856 -0.6434  0.9318
 3097SOL     OW20923   1.288   2.869   8.625  0.7594  0.1862 -0.2745
 3097SOL    HW120924   1.384   2.873   8.620  0.7046  1.2020 -0.4335
 3097SOL    HW220925   1.280   2.813   8.547 -3.5845 -0.0482  0.3597
 3098SOL     OW20926   2.003   4.346   9.973  0.1988  0.1674 -0.4428
 3098SOL    HW120927   2.074   4.331  10.036  0.3544 -0.2112 -0.7053
 3098SOL    HW220928   2.015   4.440   9.958  0.8559  0.0255 -0.7754
 3099SOL     OW20929   0.034   2.226   3.613 -0.6084  1.0214  0.1505
 3099SOL    HW120930   0.065   2.301   3.563  0.4565 -0.0420 -0.7928
 3099SOL    HW220931   0.038   2.261   3.702 -1.7532  3.5259 -0.7912
 3100SOL     OW20932   3.896   2.766  12.088 -0.0552  0.5554  0.8690
 3100SOL    HW120933   3.932   2.678  12.086 -1.3491 -0.0486  3.2216
 3100SOL    HW220934   3.887   2.790  11.996  0.8191  3.7093  1.6061
 3101SOL     OW20935   0.090   0.894   8.573 -0.1236 -0.0152  0.2166
 3101SOL    HW120936   0.053   0.923   8.656 -0.6461 -1.7449  0.5852
 3101SOL    HW220937   0.092   0.799   8.581  2.5688  0.0268  0.1138
 3102SOL     OW20938   0.182   2.706  16.048 -0.2087  0.0925  0.0140
 3102SOL    HW120939   0.252   2.693  16.111  0.0397  0.4501 -0.1917
 3102SOL    HW220940   0.102   2.694  16.100 -2.1455  0.3020 -2.9039
 3103SOL     OW20941   0.057   0.307   6.387 -0.5090 -0.0291  0.7151
 3103SOL    HW120942   0.120   0.242   6.417  0.9543  0.4466 -1.3349
 3103SOL    HW220943   0.103   0.341   6.310 -1.5959  2.2534  1.0535
 3104SOL     OW20944   1.526   2.481  14.910 -0.3424 -0.2415  0.1696
 3104SOL    HW120945   1.498   2.562  14.867  1.5483  0.3615  0.1078
 3104SOL    HW220946   1.443   2.465  14.956 -1.0351  0.3813 -0.8496
 3105SOL     OW20947   1.680   3.966   3.727  0.1715 -0.2627  0.2911
 3105SOL    HW120948   1.688   4.058   3.750 -1.6461 -0.3852  1.4215
 3105SOL    HW220949   1.642   3.980   3.641 -0.5809 -0.1998  0.6320
 3106SOL     OW20950   0.935   1.614  13.851  0.6044  0.2507  0.3471
 3106SOL    HW120951   0.921   1.520  13.839 -1.6986  0.5294  0.7351
 3106SOL    HW220952   0.847   1.647  13.835 -0.5175 -1.1906  3.3749
 3107SOL     OW20953   4.492   0.813   6.609 -1.0297  0.2261 -0.4711
 3107SOL    HW120954   4.398   0.833   6.607 -1.0002  0.4481  0.3445
 3107SOL    HW220955   4.507   0.769   6.526 -0.1484 -1.7774  0.7437
 3108SOL     OW20956   2.504   2.899   7.015 -0.1966 -0.5695 -0.2821
 3108SOL    HW120957   2.550   2.930   7.092  0.1741 -0.5834 -0.4958
 3108SOL    HW220958   2.455   2.830   7.060 -1.3990  0.6432  0.2766
 3109SOL     OW20959   0.347   4.327  17.530  0.2606 -0.4237  0.2669
 3109SOL    HW120960   0.292   4.399  17.500  2.1258  0.5707 -0.7610
 3109SOL    HW220961   0.305   4.255  17.482 -1.9728  1.9330 -1.2914
 3110SOL     OW20962   1.318   1.798  15.757 -0.0665  0.0028  0.5904
 3110SOL    HW120963   1.321   1.791  15.661 -2.1471  0.7854  0.4725
 3110SOL    HW220964   1.350   1.886  15.775  1.3942 -0.4996  0.4423
 3111SOL     OW20965   3.723   4.494   5.839 -0.0975 -0.8163  0.5680
 3111SOL    HW120966   3.673   4.574   5.821 -0.9111 -1.8750 -1.7832
 3111SOL    HW220967   3.690   4.455   5.920 -0.4214 -0.3092  0.6843
 3112SOL     OW20968   4.639   4.412   1.267 -0.2272 -0.0013 -0.3088
 3112SOL    HW120969   4.636   4.325   1.229  1.2938 -0.6668  1.0992
 3112SOL    HW220970   4.685   4.461   1.199  0.6036 -1.1314 -0.5583
 3113SOL     OW20971   1.840   0.087   5.507  0.3820  0.1880 -0.6810
 3113SOL    HW120972   1.911   0.132   5.461 -0.2288  1.1059 -0.7314
 3113SOL    HW220973   1.861   4.739   5.475 -0.0172  0.4366 -1.6014
 3114SOL     OW20974   0.303   0.698   5.273  0.5423  0.0722 -0.6785
 3114SOL    HW120975   0.279   0.739   5.191  1.8597  1.8127 -0.1901
 3114SOL    HW220976   0.217   0.680   5.312  1.3812 -0.0535  1.1023
 3115SOL     OW20977   0.666   0.550   0.227 -0.2961 -0.2240  0.3050
 3115SOL    HW120978   0.742   0.564   0.282  0.1762  1.2077 -0.7082
 3115SOL    HW220979   0.704   0.497   0.157 -1.5067  0.0592 -0.5640
 3116SOL     OW20980   4.357   4.556   0.448  0.2223  0.0952 -0.2564
 3116SOL    HW120981   4.404   4.474   0.434  0.7021  0.0913  1.4125
 3116SOL    HW220982   4.364   4.562   0.543  2.0885  0.5800 -0.4105
 3117SOL     OW20983   1.526   1.339   8.212  0.7246  0.4075 -0.4075
 3117SOL    HW120984   1.472   1.349   8.291 -0.5762 -0.5104 -1.1751
 3117SOL    HW220985   1.546   1.427   8.181  1.0836  1.0099  1.5413
 3118SOL     OW20986   4.719   1.424  13.616 -0.2697 -0.1152  0.1702
 3118SOL    HW120987   0.062   1.425  13.567 -0.3571 -1.1628  0.0046
 3118SOL    HW220988   4.713   1.517  13.635  3.7359  0.2665 -0.3611
 3119SOL     OW20989   2.720   2.008   9.037 -0.2978  0.3672  0.1167
 3119SOL    HW120990   2.680   1.951   9.103  2.1351 -0.0719  1.2369
 3119SOL    HW220991   2.783   1.945   9.003 -0.4599  1.7514 -2.7238
 3120SOL     OW20992   1.636   1.822   8.145 -0.4903  0.5349 -0.5082
 3120SOL    HW120993   1.671   1.813   8.056 -0.4949 -1.6491 -0.2917
 3120SOL    HW220994   1.601   1.911   8.137  0.9375  0.9414 -2.2723
 3121SOL     OW20995   0.779   1.898   8.647  0.3315  0.4913  0.1580
 3121SOL    HW120996   0.764   1.944   8.730 -1.4279  1.7562 -0.8496
 3121SOL    HW220997   0.869   1.923   8.625  0.3886 -0.9543 -1.2211
 3122SOL     OW20998   4.697   1.962   0.000  0.0133  0.1368  0.2471
 3122SOL    HW120999   4.669   1.871   0.012  3.1817 -0.7759  0.9351
 3122SOL    HW221000   4.704   1.992   0.091 -4.1385 -0.5547  0.7605
 3123SOL     OW21001   1.810   0.265   7.797 -0.1365  0.3213  0.1560
 3123SOL    HW121002   1.791   0.339   7.740 -1.8551  0.1938  0.5585
 3123SOL    HW221003   1.728   0.244   7.841  1.0247 -0.4029  1.9802
 3124SOL     OW21004   2.789   3.585   8.237 -0.5876 -0.5666  0.1594
 3124SOL    HW121005   2.838   3.667   8.232 -2.4474  0.4352 -1.6081
 3124SOL    HW221006   2.824   3.549   8.319 -2.4250 -0.3724  1.0311
 3125SOL     OW21007   1.075   3.875   9.868  0.4382 -0.0483 -0.4134
 3125SOL    HW121008   1.061   3.863   9.962 -2.0237 -1.0468 -0.9179
 3125SOL    HW221009   1.077   3.969   9.852 -1.4477  0.0492 -0.0358
 3126SOL     OW21010   4.669   1.292   8.115  0.3237 -0.3125 -0.0330
 3126SOL    HW121011   0.012   1.246   8.097 -0.5505 -1.2078 -1.7489
 3126SOL    HW221012   4.623   1.222   8.161  0.9312 -0.2925  0.6048
 3127SOL     OW21013   1.531   4.329  10.016  0.4112  0.4687 -0.7061
 3127SOL    HW121014   1.511   4.279   9.937  2.4645  0.1059 -0.9803
 3127SOL    HW221015   1.611   4.292  10.053 -0.8429 -2.7610 -1.1624
 3128SOL     OW21016   1.178   0.312   9.164 -0.0349 -0.4285 -0.0428
 3128SOL    HW121017   1.250   0.286   9.107  1.6219 -0.7274  2.1657
 3128SOL    HW221018   1.186   0.251   9.237 -0.2197  0.7625  0.9770
 3129SOL     OW21019   3.194   2.485  15.496 -0.4494  0.3083  0.0212
 3129SOL    HW121020   3.141   2.555  15.458 -0.6933  0.2866  0.3199
 3129SOL    HW221021   3.265   2.531  15.542 -0.0035 -0.4748  0.1121
 3130SOL     OW21022   3.344   4.400   6.119  0.2759  0.4013 -0.3638
 3130SOL    HW121023   3.313   4.481   6.159  0.7621  0.5626 -0.3101
 3130SOL    HW221024   3.308   4.411   6.031  0.0956  0.6104 -0.2656
 3131SOL     OW21025   2.574   1.546   3.816 -0.5590  0.5084 -0.0602
 3131SOL    HW121026   2.554   1.549   3.722  2.8361 -1.6684 -0.8609
 3131SOL    HW221027   2.522   1.623   3.839 -1.0430  0.5840 -1.4146
 3132SOL     OW21028   2.415   0.107   8.538  0.2024  0.4475  0.1065
 3132SOL    HW121029   2.451   0.045   8.474 -1.2171  0.0205 -0.2863
 3132SOL    HW221030   2.376   0.168   8.476 -1.3438  0.9658  1.5982
 3133SOL     OW21031   0.807   1.027   7.913 -0.9906 -0.0336  0.0350
 3133SOL    HW121032   0.892   0.992   7.886 -0.5920  0.0237  1.2493
 3133SOL    HW221033   0.768   0.943   7.939 -3.4748  1.5527  1.4155
 3134SOL     OW21034   2.180   3.234   8.537  0.1642 -0.3254 -0.2819
 3134SOL    HW121035   2.220   3.263   8.619 -0.3118 -0.4533 -0.0074
 3134SOL    HW221036   2.113   3.175   8.571 -0.8476  1.1086  0.2331
 3135SOL     OW21037   2.976   2.410   2.233  0.0887  0.4581  0.1337
 3135SOL    HW121038   3.035   2.345   2.194  0.3213  1.0376 -0.4793
 3135SOL    HW221039   2.983   2.397   2.327 -1.4677 -1.1511  0.0446
 3136SOL     OW21040   2.049   0.076   6.371 -0.1460 -0.3350 -0.6419
 3136SOL    HW121041   2.061   0.011   6.441  0.6240  0.1569 -0.3182
 3136SOL    HW221042   1.972   0.038   6.328 -0.8224 -0.4787  0.6575
 3137SOL     OW21043   1.097   2.296   3.277 -0.3341  0.1457  0.9723
 3137SOL    HW121044   1.106   2.213   3.324 -1.1970 -0.1819  0.5523
 3137SOL    HW221045   1.131   2.361   3.338  0.6826 -0.9850  1.5953
 3138SOL     OW21046   4.656   2.099   3.026  0.0972  0.0133 -0.2519
 3138SOL    HW121047   4.706   2.019   3.044  0.4618  0.5487  1.1613
 3138SOL    HW221048   4.590   2.061   2.969 -0.9491  1.4618  0.0083
 3139SOL     OW21049   4.054   0.572  13.714 -0.2300  0.1270  0.6665
 3139SOL    HW121050   3.965   0.538  13.714  0.1013 -0.7675 -2.3057
 3139SOL    HW221051   4.099   0.526  13.642 -0.3641  0.1089  0.5956
 3140SOL     OW21052   3.223   3.567   9.477 -0.2380 -0.6176 -0.0566
 3140SOL    HW121053   3.242   3.510   9.552 -1.0890 -1.2958 -0.3655
 3140SOL    HW221054   3.243   3.504   9.408  1.2280 -2.2930  1.8680
 3141SOL     OW21055   0.140   0.866  12.743  0.1401 -0.0406 -0.0708
 3141SOL    HW121056   0.184   0.795  12.697 -2.7376 -0.5057 -2.0897
 3141SOL    HW221057   0.209   0.918  12.785  0.8293  0.1052 -1.4169
 3142SOL     OW21058   1.737   3.518  16.097  0.0358 -0.5688 -0.3990
 3142SOL    HW121059   1.813   3.574  16.110 -0.1862 -0.0753 -1.2093
 3142SOL    HW221060   1.687   3.532  16.177 -0.9978  0.4601 -1.2172
 3143SOL     OW21061   1.877   3.486   3.152 -0.1762 -0.0408  0.7080
 3143SOL    HW121062   1.808   3.504   3.088 -0.6067 -0.6289  1.0082
 3143SOL    HW221063   1.839   3.522   3.233  0.2001  0.9733  0.4272
 3144SOL     OW21064   0.371   0.270   9.674 -0.1386 -0.1569  0.1078
 3144SOL    HW121065   0.448   0.322   9.650 -0.2371  1.0147  2.2550
 3144SOL    HW221066   0.382   0.206   9.604 -0.9323 -0.5669  0.3669
 3145SOL     OW21067   4.456   4.483   8.341 -0.0170  0.2672  0.0332
 3145SOL    HW121068   4.418   4.417   8.283  1.9635 -0.4652 -0.4438
 3145SOL    HW221069   4.465   4.431   8.422 -1.1076  1.5593  0.9817
 3146SOL     OW21070   3.447   2.222   5.439 -0.0931 -0.2388 -0.1266
 3146SOL    HW121071   3.435   2.278   5.363  0.4248  1.4618  1.0645
 3146SOL    HW221072   3.538   2.207   5.414 -0.0743 -1.7617  0.7789
 3147SOL     OW21073   3.085   0.575   9.158  0.4260  0.0851  0.1053
 3147SOL    HW121074   3.130   0.519   9.094  2.2869  2.0926 -0.3504
 3147SOL    HW221075   3.084   0.505   9.223 -0.6680  0.4424  0.4656
 3148SOL     OW21076   1.209   1.633   8.973  0.1403  0.2847  0.3422
 3148SOL    HW121077   1.296   1.665   8.999  1.2321 -1.7517 -0.8249
 3148SOL    HW221078   1.164   1.714   8.949  0.2447 -0.3277 -1.9680
 3149SOL     OW21079   2.506   3.681   3.915 -0.2008  0.6599 -0.1381
 3149SOL    HW121080   2.572   3.750   3.908  0.6274 -0.1066  0.2708
 3149SOL    HW221081   2.446   3.707   3.844 -0.1355  0.0905 -0.3992
 3150SOL     OW21082   0.860   2.896   8.612  0.0526  0.2322  0.0072
 3150SOL    HW121083   0.917   2.843   8.667  0.7474  3.1017  2.0630
 3150SOL    HW221084   0.834   2.833   8.545 -0.1606  0.3063  0.0207
 3151SOL     OW21085   1.126   3.231   2.669 -0.1170  0.5247 -0.1402
 3151SOL    HW121086   1.110   3.310   2.617 -0.5326 -0.0221 -0.8459
 3151SOL    HW221087   1.087   3.257   2.752  0.6618  0.6908  0.1712
 3152SOL     OW21088   4.393   0.298   2.489  0.4415  0.0919 -0.5418
 3152SOL    HW121089   4.299   0.312   2.473  0.2966  1.0994  1.2326
 3152SOL    HW221090   4.423   0.386   2.465  1.0535  0.1517  0.4661
 3153SOL     OW21091   0.702   4.651   3.278  0.7319 -0.0267 -0.1725
 3153SOL    HW121092   0.796   4.665   3.272  0.4987  0.9279 -1.6915
 3153SOL    HW221093   0.683   4.686   3.365 -1.6139 -0.7554 -0.3833
 3154SOL     OW21094   3.877   2.116  10.971  0.1066  0.0485 -0.1105
 3154SOL    HW121095   3.856   2.022  10.968  0.1506  0.1106 -2.1801
 3154SOL    HW221096   3.973   2.113  10.967  0.1636  0.4724  0.8266
 3155SOL     OW21097   3.559   0.276   5.437 -0.2048  0.4404 -0.1088
 3155SOL    HW121098   3.628   0.222   5.476 -2.5848  0.5621  4.2533
 3155SOL    HW221099   3.623   0.340   5.405 -0.1281 -0.3688 -1.5680
 3156SOL     OW21100   3.903   3.716   6.910 -0.0828 -0.4560 -0.0215
 3156SOL    HW121101   3.824   3.767   6.929  0.4052 -1.0169  3.5473
 3156SOL    HW221102   3.929   3.743   6.822  1.2751  0.1616  0.5577
 3157SOL     OW21103   1.794   2.148   7.254 -0.5774  0.1430  0.4942
 3157SOL    HW121104   1.764   2.175   7.341  0.0372  1.0005  0.4416
 3157SOL    HW221105   1.887   2.141   7.275 -0.5010  0.6067  0.3001
 3158SOL     OW21106   0.962   0.636   5.244 -0.3016  0.0698 -0.2724
 3158SOL    HW121107   0.918   0.689   5.178 -0.1440  0.9398  0.3314
 3158SOL    HW221108   1.008   0.704   5.292 -1.1427  0.4778 -0.0376
 3159SOL     OW21109   4.163   0.841  11.695  0.2293 -0.4029  0.0432
 3159SOL    HW121110   4.153   0.871  11.604 -0.9192  1.9484  0.9591
 3159SOL    HW221111   4.248   0.798  11.691 -0.2760 -1.3344 -0.6746
 3160SOL     OW21112   3.940   0.557   2.055  0.4269 -0.6698 -0.0964
 3160SOL    HW121113   3.855   0.516   2.075  0.2905 -0.7843 -0.9033
 3160SOL    HW221114   3.969   0.499   1.984 -0.5305  0.0750 -1.0947
 3161SOL     OW21115   2.813   3.793   4.858  0.4663 -0.6784 -0.1435
 3161SOL    HW121116   2.748   3.839   4.805  0.4587 -0.5691 -0.0402
 3161SOL    HW221117   2.764   3.769   4.936 -1.1388  2.4125 -0.1839
 3162SOL     OW21118   0.658   2.400   5.291  0.0957  0.5272  0.0693
 3162SOL    HW121119   0.655   2.305   5.298  1.4702  0.4396 -0.5329
 3162SOL    HW221120   0.657   2.421   5.384  1.4609  1.4115 -0.1200
 3163SOL     OW21121   1.258   3.084   6.292 -0.7421 -0.0165  0.2566
 3163SOL    HW121122   1.301   2.999   6.305 -2.5228 -1.1063 -0.8939
 3163SOL    HW221123   1.261   3.113   6.383 -0.3997  0.4450  0.0951
 3164SOL     OW21124   2.638   2.730   8.966 -0.0033 -0.0944  0.1039
 3164SOL    HW121125   2.600   2.817   8.952 -1.0668 -0.5052  0.4416
 3164SOL    HW221126   2.659   2.731   9.059  0.1988 -1.8497  0.0832
 3165SOL     OW21127   3.696   2.704   2.923 -0.1135 -0.5710  0.2552
 3165SOL    HW121128   3.707   2.610   2.936  2.6611 -0.3303 -0.4148
 3165SOL    HW221129   3.771   2.743   2.967 -0.2240 -0.5915  0.4655
 3166SOL     OW21130   4.198   4.711   4.085 -0.4327 -0.6360  0.3558
 3166SOL    HW121131   4.190   0.067   4.093 -2.6252 -0.9052  1.1967
 3166SOL    HW221132   4.274   4.698   4.028 -0.0718 -0.3683  0.7771
 3167SOL     OW21133   0.830   2.149   5.586 -0.0674  0.3023 -0.5072
 3167SOL    HW121134   0.917   2.186   5.601 -0.5918  1.7922 -1.0731
 3167SOL    HW221135   0.783   2.202   5.651 -0.0573  2.1995 -2.0496
 3168SOL     OW21136   4.194   3.352   2.860  0.0330  0.4818  0.3254
 3168SOL    HW121137   4.246   3.408   2.916 -0.2601 -0.3641  1.4591
 3168SOL    HW221138   4.245   3.271   2.863  0.3466  0.7384  2.0761
 3169SOL     OW21139   2.661   3.900  15.928 -0.0564 -0.2104  0.3456
 3169SOL    HW121140   2.625   3.816  15.900 -0.0130 -0.2136  0.2999
 3169SOL    HW221141   2.700   3.880  16.013 -2.2917 -0.7838  1.2590
 3170SOL     OW21142   2.717   3.576  16.669  0.8127 -1.0197 -0.2644
 3170SOL    HW121143   2.679   3.631  16.738 -1.3836 -1.9915 -0.7122
 3170SOL    HW221144   2.643   3.572  16.609  0.0985 -1.5585  0.6568
 3171SOL     OW21145   2.613   2.121  17.095 -0.2303 -0.9130  0.2769
 3171SOL    HW121146   2.689   2.109  17.038  1.0417  0.4947  1.6747
 3171SOL    HW221147   2.609   2.037  17.140 -1.3878 -1.0033  0.0085
 3172SOL     OW21148   1.788   0.441  11.025  1.2291  0.0988  0.6208
 3172SOL    HW121149   1.722   0.482  11.081  0.2633  2.4676 -2.2596
 3172SOL    HW221150   1.763   0.483  10.943 -1.4474  0.0857  1.4330
 3173SOL     OW21151   3.651   3.183   8.655 -0.0607  0.7615  0.7394
 3173SOL    HW121152   3.726   3.166   8.598 -0.7064 -0.9563  0.3665
 3173SOL    HW221153   3.627   3.090   8.666 -0.0907  0.8251  1.2088
 3174SOL     OW21154   1.542   1.059   8.952 -0.0420  0.6413  0.3145
 3174SOL    HW121155   1.474   1.115   8.917 -0.4521 -0.8295 -1.2569
 3174SOL    HW221156   1.614   1.120   8.969  1.6321 -1.7706  1.9578
 3175SOL     OW21157   4.690   0.159   6.084  0.6675 -0.0694 -0.2163
 3175SOL    HW121158   4.690   0.097   6.157 -2.3988 -0.0238 -0.1366
 3175SOL    HW221159   0.016   0.222   6.114 -0.0882 -0.1877  1.7159
 3176SOL     OW21160   3.040   1.180   6.031  0.2915 -0.3375 -0.7277
 3176SOL    HW121161   3.057   1.122   6.106 -2.8932 -0.2266  0.1080
 3176SOL    HW221162   3.024   1.111   5.966  1.8534  0.6832 -2.1841
 3177SOL     OW21163   0.042   2.530   7.118  0.3395  0.3187 -0.5677
 3177SOL    HW121164   0.025   2.619   7.149 -0.3060 -0.5912  1.6765
 3177SOL    HW221165   0.122   2.505   7.165 -0.1786 -0.5694 -0.1721
 3178SOL     OW21166   0.230   4.551   7.268 -0.2627  0.7892 -0.2444
 3178SOL    HW121167   0.294   4.514   7.208  0.7881 -1.1022  2.0187
 3178SOL    HW221168   0.146   4.509   7.247  1.4484 -2.7804 -0.0518
 3179SOL     OW21169   2.319   2.711   7.469 -0.2469 -0.2321 -0.0681
 3179SOL    HW121170   2.322   2.658   7.549  0.9228  0.8949  0.6462
 3179SOL    HW221171   2.238   2.761   7.486 -1.3619 -1.2274 -2.4900
 3180SOL     OW21172   0.306   2.138   3.939 -0.1184  0.0449 -0.4438
 3180SOL    HW121173   0.357   2.217   3.922 -0.8028  0.4287 -0.7178
 3180SOL    HW221174   0.307   2.111   3.847 -3.1767  0.6694 -0.6769
 3181SOL     OW21175   2.149   3.598  11.290 -0.1946 -0.2889  0.1762
 3181SOL    HW121176   2.122   3.540  11.361  1.1708  0.4613  1.3188
 3181SOL    HW221177   2.243   3.597  11.306 -0.2470  0.2344  0.5392
 3182SOL     OW21178   4.563   2.835   3.023 -0.1340  0.1448 -0.1437
 3182SOL    HW121179   4.645   2.790   3.002  0.9674  1.7046  0.8313
 3182SOL    HW221180   4.594   2.921   3.052  0.8021 -0.6745  1.2772
 3183SOL     OW21181   2.093   1.127  11.128 -0.4957  0.1953 -0.5099
 3183SOL    HW121182   2.166   1.067  11.143 -0.2835  0.4860 -0.3638
 3183SOL    HW221183   2.021   1.065  11.122  2.1473 -2.8927  0.2137
 3184SOL     OW21184   0.151   3.407  12.879 -0.2334 -0.2234  0.5788
 3184SOL    HW121185   0.147   3.354  12.799 -2.6526  0.7157  0.0620
 3184SOL    HW221186   0.063   3.446  12.878  0.5550  1.5673 -0.5996
 3185SOL     OW21187   1.790   2.398   5.271 -0.0424  0.2274 -0.0184
 3185SOL    HW121188   1.807   2.480   5.225 -1.6011  0.4859 -0.1461
 3185SOL    HW221189   1.876   2.358   5.275  0.1829  0.5429 -1.4954
 3186SOL     OW21190   2.882   0.700  13.766  0.1710 -0.0427  0.1504
 3186SOL    HW121191   2.810   0.755  13.734  0.8866 -1.0375 -3.1711
 3186SOL    HW221192   2.940   0.698  13.690  0.2733 -0.1877  0.2325
 3187SOL     OW21193   3.504   4.057   3.527  0.6669  0.0289 -0.4141
 3187SOL    HW121194   3.452   4.105   3.591  0.7054  0.8661 -1.0012
 3187SOL    HW221195   3.588   4.099   3.544  0.6053  0.2376 -0.6174
 3188SOL     OW21196   4.557   1.771  10.475 -0.5654  0.2544 -0.0551
 3188SOL    HW121197   4.499   1.695  10.470  0.6065 -0.4159 -2.8273
 3188SOL    HW221198   4.503   1.831  10.528 -1.7378  1.5825 -2.7161
 3189SOL     OW21199   3.881   1.452   7.837 -0.6794 -0.6803 -0.1763
 3189SOL    HW121200   3.883   1.509   7.914 -1.6368  0.6176 -1.1254
 3189SOL    HW221201   3.894   1.518   7.770  0.2927 -1.4152 -0.7081
 3190SOL     OW21202   0.128   2.894   6.451 -0.0277  0.4213  0.1965
 3190SOL    HW121203   0.200   2.894   6.515 -0.6045 -1.0059  0.8233
 3190SOL    HW221204   0.099   2.804   6.465 -0.6623  0.4853 -0.7200
 3191SOL     OW21205   1.637   2.927   2.116 -0.0727 -0.5566  0.6958
 3191SOL    HW121206   1.574   2.887   2.056  0.3121  1.3347 -0.9611
 3191SOL    HW221207   1.602   2.917   2.205  0.0243  0.6448  0.8771
 3192SOL     OW21208   2.745   2.957  10.723  0.3083  0.1501  0.4582
 3192SOL    HW121209   2.821   2.970  10.780  0.5789 -4.3267  1.1553
 3192SOL    HW221210   2.748   2.864  10.699 -0.4051 -0.1340  1.4690
 3193SOL     OW21211   1.868   2.885   6.822  0.2275 -0.0043  0.4124
 3193SOL    HW121212   1.845   2.958   6.880 -1.0650 -0.8554  0.9715
 3193SOL    HW221213   1.957   2.859   6.848 -0.5911 -1.4502  1.7487
 3194SOL     OW21214   2.119   1.183   4.649 -0.2634 -0.6767  0.4934
 3194SOL    HW121215   2.206   1.224   4.648 -1.0375  0.9454 -0.6987
 3194SOL    HW221216   2.064   1.262   4.653 -1.0831 -1.2674  0.7894
 3195SOL     OW21217   1.886   2.219   3.760  0.0682  0.3451 -0.0155
 3195SOL    HW121218   1.926   2.296   3.801  0.0811  1.8055 -2.7767
 3195SOL    HW221219   1.803   2.213   3.807  0.0950 -0.6233 -0.0934
 3196SOL     OW21220   2.901   4.360  15.020  0.1666  0.0308  0.0997
 3196SOL    HW121221   2.812   4.347  14.987  0.0440  0.9011  0.0962
 3196SOL    HW221222   2.893   4.448  15.058 -0.8847 -1.4206  3.2663
 3197SOL     OW21223   0.032   0.240   3.131 -0.1850  0.2009  0.7347
 3197SOL    HW121224   0.113   0.249   3.082  1.6961  1.3679  4.0595
 3197SOL    HW221225   0.005   0.151   3.108  1.6891 -0.3260  0.5615
 3198SOL     OW21226   4.512   4.067   4.131 -0.1251 -0.2151  0.1587
 3198SOL    HW121227   4.552   4.154   4.120 -0.6951  0.1172  0.6836
 3198SOL    HW221228   4.433   4.078   4.079 -0.7300 -0.0570  1.1131
 3199SOL     OW21229   0.976   3.151   4.942 -0.2842  0.3739  0.1328
 3199SOL    HW121230   0.957   3.059   4.923  1.9107 -0.6188  2.7131
 3199SOL    HW221231   0.889   3.190   4.945  0.5022  2.0474  1.4131
 3200SOL     OW21232   1.575   0.629   7.399 -0.2551 -0.7229  0.0669
 3200SOL    HW121233   1.572   0.663   7.310  0.7574  1.6623  0.9574
 3200SOL    HW221234   1.485   0.597   7.395 -0.2144 -0.5518 -2.1855
 3201SOL     OW21235   3.815   1.127   8.577  0.4592  0.0889 -0.0983
 3201SOL    HW121236   3.899   1.167   8.556 -0.5718  1.8910 -0.8195
 3201SOL    HW221237   3.779   1.170   8.654  1.2024  1.7243 -0.6551
 3202SOL     OW21238   4.359   0.879  13.885 -0.5130 -0.2843  0.0341
 3202SOL    HW121239   4.357   0.834  13.801  0.8700 -2.2272  1.0603
 3202SOL    HW221240   4.265   0.894  13.895 -0.4134  1.0568 -0.9980
 3203SOL     OW21241   3.260   0.418  17.570 -0.2195  0.9042 -0.2451
 3203SOL    HW121242   3.245   0.463  17.653  0.2718  0.5344  0.0484
 3203SOL    HW221243   3.336   0.461  17.531  2.1790 -2.9943  0.0165
 3204SOL     OW21244   1.956   3.408  15.571  0.0890  1.0542 -0.3477
 3204SOL    HW121245   1.937   3.451  15.654  0.6822  0.7700 -0.0680
 3204SOL    HW221246   1.877   3.422  15.519 -0.7736  1.4141  1.0770
 3205SOL     OW21247   3.686   1.554   7.383  0.1848  0.1903 -0.1065
 3205SOL    HW121248   3.777   1.530   7.398 -0.1175 -0.7207  0.2776
 3205SOL    HW221249   3.637   1.472   7.372 -0.7816  1.1108 -2.7047
 3206SOL     OW21250   3.078   1.888  14.053  0.0556  0.2941  0.4875
 3206SOL    HW121251   3.016   1.839  13.998 -1.3901  2.3318  0.3142
 3206SOL    HW221252   3.158   1.856  14.011 -0.0123  0.1040  0.5001
 3207SOL     OW21253   1.605   4.258   5.395 -0.6940 -0.5066 -1.4484
 3207SOL    HW121254   1.542   4.212   5.450  0.2156  0.6987  0.6108
 3207SOL    HW221255   1.678   4.251   5.455 -0.9349 -2.2376 -1.3744
 3208SOL     OW21256   1.058   2.760   7.362  0.0820  0.2164 -0.1898
 3208SOL    HW121257   1.046   2.692   7.297  1.4790  0.7458 -1.0203
 3208SOL    HW221258   1.106   2.701   7.420 -1.6831 -2.3868 -1.3939
 3209SOL     OW21259   2.082   4.035  13.927 -0.4188 -0.0072 -0.2791
 3209SOL    HW121260   2.102   4.081  14.009  0.5353  1.4121 -1.3304
 3209SOL    HW221261   2.042   4.107  13.879  0.1854  1.6373  1.6986
 3210SOL     OW21262   3.542   3.398   2.049  0.2838 -0.2974 -0.6538
 3210SOL    HW121263   3.522   3.386   1.956  0.1207 -0.6452 -0.5728
 3210SOL    HW221264   3.462   3.375   2.097 -0.1274 -0.0907 -1.2401
 3211SOL     OW21265   0.321   4.008   4.253  0.2888 -0.6185  0.0462
 3211SOL    HW121266   0.240   4.056   4.238  0.3142 -0.4811  0.3623
 3211SOL    HW221267   0.342   4.045   4.339 -1.0219 -0.3308  0.2337
 3212SOL     OW21268   1.302   3.040   9.150  0.2872  0.4064  0.2389
 3212SOL    HW121269   1.342   3.038   9.237 -1.1492 -1.5876  0.8596
 3212SOL    HW221270   1.253   3.122   9.155 -0.0883  0.1178  1.2040
 3213SOL     OW21271   2.626   3.961   1.438  0.1991 -0.5006 -0.3916
 3213SOL    HW121272   2.597   3.889   1.493  2.8523 -1.7792 -0.6712
 3213SOL    HW221273   2.543   4.008   1.428  0.4698 -0.1075 -0.8153
 3214SOL     OW21274   2.005   2.590   4.636  0.1671  1.1271 -0.2593
 3214SOL    HW121275   2.005   2.509   4.585 -0.6646  1.9098 -1.4858
 3214SOL    HW221276   1.923   2.631   4.609 -1.2357  0.7593  3.4466
 3215SOL     OW21277   2.122   1.401   7.172  0.1173 -0.0707  0.8371
 3215SOL    HW121278   2.210   1.374   7.146  0.2088 -0.7243  1.8054
 3215SOL    HW221279   2.084   1.322   7.210 -0.8121 -0.1121 -0.1872
 3216SOL     OW21280   3.992   2.282  10.060  0.1477  0.3520 -0.0569
 3216SOL    HW121281   3.998   2.343   9.987 -2.1028  1.1767  0.4290
 3216SOL    HW221282   3.904   2.248  10.042 -0.3589  1.5132  0.1965
 3217SOL     OW21283   0.151   2.249   1.123  0.5394  0.4082  0.3594
 3217SOL    HW121284   0.086   2.235   1.053  0.7172 -0.0364  0.2873
 3217SOL    HW221285   0.228   2.264   1.068 -0.3341 -1.1138 -1.2635
 3218SOL     OW21286   4.049   2.896   1.787 -0.4527 -0.1195 -0.1424
 3218SOL    HW121287   4.005   2.966   1.740 -1.6694 -0.3251  0.6876
 3218SOL    HW221288   4.007   2.895   1.873  0.2786  0.1981  0.2110
 3219SOL     OW21289   0.909   0.297   2.164 -0.2549  0.0224  0.1467
 3219SOL    HW121290   0.925   0.258   2.250  0.8662 -1.4239 -0.7208
 3219SOL    HW221291   0.971   0.252   2.108  0.8325  2.0993 -0.3209
 3220SOL     OW21292   0.688   1.549  16.734 -0.4066 -0.0850 -0.1117
 3220SOL    HW121293   0.752   1.528  16.666 -1.1132 -2.8357  0.0576
 3220SOL    HW221294   0.665   1.638  16.708  0.2811  0.3359  0.7048
 3221SOL     OW21295   1.045   0.108   4.231  0.2808  0.6189 -0.0745
 3221SOL    HW121296   1.067   0.065   4.314  0.2812  0.8891  0.0665
 3221SOL    HW221297   0.991   0.181   4.260  0.5885  0.4421  0.9376
 3222SOL     OW21298   4.554   4.639   6.869  0.0914  0.3000  0.1040
 3222SOL    HW121299   4.487   4.698   6.903  0.4648  0.5017  0.4867
 3222SOL    HW221300   4.599   4.708   6.819 -0.0751  0.6867  0.4817
 3223SOL     OW21301   4.012   0.268   9.435  0.0804  0.5378  0.6628
 3223SOL    HW121302   3.939   0.269   9.497 -1.4189 -2.1277 -1.0853
 3223SOL    HW221303   4.021   0.363   9.423  1.2326  0.6139  2.1336
 3224SOL     OW21304   0.904   2.405   7.755  0.3577  0.0118 -0.1296
 3224SOL    HW121305   0.849   2.470   7.712 -1.1900 -1.2776 -0.0933
 3224SOL    HW221306   0.911   2.449   7.840 -0.7950 -1.3456  0.6764
 3225SOL     OW21307   1.617   4.340   2.907 -0.4197  0.2571 -0.0916
 3225SOL    HW121308   1.637   4.414   2.964  0.3166 -1.0023  1.2953
 3225SOL    HW221309   1.651   4.372   2.824  1.3630 -0.9603  0.1821
 3226SOL     OW21310   4.352   0.957   4.997 -0.1194 -0.5409 -0.1081
 3226SOL    HW121311   4.305   0.889   4.949  3.1025 -1.7142 -1.5888
 3226SOL    HW221312   4.312   0.928   5.080 -0.6391  1.6805  0.4038
 3227SOL     OW21313   1.689   2.160  16.981 -0.5387 -0.2213  0.2235
 3227SOL    HW121314   1.650   2.220  16.918  0.8300  0.2493 -0.1824
 3227SOL    HW221315   1.775   2.203  16.988 -0.4000 -0.5746  0.6887
 3228SOL     OW21316   1.251   1.660   7.415 -0.0100  0.1090 -0.3460
 3228SOL    HW121317   1.342   1.661   7.386  0.4245  2.1852  1.1212
 3228SOL    HW221318   1.260   1.618   7.500 -0.5607 -0.3482 -0.5087
 3229SOL     OW21319   3.581   1.168   9.058 -0.6628 -0.1453 -0.1566
 3229SOL    HW121320   3.512   1.230   9.037 -0.1595 -0.3234 -2.4372
 3229SOL    HW221321   3.534   1.091   9.025 -0.4071  0.4642 -1.9724
 3230SOL     OW21322   0.235   1.862   1.730  0.2328  0.0790 -0.5850
 3230SOL    HW121323   0.284   1.935   1.769  2.0801 -1.3412 -0.2295
 3230SOL    HW221324   0.246   1.889   1.639 -1.7281  0.9244 -0.5628
 3231SOL     OW21325   2.895   4.033   5.534  0.2044  0.3264 -0.0226
 3231SOL    HW121326   2.918   4.125   5.521  1.0542 -0.2094 -2.4430
 3231SOL    HW221327   2.809   4.028   5.492 -0.4205 -0.9766  1.4032
 3232SOL     OW21328   1.342   1.360   9.497  0.4448 -0.3138 -0.7875
 3232SOL    HW121329   1.336   1.422   9.424 -1.2597  1.3824  0.7967
 3232SOL    HW221330   1.269   1.302   9.479  1.0953 -1.3781 -0.0057
 3233SOL     OW21331   4.156   2.585  14.358  0.0347 -0.9018 -0.6800
 3233SOL    HW121332   4.163   2.568  14.264 -0.4423 -2.2799 -0.4630
 3233SOL    HW221333   4.117   2.672  14.359  1.0902 -0.4318  0.0023
 3234SOL     OW21334   2.921   1.644   8.285 -0.8672  0.0963  0.1743
 3234SOL    HW121335   2.883   1.557   8.276  1.4114 -0.9572  0.9362
 3234SOL    HW221336   2.894   1.662   8.375 -0.5327 -0.4678  0.3794
 3235SOL     OW21337   1.461   1.397  11.488  0.0761 -0.3446  0.1739
 3235SOL    HW121338   1.367   1.402  11.506 -0.4313  0.0384 -2.5902
 3235SOL    HW221339   1.485   1.315  11.445  3.1893  0.8392 -0.3599
 3236SOL     OW21340   2.178   4.223   4.696 -0.6076  0.5979 -0.2139
 3236SOL    HW121341   2.093   4.220   4.652  0.3070  0.0704 -1.9516
 3236SOL    HW221342   2.155   4.272   4.775 -1.1514 -1.4836  0.8972
 3237SOL     OW21343   0.585   2.367   6.089 -0.7067  0.2037  0.1452
 3237SOL    HW121344   0.620   2.280   6.070 -3.0472 -0.8954  0.9410
 3237SOL    HW221345   0.491   2.354   6.085 -0.7370  0.0165  1.7680
 3238SOL     OW21346   4.439   0.647   6.871  0.4293 -0.0939 -0.2610
 3238SOL    HW121347   4.468   0.734   6.843  0.3395 -0.3307 -1.0900
 3238SOL    HW221348   4.523   0.603   6.883  1.0364  1.0399 -0.4414
 3239SOL     OW21349   1.003   3.559   6.832 -0.0729  0.4016  0.0890
 3239SOL    HW121350   1.045   3.505   6.766  1.2197  1.5232 -0.0174
 3239SOL    HW221351   0.915   3.550   6.797  0.3017 -1.0431 -0.4734
 3240SOL     OW21352   0.157   0.009  16.008  0.4223  0.0825 -0.1052
 3240SOL    HW121353   0.126   0.060  16.083  1.5165 -1.3943  1.3529
 3240SOL    HW221354   0.096   0.045  15.943  2.0869 -0.1143 -1.7494
 3241SOL     OW21355   3.799   4.302  17.716 -0.0011 -0.1020 -0.1380
 3241SOL    HW121356   3.869   4.365  17.730 -0.8278  0.4111  1.7114
 3241SOL    HW221357   3.716   4.345  17.740 -0.1582 -0.3413 -0.2514
 3242SOL     OW21358   3.551   3.078   1.575  0.0891  0.0223 -0.4965
 3242SOL    HW121359   3.486   3.038   1.517  0.0951  1.0633 -1.2210
 3242SOL    HW221360   3.535   3.172   1.577 -0.2001 -0.0480  0.8982
 3243SOL     OW21361   1.230   4.008   9.453 -0.1102 -1.3602 -0.7697
 3243SOL    HW121362   1.265   3.922   9.474  1.9020  0.3559  2.9025
 3243SOL    HW221363   1.137   3.986   9.446  0.2910 -2.5648 -2.1645
 3244SOL     OW21364   1.627   0.559  11.188  0.1218 -0.5944 -0.1304
 3244SOL    HW121365   1.591   0.585  11.273 -1.8329 -0.9791 -0.8443
 3244SOL    HW221366   1.660   0.645  11.161 -1.1054 -0.2000 -0.3925
 3245SOL     OW21367   2.914   4.632  15.721  0.0017  0.2620 -0.0492
 3245SOL    HW121368   2.914   4.543  15.686 -1.1119 -0.1320  0.9494
 3245SOL    HW221369   2.941   4.622  15.812  0.0175 -0.3114 -0.1143
 3246SOL     OW21370   0.712   0.370   1.311  0.5665  0.5711 -0.3651
 3246SOL    HW121371   0.632   0.362   1.259  0.7195  0.9377 -0.6542
 3246SOL    HW221372   0.745   0.280   1.304 -0.5309  0.5030 -4.3382
 3247SOL     OW21373   1.811   3.228   0.697  0.2623 -0.0122 -0.0482
 3247SOL    HW121374   1.748   3.295   0.669  0.6142 -0.0987 -1.0809
 3247SOL    HW221375   1.786   3.158   0.636  1.8328 -0.1997 -0.4827
 3248SOL     OW21376   1.492   2.514   5.387 -0.1005 -0.7052 -0.3065
 3248SOL    HW121377   1.460   2.476   5.305  1.8165  0.5243 -1.6305
 3248SOL    HW221378   1.578   2.545   5.359 -0.4921  1.0100  0.3870
 3249SOL     OW21379   0.573   3.354   0.852 -0.1542  0.2014 -0.5182
 3249SOL    HW121380   0.484   3.343   0.818 -0.0976 -0.7936 -0.3549
 3249SOL    HW221381   0.583   3.261   0.873 -1.4136  0.4901  1.2736
 3250SOL     OW21382   4.235   3.180  14.028  0.0346  0.3811  0.1409
 3250SOL    HW121383   4.309   3.121  14.046  0.0116  0.0655 -0.7811
 3250SOL    HW221384   4.234   3.228  14.111  2.2125  1.0447 -0.2156
 3251SOL     OW21385   2.265   3.707  10.577 -0.7851  0.9724 -0.0230
 3251SOL    HW121386   2.240   3.625  10.535  0.6367 -0.0245  1.0840
 3251SOL    HW221387   2.350   3.676  10.610 -0.2706  0.9306 -1.3675
 3252SOL     OW21388   4.119   2.520   2.581  0.3238  0.0757  0.1952
 3252SOL    HW121389   4.045   2.523   2.642 -1.4184 -0.5849 -1.8508
 3252SOL    HW221390   4.085   2.567   2.505 -2.2050  1.0149  1.8778
 3253SOL     OW21391   1.056   4.369   4.510 -0.4367  0.0558 -0.1189
 3253SOL    HW121392   0.974   4.392   4.467  0.5258  1.7769 -1.0532
 3253SOL    HW221393   1.046   4.278   4.485 -1.2166  0.6190 -1.8782
 3254SOL     OW21394   0.141   1.639   3.314 -0.1122  0.1102  0.1967
 3254SOL    HW121395   0.152   1.548   3.342  0.1702 -1.0558 -3.6804
 3254SOL    HW221396   0.051   1.664   3.334 -0.0687  0.8865 -0.5625
 3255SOL     OW21397   3.408   4.443   1.425 -0.1217 -0.8289 -0.1944
 3255SOL    HW121398   3.497   4.474   1.405 -1.1709  1.7519 -0.8875
 3255SOL    HW221399   3.374   4.513   1.480 -1.4578  0.5271 -2.7658
 3256SOL     OW21400   4.684   1.653  10.185  0.4342  0.4096 -0.5908
 3256SOL    HW121401   4.621   1.725  10.196 -0.6478 -0.9788  2.2908
 3256SOL    HW221402   0.022   1.704  10.212  0.1979  1.8570 -2.6220
 3257SOL     OW21403   1.872   0.289   2.840  0.2570  0.3408  0.1974
 3257SOL    HW121404   1.891   0.383   2.840 -0.5426  0.4987  0.4818
 3257SOL    HW221405   1.784   0.287   2.877 -0.1938 -2.2125 -1.0351
 3258SOL     OW21406   1.836   0.699   4.966  0.8622  0.1777 -0.0686
 3258SOL    HW121407   1.804   0.769   5.024 -0.0617 -0.1348 -0.2136
 3258SOL    HW221408   1.833   0.734   4.877  0.5524 -0.6892 -0.3942
 3259SOL     OW21409   1.793   0.919   3.734 -0.4112  1.0584 -0.0981
 3259SOL    HW121410   1.845   0.994   3.761  2.8168 -1.6693  1.2271
 3259SOL    HW221411   1.807   0.926   3.639 -0.5894 -1.6152 -0.3264
 3260SOL     OW21412   1.841   2.371  16.581  0.2322 -0.3519 -0.5326
 3260SOL    HW121413   1.935   2.381  16.567  0.1841 -1.4098 -1.5995
 3260SOL    HW221414   1.812   2.453  16.539 -0.6445 -0.3510  0.0777
 3261SOL     OW21415   4.729   3.931   4.034 -0.4429  0.2775  0.4734
 3261SOL    HW121416   4.646   3.975   4.050 -1.3179 -1.2228  0.0511
 3261SOL    HW221417   0.031   3.984   3.966  0.2975 -0.7326  0.1258
 3262SOL     OW21418   4.018   2.977   4.533  0.1077  0.1598 -0.7846
 3262SOL    HW121419   4.091   3.030   4.499 -0.2005  0.9437 -0.2247
 3262SOL    HW221420   4.039   2.975   4.626 -0.7131  4.1304 -0.5222
 3263SOL     OW21421   2.458   4.434   4.325  0.7480 -0.2789  0.1408
 3263SOL    HW121422   2.412   4.496   4.268  2.4965 -0.1405 -1.0957
 3263SOL    HW221423   2.385   4.373   4.343  0.1638  0.2063 -0.5667
 3264SOL     OW21424   1.878   0.578   9.012 -0.6309  0.3382 -0.0063
 3264SOL    HW121425   1.936   0.503   9.026 -0.4379  0.1834 -1.6248
 3264SOL    HW221426   1.846   0.595   9.101 -1.3467 -0.2391 -0.1622
 3265SOL     OW21427   1.590   4.378   6.464 -0.2635 -0.0549 -0.1257
 3265SOL    HW121428   1.659   4.312   6.457 -0.3096 -0.1184  0.0235
 3265SOL    HW221429   1.589   4.408   6.373  0.5826 -1.1383 -0.4979
 3266SOL     OW21430   2.051   2.845   7.585 -0.1066  0.2915 -0.0068
 3266SOL    HW121431   2.093   2.925   7.615 -1.1762  1.1785 -0.9205
 3266SOL    HW221432   1.970   2.894   7.573 -0.7618 -1.0292 -0.9217
 3267SOL     OW21433   4.475   3.256   4.812  0.2016  0.4502  0.2438
 3267SOL    HW121434   4.433   3.313   4.877 -0.0804  2.0219 -1.3160
 3267SOL    HW221435   4.465   3.313   4.735 -0.5937 -0.5620 -0.3969
 3268SOL     OW21436   1.885   1.601   7.707 -0.2077  0.0315  0.8866
 3268SOL    HW121437   1.926   1.601   7.794 -1.2635  2.5082  1.3726
 3268SOL    HW221438   1.965   1.581   7.657 -2.4277 -1.1752 -2.1952
 3269SOL     OW21439   4.136   0.824   5.479  0.0975 -0.1338 -0.6209
 3269SOL    HW121440   4.091   0.908   5.475  0.5547  0.0481 -1.9372
 3269SOL    HW221441   4.151   0.826   5.573 -0.6027 -0.3257 -0.5055
 3270SOL     OW21442   3.577   2.828   6.076  0.0289 -0.3874  0.1360
 3270SOL    HW121443   3.640   2.888   6.037 -0.7436 -0.7552 -1.6508
 3270SOL    HW221444   3.637   2.781   6.134  1.2862  1.9083  0.7249
 3271SOL     OW21445   0.834   0.317  12.500  0.0108 -0.0482  0.9124
 3271SOL    HW121446   0.887   0.316  12.579  3.0798  1.0929 -1.1692
 3271SOL    HW221447   0.892   0.306  12.425 -0.9921 -0.5935  0.2118
 3272SOL     OW21448   1.273   4.403  12.948  0.3812 -0.0101  0.3620
 3272SOL    HW121449   1.339   4.403  13.018  2.2384 -1.1008 -1.3958
 3272SOL    HW221450   1.310   4.354  12.875  0.9017  2.5953 -1.0842
 3273SOL     OW21451   2.141   2.271   8.112 -0.1616 -0.2068 -0.2462
 3273SOL    HW121452   2.161   2.294   8.021  1.0937 -0.3865 -0.0159
 3273SOL    HW221453   2.127   2.177   8.119  0.6828 -0.2261  1.3126
 3274SOL     OW21454   4.090   1.670   1.999  0.2430  0.1100 -0.6055
 3274SOL    HW121455   4.171   1.711   1.969 -0.3883  0.9712 -1.1272
 3274SOL    HW221456   4.084   1.721   2.080  1.4132  0.0357 -0.4623
 3275SOL     OW21457   2.941   0.156   4.266 -0.3508 -0.3830  0.2424
 3275SOL    HW121458   2.980   0.069   4.254  2.5463  0.7316  1.5691
 3275SOL    HW221459   2.854   0.134   4.299 -0.7314  0.5787 -0.1059
 3276SOL     OW21460   3.909   4.700  16.875  0.0179 -0.4252 -0.3885
 3276SOL    HW121461   3.939   0.012  16.800 -0.5500  1.3124  0.5716
 3276SOL    HW221462   3.924   0.025  16.945 -1.2133 -1.7057  1.0652
 3277SOL     OW21463   0.149   1.673   0.286  0.2576 -0.0981  0.4640
 3277SOL    HW121464   0.242   1.653   0.271  0.2297  0.0357  0.1163
 3277SOL    HW221465   0.126   1.612   0.356 -1.4760  1.7229  1.4598
 3278SOL     OW21466   4.646   3.161   6.643  0.1497  0.1221 -0.2854
 3278SOL    HW121467   4.649   3.066   6.648 -1.2577  0.0623 -0.3711
 3278SOL    HW221468   4.736   3.182   6.619  0.1465  0.8906  0.3627
 3279SOL     OW21469   4.057   3.652   6.364 -0.3682  0.1508 -0.3059
 3279SOL    HW121470   3.999   3.722   6.333  0.7431  1.3887  0.3847
 3279SOL    HW221471   4.041   3.575   6.309 -0.0116  0.9676 -1.5378
 3280SOL     OW21472   1.051   1.321   7.454  0.1957 -0.1044  0.1411
 3280SOL    HW121473   1.009   1.255   7.399 -1.5543  0.7348  0.4724
 3280SOL    HW221474   1.145   1.320   7.434  0.0209 -1.9931 -0.5134
 3281SOL     OW21475   1.482   2.359   2.714  0.5090  0.0742 -0.6866
 3281SOL    HW121476   1.488   2.272   2.674  0.2946  0.1802 -0.9457
 3281SOL    HW221477   1.519   2.414   2.646 -0.7361  1.2728 -0.3998
 3282SOL     OW21478   1.662   3.653   3.017 -0.1821  0.4963  0.7937
 3282SOL    HW121479   1.583   3.601   3.031  1.0377 -1.4044  0.6224
 3282SOL    HW221480   1.629   3.739   3.045 -2.3171 -0.3841  0.9769
 3283SOL     OW21481   3.582   3.384   6.545 -0.6061 -0.2245 -0.0171
 3283SOL    HW121482   3.509   3.356   6.599  0.8068  0.9478  2.4963
 3283SOL    HW221483   3.614   3.457   6.597 -1.5113 -0.3328  0.6894
 3284SOL     OW21484   3.696   1.156   7.416  0.1149 -0.3293 -0.2678
 3284SOL    HW121485   3.785   1.183   7.395  0.6881 -1.6525  0.4784
 3284SOL    HW221486   3.662   1.140   7.328 -0.3414 -0.0999 -0.1308
 3285SOL     OW21487   0.707   4.409   6.911  0.2165  0.4074 -0.5183
 3285SOL    HW121488   0.730   4.430   6.820 -0.1134  0.6625 -0.5406
 3285SOL    HW221489   0.619   4.375   6.892  0.3991 -0.7472  0.6846
 3286SOL     OW21490   3.489   2.051  16.975 -0.3839 -0.2507 -0.4968
 3286SOL    HW121491   3.512   2.143  16.982 -0.5359 -0.3016  0.7535
 3286SOL    HW221492   3.496   2.024  17.067 -1.7830  0.5470 -0.1707
 3287SOL     OW21493   4.091   3.371   2.596  0.2360 -0.1777 -0.3783
 3287SOL    HW121494   4.152   3.306   2.561 -0.5210 -1.0096 -0.1419
 3287SOL    HW221495   4.115   3.360   2.688 -0.1086  0.9396 -0.1566
 3288SOL     OW21496   2.996   2.569   4.063 -0.3485 -0.0295 -0.4839
 3288SOL    HW121497   3.065   2.517   4.104  0.5406 -0.1051 -2.0813
 3288SOL    HW221498   2.910   2.539   4.095 -1.4494  0.7327 -2.7529
 3289SOL     OW21499   3.903   0.437   8.657  0.2513  0.3000 -0.5251
 3289SOL    HW121500   3.861   0.478   8.581 -2.7233  1.9311  2.0035
 3289SOL    HW221501   3.845   0.458   8.730  1.1464  1.3875 -0.1262
 3290SOL     OW21502   3.566   0.479   7.434  0.0550  0.4393  0.4064
 3290SOL    HW121503   3.547   0.568   7.407  0.8279  0.0248 -1.5114
 3290SOL    HW221504   3.632   0.493   7.502  0.2887 -0.4438  0.3742
 3291SOL     OW21505   2.746   4.217   3.089  0.4547 -0.3790  0.4270
 3291SOL    HW121506   2.658   4.212   3.052  1.6982 -2.1408 -2.2202
 3291SOL    HW221507   2.751   4.139   3.143  1.5885 -1.4561 -1.2702
 3292SOL     OW21508   2.331   3.188   3.321  0.0957 -0.2182  0.1895
 3292SOL    HW121509   2.259   3.251   3.328 -0.9509 -1.4797  0.8493
 3292SOL    HW221510   2.348   3.175   3.414  0.4954 -0.0738  0.1346
 3293SOL     OW21511   2.923   4.462   0.529  0.3251  0.1896 -0.0321
 3293SOL    HW121512   2.980   4.456   0.452  1.4682  3.7145  0.5164
 3293SOL    HW221513   2.845   4.445   0.476  0.5284  0.9189 -0.5742
 3294SOL     OW21514   2.516   3.377  10.913  0.3000  0.1838  0.1919
 3294SOL    HW121515   2.530   3.373  10.819 -0.9986  1.0167 -0.0421
 3294SOL    HW221516   2.427   3.411  10.914  0.8665  1.7320 -2.1850
 3295SOL     OW21517   0.364   1.581  14.075 -0.0069  0.2127  0.1145
 3295SOL    HW121518   0.447   1.548  14.040 -0.5751  0.2782 -1.3295
 3295SOL    HW221519   0.385   1.573  14.168  0.3416  1.2579  0.1303
 3296SOL     OW21520   3.372   2.745   8.075 -0.3929 -0.3290  0.0899
 3296SOL    HW121521   3.330   2.673   8.028  0.7810  0.0714 -1.5798
 3296SOL    HW221522   3.350   2.829   8.035  3.5827 -0.5794 -2.6093
 3297SOL     OW21523   2.588   4.190  16.108 -0.2317  0.7875  0.0416
 3297SOL    HW121524   2.598   4.142  16.026 -2.4468  0.4273 -0.0246
 3297SOL    HW221525   2.669   4.161  16.150 -0.4332  0.5073  0.2300
 3298SOL     OW21526   1.195   3.587   8.924  0.4105  0.1248 -0.0017
 3298SOL    HW121527   1.124   3.634   8.968 -2.0796 -2.0893 -1.6503
 3298SOL    HW221528   1.224   3.651   8.859 -1.4610  1.7739  0.7845
 3299SOL     OW21529   4.467   2.508   7.891 -0.7217 -0.2476  0.1816
 3299SOL    HW121530   4.485   2.582   7.950  1.1541 -0.2102 -0.4410
 3299SOL    HW221531   4.538   2.449   7.916 -0.4465  0.3185  0.7478
 3300SOL     OW21532   1.976   2.168   6.802  0.1339  0.0058 -0.1061
 3300SOL    HW121533   1.953   2.260   6.790  0.1806 -0.0434 -0.5622
 3300SOL    HW221534   1.896   2.120   6.780  1.5189 -2.1683 -0.4988
 3301SOL     OW21535   1.224   2.242   3.938 -0.5694  0.2420 -0.1519
 3301SOL    HW121536   1.292   2.176   3.921 -2.4100 -0.8289 -3.4047
 3301SOL    HW221537   1.210   2.244   4.033 -1.2987 -0.6887 -0.2418
 3302SOL     OW21538   0.005   3.461  14.112 -0.6293  0.2348  0.0972
 3302SOL    HW121539   4.727   3.387  14.054  1.3971  0.7110 -1.1178
 3302SOL    HW221540   4.658   3.477  14.150 -1.2807  0.9809 -1.6896
 3303SOL     OW21541   4.313   0.379   8.370 -0.9006 -0.1549 -0.2508
 3303SOL    HW121542   4.402   0.354   8.396 -0.3428  0.4466 -1.5609
 3303SOL    HW221543   4.308   0.348   8.280 -1.3709 -2.6589  0.6535
 3304SOL     OW21544   4.265   4.112   7.730  0.2028  0.2438  0.1239
 3304SOL    HW121545   4.318   4.170   7.784 -0.7035  0.9763  0.2295
 3304SOL    HW221546   4.318   4.033   7.739 -1.3708 -0.5881  2.0594
 3305SOL     OW21547   3.977   4.274   3.862  0.1648 -0.0305 -0.1669
 3305SOL    HW121548   4.011   4.347   3.914  1.5259 -1.2412  0.6691
 3305SOL    HW221549   3.884   4.281   3.881 -0.0753  0.0049 -1.3489
 3306SOL     OW21550   0.606   1.985   9.324 -0.0224  0.0427  0.2521
 3306SOL    HW121551   0.676   1.920   9.329  1.0602  1.2542  0.6965
 3306SOL    HW221552   0.645   2.063   9.362 -0.2750  0.0719  0.4483
 3307SOL     OW21553   1.536   2.902   2.399 -0.1138 -0.0479 -0.1138
 3307SOL    HW121554   1.502   2.846   2.469  0.2952  0.6707  0.6613
 3307SOL    HW221555   1.483   2.980   2.413 -1.3270 -0.8548 -0.2446
 3308SOL     OW21556   4.371   3.133  10.495 -0.6274  0.0173 -0.1901
 3308SOL    HW121557   4.399   3.042  10.498 -1.5383 -0.2575  0.1589
 3308SOL    HW221558   4.316   3.144  10.417  0.5369 -2.7569 -1.3844
 3309SOL     OW21559   2.812   3.434   6.544 -0.0604 -0.1747  0.3574
 3309SOL    HW121560   2.749   3.463   6.478  0.8953  1.0646 -0.0049
 3309SOL    HW221561   2.822   3.341   6.520 -0.6236 -0.1965  0.2084
 3310SOL     OW21562   4.698   1.370   4.870 -0.0413  0.3670  0.4958
 3310SOL    HW121563   4.642   1.382   4.946  0.3477  0.7351  0.7256
 3310SOL    HW221564   4.645   1.313   4.815 -0.6243  2.0824 -0.7083
 3311SOL     OW21565   0.758   1.805  16.945  0.0630  0.2449  0.2681
 3311SOL    HW121566   0.791   1.715  16.947 -1.3063 -0.3996 -4.8273
 3311SOL    HW221567   0.667   1.788  16.971  0.3365 -1.7820 -0.0840
 3312SOL     OW21568   4.450   0.383   4.207  0.3160 -0.1344  0.0879
 3312SOL    HW121569   4.433   0.463   4.257  1.1643 -0.0013  0.1751
 3312SOL    HW221570   4.546   0.384   4.216  0.0418 -2.2956  3.3361
 3313SOL     OW21571   1.766   1.558   6.867 -0.4193 -0.2027 -0.1889
 3313SOL    HW121572   1.860   1.577   6.868 -0.6126  0.7568 -0.5827
 3313SOL    HW221573   1.751   1.583   6.958 -1.1180 -1.9026  0.1582
 3314SOL     OW21574   1.724   1.390  15.877 -0.2262 -0.1071 -0.3163
 3314SOL    HW121575   1.738   1.365  15.786 -0.4613 -3.4407  0.5436
 3314SOL    HW221576   1.650   1.449  15.861 -0.6320 -0.6318 -0.3967
 3315SOL     OW21577   0.645   3.658   3.132  0.2741  0.3238 -0.4384
 3315SOL    HW121578   0.676   3.748   3.145 -0.9202  0.6594  0.0744
 3315SOL    HW221579   0.598   3.636   3.212 -2.2171  1.6765 -1.5482
 3316SOL     OW21580   3.561   0.270   1.319  0.1018 -0.0119  0.0973
 3316SOL    HW121581   3.544   0.177   1.337  0.8951 -0.5060 -1.6815
 3316SOL    HW221582   3.497   0.300   1.254 -2.1328 -0.0867  2.2601
 3317SOL     OW21583   3.677   4.257   3.817 -0.1218 -0.1483 -0.6310
 3317SOL    HW121584   3.651   4.235   3.907 -1.3561  1.5987 -0.5594
 3317SOL    HW221585   3.669   4.353   3.819 -1.9191 -0.3045  0.0861
 3318SOL     OW21586   3.428   2.498  16.338  0.4544  0.3486 -0.3865
 3318SOL    HW121587   3.414   2.581  16.384  1.3511  0.7614 -0.8607
 3318SOL    HW221588   3.496   2.457  16.391  0.8955  0.4025 -0.9136
 3319SOL     OW21589   1.077   2.195   8.270  0.0217  0.1372  0.2144
 3319SOL    HW121590   1.127   2.132   8.321  1.0590 -0.2810 -1.3087
 3319SOL    HW221591   1.110   2.278   8.304  3.5727 -0.5048 -1.6436
 3320SOL     OW21592   3.408   3.559  12.182  0.2130 -0.5097 -0.2507
 3320SOL    HW121593   3.326   3.515  12.160  0.5622 -1.0243 -0.5318
 3320SOL    HW221594   3.387   3.649  12.157 -2.5472 -0.4634  2.2683
 3321SOL     OW21595   3.209   3.185   5.517  0.4732  0.1374  0.9247
 3321SOL    HW121596   3.168   3.249   5.459 -0.4213 -0.4985  0.8430
 3321SOL    HW221597   3.229   3.242   5.592  0.2652  2.7291 -0.9924
 3322SOL     OW21598   2.948   1.498   7.362  0.3270  0.0580 -0.1136
 3322SOL    HW121599   2.919   1.499   7.454  0.7654 -1.0733  0.0359
 3322SOL    HW221600   3.019   1.561   7.356 -0.5758  1.1490  0.6222
 3323SOL     OW21601   1.775   3.362   6.123 -0.3453 -0.5253 -0.0377
 3323SOL    HW121602   1.708   3.428   6.107 -0.1137 -0.2747  0.0142
 3323SOL    HW221603   1.844   3.428   6.117 -1.8742  0.8769 -2.1260
 3324SOL     OW21604   2.899   0.590   8.066  0.2894  0.2965  0.1030
 3324SOL    HW121605   2.956   0.591   8.143 -1.0706 -2.4979  1.1263
 3324SOL    HW221606   2.963   0.603   7.996 -1.3901 -1.5061 -1.7583
 3325SOL     OW21607   0.990   4.010   2.977 -0.2557 -0.2005 -0.0392
 3325SOL    HW121608   0.918   3.952   3.000  0.4021 -0.5674  1.1169
 3325SOL    HW221609   1.034   3.963   2.906  1.5392  1.9375 -0.3388
 3326SOL     OW21610   0.583   1.252  10.074  0.6269 -0.2057  0.4136
 3326SOL    HW121611   0.542   1.292  10.150  0.1122  0.8334 -0.3994
 3326SOL    HW221612   0.661   1.307  10.065  0.1788  0.6452  1.8942
 3327SOL     OW21613   1.460   3.718  10.489 -0.2435 -0.2353  0.1719
 3327SOL    HW121614   1.462   3.665  10.409  0.9214 -0.5942  0.4345
 3327SOL    HW221615   1.484   3.656  10.557 -0.1130 -1.2825 -0.8327
 3328SOL     OW21616   0.456   1.759   9.053  0.3822  0.0880 -0.4166
 3328SOL    HW121617   0.436   1.845   9.015 -0.5437  0.6477  1.3323
 3328SOL    HW221618   0.477   1.716   8.970  2.4071  1.1633 -0.4620
 3329SOL     OW21619   2.344   3.665   5.582  0.4691 -0.0580 -0.1584
 3329SOL    HW121620   2.306   3.599   5.525 -0.6053  1.8416 -1.6401
 3329SOL    HW221621   2.407   3.610   5.629 -0.0887 -1.5398 -1.1610
 3330SOL     OW21622   3.836   2.237  17.078 -0.5009 -0.0347 -0.0569
 3330SOL    HW121623   3.813   2.211  17.167 -1.0837 -3.4283 -1.1841
 3330SOL    HW221624   3.750   2.268  17.050  0.6355  0.8829 -2.5422
 3331SOL     OW21625   2.650   2.078   5.472 -0.5508  0.1278  0.0238
 3331SOL    HW121626   2.613   2.167   5.474 -0.4323  0.1120  2.2553
 3331SOL    HW221627   2.742   2.097   5.487 -0.4495 -1.7765  1.7738
 3332SOL     OW21628   2.989   3.214   3.350  0.1375  0.1077  0.2334
 3332SOL    HW121629   3.061   3.229   3.411 -0.4817 -0.9202  1.2161
 3332SOL    HW221630   2.979   3.304   3.318 -1.3309 -0.5786 -1.2236
 3333SOL     OW21631   4.625   2.266   7.317 -0.3644 -0.2666 -0.5559
 3333SOL    HW121632   4.579   2.224   7.390 -0.5279  1.7632  0.5288
 3333SOL    HW221633   4.612   2.358   7.343 -0.0324  0.3133 -2.4650
 3334SOL     OW21634   3.298   2.271   6.349  0.1809  0.4897  0.4344
 3334SOL    HW121635   3.332   2.306   6.266 -1.0076  0.5192 -0.0378
 3334SOL    HW221636   3.300   2.346   6.408 -2.8471  0.7388  0.2157
 3335SOL     OW21637   3.723   4.347  13.987 -0.1938 -0.2743 -0.2418
 3335SOL    HW121638   3.758   4.338  14.076  2.5298 -1.6670 -1.5047
 3335SOL    HW221639   3.808   4.341  13.946  1.1995  1.8597  2.2898
 3336SOL     OW21640   0.378   0.234   4.402 -0.7386  0.2999 -0.2229
 3336SOL    HW121641   0.464   0.267   4.374 -0.7540  0.6280  0.1229
 3336SOL    HW221642   0.406   0.181   4.477 -1.1525 -0.6447 -0.7300
 3337SOL     OW21643   2.562   1.972   4.583 -0.4676 -0.1433 -0.2416
 3337SOL    HW121644   2.528   1.903   4.526  1.4929 -0.1447 -1.3892
 3337SOL    HW221645   2.648   1.982   4.543 -0.3922  2.0778  0.4606
 3338SOL     OW21646   2.334   4.511  12.569 -0.2061  0.2785 -0.0679
 3338SOL    HW121647   2.325   4.603  12.547 -0.2582  0.3486  0.2383
 3338SOL    HW221648   2.258   4.492  12.625 -0.8323  2.5874 -0.1432
 3339SOL     OW21649   4.425   3.663   8.092  0.9448 -1.2994  0.2531
 3339SOL    HW121650   4.439   3.645   8.185 -0.6400  2.2965  1.1980
 3339SOL    HW221651   4.506   3.709   8.072 -1.2763  1.2560 -3.0803
 3340SOL     OW21652   2.430   3.543   3.180 -0.1013 -0.1629  0.3495
 3340SOL    HW121653   2.349   3.522   3.226  1.1128 -0.0583  2.5545
 3340SOL    HW221654   2.487   3.467   3.177  0.7230  0.4766 -0.1093
 3341SOL     OW21655   2.679   1.186  14.395 -0.1737  0.0502 -0.4191
 3341SOL    HW121656   2.728   1.121  14.444  0.2860  0.7925  0.1125
 3341SOL    HW221657   2.621   1.215  14.465 -1.5093 -1.8160 -0.7651
 3342SOL     OW21658   0.446   0.959   1.016  0.4099  0.3402 -0.2335
 3342SOL    HW121659   0.520   0.922   0.966 -0.9135  0.0109 -1.9384
 3342SOL    HW221660   0.368   0.928   0.971  0.4093 -1.3294  0.8940
 3343SOL     OW21661   1.666   1.985  13.065 -0.2647  0.2974 -0.0296
 3343SOL    HW121662   1.745   1.978  13.118  0.6273 -2.3408 -1.6960
 3343SOL    HW221663   1.632   2.073  13.081 -0.3560  0.1525  0.5748
 3344SOL     OW21664   2.059   0.806  15.976 -0.0917  0.0145  0.0125
 3344SOL    HW121665   2.145   0.770  15.957 -0.2860  0.0567 -0.9605
 3344SOL    HW221666   2.024   0.787  15.888 -0.4636  0.3126  0.0957
 3345SOL     OW21667   0.219   2.947   6.155 -0.1213  0.3274 -0.8050
 3345SOL    HW121668   0.123   2.945   6.149 -0.1551  1.2031 -0.3995
 3345SOL    HW221669   0.240   2.946   6.248  0.1036 -1.5535 -0.8745
 3346SOL     OW21670   3.932   3.338   8.896  0.3601 -0.4168 -0.0828
 3346SOL    HW121671   3.910   3.249   8.927  0.3379 -0.6188 -0.6868
 3346SOL    HW221672   3.872   3.387   8.951  1.5579  0.9010  0.0312
 3347SOL     OW21673   2.184   2.836   2.903  0.3714 -0.0300  0.0937
 3347SOL    HW121674   2.120   2.893   2.858  0.7662  1.4160  1.3678
 3347SOL    HW221675   2.197   2.885   2.984 -1.0931 -1.6618  1.2910
 3348SOL     OW21676   3.178   3.844   9.293 -0.4259 -0.2686 -0.4929
 3348SOL    HW121677   3.116   3.812   9.359  2.0573 -0.7732  1.5546
 3348SOL    HW221678   3.151   3.930   9.261  1.0093  1.2251  2.3338
 3349SOL     OW21679   3.119   0.890   3.774 -0.2383 -0.2875 -0.3279
 3349SOL    HW121680   3.066   0.932   3.841  0.5827  0.5113 -0.1798
 3349SOL    HW221681   3.208   0.910   3.802 -1.4976  3.5476  0.8700
 3350SOL     OW21682   1.727   4.173   3.321  0.3400  0.6186 -0.6178
 3350SOL    HW121683   1.784   4.229   3.268  1.2564  1.7030  1.5030
 3350SOL    HW221684   1.643   4.211   3.295  0.2671 -0.4645 -1.9157
 3351SOL     OW21685   0.525   3.765  10.183 -0.6107  0.0157 -0.4534
 3351SOL    HW121686   0.498   3.696  10.122 -0.8269  0.0960 -0.4520
 3351SOL    HW221687   0.526   3.723  10.268 -0.4562  0.2452 -0.3414
 3352SOL     OW21688   2.089   4.507  10.787 -0.2660 -0.2579  0.0641
 3352SOL    HW121689   2.135   4.477  10.709  1.1454  0.0759  0.7799
 3352SOL    HW221690   2.099   4.602  10.781  0.5648 -0.4390 -1.3935
 3353SOL     OW21691   2.203   0.902   6.195 -0.2085  0.7033  0.1541
 3353SOL    HW121692   2.160   0.886   6.280 -0.1877  1.2287  0.2647
 3353SOL    HW221693   2.256   0.976   6.225  0.4476  1.5379 -3.1382
 3354SOL     OW21694   0.936   1.401   6.459 -0.5867 -0.1785  0.2163
 3354SOL    HW121695   0.885   1.356   6.526  1.0069  2.4998  3.2545
 3354SOL    HW221696   0.874   1.404   6.386 -0.4029 -0.5739  0.0466
 3355SOL     OW21697   2.677   0.848   4.511 -0.5993  0.1250 -0.6672
 3355SOL    HW121698   2.704   0.940   4.508 -0.6575  0.1716  0.4617
 3355SOL    HW221699   2.628   0.839   4.429 -1.2674  1.6061 -0.4353
 3356SOL     OW21700   1.647   1.010  17.106  0.3163  0.0126 -0.5927
 3356SOL    HW121701   1.633   1.039  17.196  2.6518 -2.0797  0.4507
 3356SOL    HW221702   1.739   0.989  17.118 -0.1034 -0.1453  2.4778
 3357SOL     OW21703   2.657   1.235   5.725 -0.5660 -0.3937 -0.0928
 3357SOL    HW121704   2.707   1.199   5.652  0.3485 -1.4032  1.0394
 3357SOL    HW221705   2.578   1.181   5.737 -1.6990  1.6636  1.7857
 3358SOL     OW21706   3.382   3.278   7.398 -0.0167  0.0905  0.6735
 3358SOL    HW121707   3.437   3.349   7.430 -1.0912  1.7076 -1.0146
 3358SOL    HW221708   3.300   3.328   7.405  1.3367  2.4367 -0.4405
 3359SOL     OW21709   0.017   1.081   6.111  0.4713 -0.5042 -0.0581
 3359SOL    HW121710   0.071   1.121   6.043 -0.4330  0.1718 -0.3747
 3359SOL    HW221711   0.075   1.069   6.186  0.2405  0.6524  0.2959
 3360SOL     OW21712   2.287   3.003   9.114 -0.2958 -0.5161 -0.3944
 3360SOL    HW121713   2.261   3.092   9.137  1.1523  0.0550 -0.9192
 3360SOL    HW221714   2.225   2.971   9.049  0.1491  2.1891 -2.1423
 3361SOL     OW21715   1.666   1.469  16.126  0.6129 -0.0138 -0.3089
 3361SOL    HW121716   1.589   1.434  16.080 -0.8898  1.6116  0.9803
 3361SOL    HW221717   1.733   1.442  16.063  1.1365  0.4200  0.0576
 3362SOL     OW21718   0.671   4.597  12.936 -0.2751  0.4320 -0.2301
 3362SOL    HW121719   0.666   4.567  13.027 -0.3452  2.5636  0.4512
 3362SOL    HW221720   0.765   4.615  12.927 -0.4910  0.3110 -2.6773
 3363SOL     OW21721   3.001   1.290   5.471 -0.3291  0.1279 -0.8101
 3363SOL    HW121722   3.078   1.242   5.441  0.9750  1.0150  1.1286
 3363SOL    HW221723   2.947   1.219   5.508  0.6406 -0.0487  0.2843
 3364SOL     OW21724   0.182   2.849   2.107 -0.4190  0.3088 -0.0647
 3364SOL    HW121725   0.133   2.885   2.180 -2.6362 -0.8531 -0.9857
 3364SOL    HW221726   0.221   2.931   2.076  3.2074 -0.7809  1.5392
 3365SOL     OW21727   3.674   1.458   8.357  0.4286  0.1907  0.0319
 3365SOL    HW121728   3.758   1.414   8.374  0.5389  1.2262  2.2520
 3365SOL    HW221729   3.699   1.550   8.342 -0.4585  0.5455  0.7543
 3366SOL     OW21730   0.338   1.940   5.490  0.5994 -0.0064 -0.6347
 3366SOL    HW121731   0.328   2.034   5.505  2.1186  0.0411  0.0726
 3366SOL    HW221732   0.390   1.918   5.567 -1.3915  0.5082  0.8398
 3367SOL     OW21733   3.455   2.004   7.563  0.3726 -0.0417 -0.1361
 3367SOL    HW121734   3.500   1.920   7.570 -2.0500 -1.4581 -1.4920
 3367SOL    HW221735   3.500   2.048   7.492  0.1250  2.1121  1.0096
 3368SOL     OW21736   1.737   4.703   5.191 -0.7078  0.3006  0.2278
 3368SOL    HW121737   1.659   4.706   5.247  0.2294  2.1121  1.4205
 3368SOL    HW221738   1.796   4.669   5.259  0.7624  2.1665 -0.1228
 3369SOL     OW21739   3.695   1.307   4.695  0.3387 -0.1077  0.3596
 3369SOL    HW121740   3.675   1.358   4.774  0.1041  1.6525 -0.8356
 3369SOL    HW221741   3.625   1.332   4.635  2.2349  1.8162 -1.0781
 3370SOL     OW21742   0.336   1.559  10.170  0.0130 -0.2438 -1.1525
 3370SOL    HW121743   0.383   1.643  10.168 -1.2337  0.4376 -2.7630
 3370SOL    HW221744   0.307   1.581  10.081  1.5121 -0.4091 -1.6918
 3371SOL     OW21745   3.632   2.780  15.302 -0.4163 -0.4498  0.3263
 3371SOL    HW121746   3.628   2.867  15.341 -2.9450 -0.9123  1.0894
 3371SOL    HW221747   3.551   2.774  15.252 -0.6254  1.4051  0.4479
 3372SOL     OW21748   4.319   3.028   0.030 -0.2561  0.0421  0.7765
 3372SOL    HW121749   4.239   2.978   0.046  0.6640 -2.1972 -1.4982
 3372SOL    HW221750   4.383   2.987   0.087 -0.3173 -0.9414  0.1365
 3373SOL     OW21751   3.548   1.762  10.474 -0.0096 -0.4807  0.1871
 3373SOL    HW121752   3.515   1.678  10.506 -1.0234  0.0280  0.4523
 3373SOL    HW221753   3.560   1.750  10.380 -0.7346 -2.0000  0.2881
 3374SOL     OW21754   1.208   3.959  11.153 -0.7902  0.0680 -0.0952
 3374SOL    HW121755   1.186   4.045  11.187 -1.7324 -0.6688  1.1588
 3374SOL    HW221756   1.237   3.921  11.236  0.3796  0.7503 -0.1998
 3375SOL     OW21757   1.615   1.535   7.678  0.0473  0.5126  0.3478
 3375SOL    HW121758   1.706   1.561   7.661 -0.2084  2.8237  2.4733
 3375SOL    HW221759   1.599   1.471   7.609  1.9502 -0.0244  0.3870
 3376SOL     OW21760   2.128   3.086   5.705  0.1783 -0.1178  0.1158
 3376SOL    HW121761   2.062   3.018   5.689 -0.3135  0.5863 -0.8758
 3376SOL    HW221762   2.147   3.053   5.793  0.5939 -2.7849 -0.9683
 3377SOL     OW21763   3.524   2.430   8.918 -0.5367 -0.2516  0.0475
 3377SOL    HW121764   3.515   2.443   8.824  0.4959  2.9559  0.3917
 3377SOL    HW221765   3.610   2.468   8.937 -1.2009  0.5276  1.5121
 3378SOL     OW21766   0.681   2.646  14.888  0.4962  0.3973  0.4177
 3378SOL    HW121767   0.691   2.684  14.975  0.6790  2.3067 -0.4178
 3378SOL    HW221768   0.676   2.732  14.845 -2.0485 -0.8163 -1.6732
 3379SOL     OW21769   2.128   1.506   7.502  0.2268 -0.5674 -0.0549
 3379SOL    HW121770   2.088   1.559   7.433 -2.4121 -1.4162  0.8247
 3379SOL    HW221771   2.061   1.445   7.532  1.1789 -0.1809  2.9803
 3380SOL     OW21772   0.232   3.484   9.600 -0.9328 -0.1224 -0.3933
 3380SOL    HW121773   0.160   3.544   9.617 -0.3075  0.0348  1.6974
 3380SOL    HW221774   0.299   3.527   9.653  0.5664 -3.1421  0.1872
 3381SOL     OW21775   2.683   1.733   8.803 -0.3448  0.6422  0.0061
 3381SOL    HW121776   2.775   1.717   8.822 -1.1365 -3.1803  0.6022
 3381SOL    HW221777   2.650   1.651   8.764  1.7608  0.1011 -0.6254
 3382SOL     OW21778   3.011   3.275   2.174 -0.0346 -0.1880  0.4953
 3382SOL    HW121779   3.023   3.359   2.130  1.2706 -1.3701 -1.3496
 3382SOL    HW221780   3.103   3.251   2.170  0.8102  3.2707 -0.3832
 3383SOL     OW21781   4.542   2.567  17.464 -0.2387 -0.1696 -0.2772
 3383SOL    HW121782   4.563   2.614  17.383  1.2823 -1.7850 -0.8361
 3383SOL    HW221783   4.589   2.621  17.526  0.1601 -1.0896  0.2254
 3384SOL     OW21784   1.406   3.580  11.222  0.1009 -0.7210 -0.5243
 3384SOL    HW121785   1.428   3.632  11.145 -1.1311  0.7340  0.1111
 3384SOL    HW221786   1.437   3.643  11.287 -2.3540  0.7790 -0.8114
 3385SOL     OW21787   3.161   4.334  10.777  0.3216 -0.3458 -0.1810
 3385SOL    HW121788   3.186   4.290  10.858 -0.4377  0.7338  0.6334
 3385SOL    HW221789   3.072   4.354  10.805 -0.1850  0.0399 -2.0790
 3386SOL     OW21790   0.007   0.006   3.873 -0.3834  0.1939 -0.1174
 3386SOL    HW121791   4.721   0.051   3.793  1.8815  1.5513 -0.0589
 3386SOL    HW221792   0.089   4.705   3.842 -1.2463  2.0561 -4.8759
 3387SOL     OW21793   0.595   1.692   5.488  0.5331  0.4265 -0.0359
 3387SOL    HW121794   0.640   1.755   5.544 -1.3305  1.0059  0.8252
 3387SOL    HW221795   0.624   1.609   5.526 -1.0329 -0.5535 -0.9693
 3388SOL     OW21796   4.011   1.051   5.481  0.3932  0.0207 -0.4575
 3388SOL    HW121797   3.917   1.054   5.500  0.4408 -2.0675  0.0458
 3388SOL    HW221798   4.005   1.079   5.389 -0.2752  0.0258 -0.4136
 3389SOL     OW21799   0.037   1.845   4.613  0.6074 -0.5502  0.1469
 3389SOL    HW121800   4.720   1.817   4.541  0.6867  0.6022 -0.3567
 3389SOL    HW221801   0.065   1.759   4.646  0.4369 -0.8845 -0.5811
 3390SOL     OW21802   2.989   3.680   3.274  0.6289  0.4639 -0.0450
 3390SOL    HW121803   2.971   3.683   3.368  1.6669 -1.5208  0.1977
 3390SOL    HW221804   3.042   3.758   3.259  1.0556  0.4096  1.2393
 3391SOL     OW21805   2.742   2.350   6.817  0.0079 -0.1265  0.5722
 3391SOL    HW121806   2.752   2.389   6.730 -0.6355  2.1691  1.5470
 3391SOL    HW221807   2.796   2.271   6.808  0.0531 -0.3221  2.6478
 3392SOL     OW21808   0.041   2.881   5.074 -0.1458  0.2868  0.2341
 3392SOL    HW121809   0.116   2.886   5.015 -2.3033  0.7093 -2.5151
 3392SOL    HW221810   4.731   2.959   5.045  1.4899  0.7272 -1.3427
 3393SOL     OW21811   0.489   2.192   7.404  0.2511  0.3691  0.0866
 3393SOL    HW121812   0.460   2.125   7.466  1.2491  0.3191  0.5031
 3393SOL    HW221813   0.423   2.184   7.335 -2.6498 -3.1085  3.2446
 3394SOL     OW21814   0.889   3.074   8.254  0.2740  0.1537 -0.1085
 3394SOL    HW121815   0.969   3.076   8.306  0.0927  1.0463  0.1320
 3394SOL    HW221816   0.896   2.980   8.237 -3.3641 -0.4799  1.8301
 3395SOL     OW21817   3.235   2.088   0.760  0.1949 -0.0528 -0.1691
 3395SOL    HW121818   3.277   2.070   0.676  1.2088 -1.7488  0.6995
 3395SOL    HW221819   3.194   2.173   0.745 -0.9733 -0.1953  2.1896
 3396SOL     OW21820   1.496   3.724   2.359  0.4157 -0.1930  0.1327
 3396SOL    HW121821   1.439   3.793   2.393  2.1783 -0.4034  3.5470
 3396SOL    HW221822   1.493   3.743   2.265 -1.7997  3.2381  0.8967
 3397SOL     OW21823   3.202   4.453  15.214  0.3061 -0.6070  0.2876
 3397SOL    HW121824   3.247   4.393  15.155  0.8138 -0.1740  0.2308
 3397SOL    HW221825   3.111   4.439  15.189 -0.5076  2.9427  1.3530
 3398SOL     OW21826   0.212   3.490   6.965 -0.1807  0.1596 -0.0526
 3398SOL    HW121827   0.185   3.570   6.919 -0.9307 -0.4057 -0.5974
 3398SOL    HW221828   0.289   3.517   7.014 -0.2518  1.0172 -0.4004
 3399SOL     OW21829   2.742   0.946  14.502 -0.6878 -0.4892 -0.3983
 3399SOL    HW121830   2.838   0.944  14.500 -0.6625 -1.8403  2.0008
 3399SOL    HW221831   2.726   0.856  14.532  1.8897 -0.6521  0.5238
 3400SOL     OW21832   0.508   3.966   9.985  0.2777 -0.3313  0.4062
 3400SOL    HW121833   0.531   4.042  10.038 -0.8327  0.4751 -0.2683
 3400SOL    HW221834   0.515   3.905  10.058 -1.6135 -0.6736  0.3069
 3401SOL     OW21835   2.146   2.657   4.335 -0.1633  0.5574 -0.0825
 3401SOL    HW121836   2.127   2.647   4.241  0.9136 -1.9209 -0.0515
 3401SOL    HW221837   2.106   2.743   4.339 -1.0512  0.2547 -2.1152
 3402SOL     OW21838   4.372   0.246  10.284 -0.3270 -0.1939  0.5723
 3402SOL    HW121839   4.435   0.287  10.224  0.3427 -0.5049  1.0662
 3402SOL    HW221840   4.423   0.255  10.364 -0.2939  1.0672  0.4067
 3403SOL     OW21841   0.054   3.689   9.586 -0.1953  0.1334  0.1662
 3403SOL    HW121842   4.737   3.612   9.597 -0.4785  0.3909  0.5759
 3403SOL    HW221843   0.008   3.758   9.635  0.7171  0.5723  0.4040
 3404SOL     OW21844   4.299   2.120  14.340 -0.6462 -0.2225 -0.2886
 3404SOL    HW121845   4.235   2.084  14.402 -0.3694  0.2458  0.2677
 3404SOL    HW221846   4.302   2.214  14.358 -0.7864 -0.5267  1.3128
 3405SOL     OW21847   0.714   0.501   2.530 -0.5623 -0.0612  0.2289
 3405SOL    HW121848   0.794   0.457   2.557 -1.3380 -0.1088  2.4904
 3405SOL    HW221849   0.756   0.581   2.498 -0.2785 -0.0119  0.7156
 3406SOL     OW21850   1.139   0.887   9.418  0.1904  0.3700 -0.5522
 3406SOL    HW121851   1.174   0.844   9.497  1.2041 -2.0029 -2.2924
 3406SOL    HW221852   1.059   0.933   9.443  0.0299 -0.5360  0.6482
 3407SOL     OW21853   2.324   1.249   1.994 -0.0508  0.1522  0.6613
 3407SOL    HW121854   2.255   1.309   1.963  1.9206  3.0655  1.9743
 3407SOL    HW221855   2.388   1.253   1.922 -1.2046 -0.0329 -0.3868
 3408SOL     OW21856   2.892   2.803  15.129  0.0456 -1.0933 -0.4243
 3408SOL    HW121857   2.859   2.816  15.040  0.8947  0.7108 -0.4654
 3408SOL    HW221858   2.860   2.879  15.176  0.9832 -1.5028  0.8753
 3409SOL     OW21859   2.111   1.557  10.868 -0.0260  0.2351  0.3218
 3409SOL    HW121860   2.118   1.602  10.783  2.6740 -1.5789 -0.4098
 3409SOL    HW221861   2.075   1.631  10.916  0.8827  1.2420 -0.5610
 3410SOL     OW21862   0.638   3.155   8.318 -0.4424 -0.1107  0.1700
 3410SOL    HW121863   0.732   3.154   8.297 -0.4864 -1.7372  0.0365
 3410SOL    HW221864   0.620   3.065   8.347  0.4564 -0.1526  0.6169
 3411SOL     OW21865   2.215   4.557   7.616 -0.3755  0.1106 -0.1728
 3411SOL    HW121866   2.193   4.561   7.523  0.6062  0.8114 -0.3739
 3411SOL    HW221867   2.307   4.535   7.602  0.0936  0.5546  2.2960
 3412SOL     OW21868   0.666   1.231   4.987  0.2310 -0.2366 -0.0387
 3412SOL    HW121869   0.722   1.242   5.064  2.3013  1.4598 -1.7774
 3412SOL    HW221870   0.652   1.138   4.999 -1.0966  0.0550  0.6528
 3413SOL     OW21871   0.241   4.558  17.420  0.5257 -0.2475 -0.2794
 3413SOL    HW121872   0.324   4.605  17.420  0.5734 -0.3478  0.9395
 3413SOL    HW221873   0.187   4.622  17.374 -0.8042  0.3405  2.1440
 3414SOL     OW21874   3.543   1.109   5.988 -0.5238 -0.3202  0.7232
 3414SOL    HW121875   3.527   1.080   6.078 -2.3278 -0.7918  0.2534
 3414SOL    HW221876   3.565   1.200   6.008 -0.9776  0.5257 -2.6902
 3415SOL     OW21877   3.895   0.398   3.643 -0.2244 -0.5694  0.0265
 3415SOL    HW121878   3.873   0.483   3.606 -1.4375 -0.2632  1.4459
 3415SOL    HW221879   3.828   0.386   3.711 -0.6817 -0.7320 -0.4531
 3416SOL     OW21880   1.960   4.134  17.503  0.1176  0.2455  0.7180
 3416SOL    HW121881   1.962   4.077  17.580 -2.4212 -0.8731 -0.0373
 3416SOL    HW221882   1.872   4.171  17.503  1.0852  2.5117 -0.1886
 3417SOL     OW21883   0.635   4.687   2.961  0.2902 -0.4145  0.2439
 3417SOL    HW121884   0.650   4.671   3.054  1.8734  2.0314  0.4173
 3417SOL    HW221885   0.634   0.043   2.946 -0.5792 -0.4593  0.0266
 3418SOL     OW21886   3.332   0.731  17.193 -0.6288 -0.0868  0.1245
 3418SOL    HW121887   3.328   0.749  17.287  0.3237 -1.1720  0.3790
 3418SOL    HW221888   3.367   0.812  17.155 -0.0859 -1.0319 -1.3975
 3419SOL     OW21889   3.507   0.273   7.627 -0.0836  0.3888 -0.2738
 3419SOL    HW121890   3.479   0.328   7.553  0.5111 -0.4106 -1.0884
 3419SOL    HW221891   3.435   0.210   7.635 -0.5680  0.7574 -1.6965
 3420SOL     OW21892   2.556   0.852  16.360 -0.0170  0.0377  0.4089
 3420SOL    HW121893   2.571   0.761  16.333  2.5145  0.4575  0.4422
 3420SOL    HW221894   2.650   0.870  16.356 -0.0227 -0.2372 -0.9445
 3421SOL     OW21895   3.812   2.505   5.338 -0.3149 -0.0970 -0.4283
 3421SOL    HW121896   3.865   2.582   5.355 -1.3527  0.7103 -0.8514
 3421SOL    HW221897   3.882   2.449   5.304  1.2153  1.4274  0.2778
 3422SOL     OW21898   2.956   4.463   2.935 -0.0815  0.3644  0.2122
 3422SOL    HW121899   2.991   4.522   3.002 -0.5716  0.5173  0.3277
 3422SOL    HW221900   2.873   4.506   2.917 -0.4195 -0.3229  0.0988
 3423SOL     OW21901   0.834   0.464   7.727  0.2661 -0.3006 -0.4660
 3423SOL    HW121902   0.771   0.393   7.711  0.8562 -0.8206 -0.5048
 3423SOL    HW221903   0.915   0.425   7.762  0.4021  0.1040 -0.3279
 3424SOL     OW21904   3.848   2.873  14.495 -0.0187 -0.1106 -0.5391
 3424SOL    HW121905   3.854   2.792  14.444 -0.0298 -0.5791  0.2008
 3424SOL    HW221906   3.936   2.909  14.508 -0.8287  1.6742  0.0633
 3425SOL     OW21907   2.475   2.668  14.526 -0.9219 -0.1499 -0.5391
 3425SOL    HW121908   2.470   2.757  14.560 -1.2006 -0.0333 -0.8842
 3425SOL    HW221909   2.568   2.647  14.527 -0.9882 -0.4039  0.6179
 3426SOL     OW21910   3.428   1.038   8.283 -0.3423  0.7389 -0.0050
 3426SOL    HW121911   3.475   1.120   8.263 -1.8227  1.6767  0.3756
 3426SOL    HW221912   3.500   0.983   8.251 -0.1238  0.4968  0.9111
 3427SOL     OW21913   2.891   1.714  13.946  0.2124  0.4836  0.5236
 3427SOL    HW121914   2.814   1.689  13.998  0.0043  2.6435  1.2445
 3427SOL    HW221915   2.887   1.660  13.867  0.5318  1.5904 -0.2458
 3428SOL     OW21916   2.624   3.620  11.848  0.9237 -0.1328 -0.0765
 3428SOL    HW121917   2.650   3.578  11.931 -1.4264  2.8143  2.1476
 3428SOL    HW221918   2.537   3.589  11.825 -0.3650  3.0032  0.6186
 3429SOL     OW21919   4.023   3.214   0.067 -0.2013 -0.3740 -0.2674
 3429SOL    HW121920   4.006   3.158  17.745  1.4438 -0.1134 -0.8197
 3429SOL    HW221921   3.933   3.228   0.096  0.0088  0.4590 -0.0255
 3430SOL     OW21922   4.041   4.530   1.943  0.0511  0.1380 -0.2928
 3430SOL    HW121923   4.037   4.453   1.887 -1.1609 -0.5095  0.6923
 3430SOL    HW221924   4.003   4.487   2.019 -0.7616 -0.1490 -0.8586
 3431SOL     OW21925   0.523   4.293   4.730 -0.1908  0.5284  0.6853
 3431SOL    HW121926   0.435   4.289   4.769 -0.6522  0.7424 -0.3520
 3431SOL    HW221927   0.582   4.276   4.804  0.5037  0.4389  0.1046
 3432SOL     OW21928   3.643   3.669   9.397  0.3700 -0.3200 -0.1283
 3432SOL    HW121929   3.588   3.732   9.350  2.1327  1.5200  0.2584
 3432SOL    HW221930   3.701   3.636   9.329 -0.1225 -2.4774  0.5213
 3433SOL     OW21931   2.996   2.987  14.720 -0.2202  0.2744  0.7284
 3433SOL    HW121932   2.992   3.072  14.763  1.8518  1.8044 -2.0788
 3433SOL    HW221933   2.924   2.945  14.767 -1.3028 -0.1850 -1.3287
 3434SOL     OW21934   0.706   3.874   2.048  0.4196  0.2366 -0.9231
 3434SOL    HW121935   0.708   3.968   2.069  1.4904  0.3618 -1.5438
 3434SOL    HW221936   0.619   3.865   2.010 -0.7451  0.4765  1.7298
 3435SOL     OW21937   3.794   1.201   9.250  0.5909  0.5271 -0.3319
 3435SOL    HW121938   3.721   1.198   9.188  0.5431 -0.3518 -0.2257
 3435SOL    HW221939   3.773   1.131   9.311  0.4699 -0.1459 -1.1535
 3436SOL     OW21940   1.909   0.387   4.471  0.0596  0.0544  0.1382
 3436SOL    HW121941   1.846   0.367   4.540 -0.1653 -0.5498 -0.2379
 3436SOL    HW221942   1.988   0.371   4.522 -0.6377 -0.1656  1.1403
 3437SOL     OW21943   3.757   2.450  11.896  0.1846 -0.0209 -0.2807
 3437SOL    HW121944   3.784   2.395  11.822 -0.4474 -2.2902  1.1600
 3437SOL    HW221945   3.837   2.482  11.939  0.5890 -1.5353  0.1118
 3438SOL     OW21946   4.705   3.957  14.159  0.4442  0.2159  0.2895
 3438SOL    HW121947   0.012   4.020  14.214  1.8360 -1.5984  1.1559
 3438SOL    HW221948   0.038   3.901  14.133  0.4247 -0.4357  1.6461
 3439SOL     OW21949   1.950   0.570   2.516 -0.1963  0.5176 -0.2537
 3439SOL    HW121950   1.986   0.634   2.455  3.4147 -2.2770 -1.0991
 3439SOL    HW221951   2.005   0.494   2.496  1.0683  0.6996  2.5415
 3440SOL     OW21952   2.581   4.339   2.686  0.4920  0.1869 -0.3270
 3440SOL    HW121953   2.551   4.417   2.639  1.0700  1.8759  2.1498
 3440SOL    HW221954   2.671   4.354   2.714  0.6771  0.1325 -0.8860
 3441SOL     OW21955   3.994   2.282   5.989 -0.1302 -0.5389 -0.3511
 3441SOL    HW121956   3.985   2.373   6.018 -1.3351 -0.0887 -2.1424
 3441SOL    HW221957   4.089   2.279   5.979  0.0893  2.1893  0.8534
 3442SOL     OW21958   1.156   1.283   6.190  0.1347  0.4767  0.3712
 3442SOL    HW121959   1.135   1.217   6.255  0.7763  0.3528  0.4608
 3442SOL    HW221960   1.099   1.355   6.218 -0.8976 -0.6387  1.1120
 3443SOL     OW21961   1.109   4.385   9.322 -0.1114  0.2578 -0.0815
 3443SOL    HW121962   1.152   4.446   9.383  2.0644 -3.3058  1.9098
 3443SOL    HW221963   1.112   4.439   9.242 -0.1214  0.9976  0.4165
 3444SOL     OW21964   1.630   2.192   2.066  0.2652 -0.4635  0.0149
 3444SOL    HW121965   1.610   2.251   1.994 -0.4974 -0.5208  0.1793
 3444SOL    HW221966   1.629   2.252   2.141  0.0384  1.2678 -1.3851
 3445SOL     OW21967   3.463   2.701  12.356  0.2935  0.1840 -0.2133
 3445SOL    HW121968   3.384   2.658  12.389  2.3288 -2.3641  1.3301
 3445SOL    HW221969   3.521   2.684  12.430 -1.8229 -1.9394  0.9551
 3446SOL     OW21970   1.044   3.212   0.506 -0.7328 -0.0737  0.0257
 3446SOL    HW121971   1.092   3.129   0.511 -0.2009  0.4825  4.0259
 3446SOL    HW221972   1.075   3.234   0.418  1.0790  1.0726  0.9578
 3447SOL     OW21973   1.758   3.920  11.039  0.2247 -0.1326 -0.2671
 3447SOL    HW121974   1.832   3.980  11.053  0.3583 -0.6104  1.0527
 3447SOL    HW221975   1.800   3.839  11.009  0.5123 -0.0063 -0.2121
 3448SOL     OW21976   3.038   1.747   6.810 -0.7339  0.7047  0.0131
 3448SOL    HW121977   3.121   1.781   6.843 -0.8493  2.2933 -1.3538
 3448SOL    HW221978   2.977   1.818   6.829 -4.7811 -2.6480 -0.4284
 3449SOL     OW21979   0.705   4.168   2.402 -0.8149  0.0718 -0.5994
 3449SOL    HW121980   0.682   4.163   2.310  1.4501  0.1793 -1.1837
 3449SOL    HW221981   0.619   4.151   2.442 -0.5005  0.4020  0.2223
 3450SOL     OW21982   1.074   0.181   2.371 -0.4027 -0.1910  0.2951
 3450SOL    HW121983   1.120   0.254   2.413  0.0931 -0.5106  0.3017
 3450SOL    HW221984   1.145   0.122   2.346  0.5980  1.4297 -0.6738
 3451SOL     OW21985   2.448   4.394   6.365  0.0129 -0.6431 -0.2979
 3451SOL    HW121986   2.543   4.383   6.365 -0.0005 -0.7633 -0.2245
 3451SOL    HW221987   2.422   4.399   6.273  0.2948  3.5347 -0.1200
 3452SOL     OW21988   1.267   1.306   4.678 -0.0882  0.4968  0.4884
 3452SOL    HW121989   1.238   1.294   4.587 -3.1392  2.1312  1.2525
 3452SOL    HW221990   1.326   1.380   4.660  0.4236 -0.0724 -0.1876
 3453SOL     OW21991   4.261   0.156   1.467 -0.2591 -0.0843  0.3554
 3453SOL    HW121992   4.339   0.101   1.456 -0.9223 -0.9113 -0.2583
 3453SOL    HW221993   4.269   0.166   1.562  2.3956 -0.1267  0.1513
 3454SOL     OW21994   3.407   3.226   5.032 -0.1700 -0.1279 -0.3233
 3454SOL    HW121995   3.316   3.217   5.060 -0.1310  0.7960  0.0715
 3454SOL    HW221996   3.429   3.300   5.088  1.2394 -0.1621 -0.8305
 3455SOL     OW21997   2.008   1.642   2.308  0.2440 -0.6519 -0.0714
 3455SOL    HW121998   1.986   1.732   2.284  2.8851 -0.2359 -0.9271
 3455SOL    HW221999   1.918   1.621   2.334  0.7199 -1.6198  0.8085
 3456SOL     OW22000   3.404   3.821   6.865  0.1897 -0.5021  0.3182
 3456SOL    HW122001   3.423   3.913   6.881  1.9899 -0.8099 -0.0597
 3456SOL    HW222002   3.399   3.815   6.770 -0.3764 -2.9135  0.4939
 3457SOL     OW22003   3.770   1.757   1.461 -0.2654  0.0564  0.3396
 3457SOL    HW122004   3.782   1.739   1.555  0.5433  2.5698  0.7189
 3457SOL    HW222005   3.819   1.693   1.409 -0.0626  1.5426 -1.2767
 3458SOL     OW22006   1.588   2.687   6.865  0.3451 -0.0516  0.8299
 3458SOL    HW122007   1.590   2.627   6.940  0.7159  0.5830  1.3318
 3458SOL    HW222008   1.627   2.631   6.799 -1.1210 -2.8698  2.3250
 3459SOL     OW22009   1.402   4.193   9.390 -0.0126  0.2272 -0.4509
 3459SOL    HW122010   1.450   4.167   9.311 -0.6637 -1.7447 -0.1782
 3459SOL    HW222011   1.341   4.120   9.400  0.7310 -0.1212  1.5630
 3460SOL     OW22012   0.741   1.299   4.279  1.3061 -0.2337  0.2438
 3460SOL    HW122013   0.653   1.261   4.286  0.9842  0.7260  1.2838
 3460SOL    HW222014   0.801   1.225   4.271  2.5856  0.7278  0.9380
 3461SOL     OW22015   4.175   0.022  14.078 -0.1159  0.0191  0.8558
 3461SOL    HW122016   4.180   4.691  14.143 -0.3901  0.1965  1.0681
 3461SOL    HW222017   4.229   0.089  14.120 -0.1436  1.6908 -1.8136
 3462SOL     OW22018   4.364   0.181   9.585 -0.0669 -0.6164  0.2877
 3462SOL    HW122019   4.333   0.177   9.495  0.0296 -2.4313  0.3521
 3462SOL    HW222020   4.353   0.091   9.614  2.9686 -1.3675 -1.0025
 3463SOL     OW22021   2.650   3.687   5.064 -0.0070 -0.1210 -0.7822
 3463SOL    HW122022   2.697   3.610   5.096  0.6629  0.4728 -0.3386
 3463SOL    HW222023   2.563   3.672   5.100 -0.0134  0.4512 -0.5608
 3464SOL     OW22024   2.516   4.002   8.203  0.4594 -0.0190 -0.2348
 3464SOL    HW122025   2.440   4.017   8.146  0.1292  0.1076  0.2430
 3464SOL    HW222026   2.585   4.058   8.168  1.1034  0.2253  1.4256
 3465SOL     OW22027   4.408   3.613   6.140  0.2744  0.3546  0.6061
 3465SOL    HW122028   4.436   3.628   6.230  0.1937  0.4005  0.6242
 3465SOL    HW222029   4.495   3.598   6.104 -0.6706  0.6532 -1.7749
 3466SOL     OW22030   2.297   2.134   2.438 -0.1021 -0.1184  0.1995
 3466SOL    HW122031   2.279   2.227   2.446  0.6143 -0.1390  1.9556
 3466SOL    HW222032   2.222   2.101   2.389  1.0589 -0.0824 -1.6537
 3467SOL     OW22033   1.152   0.885  15.551 -0.4076 -0.0828 -0.5054
 3467SOL    HW122034   1.099   0.867  15.473  0.1113  0.3114 -0.9490
 3467SOL    HW222035   1.078   0.897  15.610  0.5313 -0.8789  0.8456
 3468SOL     OW22036   3.927   2.257  10.479  0.0803 -0.2475 -0.1019
 3468SOL    HW122037   3.842   2.215  10.491 -0.3044  0.2372 -1.1483
 3468SOL    HW222038   3.968   2.201  10.412 -1.4572 -0.2087 -1.0689
 3469SOL     OW22039   0.146   0.779   2.424 -0.0243  0.7830  0.2655
 3469SOL    HW122040   0.213   0.713   2.446 -0.1530  0.7124  0.4463
 3469SOL    HW222041   0.101   0.792   2.507 -0.5996 -2.7337  0.5066
 3470SOL     OW22042   3.080   1.637  12.017  0.2364  0.0342  0.2944
 3470SOL    HW122043   3.065   1.588  12.098 -1.5419 -1.0961 -0.7141
 3470SOL    HW222044   3.049   1.724  12.043  0.2494  0.2491 -0.4077
 3471SOL     OW22045   1.128   0.423   3.985 -0.6390  0.8121 -0.1417
 3471SOL    HW122046   1.147   0.395   4.075 -2.0355 -1.5294 -0.5807
 3471SOL    HW222047   1.164   0.352   3.932 -0.2071  0.2069  0.9638
 3472SOL     OW22048   0.734   3.134  11.608 -0.2524 -0.1087  0.2103
 3472SOL    HW122049   0.818   3.089  11.599 -0.8371 -1.4056  1.2435
 3472SOL    HW222050   0.671   3.067  11.581 -0.8173  0.9223 -1.0069
 3473SOL     OW22051   2.495   2.694   3.840  0.1601 -0.2322 -0.1814
 3473SOL    HW122052   2.531   2.691   3.928 -2.4665 -0.7623  0.8677
 3473SOL    HW222053   2.562   2.638   3.799 -0.6812 -0.5773 -1.1121
 3474SOL     OW22054   2.552   1.547   7.552 -0.1833 -0.0587  0.1244
 3474SOL    HW122055   2.474   1.544   7.607 -0.9125 -0.5662 -0.9302
 3474SOL    HW222056   2.570   1.641   7.560  2.7072 -0.5999 -0.1938
 3475SOL     OW22057   2.565   3.278   7.243  0.5944  0.0832 -0.3954
 3475SOL    HW122058   2.567   3.373   7.249  0.7106  0.0770 -0.3332
 3475SOL    HW222059   2.656   3.253   7.231  1.2597  2.7173 -0.6680
 3476SOL     OW22060   0.240   0.312  16.790  0.1989 -0.0707  0.0690
 3476SOL    HW122061   0.165   0.267  16.828  1.8376 -2.3922  0.5346
 3476SOL    HW222062   0.252   0.268  16.706  0.0800 -0.5382  0.2980
 3477SOL     OW22063   2.381   2.810   4.127  0.3430 -0.0691  0.5917
 3477SOL    HW122064   2.458   2.829   4.180  1.1689  0.1762 -0.7004
 3477SOL    HW222065   2.336   2.894   4.134 -0.0671 -0.0601 -2.0449
 3478SOL     OW22066   1.135   0.398   3.429  0.1971  0.0429 -0.8792
 3478SOL    HW122067   1.212   0.433   3.385  1.9264  0.8179  2.7945
 3478SOL    HW222068   1.170   0.328   3.484 -1.8119 -2.4049 -2.7400
 3479SOL     OW22069   2.824   3.363   6.122 -0.1734  0.7547  0.2453
 3479SOL    HW122070   2.805   3.457   6.129  0.7094  0.7746  2.2469
 3479SOL    HW222071   2.918   3.364   6.104 -0.3710 -0.1678 -0.8557
 3480SOL     OW22072   1.648   4.536   0.003  0.3060  0.2275 -0.3582
 3480SOL    HW122073   1.632   4.508  17.666 -0.0069  1.3701 -0.6523
 3480SOL    HW222074   1.737   4.511   0.026  0.1201 -0.7307 -0.6477
 3481SOL     OW22075   1.554   3.883   2.126  0.3202 -0.2627  0.5303
 3481SOL    HW122076   1.618   3.954   2.136  0.3188 -0.1800 -0.0310
 3481SOL    HW222077   1.477   3.936   2.103 -1.7880 -2.2807  2.9134
 3482SOL     OW22078   2.379   4.313   9.068 -0.3893  0.2247  0.4363
 3482SOL    HW122079   2.283   4.315   9.064 -0.2799  1.1945 -1.6186
 3482SOL    HW222080   2.398   4.224   9.038 -2.1224 -0.3261  0.9271
 3483SOL     OW22081   0.546   3.555   7.697 -0.4111  0.3141 -0.1015
 3483SOL    HW122082   0.497   3.539   7.616  0.2620  0.0157 -0.4529
 3483SOL    HW222083   0.484   3.612   7.742  2.7682  2.9296  0.9648
 3484SOL     OW22084   0.476   0.913  16.293  0.4424 -0.9230  0.0172
 3484SOL    HW122085   0.434   0.925  16.208 -0.8140  1.4491  0.9708
 3484SOL    HW222086   0.408   0.889  16.355  1.7285  0.4464  1.9604
 3485SOL     OW22087   4.532   0.756   7.493  0.1134  0.4758 -0.0407
 3485SOL    HW122088   4.625   0.748   7.516 -0.0717 -2.5176 -0.2960
 3485SOL    HW222089   4.509   0.798   7.576 -0.1087  1.5251 -0.6370
 3486SOL     OW22090   4.321   3.410   4.999 -0.4626  0.1005  0.3537
 3486SOL    HW122091   4.339   3.498   5.032  0.7329 -0.1039  0.2501
 3486SOL    HW222092   4.318   3.352   5.075  2.3053 -1.5583 -0.8108
 3487SOL     OW22093   1.712   1.684   4.736 -0.0766  0.1046 -0.2399
 3487SOL    HW122094   1.759   1.621   4.790  0.4797 -0.5866 -1.5334
 3487SOL    HW222095   1.730   1.653   4.647  0.0212  1.1589 -0.5893
 3488SOL     OW22096   1.093   3.383   3.603 -0.0681  0.0623  0.5410
 3488SOL    HW122097   1.007   3.422   3.614 -0.5732 -0.8350 -0.1850
 3488SOL    HW222098   1.072   3.292   3.582  0.7031 -0.1001  0.4559
 3489SOL     OW22099   2.391   4.592   0.730  0.2708  0.2993  0.1127
 3489SOL    HW122100   2.340   4.653   0.677 -0.0918 -1.5652 -1.7022
 3489SOL    HW222101   2.340   4.510   0.724  1.2636 -0.3817  0.8829
 3490SOL     OW22102   4.265   3.532   6.733  0.3429  0.1479  0.1078
 3490SOL    HW122103   4.238   3.589   6.806 -4.0361 -0.3617 -1.0997
 3490SOL    HW222104   4.183   3.495   6.699 -1.4106  2.7830  1.4010
 3491SOL     OW22105   3.796   2.611   3.579  0.9308 -0.7488  0.4501
 3491SOL    HW122106   3.792   2.655   3.495 -0.1728 -2.6327 -0.4720
 3491SOL    HW222107   3.739   2.673   3.625  0.2525 -0.7913 -0.3400
 3492SOL     OW22108   0.268   0.341   1.967 -0.0670  0.2990 -0.3120
 3492SOL    HW122109   0.351   0.295   1.981  1.1112  2.7014  0.5900
 3492SOL    HW222110   0.224   0.300   2.042 -0.6312 -0.4953 -1.0754
 3493SOL     OW22111   3.779   2.007   8.209  0.6540  0.6119  0.2731
 3493SOL    HW122112   3.764   1.913   8.215 -1.5091  0.9333  0.0677
 3493SOL    HW222113   3.750   2.019   8.118 -1.0631 -0.5923  0.6552
 3494SOL     OW22114   2.292   4.166   9.604  0.3011 -0.3483  0.3273
 3494SOL    HW122115   2.285   4.093   9.542  1.8188 -0.1516 -0.0834
 3494SOL    HW222116   2.369   4.212   9.570  0.0446  1.3804  2.0781
 3495SOL     OW22117   3.629   0.621   4.645 -0.7422 -0.2004 -0.1281
 3495SOL    HW122118   3.719   0.592   4.660 -0.4016  0.0201 -1.7009
 3495SOL    HW222119   3.574   0.551   4.681 -1.7538 -0.3622 -1.9988
 3496SOL     OW22120   2.120   2.634  13.997  0.1840  0.2281 -0.3714
 3496SOL    HW122121   2.034   2.606  13.966 -0.0270 -1.0522  1.3896
 3496SOL    HW222122   2.099   2.725  14.021  2.4498  0.6924 -0.1127
 3497SOL     OW22123   4.478   3.300   4.451  0.6034 -0.0441 -0.3219
 3497SOL    HW122124   4.500   3.353   4.527 -1.0606  0.9299 -0.5009
 3497SOL    HW222125   4.518   3.362   4.390  1.0620  1.5174  1.5591
 3498SOL     OW22126   2.204   3.021   9.718  0.4584 -0.2255 -0.3286
 3498SOL    HW122127   2.124   3.070   9.698  1.1874  0.8832 -0.5032
 3498SOL    HW222128   2.191   2.937   9.672  1.0948 -0.7132  0.3966
 3499SOL     OW22129   1.246   1.177   8.656 -0.8954 -0.4810  0.7885
 3499SOL    HW122130   1.231   1.122   8.579 -1.4326  0.4319  0.2295
 3499SOL    HW222131   1.338   1.163   8.675 -1.0990 -1.2578  1.1547
 3500SOL     OW22132   2.696   3.316   8.184  0.7092  0.3811  0.1518
 3500SOL    HW122133   2.701   3.411   8.192 -1.2929  0.3655  1.6446
 3500SOL    HW222134   2.790   3.301   8.170  0.5892 -1.8718  1.6736
 3501SOL     OW22135   1.923   4.263   7.082 -0.3355 -0.6864  0.3979
 3501SOL    HW122136   1.981   4.205   7.132  2.1222  1.5189  0.1462
 3501SOL    HW222137   1.974   4.280   7.003 -0.4202  0.2799  0.5535
 3502SOL     OW22138   2.314   0.541   6.776  0.0564 -0.1716  0.0729
 3502SOL    HW122139   2.314   0.451   6.809  0.2529  0.8098  2.7414
 3502SOL    HW222140   2.331   0.514   6.685  0.6974 -0.4282  0.2668
 3503SOL     OW22141   1.154   3.715   6.469  0.0544  0.2300 -0.5888
 3503SOL    HW122142   1.060   3.697   6.465  0.0713  0.2905 -1.2281
 3503SOL    HW222143   1.144   3.799   6.514 -0.8614  1.0033 -2.2544
 3504SOL     OW22144   3.890   3.892   3.826  0.4079 -0.2514 -0.8942
 3504SOL    HW122145   3.826   3.881   3.756 -1.6803  0.0817  0.9425
 3504SOL    HW222146   3.971   3.917   3.783  0.5391 -0.0393 -0.5273
 3505SOL     OW22147   1.492   2.945   0.702  0.5049 -0.3851  0.7005
 3505SOL    HW122148   1.538   2.895   0.633 -2.4621 -1.6395 -0.3439
 3505SOL    HW222149   1.563   2.975   0.759  0.8094 -2.3479  1.3607
 3506SOL     OW22150   3.652   4.566   3.514 -0.4059 -0.7142 -0.5728
 3506SOL    HW122151   3.680   4.549   3.424 -0.1510 -2.3308 -0.1869
 3506SOL    HW222152   3.642   4.661   3.504 -0.4133 -0.7247 -0.6653
 3507SOL     OW22153   4.301   2.741  13.600 -0.1047  0.6126  0.0827
 3507SOL    HW122154   4.338   2.790  13.526 -0.9029  0.2543 -0.5586
 3507SOL    HW222155   4.358   2.764  13.673  1.0561 -1.3196 -0.1974
 3508SOL     OW22156   4.234   1.832   4.787 -1.0855  0.0490  0.6174
 3508SOL    HW122157   4.326   1.838   4.763 -1.3426 -0.2709 -0.4582
 3508SOL    HW222158   4.252   1.839   4.880  0.0590  0.9557  0.3189
 3509SOL     OW22159   1.723   3.903   5.112  0.2088 -0.1526  0.3111
 3509SOL    HW122160   1.814   3.900   5.143  0.6851  2.4779 -0.8037
 3509SOL    HW222161   1.706   3.997   5.122 -0.2240 -0.0663 -1.2261
 3510SOL     OW22162   0.683   1.978   7.568 -0.1050 -0.2902 -0.1018
 3510SOL    HW122163   0.694   1.992   7.662  1.9702 -0.3162 -0.3596
 3510SOL    HW222164   0.588   1.963   7.565  0.2351 -2.4614 -0.0291
 3511SOL     OW22165   0.168   0.467   8.329 -0.2004  0.1554  0.1672
 3511SOL    HW122166   0.208   0.521   8.397  1.8668  0.6005 -1.4100
 3511SOL    HW222167   0.237   0.468   8.262  0.0752  2.5057  0.5070
 3512SOL     OW22168   3.324   2.581  13.844 -0.0302 -0.0965 -0.7432
 3512SOL    HW122169   3.379   2.503  13.852 -0.8615 -0.6128 -0.0530
 3512SOL    HW222170   3.262   2.541  13.782 -0.8535  2.9754 -1.9139
 3513SOL     OW22171   2.103   4.335   2.330 -0.3813 -0.6708 -0.2525
 3513SOL    HW122172   2.053   4.417   2.326  0.2162 -0.2717  0.3849
 3513SOL    HW222173   2.110   4.323   2.425 -0.9909 -1.1370 -0.2667
 3514SOL     OW22174   3.863   0.458   2.869  0.1859 -0.4603 -0.1286
 3514SOL    HW122175   3.898   0.461   2.780 -0.6477  0.0247 -0.4405
 3514SOL    HW222176   3.771   0.479   2.856  0.3138  2.4038  3.4686
 3515SOL     OW22177   0.027   4.515  11.743 -0.2975 -0.2589 -0.2217
 3515SOL    HW122178   0.074   4.560  11.672  0.6309 -1.4028 -0.3301
 3515SOL    HW222179   0.035   4.424  11.715 -0.9598 -0.4667  0.2701
 3516SOL     OW22180   1.122   3.375   6.377 -0.4828 -0.1242 -0.2299
 3516SOL    HW122181   1.063   3.410   6.310 -0.5773 -4.5579 -2.4401
 3516SOL    HW222182   1.069   3.307   6.418  2.0569 -2.0276 -0.1111
 3517SOL     OW22183   2.472   1.889   8.876 -0.0420  0.6105  0.5591
 3517SOL    HW122184   2.549   1.836   8.860 -1.2146 -0.1968 -2.3227
 3517SOL    HW222185   2.488   1.961   8.814  0.0119 -0.3292 -0.5062
 3518SOL     OW22186   0.965   1.861   6.992  0.1927 -0.6312 -0.1501
 3518SOL    HW122187   0.993   1.916   6.918 -1.0559  1.0066  0.5840
 3518SOL    HW222188   1.045   1.827   7.031 -0.4032 -0.2101  1.4076
 3519SOL     OW22189   1.471   2.855   4.439  0.0761 -0.6743  1.3614
 3519SOL    HW122190   1.505   2.789   4.379  1.3146 -1.3977  2.8689
 3519SOL    HW222191   1.440   2.795   4.507  3.6191 -1.1190  2.5633
 3520SOL     OW22192   1.427   2.454   2.215 -0.1996 -0.0999  0.2468
 3520SOL    HW122193   1.349   2.402   2.196  0.4293 -1.2380  0.7703
 3520SOL    HW222194   1.487   2.391   2.254 -0.0834 -0.1104  0.0501
 3521SOL     OW22195   0.653   1.676  13.757 -0.2048 -0.4629 -0.0339
 3521SOL    HW122196   0.629   1.767  13.774 -0.4407 -0.9566  2.2386
 3521SOL    HW222197   0.574   1.640  13.719 -1.7219  2.7200  0.0985
 3522SOL     OW22198   2.444   4.378   0.066 -0.0734 -0.2188  0.2176
 3522SOL    HW122199   2.357   4.355   0.034 -0.9128  3.0372  0.1749
 3522SOL    HW222200   2.491   4.315   0.012  0.1124  1.2917 -1.3747
 3523SOL     OW22201   2.759   0.747   5.413 -0.5870 -0.0584  0.1068
 3523SOL    HW122202   2.694   0.741   5.344 -1.4569  3.3078  0.6318
 3523SOL    HW222203   2.714   0.792   5.484 -0.0020  3.0716 -1.5279
 3524SOL     OW22204   0.243   4.482  10.499  0.0983 -0.2190  0.3645
 3524SOL    HW122205   0.279   4.419  10.562  0.2902  0.1055  0.5743
 3524SOL    HW222206   0.225   4.556  10.557  1.2938 -0.2526  0.7700
 3525SOL     OW22207   3.879   4.319   8.920  0.2949 -0.2409  0.1246
 3525SOL    HW122208   3.786   4.328   8.898  0.9385  2.2222 -1.4942
 3525SOL    HW222209   3.905   4.273   8.840  1.2253 -0.4444  0.5493
 3526SOL     OW22210   1.166   1.153   3.317  0.2022 -0.5846  0.3778
 3526SOL    HW122211   1.253   1.158   3.276  0.3237 -1.0236  0.5748
 3526SOL    HW222212   1.142   1.244   3.305  3.1051  0.7589  4.4155
 3527SOL     OW22213   2.599   1.367   4.908  0.0545  0.2762  0.0391
 3527SOL    HW122214   2.615   1.438   4.969  2.1867  1.5320 -1.9939
 3527SOL    HW222215   2.504   1.353   4.916  0.1474 -0.3306  0.0642
 3528SOL     OW22216   4.135   1.175   8.160 -0.2519  0.3792 -0.0697
 3528SOL    HW122217   4.127   1.270   8.152 -0.1382  0.3581 -0.4221
 3528SOL    HW222218   4.201   1.168   8.230  0.8494  1.8811 -0.9616
 3529SOL     OW22219   1.170   4.643  14.193 -0.3789 -0.0727 -0.5543
 3529SOL    HW122220   1.238   4.612  14.254  1.7785  4.1221 -0.8539
 3529SOL    HW222221   1.116   4.564  14.193 -1.9768  1.0348 -0.9768
 3530SOL     OW22222   3.109   1.726   9.387  0.3670 -0.1681 -0.6016
 3530SOL    HW122223   3.093   1.704   9.479  1.4830  2.3341  0.1985
 3530SOL    HW222224   3.175   1.796   9.389 -2.6360  2.5851  1.4806
 3531SOL     OW22225   0.469   0.615  17.714  0.1765 -0.5470 -0.1699
 3531SOL    HW122226   0.534   0.584  17.651 -0.4182 -3.1643  0.5269
 3531SOL    HW222227   0.386   0.618  17.666 -0.3534 -2.8175  0.5899
 3532SOL     OW22228   3.328   2.444   7.818  0.3745 -0.2074 -0.0446
 3532SOL    HW122229   3.369   2.450   7.731  0.6703 -0.2921  0.0867
 3532SOL    HW222230   3.272   2.368   7.802  0.3624 -0.9918  3.8986
 3533SOL     OW22231   3.542   1.108   6.804 -0.5059 -0.6200 -0.6509
 3533SOL    HW122232   3.483   1.068   6.740 -1.4540  4.1891 -2.7603
 3533SOL    HW222233   3.495   1.182   6.841  0.7329  0.4523 -1.2481
 3534SOL     OW22234   3.908   1.020   1.925 -0.7875  0.2166  0.5073
 3534SOL    HW122235   3.813   1.019   1.920 -0.6829  1.2444 -1.8299
 3534SOL    HW222236   3.925   0.929   1.949 -0.1358  0.2825  0.3112
 3535SOL     OW22237   3.116   3.380  17.538  0.2386 -0.1472  0.1742
 3535SOL    HW122238   3.193   3.339  17.498 -0.2900 -0.5453 -0.4381
 3535SOL    HW222239   3.051   3.354  17.473 -0.2444 -0.4345  0.7734
 3536SOL     OW22240   3.633   1.571   5.241  0.2246  0.3644  0.4136
 3536SOL    HW122241   3.558   1.566   5.300  0.0490  0.8068  0.2296
 3536SOL    HW222242   3.647   1.481   5.212 -0.9350  0.8630 -1.6745
 3537SOL     OW22243   1.350   4.248   7.723  0.2124  0.7086 -0.2976
 3537SOL    HW122244   1.305   4.242   7.639 -0.3405 -0.7409  0.1195
 3537SOL    HW222245   1.378   4.340   7.726 -0.7907  1.0702 -1.6521
 3538SOL     OW22246   4.458   2.795  13.791 -0.1497 -0.4648 -0.1482
 3538SOL    HW122247   4.552   2.777  13.780 -0.1120 -0.3419 -0.0244
 3538SOL    HW222248   4.444   2.767  13.881 -5.0511  3.8521  0.3673
 3539SOL     OW22249   4.098   4.339   1.759 -0.0949  0.5179 -0.3750
 3539SOL    HW122250   4.102   4.370   1.668 -1.7577 -0.4117 -0.7564
 3539SOL    HW222251   4.022   4.282   1.748  0.1119  0.1107  0.3129
 3540SOL     OW22252   2.354   0.412   3.962 -0.0324  0.4345  0.8703
 3540SOL    HW122253   2.391   0.492   3.925 -0.3376 -0.0275 -0.4296
 3540SOL    HW222254   2.426   0.385   4.020 -0.9795  2.3681  2.9682
 3541SOL     OW22255   2.663   1.797   5.127  0.2499  0.1716  0.2300
 3541SOL    HW122256   2.655   1.803   5.222 -0.4864  0.4093  0.1516
 3541SOL    HW222257   2.731   1.864   5.117  1.9501 -1.5759  0.1569
 3542SOL     OW22258   2.894   1.737  15.929 -0.3105 -0.3977  0.0628
 3542SOL    HW122259   2.829   1.794  15.970 -0.2414  0.5339 -1.1301
 3542SOL    HW222260   2.930   1.795  15.862 -1.4823  2.9611  2.3415
 3543SOL     OW22261   3.105   2.369   7.432  0.6099 -0.4249 -0.5706
 3543SOL    HW122262   3.102   2.282   7.391  0.9673 -0.4557 -0.5373
 3543SOL    HW222263   3.092   2.415   7.349 -1.3654  1.1569  0.6269
 3544SOL     OW22264   3.285   0.511  11.058 -0.0225 -0.3132  0.4458
 3544SOL    HW122265   3.312   0.550  11.142 -0.7260  0.9198  0.1009
 3544SOL    HW222266   3.330   0.427  11.066 -0.1069 -0.4150 -0.1338
 3545SOL     OW22267   3.264   4.186   8.163 -0.3307  0.1415  0.0436
 3545SOL    HW122268   3.302   4.100   8.144  1.0772  1.3049 -2.4874
 3545SOL    HW222269   3.323   4.198   8.237 -3.2186  2.3238  1.9830
 3546SOL     OW22270   2.263   3.690   6.482 -0.1975  0.1852 -0.0232
 3546SOL    HW122271   2.238   3.752   6.413  3.5994  1.4998 -0.2184
 3546SOL    HW222272   2.289   3.757   6.545 -0.2181  1.5133 -1.4335
 3547SOL     OW22273   2.139   0.864   7.350 -0.3976  0.0188 -0.3580
 3547SOL    HW122274   2.053   0.824   7.362 -0.6730  1.1565  1.4461
 3547SOL    HW222275   2.167   0.888   7.439 -3.1790  0.2073  0.4660
 3548SOL     OW22276   3.589   3.022   7.572  0.3324  0.0010 -0.2285
 3548SOL    HW122277   3.634   3.011   7.656 -0.3729  1.1249  0.2950
 3548SOL    HW222278   3.621   3.107   7.543  0.0292 -0.8746 -3.1135
 3549SOL     OW22279   1.354   3.512   9.180 -0.0135  0.1735 -0.1860
 3549SOL    HW122280   1.328   3.488   9.091 -2.3420  1.2101  0.2145
 3549SOL    HW222281   1.414   3.583   9.159 -2.4064  1.2819 -3.2893
 3550SOL     OW22282   2.386   1.102   6.323  0.3203  0.5883 -0.0691
 3550SOL    HW122283   2.477   1.130   6.333  0.5524  0.0729 -0.7351
 3550SOL    HW222284   2.379   1.051   6.404 -1.2716  0.6856 -0.1495
 3551SOL     OW22285   2.227   3.840   8.891 -0.4179  0.3584 -0.4599
 3551SOL    HW122286   2.198   3.828   8.981 -1.6914  0.7022 -0.8248
 3551SOL    HW222287   2.226   3.748   8.865 -1.4810 -0.4370  2.4104
 3552SOL     OW22288   3.838   1.992   3.957  0.1753  0.4132  0.2115
 3552SOL    HW122289   3.837   1.984   3.861 -0.2550  1.2673  0.1387
 3552SOL    HW222290   3.778   1.927   3.992  1.4577 -1.5458 -1.2508
 3553SOL     OW22291   4.321   0.822   1.558 -0.4567 -0.1930  0.6496
 3553SOL    HW122292   4.371   0.813   1.476 -0.5353 -0.4647  0.6328
 3553SOL    HW222293   4.343   0.910   1.589  0.5085 -0.0439 -0.4368
 3554SOL     OW22294   2.195   0.760  13.390 -0.1593 -0.2380 -0.3559
 3554SOL    HW122295   2.131   0.786  13.324  0.3496 -0.0918 -0.7944
 3554SOL    HW222296   2.184   0.829  13.456  0.6416 -0.5874  0.1399
 3555SOL     OW22297   2.076   4.350  10.279  0.6183  0.9822  0.2760
 3555SOL    HW122298   2.169   4.336  10.263  0.8369  1.1843  1.3617
 3555SOL    HW222299   2.058   4.259  10.302 -0.0066  1.0666  0.1355
 3556SOL     OW22300   0.709   1.509   4.962  0.1406  0.6792  0.2766
 3556SOL    HW122301   0.669   1.422   4.966 -2.4214  1.8908  1.2387
 3556SOL    HW222302   0.633   1.557   4.995 -0.9438 -1.9004  1.5954
 3557SOL     OW22303   4.699   2.953   5.750  0.1668 -0.2717 -0.0906
 3557SOL    HW122304   4.668   2.903   5.826  0.9039  2.2276  1.8433
 3557SOL    HW222305   4.619   2.995   5.718 -0.0970 -0.7872 -0.1141
 3558SOL     OW22306   0.152   4.519  15.709 -0.1814  0.2264 -0.2249
 3558SOL    HW122307   0.202   4.483  15.636 -0.6116 -1.1888  0.1666
 3558SOL    HW222308   0.090   4.576  15.665  0.0744 -0.0953 -0.9989
 3559SOL     OW22309   1.636   4.687   2.770  0.0403 -0.0176  0.1778
 3559SOL    HW122310   1.651   4.640   2.688  2.1700  1.0032 -0.0164
 3559SOL    HW222311   1.552   4.727   2.751  0.5615  1.7924  1.6391
 3560SOL     OW22312   1.200   2.857  10.283 -0.2008 -0.2244  0.3649
 3560SOL    HW122313   1.277   2.909  10.259 -0.0529  0.8967  3.2249
 3560SOL    HW222314   1.174   2.915  10.355  0.8171 -0.5523  0.9989
 3561SOL     OW22315   2.886   0.506   2.578 -0.2424  0.1202 -0.1772
 3561SOL    HW122316   2.869   0.412   2.588  1.6903 -0.2083 -0.0976
 3561SOL    HW222317   2.977   0.500   2.606 -1.5138 -0.3781  3.8692
 3562SOL     OW22318   4.225   3.168   9.418  0.5616  0.2156  0.0096
 3562SOL    HW122319   4.299   3.112   9.397 -1.8504 -2.7848 -0.4339
 3562SOL    HW222320   4.154   3.103   9.421  0.9622 -0.1769  1.3523
 3563SOL     OW22321   1.084   4.147  11.300  0.8574 -0.7117 -0.4351
 3563SOL    HW122322   1.011   4.117  11.353  0.0844 -0.9409 -1.6321
 3563SOL    HW222323   1.050   4.230  11.267 -0.3195 -0.5751  1.1115
 3564SOL     OW22324   3.780   3.530   2.251  0.2381  0.0258  0.6223
 3564SOL    HW122325   3.684   3.526   2.254  0.2104  0.5461  0.5293
 3564SOL    HW222326   3.791   3.607   2.307 -4.0454  0.0294  1.4991
 3565SOL     OW22327   3.984   4.071  12.778  0.5923  0.2298 -0.7190
 3565SOL    HW122328   3.980   3.993  12.723 -0.0747  0.3472 -0.8294
 3565SOL    HW222329   3.963   4.145  12.720 -0.4853  0.8068  0.4222
 3566SOL     OW22330   3.588   4.474   0.020 -0.1092  0.3640  0.6596
 3566SOL    HW122331   3.579   4.521   0.102 -2.4556  2.5284 -0.8467
 3566SOL    HW222332   3.514   4.515  17.731  0.0856  0.5777  0.5275
 3567SOL     OW22333   1.131   3.216   6.103 -0.1342  0.0758 -0.2672
 3567SOL    HW122334   1.127   3.297   6.154 -0.1627 -1.2652  1.8875
 3567SOL    HW222335   1.175   3.163   6.170 -1.4152 -1.2312 -0.4701
 3568SOL     OW22336   1.324   3.791   9.223  0.0909  0.0782  0.6155
 3568SOL    HW122337   1.352   3.762   9.136  0.5117  0.3050  0.6733
 3568SOL    HW222338   1.255   3.728   9.243 -0.0858  0.3980  1.0091
 3569SOL     OW22339   0.926   1.881   9.697  0.2467 -0.4109  0.0043
 3569SOL    HW122340   0.864   1.808   9.692  0.8031 -0.7275 -2.3458
 3569SOL    HW222341   1.005   1.828   9.691 -1.1888 -2.6287  0.5782
 3570SOL     OW22342   0.732   0.122   6.277 -0.2102  0.1506 -0.0619
 3570SOL    HW122343   0.815   0.084   6.247 -0.5590  0.4402 -1.3660
 3570SOL    HW222344   0.714   0.208   6.239 -1.3922  0.4157  1.1060
 3571SOL     OW22345   4.230   1.985  15.740  0.5474 -0.7584 -0.0897
 3571SOL    HW122346   4.184   1.994  15.823  1.0873  1.9623 -0.0724
 3571SOL    HW222347   4.323   2.004  15.755 -0.2274  1.5570  1.6264
 3572SOL     OW22348   1.462   0.941   6.924  0.2001  1.0746 -0.0650
 3572SOL    HW122349   1.407   1.008   6.883 -0.1169  1.9821  1.8630
 3572SOL    HW222350   1.547   0.985   6.920  0.3589  0.8000  0.3318
 3573SOL     OW22351   2.102   2.364   3.408  0.2639  0.2100  0.0595
 3573SOL    HW122352   2.153   2.439   3.437  2.3007 -1.0940 -0.1191
 3573SOL    HW222353   2.021   2.413   3.391  0.2659 -0.1518 -1.0060
 3574SOL     OW22354   4.071   0.717   3.490 -0.2733  0.2161  0.1913
 3574SOL    HW122355   4.056   0.757   3.576  0.6287  0.8007  0.0753
 3574SOL    HW222356   4.063   0.799   3.441  3.6150  0.5098  0.0429
 3575SOL     OW22357   4.291   4.100   3.531  0.2390  0.6746 -0.3557
 3575SOL    HW122358   4.244   4.042   3.472 -0.8125  1.5534 -0.3721
 3575SOL    HW222359   4.339   4.041   3.589  1.2807  2.3765  0.5108
 3576SOL     OW22360   2.412   3.634   8.536  0.0471 -0.5726  0.5594
 3576SOL    HW122361   2.390   3.711   8.588 -0.6680  0.3069 -1.0572
 3576SOL    HW222362   2.478   3.674   8.480  0.0380  1.0623  1.7262
 3577SOL     OW22363   1.588   4.714   4.247  0.0716  0.4822  0.2490
 3577SOL    HW122364   1.624   0.045   4.301  1.1689  0.3654 -0.3334
 3577SOL    HW222365   1.629   4.637   4.286 -0.5547 -1.2742 -2.5601
 3578SOL     OW22366   4.055   0.220  13.822  0.7049 -0.3302  0.2681
 3578SOL    HW122367   4.059   0.312  13.796 -1.9373 -0.3654 -0.3351
 3578SOL    HW222368   4.082   0.237  13.913 -2.3157  0.1091  1.1063
 3579SOL     OW22369   0.536   1.648   6.526  0.1917 -0.2135  0.2787
 3579SOL    HW122370   0.509   1.611   6.610  1.9423 -0.4134  0.7512
 3579SOL    HW222371   0.525   1.742   6.534  0.1521 -0.2678  0.8064
 3580SOL     OW22372   2.064   0.403  10.226 -0.2642  1.0219  0.3432
 3580SOL    HW122373   1.997   0.390  10.160 -1.5499  0.5836  1.7365
 3580SOL    HW222374   2.116   0.481  10.205  0.9419 -0.6083 -2.7088
 3581SOL     OW22375   2.292   3.885   7.185 -0.2767 -0.2176  0.0163
 3581SOL    HW122376   2.351   3.812   7.165 -1.8776 -1.8526  1.2774
 3581SOL    HW222377   2.210   3.838   7.169 -0.8320  0.3816  1.0570
 3582SOL     OW22378   2.310   3.016   6.150  0.0143  0.2792  0.0866
 3582SOL    HW122379   2.304   2.925   6.179  0.0011  0.4422  0.5847
 3582SOL    HW222380   2.259   3.003   6.070  0.6779  1.5311 -0.5475
 3583SOL     OW22381   3.737   3.522   8.978  0.6247 -0.0657  0.1124
 3583SOL    HW122382   3.716   3.509   8.886  0.3472  1.8595 -0.1103
 3583SOL    HW222383   3.716   3.614   8.994 -0.0509  0.0311 -1.3345
 3584SOL     OW22384   0.585   1.988  17.266  0.9636 -0.0664 -0.1057
 3584SOL    HW122385   0.677   1.970  17.244  0.8710  0.6260 -1.0722
 3584SOL    HW222386   0.569   1.928  17.339  0.4862  0.8644  0.5528
 3585SOL     OW22387   2.718   2.611   3.707 -0.0226 -0.1066  0.7500
 3585SOL    HW122388   2.714   2.696   3.663 -3.6362 -0.2166  0.7891
 3585SOL    HW222389   2.811   2.593   3.720  0.1858  0.2333 -0.2399
 3586SOL     OW22390   1.432   3.147  12.434  0.0636  0.2203 -0.0417
 3586SOL    HW122391   1.363   3.090  12.468 -2.2639  3.7580  1.0721
 3586SOL    HW222392   1.477   3.094  12.368 -0.8186 -0.6938  0.0959
 3587SOL     OW22393   1.368   2.021   6.598 -0.7711 -0.4044 -0.5831
 3587SOL    HW122394   1.399   2.083   6.663 -0.4333  0.6020 -1.7037
 3587SOL    HW222395   1.300   1.970   6.643 -2.0507  0.2286 -1.7755
 3588SOL     OW22396   2.126   0.978   4.893 -0.3217 -0.2655 -0.6246
 3588SOL    HW122397   2.140   1.030   4.814  2.0457 -0.1502 -0.1428
 3588SOL    HW222398   2.192   1.013   4.953 -1.0639 -2.3976  1.4660
 3589SOL     OW22399   0.034   3.937  11.146 -0.7427  0.0409 -0.8236
 3589SOL    HW122400   4.688   3.896  11.130 -0.6721 -0.2490 -0.4856
 3589SOL    HW222401   0.018   4.031  11.153 -0.1429  0.2385 -2.1401
 3590SOL     OW22402   1.847   3.268   1.654  0.3985 -0.0549 -0.1380
 3590SOL    HW122403   1.752   3.270   1.668  0.4399 -1.2947  0.2455
 3590SOL    HW222404   1.889   3.279   1.739  0.3895  0.5761 -0.2142
 3591SOL     OW22405   0.543   4.668   9.065 -0.8963  0.1580 -0.0197
 3591SOL    HW122406   0.481   4.691   9.135  0.2371  1.9875  0.3898
 3591SOL    HW222407   0.567   4.577   9.084 -0.7300  0.1613 -0.2109
 3592SOL     OW22408   2.709   4.058  14.844 -0.2602  0.3352 -0.4229
 3592SOL    HW122409   2.698   4.152  14.840  0.2134  0.3990 -0.3080
 3592SOL    HW222410   2.804   4.063  14.853 -0.6113  3.2060  1.5675
 3593SOL     OW22411   3.267   4.056   7.871 -0.2124  0.1070 -0.4481
 3593SOL    HW122412   3.235   4.053   7.781  1.8707  0.0355 -1.1902
 3593SOL    HW222413   3.245   4.145   7.898  0.6168 -0.5149  2.3257
 3594SOL     OW22414   2.896   4.098   1.985 -0.0968  0.1154  0.5973
 3594SOL    HW122415   2.847   4.036   2.039 -0.2744 -0.4858 -0.2516
 3594SOL    HW222416   2.882   4.063   1.897  1.7748  0.4780  0.1592
 3595SOL     OW22417   0.698   0.853   0.836  0.2221 -0.1149 -0.4052
 3595SOL    HW122418   0.732   0.771   0.872  0.8334  0.6895  0.8513
 3595SOL    HW222419   0.727   0.840   0.746  1.0880  1.6405 -0.3816
 3596SOL     OW22420   3.725   4.601   1.842 -0.3355 -0.0942 -0.1279
 3596SOL    HW122421   3.746   4.580   1.933 -1.5235 -2.7655 -0.4876
 3596SOL    HW222422   3.724   4.514   1.802  3.1187 -0.8625  1.4938
 3597SOL     OW22423   1.052   1.863   4.419 -0.0602 -0.4620  0.2150
 3597SOL    HW122424   1.137   1.820   4.410 -0.7297 -1.0935 -3.2794
 3597SOL    HW222425   1.077   1.948   4.456  0.6574 -0.3760 -0.4624
 3598SOL     OW22426   2.041   3.861   6.880 -0.8000 -0.0132  0.6088
 3598SOL    HW122427   1.964   3.890   6.929 -1.6001 -0.2848 -0.4785
 3598SOL    HW222428   2.108   3.924   6.906 -0.8288  0.7684 -1.1499
 3599SOL     OW22429   3.501   0.007   2.502  0.2314  0.2577 -0.6121
 3599SOL    HW122430   3.577   4.688   2.493 -0.0038 -0.2744  0.9078
 3599SOL    HW222431   3.432   4.686   2.531  0.7222 -0.4029 -0.7985
 3600SOL     OW22432   3.855   2.802  11.823 -0.8978  0.3071  0.8330
 3600SOL    HW122433   3.921   2.759  11.769 -0.9771  0.5789  0.5184
 3600SOL    HW222434   3.840   2.882  11.774  1.7753 -0.1024 -0.6095
 3601SOL     OW22435   2.672   3.169   6.553 -0.7718 -0.2989 -0.1314
 3601SOL    HW122436   2.606   3.150   6.486  0.5788 -0.2370 -1.4797
 3601SOL    HW222437   2.662   3.093   6.611 -1.7518 -1.3795 -1.6976
 3602SOL     OW22438   4.291   1.905   3.458  0.2737  0.3441  0.1628
 3602SOL    HW122439   4.364   1.902   3.396  0.4113  1.3022  0.2788
 3602SOL    HW222440   4.228   1.962   3.414  1.0397  1.0311 -0.0342
 3603SOL     OW22441   4.516   3.419   8.268 -0.6351 -0.3474 -0.1704
 3603SOL    HW122442   4.508   3.498   8.321  2.1937 -0.2045  0.0258
 3603SOL    HW222443   4.468   3.351   8.315  0.5058 -0.3951  0.9077
 3604SOL     OW22444   4.273   1.645   5.944  0.0657 -0.5089  0.5089
 3604SOL    HW122445   4.355   1.600   5.927  1.2014  2.2348 -1.2753
 3604SOL    HW222446   4.305   1.732   5.970 -0.8303 -0.0159 -0.0217
 3605SOL     OW22447   0.839   0.922   6.054  0.0276 -0.2736  0.3208
 3605SOL    HW122448   0.765   0.861   6.060  1.7459 -2.2511  1.7439
 3605SOL    HW222449   0.859   0.931   6.148  2.1387 -0.8190 -0.0625
 3606SOL     OW22450   4.624   0.259  12.825  0.5163 -0.4652 -0.0353
 3606SOL    HW122451   4.587   0.250  12.913  0.7841  0.0005  0.1238
 3606SOL    HW222452   4.614   0.173  12.784 -1.6223  0.2216 -0.9511
 3607SOL     OW22453   4.320   4.124  16.071  0.4636 -0.5673 -0.0830
 3607SOL    HW122454   4.303   4.127  15.977 -3.0232  2.0281  0.6278
 3607SOL    HW222455   4.261   4.192  16.106  0.3159 -0.4888 -0.4904
 3608SOL     OW22456   1.977   3.954   3.462  0.4554 -0.1284  0.1182
 3608SOL    HW122457   1.998   3.861   3.475 -1.1321 -0.6821 -1.1809
 3608SOL    HW222458   1.997   3.985   3.550  0.1488  0.2907  0.0404
 3609SOL     OW22459   3.433   0.722   2.533 -0.2725 -0.0937 -0.4270
 3609SOL    HW122460   3.512   0.770   2.559 -0.2380 -1.7797  2.6051
 3609SOL    HW222461   3.373   0.757   2.599 -1.2638 -1.2314 -0.7388
 3610SOL     OW22462   3.446   2.911  10.026  0.0978  0.1042  0.1205
 3610SOL    HW122463   3.503   2.853   9.975 -0.1407  1.2508 -1.4579
 3610SOL    HW222464   3.447   2.996   9.983 -1.8942  0.7905  1.4689
 3611SOL     OW22465   3.242   4.502  14.841 -0.2506  0.1038  0.2461
 3611SOL    HW122466   3.155   4.541  14.844 -0.2011  0.0611  1.9193
 3611SOL    HW222467   3.241   4.474  14.749  2.8720 -0.5872  0.4220
 3612SOL     OW22468   0.839   3.428   3.672  0.5535  1.0475  0.4710
 3612SOL    HW122469   0.791   3.390   3.746 -0.0048  1.4767  0.3309
 3612SOL    HW222470   0.789   3.383   3.604  1.8852 -2.8695  2.0844
 3613SOL     OW22471   3.881   2.226   8.668  0.5092  0.0037 -0.4706
 3613SOL    HW122472   3.958   2.265   8.710  1.4198 -1.1998 -1.0165
 3613SOL    HW222473   3.896   2.138   8.702 -1.6999  0.2895  1.2122
 3614SOL     OW22474   0.675   2.246   3.492 -0.2951  0.5740 -0.1136
 3614SOL    HW122475   0.581   2.263   3.493 -0.4644 -0.7069  3.2175
 3614SOL    HW222476   0.696   2.271   3.402 -0.7485 -1.5855 -0.8052
 3615SOL     OW22477   3.137   0.092   1.972  0.5491  0.1919 -0.0483
 3615SOL    HW122478   3.100   0.149   1.904 -0.2662  1.0345  1.0981
 3615SOL    HW222479   3.231   0.098   1.954  0.0792  0.0673 -2.5518
 3616SOL     OW22480   1.805   1.491   4.254 -0.7273  0.0181  0.3070
 3616SOL    HW122481   1.791   1.462   4.164  3.2479  0.9896 -0.6303
 3616SOL    HW222482   1.717   1.521   4.276 -0.1617  2.0698 -0.2509
 3617SOL     OW22483   1.080   2.188  12.840 -0.1737  0.0714  0.0988
 3617SOL    HW122484   1.074   2.244  12.763  1.8001 -2.1359 -1.6369
 3617SOL    HW222485   1.131   2.115  12.806  0.7653  0.1402  1.3467
 3618SOL     OW22486   4.171   1.418  15.362 -0.2332 -0.6910 -0.4186
 3618SOL    HW122487   4.106   1.475  15.321  2.2923  1.1643 -1.8701
 3618SOL    HW222488   4.236   1.477  15.401  1.3209 -3.4034  1.0993
 3619SOL     OW22489   0.118   3.019   8.347  0.5166 -0.6407  0.1341
 3619SOL    HW122490   0.062   3.067   8.286  3.3144  1.1685 -0.9959
 3619SOL    HW222491   0.053   2.967   8.395 -0.7094  1.0519  0.2763
 3620SOL     OW22492   1.015   0.901  14.584  0.1786  0.0166  0.1502
 3620SOL    HW122493   0.942   0.925  14.526  0.8972  3.3576  0.6244
 3620SOL    HW222494   1.050   0.987  14.606 -0.9785 -0.2356  3.0713
 3621SOL     OW22495   1.881   0.030  10.995  0.2581  0.2296  0.4238
 3621SOL    HW122496   1.879   4.683  10.953  1.9345 -1.1389  3.1549
 3621SOL    HW222497   1.960   0.068  10.956  1.1737 -1.2327  0.8343
 3622SOL     OW22498   2.129   3.886   2.900  0.1464 -0.5494  0.4629
 3622SOL    HW122499   2.160   3.948   2.966 -0.2969  0.1637  0.0024
 3622SOL    HW222500   2.036   3.873   2.917 -0.4942  0.8758 -2.0554
 3623SOL     OW22501   1.154   0.127   6.757 -0.5079 -0.1409  0.0276
 3623SOL    HW122502   1.203   0.119   6.675  2.1857 -0.5152  1.6732
 3623SOL    HW222503   1.070   0.085   6.735  0.4962 -0.8202 -2.4534
 3624SOL     OW22504   2.225   0.692   3.694 -1.1064 -0.2887  0.1159
 3624SOL    HW122505   2.202   0.785   3.682 -1.6101 -0.6869 -1.9694
 3624SOL    HW222506   2.157   0.666   3.756 -1.4875  1.8304  0.6217
 3625SOL     OW22507   0.137   3.114   7.237 -0.1279 -0.6457  0.4536
 3625SOL    HW122508   0.108   3.189   7.288 -0.3465 -0.0641 -0.5418
 3625SOL    HW222509   0.150   3.044   7.302  0.1212 -1.0948 -0.0722
 3626SOL     OW22510   4.253   1.360   4.440  0.0303  0.0320 -0.6452
 3626SOL    HW122511   4.214   1.428   4.495 -0.6481 -0.6968 -0.2282
 3626SOL    HW222512   4.262   1.285   4.499 -0.9316  0.5917  0.2260
 3627SOL     OW22513   4.019   2.668   2.346  0.4628  0.0594  0.2238
 3627SOL    HW122514   4.036   2.619   2.265 -1.8341 -2.9932  1.5726
 3627SOL    HW222515   4.091   2.729   2.352  0.4305 -0.2155  3.0963
 3628SOL     OW22516   0.691   2.950   6.957 -0.1144  0.1483 -0.2777
 3628SOL    HW122517   0.755   3.005   7.002 -1.2243  0.4097  0.9853
 3628SOL    HW222518   0.739   2.868   6.942 -0.9550  0.0005 -2.1383
 3629SOL     OW22519   2.386   3.262  15.098  0.3949  0.0758  0.2012
 3629SOL    HW122520   2.361   3.253  15.007 -0.6751 -1.0043  0.5999
 3629SOL    HW222521   2.481   3.273  15.089  0.5248 -0.6318  0.6380
 3630SOL     OW22522   3.092   0.290   1.766  0.4093 -0.3160  0.5896
 3630SOL    HW122523   3.187   0.292   1.755  0.1860  2.3708 -0.8240
 3630SOL    HW222524   3.080   0.385   1.775 -0.1104 -0.2472 -0.8850
 3631SOL     OW22525   3.628   4.633   5.498 -0.1753  0.0616  0.1475
 3631SOL    HW122526   3.700   4.572   5.511 -1.2133 -0.7894  1.8567
 3631SOL    HW222527   3.670   4.719   5.498 -0.0045 -0.0201  0.6207
 3632SOL     OW22528   3.079   2.164   7.838  0.0612 -0.2068  0.0323
 3632SOL    HW122529   3.145   2.097   7.857 -1.2379 -1.5424 -0.1738
 3632SOL    HW222530   3.030   2.125   7.766 -1.5592  1.6465  0.1315
 3633SOL     OW22531   0.280   0.962  14.947  0.3524 -0.0141 -0.3858
 3633SOL    HW122532   0.376   0.971  14.950  0.4539 -0.6883 -1.9374
 3633SOL    HW222533   0.267   0.868  14.951  2.6252 -0.3271 -0.0188
 3634SOL     OW22534   1.360   3.242   3.176  0.1322  1.0260 -0.0897
 3634SOL    HW122535   1.383   3.267   3.266 -1.5298 -1.1044  0.9464
 3634SOL    HW222536   1.265   3.233   3.186  0.4189 -3.1001 -0.9519
 3635SOL     OW22537   4.302   2.902  14.916 -0.2688 -0.2884 -0.0690
 3635SOL    HW122538   4.372   2.837  14.918 -1.0767 -1.1769 -0.7475
 3635SOL    HW222539   4.244   2.859  14.855  0.1117  1.0963 -1.4177
 3636SOL     OW22540   1.423   1.776  12.206 -0.3357  0.1151  1.0963
 3636SOL    HW122541   1.427   1.776  12.301  0.4589 -1.6585  1.0807
 3636SOL    HW222542   1.403   1.686  12.180  0.3576 -0.0321  1.0560
 3637SOL     OW22543   2.153   2.068  15.526  0.6280  0.0881 -0.0328
 3637SOL    HW122544   2.190   2.060  15.438  1.3178 -3.0767  0.5389
 3637SOL    HW222545   2.179   2.158  15.548 -1.2521  0.6312 -0.0478
 3638SOL     OW22546   3.339   1.478  13.286  0.0848  0.3958  0.0183
 3638SOL    HW122547   3.392   1.557  13.293 -1.6805  1.5655  0.2511
 3638SOL    HW222548   3.386   1.423  13.223  0.4655 -0.0931  0.7239
 3639SOL     OW22549   0.486   2.127   1.537  0.5085 -0.2574  0.2351
 3639SOL    HW122550   0.489   2.045   1.488  1.3240 -0.0620 -0.0506
 3639SOL    HW222551   0.425   2.112   1.609 -0.7665  4.1693  0.1083
 3640SOL     OW22552   2.010   2.875  14.050  0.4418  0.0300 -0.6400
 3640SOL    HW122553   2.039   2.966  14.059 -1.8002  0.7050 -0.3655
 3640SOL    HW222554   1.936   2.883  13.990  0.0538 -4.4238 -0.7497
 3641SOL     OW22555   3.424   0.423   0.262  0.1220  0.4059  0.3620
 3641SOL    HW122556   3.359   0.494   0.262 -1.5919 -1.1319 -3.5263
 3641SOL    HW222557   3.420   0.391   0.352  1.2814  0.7167  0.5220
 3642SOL     OW22558   1.210   0.600   2.614  0.2372 -0.1562  0.1967
 3642SOL    HW122559   1.253   0.685   2.608 -1.6934  0.8375  0.4539
 3642SOL    HW222560   1.157   0.616   2.691  1.5468  2.5033  0.5184
 3643SOL     OW22561   4.540   1.040  10.655 -0.6067 -0.4096 -0.0809
 3643SOL    HW122562   4.635   1.048  10.662 -0.6456 -0.0665  0.0486
 3643SOL    HW222563   4.513   1.131  10.647  0.9848  0.1841  1.3005
 3644SOL     OW22564   1.672   1.916   4.341  0.0914 -0.3073  0.7088
 3644SOL    HW122565   1.639   1.901   4.252  2.6049 -2.3793  0.1388
 3644SOL    HW222566   1.609   1.975   4.383 -1.2829 -0.6522 -0.8336
 3645SOL     OW22567   3.777   0.363   7.025 -0.4951  0.5793 -0.1093
 3645SOL    HW122568   3.780   0.459   7.030  2.6656  0.4676  0.2668
 3645SOL    HW222569   3.865   0.338   6.997 -0.4847 -1.1853  1.4661
 3646SOL     OW22570   3.290   4.601   4.276  0.3927 -0.1634 -0.0935
 3646SOL    HW122571   3.248   4.526   4.234  1.2012 -1.7663  1.9402
 3646SOL    HW222572   3.371   4.557   4.302  0.1546 -0.0187  0.8978
 3647SOL     OW22573   0.935   3.553   8.664 -0.0378 -0.2838 -0.7937
 3647SOL    HW122574   0.992   3.507   8.726 -0.1636 -1.0399 -1.2338
 3647SOL    HW222575   0.973   3.639   8.649 -0.8713  0.2151 -0.1016
 3648SOL     OW22576   0.964   3.594   0.558  0.2695 -0.4261  0.3658
 3648SOL    HW122577   0.870   3.582   0.572  0.7835 -2.3752  2.1870
 3648SOL    HW222578   0.981   3.671   0.504 -1.7813  0.9076  1.5968
 3649SOL     OW22579   1.193   3.621  14.080  0.1907  0.6206  0.2022
 3649SOL    HW122580   1.194   3.548  14.142  2.7860 -1.1896 -1.9729
 3649SOL    HW222581   1.119   3.592  14.026  1.8059 -1.7544 -0.7201
 3650SOL     OW22582   2.368   4.577   9.148 -0.0591 -0.1783  0.0596
 3650SOL    HW122583   2.278   4.611   9.157 -0.5941 -1.8490  1.0733
 3650SOL    HW222584   2.356   4.483   9.159 -1.4865  0.4119  3.5579
 3651SOL     OW22585   1.372   2.626  11.005  0.0961  0.3158 -0.4472
 3651SOL    HW122586   1.463   2.627  11.033 -0.2294  0.2642  0.6198
 3651SOL    HW222587   1.351   2.717  10.988 -0.1828  0.1778 -0.8372
 3652SOL     OW22588   3.344   1.863   0.419  0.2665 -0.0122 -0.7351
 3652SOL    HW122589   3.437   1.871   0.399  0.7722 -2.0542  0.7289
 3652SOL    HW222590   3.347   1.834   0.511 -1.5572 -0.1860 -0.7266
 3653SOL     OW22591   4.515   2.226   3.421  0.3438 -0.2849  0.0306
 3653SOL    HW122592   4.449   2.294   3.416  1.5158  0.8283 -0.3018
 3653SOL    HW222593   4.576   2.256   3.489  0.4109  0.6756 -0.4642
 3654SOL     OW22594   2.238   0.707   4.418 -0.0415  0.5877 -0.0706
 3654SOL    HW122595   2.253   0.708   4.513 -0.8740 -1.1557  0.0929
 3654SOL    HW222596   2.326   0.728   4.388  0.4812 -0.7827  0.4623
 3655SOL     OW22597   4.285   1.996  10.326  1.0808 -0.1689 -0.0536
 3655SOL    HW122598   4.242   2.074  10.291 -1.1982 -0.9831  0.9618
 3655SOL    HW222599   4.347   2.042  10.383 -0.6206  0.0283  1.6276
 3656SOL     OW22600   0.925   4.175   8.535 -0.1708  0.1042  0.8006
 3656SOL    HW122601   0.867   4.198   8.608  0.6875 -1.9900  2.1482
 3656SOL    HW222602   0.916   4.080   8.538  2.5817 -0.1423  1.1609
 3657SOL     OW22603   2.648   4.560   9.443  0.1919  0.1115  0.1928
 3657SOL    HW122604   2.555   4.583   9.441 -0.1154 -1.2446 -1.2302
 3657SOL    HW222605   2.678   4.650   9.434  0.5474 -0.1316 -1.0282
 3658SOL     OW22606   3.747   4.124   8.371 -0.3718 -0.4029  0.5197
 3658SOL    HW122607   3.678   4.058   8.362 -0.0557 -0.7524  0.6674
 3658SOL    HW222608   3.794   4.105   8.290  1.0275  0.7088  1.0832
 3659SOL     OW22609   0.440   0.539  15.484 -0.2449 -0.0585  0.1665
 3659SOL    HW122610   0.464   0.515  15.573  1.2527 -1.2073 -0.5636
 3659SOL    HW222611   0.386   0.617  15.498 -0.9622 -0.6952  0.9782
 3660SOL     OW22612   1.214   4.022   0.376 -0.1021  0.3421 -0.1348
 3660SOL    HW122613   1.184   4.065   0.296  0.0517  2.1348  0.7607
 3660SOL    HW222614   1.308   4.016   0.356  0.3716 -0.0371  2.1371
 3661SOL     OW22615   2.901   0.539   5.493  0.0737 -0.0425  0.2545
 3661SOL    HW122616   2.858   0.513   5.574  0.4077 -0.6823  0.2274
 3661SOL    HW222617   2.842   0.603   5.451  1.1921  0.4556 -0.5422
 3662SOL     OW22618   4.445   3.160   8.372 -0.7223 -0.7411  0.1557
 3662SOL    HW122619   4.446   3.097   8.300 -0.6289 -0.4723 -0.0829
 3662SOL    HW222620   4.459   3.092   8.437  1.2403 -0.2497  0.2378
 3663SOL     OW22621   4.061   4.162   0.696  0.3709 -0.0529  0.0337
 3663SOL    HW122622   4.153   4.135   0.705  0.2761 -0.1729  0.6628
 3663SOL    HW222623   4.028   4.074   0.679 -3.1051  2.1691 -4.6355
 3664SOL     OW22624   3.947   1.435   0.680  0.0191 -0.1855  0.6978
 3664SOL    HW122625   3.999   1.418   0.759 -0.6437  2.0099  1.6045
 3664SOL    HW222626   4.014   1.487   0.636  0.4872 -1.1869  0.2411
 3665SOL     OW22627   0.475   3.218   8.092 -0.2410  0.3267  0.3992
 3665SOL    HW122628   0.521   3.294   8.056 -1.8197  0.4631 -1.3445
 3665SOL    HW222629   0.535   3.199   8.164  0.0524 -0.3696 -0.0318
 3666SOL     OW22630   2.623   1.566   8.469 -0.8058 -0.1701  0.3325
 3666SOL    HW122631   2.628   1.661   8.473 -1.5510 -0.0853 -0.6130
 3666SOL    HW222632   2.711   1.534   8.492 -1.2630 -0.9865  0.9635
 3667SOL     OW22633   0.546   3.456  13.108  0.0620  0.7816  0.1026
 3667SOL    HW122634   0.552   3.552  13.110 -1.2402  0.8664  0.2555
 3667SOL    HW222635   0.555   3.431  13.017  1.3767  0.7815  0.2359
 3668SOL     OW22636   2.512   1.595   4.192 -0.5120  0.0953  0.1028
 3668SOL    HW122637   2.470   1.597   4.106 -0.8090  0.1277  0.2493
 3668SOL    HW222638   2.603   1.591   4.162 -1.6230  1.4399 -3.3997
 3669SOL     OW22639   0.285   2.587   7.588  0.6728  0.1273  0.1145
 3669SOL    HW122640   0.342   2.512   7.603  2.0959  1.0870 -0.5767
 3669SOL    HW222641   0.248   2.614   7.672  0.5772 -0.0123  0.1174
 3670SOL     OW22642   0.642   2.666   1.201  0.6396 -0.0880  0.1515
 3670SOL    HW122643   0.566   2.633   1.249 -2.0557  2.5318 -2.2934
 3670SOL    HW222644   0.599   2.720   1.135 -1.5096 -2.6987 -0.5717
 3671SOL     OW22645   0.293   0.812   2.736  0.3791  0.3546 -0.4662
 3671SOL    HW122646   0.356   0.884   2.728 -0.8880  1.5273  0.1970
 3671SOL    HW222647   0.346   0.737   2.707  1.4822  0.7539  0.5599
 3672SOL     OW22648   3.729   2.004   1.748 -0.8132 -0.2976  0.5675
 3672SOL    HW122649   3.773   2.001   1.663  0.0471 -0.6381  1.0179
 3672SOL    HW222650   3.695   1.914   1.750  0.5432 -0.8493 -1.2650
 3673SOL     OW22651   3.093   3.159   7.365  0.2833 -0.1952 -0.1611
 3673SOL    HW122652   3.100   3.169   7.271 -2.1176 -0.6062 -0.3821
 3673SOL    HW222653   3.160   3.093   7.383 -0.2950 -1.6987 -3.6904
 3674SOL     OW22654   1.620   0.590   8.043  0.2074  0.1134 -0.1443
 3674SOL    HW122655   1.612   0.676   8.000  0.3714 -0.8045 -2.0150
 3674SOL    HW222656   1.676   0.613   8.117 -2.2257  1.9996  1.1074
 3675SOL     OW22657   4.690   2.083  15.604  0.4788 -0.0025  0.1663
 3675SOL    HW122658   0.035   2.128  15.605  0.7175 -0.3839 -2.3380
 3675SOL    HW222659   4.681   2.062  15.510  0.5243  0.6395  0.0197
 3676SOL     OW22660   3.922   2.037   5.212 -0.4368  0.1411  0.4688
 3676SOL    HW122661   4.016   2.053   5.217 -0.7095  2.2343 -1.4982
 3676SOL    HW222662   3.916   1.942   5.226  1.6145  0.5934  4.6374
 3677SOL     OW22663   0.432   3.224   2.280  0.0135  0.2000 -0.3549
 3677SOL    HW122664   0.432   3.142   2.231  1.0851 -0.8316  1.3565
 3677SOL    HW222665   0.353   3.265   2.247 -0.2535 -0.0882 -0.0711
 3678SOL     OW22666   4.613   3.691   4.332  0.1720 -0.5243  0.4796
 3678SOL    HW122667   4.674   3.714   4.262  0.3926  0.3347  0.9598
 3678SOL    HW222668   4.607   3.598   4.307  0.6684 -0.2370 -0.7236
 3679SOL     OW22669   2.846   1.336  16.317  1.0197 -0.5648 -0.2973
 3679SOL    HW122670   2.789   1.298  16.249  0.5698  1.0080 -0.8063
 3679SOL    HW222671   2.819   1.272  16.382 -0.6422  0.6199  0.1973
 3680SOL     OW22672   3.367   2.409   9.528  0.2893  0.0223 -0.2148
 3680SOL    HW122673   3.456   2.375   9.519  0.3440  0.2178 -0.4193
 3680SOL    HW222674   3.361   2.486   9.471  1.2299  0.0540 -0.2727
 3681SOL     OW22675   4.156   4.130   9.547 -0.0190  0.0196 -0.1135
 3681SOL    HW122676   4.077   4.115   9.494 -1.7529  0.5584  2.3372
 3681SOL    HW222677   4.208   4.186   9.489  0.1391  0.0003  0.0110
 3682SOL     OW22678   2.535   2.134   1.146 -0.2917 -0.0155 -0.0815
 3682SOL    HW122679   2.472   2.098   1.083 -1.3614 -0.1801  1.0998
 3682SOL    HW222680   2.615   2.099   1.108  1.6630  2.3132  1.9421
 3683SOL     OW22681   3.585   2.576   2.593 -0.8491  0.2472 -0.2631
 3683SOL    HW122682   3.499   2.596   2.629 -2.1651 -1.8893 -2.2052
 3683SOL    HW222683   3.596   2.629   2.514 -2.2850 -1.7204 -1.7894
 3684SOL     OW22684   0.223   3.695   7.443  0.1180  0.6424  0.4496
 3684SOL    HW122685   0.196   3.785   7.428  1.7949  1.2622  1.1481
 3684SOL    HW222686   0.177   3.650   7.372  1.6072 -0.3711  0.1174
 3685SOL     OW22687   4.069   2.035   1.142  0.3326  0.0696 -0.2676
 3685SOL    HW122688   4.076   2.129   1.128 -0.2807 -0.0517 -1.4526
 3685SOL    HW222689   4.081   2.038   1.237 -0.6506  2.5737 -0.2158
 3686SOL     OW22690   1.918   4.026  14.450 -0.6118 -0.1296  0.0272
 3686SOL    HW122691   1.852   4.016  14.519 -0.4559 -0.8587  0.0675
 3686SOL    HW222692   1.944   4.117  14.466  0.7020 -0.8384  1.8620
 3687SOL     OW22693   2.386   2.917  14.655  0.3316  0.4893  0.2351
 3687SOL    HW122694   2.333   2.991  14.624 -1.4082 -0.5178  0.8192
 3687SOL    HW222695   2.473   2.959  14.650  0.4639  0.2882  0.8009
 3688SOL     OW22696   4.095   2.472   8.583  0.6520 -0.1609  0.1411
 3688SOL    HW122697   4.072   2.547   8.638  2.2459  1.1382 -0.9950
 3688SOL    HW222698   4.137   2.420   8.652 -0.5739  2.2322  2.7123
 3689SOL     OW22699   0.477   4.606   4.514 -0.2769 -0.7407  0.2815
 3689SOL    HW122700   0.447   4.572   4.599 -1.6592  0.7632  0.4115
 3689SOL    HW222701   0.510   4.694   4.535  2.8185 -1.3570 -2.0788
 3690SOL     OW22702   2.962   1.862  12.900 -0.7289  0.0820  0.3016
 3690SOL    HW122703   2.999   1.950  12.909 -0.9415  0.0712  1.3153
 3690SOL    HW222704   2.870   1.884  12.891 -0.2443  0.9420 -2.5139
 3691SOL     OW22705   4.633   0.846   5.915 -0.2604  0.0194  0.5080
 3691SOL    HW122706   4.682   0.902   5.975 -0.2480  0.0434  0.4758
 3691SOL    HW222707   4.650   0.764   5.960  1.1307  0.1325  0.1746
 3692SOL     OW22708   2.701   2.483   8.111  0.2948 -0.0372  0.2663
 3692SOL    HW122709   2.706   2.418   8.181  4.9253  0.4537  0.4410
 3692SOL    HW222710   2.739   2.550   8.169  0.0739  0.2909  0.0300
 3693SOL     OW22711   3.479   3.408   8.721  0.3344  0.1649 -0.1244
 3693SOL    HW122712   3.510   3.327   8.680 -1.7578 -1.7744  2.1609
 3693SOL    HW222713   3.561   3.457   8.720  1.5115 -1.7627  0.8398
 3694SOL     OW22714   1.426   2.149   8.699 -0.6650 -0.7748 -0.0807
 3694SOL    HW122715   1.429   2.199   8.781 -1.1688 -0.0104 -0.5276
 3694SOL    HW222716   1.457   2.062   8.724 -2.4309 -1.6410 -0.9546
 3695SOL     OW22717   2.870   1.384   8.300  0.4133 -0.1285  0.0204
 3695SOL    HW122718   2.813   1.309   8.284  1.0985 -0.5133 -0.6312
 3695SOL    HW222719   2.918   1.350   8.376 -0.7200 -1.9751 -0.0923
 3696SOL     OW22720   2.349   0.510   5.966 -0.1378  0.1679 -0.5429
 3696SOL    HW122721   2.264   0.469   5.949  0.8837 -2.6981  1.3679
 3696SOL    HW222722   2.324   0.594   6.006 -0.7397 -0.9078  1.3465
 3697SOL     OW22723   4.033   2.273   6.878 -0.0522  0.1866  0.3591
 3697SOL    HW122724   4.085   2.346   6.911  0.4393  0.1152 -0.2608
 3697SOL    HW222725   3.949   2.309   6.906  0.2899 -1.3426  3.3376
 3698SOL     OW22726   2.736   4.391   2.437  0.3149  0.6169 -0.6308
 3698SOL    HW122727   2.781   4.351   2.512 -1.5023  0.9794  0.6495
 3698SOL    HW222728   2.682   4.322   2.399 -2.2350  1.4052  1.5559
 3699SOL     OW22729   3.946   2.962   3.489  0.2614  0.3639  0.1106
 3699SOL    HW122730   4.036   2.956   3.520 -0.2552  0.7839  1.7143
 3699SOL    HW222731   3.951   2.878   3.444  2.1290 -0.3082  1.6152
 3700SOL     OW22732   1.573   1.829   7.509  0.0130  0.2065 -0.4506
 3700SOL    HW122733   1.629   1.882   7.566 -1.0154  1.1268 -0.2978
 3700SOL    HW222734   1.631   1.755   7.495  0.4217  0.4827 -0.2268
 3701SOL     OW22735   1.798   0.608   6.466  0.0583 -0.1456  0.3373
 3701SOL    HW122736   1.725   0.608   6.528 -1.2823  1.6710 -1.2306
 3701SOL    HW222737   1.814   0.701   6.446 -0.5396 -0.0550  0.2653
 3702SOL     OW22738   0.911   4.161   3.718  0.2191  0.7876  0.3991
 3702SOL    HW122739   0.886   4.068   3.720 -0.0874  0.9013  1.6462
 3702SOL    HW222740   0.982   4.158   3.782 -0.3201 -0.3391  0.9486
 3703SOL     OW22741   2.951   1.860   8.971  0.6141 -0.1953  0.0798
 3703SOL    HW122742   2.953   1.766   8.989 -1.0252 -0.6045 -1.9640
 3703SOL    HW222743   3.010   1.895   9.038 -1.0245  1.3237  0.7263
 3704SOL     OW22744   4.499   1.212   2.368  0.2554 -0.3143  0.4020
 3704SOL    HW122745   4.500   1.120   2.397  0.3768 -0.2516  0.5974
 3704SOL    HW222746   4.423   1.204   2.310 -0.3925  1.3948  0.9917
 3705SOL     OW22747   0.644   1.277  15.892  0.0191  0.4293  0.2567
 3705SOL    HW122748   0.686   1.341  15.835 -2.2700 -0.0875 -2.0140
 3705SOL    HW222749   0.562   1.320  15.914  0.0615 -0.2488  1.7092
 3706SOL     OW22750   3.155   3.806  12.817 -0.2031 -0.0590  0.0883
 3706SOL    HW122751   3.227   3.811  12.754 -0.2779  3.1907  0.2881
 3706SOL    HW222752   3.145   3.895  12.850 -0.3991  0.5755 -1.6839
 3707SOL     OW22753   2.270   2.981   6.669  0.2887  0.1749 -0.7801
 3707SOL    HW122754   2.325   2.943   6.601 -0.1564 -0.0886 -0.9909
 3707SOL    HW222755   2.311   3.068   6.676  0.7958 -0.4090  3.4581
 3708SOL     OW22756   1.097   1.998   7.276  0.2769 -0.1337 -0.8701
 3708SOL    HW122757   1.173   1.962   7.322 -0.1182  1.5434  1.0749
 3708SOL    HW222758   1.024   1.952   7.318  0.8600 -0.0975  0.1816
 3709SOL     OW22759   0.225   4.327   2.522 -0.3587 -0.4352  0.0301
 3709SOL    HW122760   0.137   4.349   2.552  0.1724  1.2189  0.3586
 3709SOL    HW222761   0.280   4.351   2.596 -1.6963  1.6881  0.3278
 3710SOL     OW22762   3.864   0.419   4.699  0.1754 -0.0791  0.4579
 3710SOL    HW122763   3.796   0.431   4.765 -3.1649 -4.2240 -2.2102
 3710SOL    HW222764   3.926   0.377   4.757 -0.6912  0.1989  1.5917
 3711SOL     OW22765   1.581   1.970   3.520 -0.3340  0.4705  0.0805
 3711SOL    HW122766   1.550   2.056   3.547 -0.6102  0.6842 -0.9094
 3711SOL    HW222767   1.511   1.924   3.566  0.8048  0.0651  1.3732
 3712SOL     OW22768   0.324   2.365   6.166  0.4013  0.2047 -0.2777
 3712SOL    HW122769   0.238   2.328   6.148 -0.1649 -0.0266  2.8614
 3712SOL    HW222770   0.294   2.434   6.226  0.8428 -0.2574  0.4723
 3713SOL     OW22771   0.140   1.870   3.794 -0.1916 -0.1342 -0.1511
 3713SOL    HW122772   0.145   1.804   3.725 -0.0325  2.2015 -2.3994
 3713SOL    HW222773   0.232   1.895   3.799 -0.1324  0.2565 -3.2096
 3714SOL     OW22774   4.611   2.067   8.539  0.1380 -0.7631  0.9063
 3714SOL    HW122775   4.634   1.974   8.545  0.9480 -0.6293 -0.1248
 3714SOL    HW222776   4.635   2.107   8.622  1.7936 -1.9044  0.9914
 3715SOL     OW22777   3.067   3.364   1.852 -0.2099 -0.6168  0.2502
 3715SOL    HW122778   3.097   3.446   1.892  1.6863 -0.6319 -1.1388
 3715SOL    HW222779   2.978   3.349   1.883 -1.4733 -2.0733 -4.0936
 3716SOL     OW22780   1.127   2.724  16.774  0.1368 -0.0954 -0.1003
 3716SOL    HW122781   1.062   2.693  16.837 -0.1439  0.6433 -0.0270
 3716SOL    HW222782   1.104   2.814  16.753 -2.5312 -0.6151  0.5843
 3717SOL     OW22783   0.508   3.271   3.295 -0.0708 -0.1501 -0.4630
 3717SOL    HW122784   0.515   3.270   3.200  0.3614  1.3798 -0.4531
 3717SOL    HW222785   0.458   3.190   3.306  4.3067 -2.8747 -0.3765
 3718SOL     OW22786   1.705   3.344   1.324  0.0511  0.2698  0.2791
 3718SOL    HW122787   1.704   3.422   1.269 -2.1840  0.6421  0.8639
 3718SOL    HW222788   1.799   3.328   1.336  0.2273  1.0121 -0.1135
 3719SOL     OW22789   1.092   2.324   9.783  0.1726  0.2968  0.1999
 3719SOL    HW122790   1.018   2.279   9.742  0.7239 -1.1959  0.8314
 3719SOL    HW222791   1.066   2.316   9.875 -1.5282 -0.1766 -0.3242
 3720SOL     OW22792   0.452   3.821   1.998  0.3334 -0.4408  0.4893
 3720SOL    HW122793   0.400   3.865   1.931 -0.9221 -0.9221  1.1430
 3720SOL    HW222794   0.382   3.809   2.063 -0.8515 -1.7396 -1.0365
 3721SOL     OW22795   2.407   2.637   5.140 -0.3060  0.0726  0.2096
 3721SOL    HW122796   2.325   2.647   5.187 -0.5139  1.0525 -0.3701
 3721SOL    HW222797   2.441   2.559   5.184 -1.8340 -0.3104  0.7013
 3722SOL     OW22798   3.585   1.803   4.648  0.4962  0.8073 -0.0985
 3722SOL    HW122799   3.593   1.859   4.725 -1.3381 -0.8516  1.2997
 3722SOL    HW222800   3.586   1.866   4.577 -1.4926  2.4467  1.3292
 3723SOL     OW22801   2.668   1.526   5.100 -0.2488 -0.1994 -0.4090
 3723SOL    HW122802   2.648   1.619   5.090  3.1352  0.4829 -0.7874
 3723SOL    HW222803   2.722   1.530   5.179 -1.0953 -1.3113  0.2227
 3724SOL     OW22804   4.624   2.919   8.996 -0.3489 -0.1872 -0.0428
 3724SOL    HW122805   4.538   2.905   9.037 -0.0168 -0.4192  0.5799
 3724SOL    HW222806   4.608   2.996   8.942 -0.5692  0.0046  0.2896
 3725SOL     OW22807   0.381   4.126   1.907 -0.2362 -0.4598  0.4083
 3725SOL    HW122808   0.347   4.051   1.859 -0.5811 -0.5547  0.7970
 3725SOL    HW222809   0.312   4.119   1.973  1.4511 -0.7267  2.1469
 3726SOL     OW22810   0.717   4.730   4.370  0.0613  0.2850 -0.2910
 3726SOL    HW122811   0.766   4.704   4.291  0.6165  3.5547 -0.9935
 3726SOL    HW222812   0.640   0.027   4.325  0.2502 -1.0668 -1.7212
 3727SOL     OW22813   2.417   1.986  15.966  0.1874 -0.8054  0.1330
 3727SOL    HW122814   2.349   1.926  15.936 -1.6965  0.5098  1.7641
 3727SOL    HW222815   2.364   2.036  16.028  1.6182  0.4726  0.3317
 3728SOL     OW22816   0.107   3.092   2.441  0.0483 -0.4115  0.3471
 3728SOL    HW122817   0.133   3.088   2.349 -1.5606 -1.2131 -0.0729
 3728SOL    HW222818   0.061   3.176   2.446  0.4889 -0.0258 -1.8623
 3729SOL     OW22819   4.666   3.718   2.060 -0.0983 -0.2008 -0.0791
 3729SOL    HW122820   4.699   3.804   2.084  1.5901 -0.1823 -2.4924
 3729SOL    HW222821   4.571   3.720   2.071 -0.1796 -0.7878 -0.6484
 3730SOL     OW22822   1.218   1.751   8.639  0.1261 -0.4988  0.0140
 3730SOL    HW122823   1.214   1.822   8.702  0.4377 -1.2818  0.9050
 3730SOL    HW222824   1.131   1.711   8.638  0.2297 -0.7405  0.9218
 3731SOL     OW22825   1.886   0.494   3.308 -0.5945 -0.1628  0.4740
 3731SOL    HW122826   1.921   0.451   3.386 -0.8189 -0.4532  0.4144
 3731SOL    HW222827   1.844   0.561   3.362  1.0688 -1.5865  3.5336
 3732SOL     OW22828   4.590   1.410   6.733 -0.1609  0.1203 -0.0543
 3732SOL    HW122829   4.588   1.484   6.672  1.7923  0.7192  0.6011
 3732SOL    HW222830   4.545   1.449   6.808  1.3524  1.2737  0.2613
 3733SOL     OW22831   0.002   4.702   6.281 -0.2571  0.1891  0.1133
 3733SOL    HW122832   0.012   4.627   6.222 -1.8148 -0.2437  0.4061
 3733SOL    HW222833   4.669   4.668   6.333  1.3781 -1.9617  0.9732
 3734SOL     OW22834   3.036   4.074   7.278 -0.3781  0.5564 -0.3907
 3734SOL    HW122835   3.026   4.118   7.194  1.8236  1.5657 -0.1247
 3734SOL    HW222836   3.015   4.144   7.339  0.8141  0.3613  0.2494
 3735SOL     OW22837   3.525   3.126   2.944  0.5097  0.9350  0.3759
 3735SOL    HW122838   3.592   3.131   3.013  1.9507  2.0375 -1.1038
 3735SOL    HW222839   3.556   3.187   2.877 -0.7211  0.3278 -0.7398
 3736SOL     OW22840   4.038   3.714   4.966 -0.7430 -0.0305 -0.2833
 3736SOL    HW122841   3.972   3.687   5.030 -1.3966  0.6077 -0.7025
 3736SOL    HW222842   3.979   3.765   4.912  0.3133  0.8876 -0.5688
 3737SOL     OW22843   4.467   3.577  12.347  0.2524  0.2456 -0.6954
 3737SOL    HW122844   4.453   3.667  12.378  1.4331  0.3647 -0.5091
 3737SOL    HW222845   4.562   3.574  12.355  0.3537 -1.5144 -2.4482
 3738SOL     OW22846   0.993   0.182  11.810  0.0383  0.2015 -0.3702
 3738SOL    HW122847   0.959   0.271  11.805 -0.4415  0.0559  0.3577
 3738SOL    HW222848   0.927   0.124  11.847  1.3395 -0.0113  1.6323
 3739SOL     OW22849   4.403   4.182  17.689  0.4603 -0.1512 -0.2114
 3739SOL    HW122850   4.325   4.232  17.712  0.5563 -0.6606  1.2399
 3739SOL    HW222851   4.390   4.184  17.594  1.8812 -0.7138 -0.4228
 3740SOL     OW22852   3.964   0.850   8.955 -0.5561  0.0236 -0.2891
 3740SOL    HW122853   3.996   0.824   8.869  0.0054 -0.3915  0.0480
 3740SOL    HW222854   3.918   0.932   8.937  0.4028  0.7560  0.5774
 3741SOL     OW22855   1.566   1.421  14.824 -1.4750 -0.6326  0.5055
 3741SOL    HW122856   1.471   1.433  14.819 -1.1549  1.7688  0.3528
 3741SOL    HW222857   1.603   1.508  14.808 -0.3460 -0.6716  2.9347
 3742SOL     OW22858   2.571   2.237  13.485  1.2354  1.0085 -0.3700
 3742SOL    HW122859   2.568   2.150  13.444  1.1759 -0.4622  2.6814
 3742SOL    HW222860   2.530   2.284  13.413 -0.7520  0.7637  0.5815
 3743SOL     OW22861   4.036   3.532  10.205  0.4371  0.5066 -0.2602
 3743SOL    HW122862   3.976   3.514  10.133 -2.1017 -0.4366  2.0967
 3743SOL    HW222863   4.113   3.551  10.151 -0.9669  1.6095 -1.8904
 3744SOL     OW22864   2.986   0.879  14.450 -0.0853 -0.2583 -0.6343
 3744SOL    HW122865   3.052   0.866  14.518  1.7371 -1.0740 -2.6062
 3744SOL    HW222866   3.035   0.867  14.369  0.0909 -0.5036 -0.4917
 3745SOL     OW22867   0.231   3.330   2.150 -0.1794  0.1768 -0.1401
 3745SOL    HW122868   0.241   3.359   2.059 -1.2133 -0.6406 -0.4978
 3745SOL    HW222869   0.190   3.407   2.189  2.6078  1.7363 -0.2681
 3746SOL     OW22870   3.810   1.177  11.107 -0.3786 -0.2884  0.3523
 3746SOL    HW122871   3.776   1.228  11.181 -0.8738 -0.9132  0.5545
 3746SOL    HW222872   3.904   1.182  11.125 -0.2906 -0.5969 -0.0164
 3747SOL     OW22873   0.780   4.175  11.309 -0.6695 -0.3040 -0.7508
 3747SOL    HW122874   0.747   4.087  11.327 -2.0075  0.5353  0.8878
 3747SOL    HW222875   0.815   4.167  11.221  0.9275 -0.3880 -0.1038
 3748SOL     OW22876   3.872   3.733   7.887 -0.4739 -0.3306 -0.3753
 3748SOL    HW122877   3.886   3.640   7.871  1.2140  0.1552 -1.6443
 3748SOL    HW222878   3.883   3.770   7.799  0.2800  1.1558  0.3397
 3749SOL     OW22879   3.030   0.139   3.351 -0.0934 -1.1448  1.0862
 3749SOL    HW122880   3.089   0.065   3.362  1.7609  0.5429  2.5650
 3749SOL    HW222881   3.098   0.196   3.314 -1.4451 -0.4680 -0.3929
 3750SOL     OW22882   0.593   2.455   9.478 -0.5908 -0.7347  0.0986
 3750SOL    HW122883   0.518   2.479   9.423 -1.2440 -0.1938  1.2160
 3750SOL    HW222884   0.558   2.466   9.567  0.9116  2.4922  0.3110
 3751SOL     OW22885   3.585   2.603   7.801 -0.6047 -0.2020  0.1320
 3751SOL    HW122886   3.650   2.658   7.847 -1.0662  0.5053 -0.0576
 3751SOL    HW222887   3.500   2.626   7.837 -0.6120 -2.0066  1.2384
 3752SOL     OW22888   1.124   4.337   8.641  0.3638  0.0500  0.3471
 3752SOL    HW122889   1.071   4.376   8.711  0.6704 -0.0390  0.6279
 3752SOL    HW222890   1.058   4.271   8.621 -1.8828  2.0235  1.1954
 3753SOL     OW22891   1.059   0.387   4.920 -0.4025  0.0324  0.1293
 3753SOL    HW122892   0.990   0.326   4.945 -0.6332 -0.2302 -1.1507
 3753SOL    HW222893   0.999   0.459   4.900 -1.3970 -0.0440  2.9423
 3754SOL     OW22894   4.211   0.638   6.699 -0.3658  0.2606 -0.4177
 3754SOL    HW122895   4.213   0.725   6.658 -0.0137  0.8347  0.8143
 3754SOL    HW222896   4.295   0.636   6.745  0.1586  1.5853 -1.3148
 3755SOL     OW22897   2.663   3.774   5.392  0.2552 -0.3413  0.1432
 3755SOL    HW122898   2.659   3.759   5.487  0.0471 -0.7977  0.0602
 3755SOL    HW222899   2.584   3.733   5.356 -0.5711  1.0388  0.4016
 3756SOL     OW22900   1.647   1.935  13.401 -0.4655  0.4110  0.4555
 3756SOL    HW122901   1.564   1.981  13.410 -0.3557  0.3616  1.6810
 3756SOL    HW222902   1.700   2.014  13.406  0.3620 -0.3748  3.5948
 3757SOL     OW22903   4.041   1.262   4.067  0.2597  0.2917  0.3929
 3757SOL    HW122904   4.081   1.347   4.083  4.0648 -1.1474 -1.3112
 3757SOL    HW222905   3.947   1.277   4.072  0.2280  0.3461 -0.3187
 3758SOL     OW22906   3.679   0.128  15.950  0.2169  0.0464 -0.3196
 3758SOL    HW122907   3.772   0.111  15.938 -0.5772 -1.3980 -4.2943
 3758SOL    HW222908   3.676   0.221  15.974 -0.1533 -0.0139 -0.1249
 3759SOL     OW22909   0.883   0.434   6.267  0.6747 -0.8387 -0.3993
 3759SOL    HW122910   0.809   0.395   6.219  0.5656 -0.5714 -0.4451
 3759SOL    HW222911   0.924   0.358   6.308 -3.5397 -1.9681  1.7221
 3760SOL     OW22912   1.868   2.857   2.489  0.1736 -0.3045 -0.0483
 3760SOL    HW122913   1.802   2.901   2.436  1.9294  0.5819 -1.5256
 3760SOL    HW222914   1.825   2.860   2.574  0.7423 -0.5595  0.2517
 3761SOL     OW22915   2.190   2.920  14.941 -0.1328 -0.3855  0.0630
 3761SOL    HW122916   2.191   2.867  14.862  0.7861  0.8016 -0.7118
 3761SOL    HW222917   2.199   2.852  15.008  0.7792 -1.0089 -0.6956
 3762SOL     OW22918   3.873   1.431   2.813 -0.2865  0.2114 -0.2603
 3762SOL    HW122919   3.965   1.446   2.834 -0.3622 -2.9083  2.1462
 3762SOL    HW222920   3.833   1.456   2.897 -0.9559  0.4272 -0.6395
 3763SOL     OW22921   2.413   2.171   7.652  0.2242  0.0007  0.4046
 3763SOL    HW122922   2.428   2.250   7.600 -1.9153 -1.2939 -2.1870
 3763SOL    HW222923   2.495   2.176   7.701  0.2970  2.1479  0.0617
 3764SOL     OW22924   4.590   0.117   7.412  0.0312  0.3137 -0.0853
 3764SOL    HW122925   4.572   0.061   7.336 -0.3426  0.1740  0.1054
 3764SOL    HW222926   4.556   0.203   7.387 -0.5318  0.0380 -0.2633
 3765SOL     OW22927   3.601   3.231   4.550  0.4295  0.8993 -0.0535
 3765SOL    HW122928   3.558   3.145   4.550  1.1678  0.5326  0.4927
 3765SOL    HW222929   3.664   3.224   4.622  2.7427 -0.3000 -2.1880
 3766SOL     OW22930   3.700   1.448   9.340 -0.2062 -0.3873 -0.1953
 3766SOL    HW122931   3.737   1.365   9.308  1.0302  0.3071 -0.5679
 3766SOL    HW222932   3.651   1.482   9.266  0.5826  0.6922 -0.2302
 3767SOL     OW22933   4.668   1.654   6.581 -0.1267  0.3169 -0.7174
 3767SOL    HW122934   0.014   1.696   6.595 -0.4707  1.1221 -1.0104
 3767SOL    HW222935   4.679   1.616   6.494 -2.4502 -1.7431 -0.1090
 3768SOL     OW22936   4.529   3.637   6.366  0.1303 -0.2853 -0.1302
 3768SOL    HW122937   4.579   3.571   6.414  2.3147  0.0082 -2.0456
 3768SOL    HW222938   4.451   3.651   6.420  0.1230  2.0410 -0.7592
 3769SOL     OW22939   0.724   0.394  17.719  0.2905 -0.4828 -0.2174
 3769SOL    HW122940   0.796   0.376  17.659  0.1703  2.3435 -1.2196
 3769SOL    HW222941   0.678   0.310  17.720 -1.0033  0.2317  0.5501
 3770SOL     OW22942   4.668   4.325   8.233  0.1713 -0.0456 -0.1155
 3770SOL    HW122943   4.585   4.277   8.234  0.7632 -1.0578  0.2155
 3770SOL    HW222944   4.636   4.412   8.255  0.8110  0.4384 -1.0897
 3771SOL     OW22945   4.486   0.690   8.214  0.5893  0.0786 -0.2022
 3771SOL    HW122946   4.434   0.763   8.250 -0.1252 -0.1476 -0.7651
 3771SOL    HW222947   4.556   0.739   8.171  0.6404  0.9239  0.8592
 3772SOL     OW22948   1.960   2.787   8.048  0.0782  0.0980 -0.0010
 3772SOL    HW122949   1.886   2.846   8.030 -1.5874 -1.7313  0.9279
 3772SOL    HW222950   2.008   2.841   8.111  0.4131 -0.2716  0.0559
 3773SOL     OW22951   1.092   3.018   7.211  0.0949 -0.2081  0.2252
 3773SOL    HW122952   1.049   2.943   7.254 -0.0322 -0.9013 -1.1094
 3773SOL    HW222953   1.178   2.976   7.216  0.0552 -0.2973  0.1670
 3774SOL     OW22954   1.628   2.515   2.546 -0.3224  0.3621 -0.0704
 3774SOL    HW122955   1.691   2.555   2.606 -0.6166 -0.8555  1.0609
 3774SOL    HW222956   1.582   2.593   2.515  1.2488  0.8050 -1.2708
 3775SOL     OW22957   3.254   0.875  13.455 -0.0633 -0.3899 -0.0225
 3775SOL    HW122958   3.297   0.956  13.481 -1.4762  0.2704  0.2836
 3775SOL    HW222959   3.330   0.817  13.452  0.4525  0.2845 -0.0492
 3776SOL     OW22960   1.970   3.628   3.992  0.0956 -0.4231  0.0124
 3776SOL    HW122961   2.030   3.609   3.919  1.9414 -1.3800  1.7643
 3776SOL    HW222962   1.915   3.699   3.958 -0.0124  0.9633  3.1178
 3777SOL     OW22963   4.540   3.788   2.565  0.1310  0.5297  0.4139
 3777SOL    HW122964   4.574   3.700   2.545 -2.1441 -0.3540  0.4814
 3777SOL    HW222965   4.573   3.795   2.655  0.8612  3.6244 -0.0954
 3778SOL     OW22966   2.336   3.546  14.908 -0.1674  0.6066  0.3049
 3778SOL    HW122967   2.419   3.576  14.943 -0.7339  0.1692  2.0279
 3778SOL    HW222968   2.368   3.471  14.858  1.6911  1.3325  0.4275
 3779SOL     OW22969   4.366   2.097   2.645 -0.2701  0.3300  0.2320
 3779SOL    HW122970   4.351   2.157   2.719  0.0601  1.9763 -1.0369
 3779SOL    HW222971   4.370   2.158   2.572 -1.9546 -0.0919 -0.2150
 3780SOL     OW22972   4.248   3.426  12.385 -0.3941  0.0457  0.2156
 3780SOL    HW122973   4.328   3.472  12.359 -1.4256  1.3096 -0.7096
 3780SOL    HW222974   4.285   3.341  12.408  1.5238  0.8788  0.2440
 3781SOL     OW22975   0.043   4.062   4.988  0.3282 -0.3146  0.3031
 3781SOL    HW122976   0.131   4.031   4.967  1.5975  2.6964  1.3178
 3781SOL    HW222977   0.059   4.147   5.029 -0.3770 -0.7273  1.4344
 3782SOL     OW22978   1.324   1.693   4.586 -0.1274 -0.1442  0.4210
 3782SOL    HW122979   1.317   1.715   4.493  0.2833  1.9563  0.8938
 3782SOL    HW222980   1.373   1.611   4.583  0.7506  0.3433  1.6621
 3783SOL     OW22981   2.552   2.913  11.452  0.1268  0.3091 -0.1654
 3783SOL    HW122982   2.605   2.836  11.433  0.0117 -0.4799  2.8155
 3783SOL    HW222983   2.609   2.983  11.421  0.3654 -0.4253 -1.3899
 3784SOL     OW22984   0.574   2.728   8.190 -0.0597 -0.3417 -0.5256
 3784SOL    HW122985   0.560   2.726   8.096 -1.6469 -0.6368 -0.2811
 3784SOL    HW222986   0.504   2.786   8.220 -0.2526 -0.5082 -0.6592
 3785SOL     OW22987   1.766   1.408   5.938 -0.1184 -0.0630  0.1641
 3785SOL    HW122988   1.828   1.453   5.996 -0.5288 -0.2445  0.7446
 3785SOL    HW222989   1.707   1.370   6.004 -0.3908 -0.0529 -0.0755
 3786SOL     OW22990   1.018   4.344  15.467 -0.4588  0.0992  0.2789
 3786SOL    HW122991   1.032   4.301  15.383 -2.3976 -0.2631  0.1221
 3786SOL    HW222992   0.952   4.288  15.508  0.4996 -0.3253  1.2310
 3787SOL     OW22993   2.284   2.118  10.004 -0.5607 -0.3443 -0.2982
 3787SOL    HW122994   2.353   2.182  10.022  0.9827 -2.6709  2.0946
 3787SOL    HW222995   2.331   2.061   9.942 -2.4534 -0.9532 -1.1604
 3788SOL     OW22996   3.758   0.532  15.461 -0.1934  0.3404  0.5229
 3788SOL    HW122997   3.713   0.599  15.409 -1.0874 -1.2060 -0.6529
 3788SOL    HW222998   3.776   0.582  15.541  1.7722 -0.9459  0.8996
 3789SOL     OW22999   2.917   2.927   9.149 -0.3735 -0.5886  0.4344
 3789SOL    HW123000   2.899   2.865   9.220  0.1100 -0.6450  0.5065
 3789SOL    HW223001   2.928   3.006   9.201  1.2194 -0.9598  0.6604
 3790SOL     OW23002   3.037   4.686   1.690  0.0217 -0.2765 -0.5868
 3790SOL    HW123003   3.102   4.621   1.719 -1.8406 -1.8353  0.0821
 3790SOL    HW223004   2.961   4.680   1.748  0.9956  1.1180  0.8274
 3791SOL     OW23005   4.648   2.967   1.889 -0.5472  0.4402  0.2221
 3791SOL    HW123006   4.616   3.058   1.892 -1.1642  0.3031 -2.4952
 3791SOL    HW223007   4.669   2.958   1.982 -0.5016 -2.4247 -0.0774
 3792SOL     OW23008   1.610   4.219   7.969 -0.2143 -0.2622  0.5809
 3792SOL    HW123009   1.542   4.279   7.998 -1.1146 -0.0001 -2.0753
 3792SOL    HW223010   1.690   4.255   8.008 -0.2969 -0.9643  1.4094
 3793SOL     OW23011   4.048   1.743   6.062 -0.7174 -0.5238 -0.3609
 3793SOL    HW123012   4.120   1.699   6.018 -1.7398 -2.7846  0.2643
 3793SOL    HW223013   4.011   1.670   6.111 -1.0084  0.3550  0.7249
 3794SOL     OW23014   1.507   2.564  13.184  0.5217  0.1813  0.4540
 3794SOL    HW123015   1.432   2.542  13.128  0.6842 -1.3053  0.8089
 3794SOL    HW223016   1.555   2.619  13.121  1.6666  1.6280  2.6198
 3795SOL     OW23017   2.698   3.823  16.191 -0.4517  0.0532 -0.2106
 3795SOL    HW123018   2.704   3.731  16.165  1.3738  0.0800  0.1410
 3795SOL    HW223019   2.612   3.825  16.232  0.8767  2.1425  2.4253
 3796SOL     OW23020   3.726   3.890   1.972 -0.1811 -0.2417 -0.0151
 3796SOL    HW123021   3.673   3.822   2.014  3.0970 -2.5687  0.3546
 3796SOL    HW223022   3.675   3.904   1.893  1.9911  2.2101 -1.0086
 3797SOL     OW23023   2.941   0.416   4.367  0.3240  0.0063  0.6698
 3797SOL    HW123024   2.954   0.327   4.333  0.8008  0.0959  0.6231
 3797SOL    HW223025   3.001   0.464   4.310  2.4207 -0.6582  2.3257
 3798SOL     OW23026   0.197   3.454   4.188 -0.2658 -0.2145  0.3550
 3798SOL    HW123027   0.198   3.550   4.178 -0.9935 -0.0588  1.7619
 3798SOL    HW223028   0.248   3.430   4.111 -0.1115 -0.4807  0.5416
 3799SOL     OW23029   0.752   3.949   3.860  0.3136  0.3515  0.2340
 3799SOL    HW123030   0.682   3.887   3.843  0.8901 -0.5863  1.3236
 3799SOL    HW223031   0.725   3.986   3.944 -0.7579 -1.3848  0.6499
 3800SOL     OW23032   3.060   4.314  11.341 -0.5989 -0.4423 -0.0681
 3800SOL    HW123033   3.056   4.403  11.377 -3.0535 -0.3158 -0.6593
 3800SOL    HW223034   2.967   4.298  11.358 -1.1272  2.0238 -0.5267
 3801SOL     OW23035   0.071   2.948   2.807 -0.4366 -0.0282 -0.4775
 3801SOL    HW123036   4.726   2.991   2.797  0.7293  2.1488 -0.8942
 3801SOL    HW223037   0.130   3.023   2.817 -2.2024  1.2851 -0.0736
 3802SOL     OW23038   0.481   3.132   8.657 -0.8309 -0.2712 -0.5193
 3802SOL    HW123039   0.491   3.079   8.579 -1.3238  0.7687 -1.2871
 3802SOL    HW223040   0.389   3.159   8.656 -0.5138  0.8230 -0.3411
 3803SOL     OW23041   1.572   1.870   5.766 -0.4012 -0.2116  0.1195
 3803SOL    HW123042   1.587   1.952   5.813  1.1422  0.3478 -1.3553
 3803SOL    HW223043   1.581   1.902   5.676  0.9967 -0.4891  0.1714
 3804SOL     OW23044   3.141   0.002  17.274 -0.0177 -0.0373  0.6192
 3804SOL    HW123045   3.094   0.075  17.315  1.8938  1.2919  0.4769
 3804SOL    HW223046   3.094   4.664  17.304 -0.0997 -0.2856 -0.1405
 3805SOL     OW23047   1.276   0.440  12.444  0.4844  0.3410  0.2762
 3805SOL    HW123048   1.241   0.352  12.460  1.0305 -0.1693 -1.3574
 3805SOL    HW223049   1.200   0.495  12.458  0.6422 -0.5149  4.7139
 3806SOL     OW23050   2.242   1.586  11.768 -0.1778 -0.1785 -0.6175
 3806SOL    HW123051   2.290   1.579  11.686 -1.0946  2.3984 -1.3497
 3806SOL    HW223052   2.154   1.554  11.750 -0.2901 -1.1950  1.6910
 3807SOL     OW23053   4.568   1.162  16.305  0.4644  0.5632  0.1354
 3807SOL    HW123054   4.563   1.234  16.242  0.5448 -0.1490 -0.6820
 3807SOL    HW223055   4.499   1.186  16.367 -0.5243  0.4819 -0.9297
 3808SOL     OW23056   0.083   2.654   9.637  0.6932  0.3101  0.1836
 3808SOL    HW123057   0.131   2.722   9.589 -2.3163  0.9037 -1.9571
 3808SOL    HW223058   0.127   2.662   9.722  1.1478 -0.0176 -0.0232
 3809SOL     OW23059   1.926   1.993   4.424  0.3741 -0.4667 -0.6729
 3809SOL    HW123060   1.926   2.029   4.336 -1.0638 -1.4814 -1.0845
 3809SOL    HW223061   1.837   1.959   4.421 -0.1836  1.0517 -1.4181
 3810SOL     OW23062   3.325   0.474   5.600 -0.2111 -0.1810 -0.2349
 3810SOL    HW123063   3.313   0.484   5.695 -1.5376 -1.3718 -0.2944
 3810SOL    HW223064   3.409   0.430   5.587 -0.0864 -0.6772  2.2947
 3811SOL     OW23065   2.557   0.694   3.376 -0.5996 -0.0189 -0.1286
 3811SOL    HW123066   2.649   0.706   3.400 -0.7628  0.4197  0.2638
 3811SOL    HW223067   2.552   0.755   3.303 -1.9102 -1.3938 -1.1951
 3812SOL     OW23068   4.610   4.082   2.046  0.2587 -0.3818  0.2523
 3812SOL    HW123069   4.607   4.089   1.951 -0.5746 -4.0617  0.0012
 3812SOL    HW223070   4.520   4.101   2.073  0.1797 -0.7262  0.2327
 3813SOL     OW23071   0.382   3.710   9.128  0.1642 -0.2857  0.0953
 3813SOL    HW123072   0.434   3.784   9.097  0.0447  0.3367  1.3623
 3813SOL    HW223073   0.337   3.680   9.050  1.0521  0.7501 -0.8072
 3814SOL     OW23074   3.526   0.026  14.178  0.1717 -0.0770  0.9696
 3814SOL    HW123075   3.512   4.701  14.108  1.0107  0.3345  0.4320
 3814SOL    HW223076   3.615   0.060  14.169  0.4928 -0.6498  1.9373
 3815SOL     OW23077   4.040   0.824   2.073  0.3066  0.5922  0.0405
 3815SOL    HW123078   4.017   0.731   2.074 -1.3954  1.0230  0.4102
 3815SOL    HW223079   4.094   0.826   1.994  0.0212  1.4837 -0.1314
 3816SOL     OW23080   0.327   4.054   7.536  0.0305  0.0623  0.1831
 3816SOL    HW123081   0.385   4.129   7.522 -1.0268  0.6675 -1.0054
 3816SOL    HW223082   0.354   4.025   7.623  0.0536 -2.0792 -0.5339
 3817SOL     OW23083   2.743   4.457  13.045  0.1318  0.2985 -0.4906
 3817SOL    HW123084   2.755   4.494  13.132 -0.9643  2.1098 -1.1068
 3817SOL    HW223085   2.798   4.515  12.993 -0.6576  1.3102 -0.1842
 3818SOL     OW23086   1.959   3.562   6.142  0.3130 -0.0701  0.0013
 3818SOL    HW123087   1.968   3.575   6.047 -0.6387  1.1690  0.0869
 3818SOL    HW223088   2.053   3.562   6.164  0.4256  2.1915 -0.4780
 3819SOL     OW23089   2.370   3.979   9.445  0.2503 -0.1336  0.2020
 3819SOL    HW123090   2.454   3.972   9.399 -0.1566  0.9552 -0.6991
 3819SOL    HW223091   2.330   3.894   9.427  0.5953 -0.4194  0.7745
 3820SOL     OW23092   4.045   3.742   9.007  0.0087 -0.2039 -0.5909
 3820SOL    HW123093   4.091   3.821   8.980 -3.4610  2.2459  0.8015
 3820SOL    HW223094   4.097   3.708   9.080 -0.8833 -0.5282 -0.1038
 3821SOL     OW23095   2.106   3.806  17.158 -0.1839 -0.6618 -0.2252
 3821SOL    HW123096   2.202   3.806  17.159 -0.1695  1.9163  0.4921
 3821SOL    HW223097   2.086   3.879  17.100 -0.9698 -0.8658 -0.2098
 3822SOL     OW23098   0.519   2.550   6.973 -0.5259 -0.2867 -0.2474
 3822SOL    HW123099   0.599   2.501   6.994 -1.0778 -1.2403 -0.3994
 3822SOL    HW223100   0.549   2.583   6.888 -2.5885  0.3645 -0.7212
 3823SOL     OW23101   2.627   1.601   6.078  0.0555 -0.4384  0.2055
 3823SOL    HW123102   2.663   1.574   5.993 -0.1341 -1.5218  0.4697
 3823SOL    HW223103   2.589   1.686   6.054 -2.2771 -0.5427  3.4051
 3824SOL     OW23104   4.656   0.932  17.539 -0.7503  0.3998  0.2387
 3824SOL    HW123105   4.671   0.986  17.462  0.7868 -2.2084 -1.3163
 3824SOL    HW223106   4.733   0.874  17.536 -0.0884  1.2567  0.5767
 3825SOL     OW23107   3.504   1.142   7.137  0.1722 -0.0194 -0.3610
 3825SOL    HW123108   3.444   1.206   7.176 -0.5641 -1.2440  0.4942
 3825SOL    HW223109   3.444   1.074   7.105 -0.8210 -0.0794  1.6361
 3826SOL     OW23110   4.073   2.440  14.933  0.2806  0.1362  0.1143
 3826SOL    HW123111   4.015   2.509  14.899  0.4849  0.7987  1.1161
 3826SOL    HW223112   4.052   2.439  15.026  0.8384 -0.7747  0.2308
 3827SOL     OW23113   0.682   1.459   2.893  0.1997 -0.3320 -0.2284
 3827SOL    HW123114   0.653   1.395   2.958  0.6249  0.8212  1.1070
 3827SOL    HW223115   0.712   1.533   2.947 -0.1770 -0.0253 -0.4345
 3828SOL     OW23116   2.917   0.242   2.070  0.2969 -0.5196 -0.3801
 3828SOL    HW123117   2.854   0.172   2.088  0.3904 -0.6481 -0.5545
 3828SOL    HW223118   2.991   0.185   2.048 -1.3813 -2.0538 -2.0273
 3829SOL     OW23119   0.225   4.199  15.777 -0.7196  0.5199 -0.1955
 3829SOL    HW123120   0.130   4.203  15.782 -0.7469 -1.6993  1.1244
 3829SOL    HW223121   0.237   4.123  15.834 -0.3834 -0.6483 -1.8295
 3830SOL     OW23122   1.549   2.727  17.707 -0.2182  0.0823  0.0936
 3830SOL    HW123123   1.468   2.771  17.681 -2.2056 -1.7424  3.2117
 3830SOL    HW223124   1.619   2.779  17.667 -0.9195  0.9408 -0.0173
 3831SOL     OW23125   3.691   2.202   2.322 -0.3262  0.7233 -0.0777
 3831SOL    HW123126   3.747   2.125   2.335 -1.9051 -0.2084  1.2034
 3831SOL    HW223127   3.661   2.192   2.232 -1.5272  2.9236  0.0882
 3832SOL     OW23128   0.026   0.290   8.065 -0.2452  0.7704 -0.7210
 3832SOL    HW123129   4.706   0.299   8.140 -0.1260  0.7029 -0.6168
 3832SOL    HW223130   0.060   0.379   8.058  2.2363 -0.2329 -1.5839
 3833SOL     OW23131   1.331   1.973   5.908  0.0263  0.5203  0.3651
 3833SOL    HW123132   1.347   1.921   5.829 -0.8737  0.5273  0.1755
 3833SOL    HW223133   1.414   2.016   5.924 -0.5254  0.3739  3.6100
 3834SOL     OW23134   2.465   4.207  15.410 -0.1050  0.3307  0.3268
 3834SOL    HW123135   2.487   4.128  15.459 -0.3594  0.3292  0.4387
 3834SOL    HW223136   2.554   4.242  15.412 -0.6876  1.8823 -0.4179
 3835SOL     OW23137   1.009   4.028   4.202 -0.0016  0.0561  0.1074
 3835SOL    HW123138   0.921   4.037   4.166  0.4659  2.0186 -0.5235
 3835SOL    HW223139   0.995   3.947   4.252 -0.2919 -1.2456 -2.0657
 3836SOL     OW23140   2.014   2.668   6.656  0.0621 -0.1794 -0.7878
 3836SOL    HW123141   1.929   2.671   6.612 -0.5561  0.6810  0.4494
 3836SOL    HW223142   2.034   2.758   6.632  0.6710 -0.1567 -0.1916
 3837SOL     OW23143   1.449   1.838   9.593  0.3332  0.0633  0.3541
 3837SOL    HW123144   1.544   1.829   9.604  0.2186  0.1528  1.4048
 3837SOL    HW223145   1.419   1.824   9.682 -0.2430  0.4296  0.2154
 3838SOL     OW23146   4.019   2.390   8.056 -0.0188 -0.0220  0.0065
 3838SOL    HW123147   3.999   2.481   8.081 -0.0860  0.7998 -3.1166
 3838SOL    HW223148   4.047   2.351   8.139  0.9200 -0.3311 -0.4669
 3839SOL     OW23149   4.453   1.059   8.822 -0.4214  0.2593  0.5350
 3839SOL    HW123150   4.502   0.977   8.817 -0.8102  0.1592 -1.4582
 3839SOL    HW223151   4.513   1.110   8.877 -1.1762 -0.7000  2.2738
 3840SOL     OW23152   2.038   4.273   8.314 -0.1837 -0.2113 -0.2124
 3840SOL    HW123153   2.113   4.315   8.271  1.3148  0.0030  2.5975
 3840SOL    HW223154   2.080   4.212   8.375 -1.9452 -2.0644 -0.8452
 3841SOL     OW23155   4.189   1.062   2.999  0.0031  0.3555  0.6304
 3841SOL    HW123156   4.227   1.027   2.918 -1.5534 -2.2964  1.0571
 3841SOL    HW223157   4.208   0.998   3.069  1.4944  0.1127 -0.0042
 3842SOL     OW23158   2.799   4.303  11.355  0.6580  0.4732 -0.4581
 3842SOL    HW123159   2.715   4.269  11.387  1.1707 -0.0565  0.3333
 3842SOL    HW223160   2.815   4.369  11.422 -0.5871 -0.6204  0.9251
 3843SOL     OW23161   1.369   0.390   3.042 -0.2259  0.4179 -0.1069
 3843SOL    HW123162   1.275   0.401   3.029  0.2475  1.0010 -3.1325
 3843SOL    HW223163   1.380   0.307   2.996  0.4237  1.0386 -1.0847
 3844SOL     OW23164   0.719   3.765   5.809 -0.2777 -1.0046  0.8323
 3844SOL    HW123165   0.773   3.687   5.817 -0.1427 -0.8771  1.1403
 3844SOL    HW223166   0.777   3.838   5.831 -0.4261 -0.2277 -1.3491
 3845SOL     OW23167   2.830   3.977   3.508 -0.1050 -0.0545  0.1328
 3845SOL    HW123168   2.828   4.067   3.540  1.6674  0.0313 -0.0427
 3845SOL    HW223169   2.917   3.942   3.526  0.6236  0.9855 -1.3489
 3846SOL     OW23170   3.988   0.728   2.640  0.2870 -0.4990 -0.0509
 3846SOL    HW123171   3.955   0.785   2.709 -1.8438 -2.1453  0.2599
 3846SOL    HW223172   3.912   0.672   2.628  0.8661 -0.9852 -1.4916
 3847SOL     OW23173   3.141   2.990   3.241  0.2975 -0.5941 -0.5075
 3847SOL    HW123174   3.072   3.050   3.270  1.3431  0.5779 -0.4269
 3847SOL    HW223175   3.208   2.991   3.310 -0.0617 -1.0316 -0.1529
 3848SOL     OW23176   0.115   2.200   6.488 -0.0903 -0.4458  0.0079
 3848SOL    HW123177   0.046   2.135   6.503  0.4833 -1.2467 -0.8602
 3848SOL    HW223178   0.087   2.237   6.405  0.9547 -0.5086 -0.3709
 3849SOL     OW23179   2.172   2.634  16.775 -0.4066 -0.2469 -0.0751
 3849SOL    HW123180   2.234   2.655  16.845  0.9094  0.9994 -1.6353
 3849SOL    HW223181   2.088   2.664  16.812  1.4338  1.7027  2.5760
 3850SOL     OW23182   4.560   4.400   2.950  0.4718  0.0533 -0.4250
 3850SOL    HW123183   4.624   4.417   3.019 -0.9651 -0.8505  1.1246
 3850SOL    HW223184   4.485   4.453   2.976  0.8653  0.2608  0.2875
 3851SOL     OW23185   4.586   2.837   9.964 -0.0498 -0.1571  0.3536
 3851SOL    HW123186   4.565   2.896  10.036 -1.4767 -2.3300  1.7408
 3851SOL    HW223187   4.633   2.771  10.015  0.2502 -1.1711 -1.2607
 3852SOL     OW23188   1.420   3.955  13.592  0.2328  0.5067 -0.0965
 3852SOL    HW123189   1.510   3.926  13.606 -0.2251 -2.3929 -3.0845
 3852SOL    HW223190   1.444   4.048  13.584  1.9211  0.0948  0.1249
 3853SOL     OW23191   0.234   0.642   2.926 -0.2840  0.5329 -0.5414
 3853SOL    HW123192   0.158   0.596   2.891  0.1218 -1.4865  1.2360
 3853SOL    HW223193   0.252   0.702   2.854  0.5627  0.8038 -0.1093
 3854SOL     OW23194   4.016   4.352   6.927 -0.0159  0.1449  0.3431
 3854SOL    HW123195   3.965   4.281   6.966 -0.1752 -0.7951 -1.5892
 3854SOL    HW223196   4.085   4.367   6.991  2.5355  0.2137 -2.4373
 3855SOL     OW23197   1.302   4.457   1.092  0.5626 -1.2941  0.0013
 3855SOL    HW123198   1.247   4.437   1.168 -0.3663 -0.9554 -0.5674
 3855SOL    HW223199   1.355   4.528   1.128 -0.3821 -0.2625 -0.6339
 3856SOL     OW23200   0.702   0.494   0.658  0.0419 -0.3489  0.1943
 3856SOL    HW123201   0.714   0.535   0.744 -2.2225  0.9590 -0.1116
 3856SOL    HW223202   0.772   0.432   0.677 -0.0141 -1.3134 -2.7971
 3857SOL     OW23203   1.093   0.103   5.834  0.7065 -0.0744  0.0845
 3857SOL    HW123204   1.026   0.070   5.773  0.2618 -1.6103  1.3975
 3857SOL    HW223205   1.145   0.156   5.774 -0.6135  0.4397 -0.6132
 3858SOL     OW23206   0.862   4.439  10.581  0.0999  0.7612 -0.0247
 3858SOL    HW123207   0.811   4.495  10.522 -0.1335  0.0166 -0.5189
 3858SOL    HW223208   0.939   4.416  10.529 -1.1983  0.1369 -1.6458
 3859SOL     OW23209   3.808   4.507   0.876 -0.0127  0.4066 -0.5374
 3859SOL    HW123210   3.749   4.435   0.852  0.9368 -0.8884  1.0219
 3859SOL    HW223211   3.853   4.522   0.793  0.3816 -0.3396 -0.4578
 3860SOL     OW23212   4.669   3.194   5.995  0.0926 -0.2842 -0.3553
 3860SOL    HW123213   0.004   3.212   5.936  0.7565  2.8126  1.4284
 3860SOL    HW223214   4.710   3.185   6.081 -0.3095 -0.4549 -0.1821
 3861SOL     OW23215   1.784   4.175   2.500 -0.0506  0.7643 -0.4652
 3861SOL    HW123216   1.858   4.119   2.477  0.4559  1.3383 -0.2165
 3861SOL    HW223217   1.739   4.115   2.559 -1.3621  2.0614 -0.1609
 3862SOL     OW23218   2.783   4.584   5.293  0.7965  0.0052  0.8207
 3862SOL    HW123219   2.695   4.622   5.295  0.5954 -0.3838 -0.8926
 3862SOL    HW223220   2.828   4.616   5.371 -0.1231 -0.8430  1.7035
 3863SOL     OW23221   3.331   2.523   4.034 -0.1819  0.0307 -0.0467
 3863SOL    HW123222   3.319   2.482   3.949 -1.6886  0.5262 -0.0909
 3863SOL    HW223223   3.270   2.477   4.092  0.1528 -2.0960 -1.4083
 3864SOL     OW23224   2.165   2.416   1.018  0.0289  0.4965 -0.3519
 3864SOL    HW123225   2.178   2.323   1.036  0.2983  0.1614 -2.3330
 3864SOL    HW223226   2.185   2.418   0.925  1.3614 -0.4309 -0.0837
 3865SOL     OW23227   0.951   1.617   7.424 -0.2450 -0.3548  0.7057
 3865SOL    HW123228   0.914   1.566   7.352 -0.2256 -0.0651  0.4903
 3865SOL    HW223229   1.044   1.620   7.405 -0.1059  1.5286  1.6741
 3866SOL     OW23230   4.173   1.274   5.916 -0.3851 -0.1648 -0.8939
 3866SOL    HW123231   4.133   1.331   5.851  1.9743  0.3920 -1.8703
 3866SOL    HW223232   4.198   1.336   5.985 -1.8420 -1.1714  0.5421
 3867SOL     OW23233   1.494   4.444  12.149  0.0248 -0.3634 -0.1320
 3867SOL    HW123234   1.425   4.414  12.090 -0.5498  0.5083  0.0934
 3867SOL    HW223235   1.532   4.515  12.097 -1.0908  0.7083  0.4746
 3868SOL     OW23236   4.150   1.878   2.719  0.0701 -0.0612  0.0628
 3868SOL    HW123237   4.181   1.791   2.745  1.3459  0.7595  1.3214
 3868SOL    HW223238   4.227   1.931   2.696  1.7905 -2.7644 -0.5029
 3869SOL     OW23239   1.342   1.958   7.460  0.1257  0.0162 -0.3548
 3869SOL    HW123240   1.423   1.915   7.485  1.0170  2.1651  0.4914
 3869SOL    HW223241   1.355   2.051   7.480  1.0504  0.2648 -2.0469
 3870SOL     OW23242   0.971   2.055   4.745  0.5394  1.0746 -0.1783
 3870SOL    HW123243   1.050   2.007   4.723  0.1258 -0.2668  1.2368
 3870SOL    HW223244   0.983   2.077   4.838 -0.5548 -0.3590  0.3130
 3871SOL     OW23245   0.228   3.131   5.729 -0.5750  0.3120  0.4000
 3871SOL    HW123246   0.261   3.067   5.793 -2.3897  0.8681  1.8824
 3871SOL    HW223247   0.291   3.202   5.739 -1.4654  1.5694 -2.9313
 3872SOL     OW23248   1.425   1.542   6.230 -0.1642  0.0270 -0.0265
 3872SOL    HW123249   1.335   1.576   6.227 -0.0561  0.0520 -2.6715
 3872SOL    HW223250   1.468   1.618   6.192  0.5404  0.5925  1.9135
 3873SOL     OW23251   0.114   0.020   2.112  0.4270  0.7861  0.2579
 3873SOL    HW123252   0.145   4.669   2.102  0.3766  0.8046 -0.0650
 3873SOL    HW223253   0.171   0.061   2.177 -0.5367  2.0580  0.2923
 3874SOL     OW23254   1.916   0.297   9.939  0.2713 -0.7968 -0.1358
 3874SOL    HW123255   1.941   0.211   9.905 -1.8746 -1.2874 -0.4707
 3874SOL    HW223256   1.881   0.333   9.857 -1.6272 -1.5604  0.3231
 3875SOL     OW23257   0.738   4.413   7.443  0.1521 -0.3256 -0.1943
 3875SOL    HW123258   0.670   4.475   7.469 -0.2066 -0.6105 -0.4426
 3875SOL    HW223259   0.722   4.413   7.348  0.6398  0.8592 -0.2697
 3876SOL     OW23260   1.169   1.634   0.850  0.7375  0.6187 -0.0771
 3876SOL    HW123261   1.124   1.663   0.930 -1.2448 -0.4766 -0.8054
 3876SOL    HW223262   1.194   1.721   0.818  0.2839  0.3807 -1.0575
 3877SOL     OW23263   4.028   0.443   6.625  0.1160  0.3536  0.1809
 3877SOL    HW123264   4.107   0.495   6.638  2.8545 -3.8329 -0.1588
 3877SOL    HW223265   4.033   0.413   6.535  0.2384  0.5409  0.1243
 3878SOL     OW23266   3.599   3.074   4.892  0.1981  0.3924 -0.1148
 3878SOL    HW123267   3.524   3.121   4.930  1.3216  1.3732  0.8800
 3878SOL    HW223268   3.664   3.134   4.929  1.0717  0.4277 -1.7074
 3879SOL     OW23269   3.448   4.572  12.748 -0.8675  0.1735  0.2167
 3879SOL    HW123270   3.520   4.635  12.738 -0.8026  0.3028  1.5410
 3879SOL    HW223271   3.460   4.554  12.841 -1.9488 -0.6516  0.1911
 3880SOL     OW23272   4.500   3.044   4.255  0.6846  0.0938  0.3594
 3880SOL    HW123273   4.571   3.051   4.318  0.4123  1.1566  0.5393
 3880SOL    HW223274   4.428   3.092   4.296  1.1304  1.4722 -0.4962
 3881SOL     OW23275   4.374   1.352   9.843 -0.0608  0.6391 -0.2014
 3881SOL    HW123276   4.364   1.444   9.817 -3.3549  0.6737  1.2804
 3881SOL    HW223277   4.423   1.364   9.924 -1.0848 -3.7936  1.0648
 3882SOL     OW23278   1.173   3.057   9.476  0.3944  0.5755 -0.2974
 3882SOL    HW123279   1.136   3.023   9.394  1.2564 -2.7044  0.6598
 3882SOL    HW223280   1.092   3.076   9.524 -0.0314  2.8752 -1.9195
 3883SOL     OW23281   1.181   0.184   5.576 -0.3073 -0.4063 -0.2183
 3883SOL    HW123282   1.134   0.112   5.534 -1.5254  1.2196 -1.6601
 3883SOL    HW223283   1.249   0.210   5.514  0.0157 -0.7842 -0.0229
 3884SOL     OW23284   1.288   1.354   7.261  0.7374 -0.2913  0.1373
 3884SOL    HW123285   1.349   1.428   7.258 -0.9474  1.1418  1.1162
 3884SOL    HW223286   1.217   1.389   7.207  0.0253 -0.2136  1.1254
 3885SOL     OW23287   3.287   0.782  17.481  0.0215  0.3015 -0.1001
 3885SOL    HW123288   3.213   0.721  17.477  1.5103 -1.5940  1.1248
 3885SOL    HW223289   3.318   0.770  17.571 -0.2135  1.2173  0.1058
 3886SOL     OW23290   4.253   1.943  14.142 -0.0812  0.1553  0.2454
 3886SOL    HW123291   4.265   2.011  14.208 -2.0196  0.5983  0.1276
 3886SOL    HW223292   4.159   1.931  14.147  0.0040 -0.9410 -0.6860
 3887SOL     OW23293   1.121   4.427   4.036  0.1222  0.5567  0.1406
 3887SOL    HW123294   1.104   4.520   4.021 -1.1211  0.4313  0.7465
 3887SOL    HW223295   1.155   4.434   4.125  1.1720  1.1088 -0.3001
 3888SOL     OW23296   4.165   3.634   6.962  0.6202 -0.5801 -0.2360
 3888SOL    HW123297   4.201   3.706   7.014 -3.6039 -0.2555  2.2854
 3888SOL    HW223298   4.076   3.668   6.952  0.8720 -0.4983 -2.1128
 3889SOL     OW23299   0.558   1.518   9.495  0.1063  0.0220 -0.2917
 3889SOL    HW123300   0.593   1.580   9.431  0.4582  0.4934  0.3587
 3889SOL    HW223301   0.484   1.572   9.524  0.0710  1.0004 -2.1550
 3890SOL     OW23302   3.083   3.432   3.195  0.0631  0.4139  0.2966
 3890SOL    HW123303   3.093   3.519   3.235  1.6881  0.2180  0.3402
 3890SOL    HW223304   3.173   3.400   3.193  0.5110  1.6504  0.8412
 3891SOL     OW23305   4.097   0.043   6.754  0.3816  0.3256 -0.1349
 3891SOL    HW123306   4.138   4.731   6.824  0.9713  0.4958 -0.3532
 3891SOL    HW223307   4.094   4.713   6.688  4.2579 -0.8244  0.8886
 3892SOL     OW23308   0.176   2.805  17.277  0.0071  0.9220 -0.1519
 3892SOL    HW123309   0.112   2.778  17.343  1.6667 -0.5073  0.8383
 3892SOL    HW223310   0.248   2.816  17.339 -0.6242  0.6701  0.6274
 3893SOL     OW23311   0.471   4.077  11.287 -0.1127  0.1062  0.0745
 3893SOL    HW123312   0.508   4.061  11.200 -0.2313 -0.0825  0.0586
 3893SOL    HW223313   0.528   4.022  11.340 -0.7278  1.7763  2.4555
 3894SOL     OW23314   4.084   4.005   5.340  0.2784 -0.4308  1.0587
 3894SOL    HW123315   4.109   4.082   5.289 -0.1520 -0.9715  0.0350
 3894SOL    HW223316   3.989   4.007   5.326  0.4425 -0.9164 -0.1337
 3895SOL     OW23317   1.896   4.580   9.112 -0.0688  0.0287 -0.6180
 3895SOL    HW123318   1.845   4.632   9.049 -1.6035 -1.7230 -0.8165
 3895SOL    HW223319   1.845   4.601   9.190 -0.8430 -1.1780 -0.7977
 3896SOL     OW23320   2.989   2.205   4.987  0.4266  0.4338 -0.3383
 3896SOL    HW123321   3.045   2.263   5.038 -0.3745  0.5616  0.3977
 3896SOL    HW223322   2.921   2.269   4.967 -0.6741 -1.0316 -1.2645
 3897SOL     OW23323   1.467   2.267   9.343  0.4678 -0.4735 -0.3068
 3897SOL    HW123324   1.511   2.182   9.329  1.5771 -0.0843  0.8104
 3897SOL    HW223325   1.421   2.263   9.259 -1.5444 -1.5422  0.8551
 3898SOL     OW23326   2.581   4.253  15.777 -0.4260  0.7113  0.2849
 3898SOL    HW123327   2.568   4.335  15.728  0.0703  2.1102  2.4870
 3898SOL    HW223328   2.624   4.203  15.707  0.1689  3.1516 -1.1177
 3899SOL     OW23329   4.687   2.856   6.762 -0.5930  0.1023  0.5362
 3899SOL    HW123330   0.014   2.799   6.800 -1.8822 -1.0144  1.0979
 3899SOL    HW223331   4.656   2.797   6.693 -1.9131 -0.3846  1.5346
 3900SOL     OW23332   0.599   0.460   4.634  0.0663  0.7267  0.0508
 3900SOL    HW123333   0.546   0.532   4.600  0.8325  1.4744  0.4364
 3900SOL    HW223334   0.591   0.474   4.728  1.4275  1.0877  0.1124
 3901SOL     OW23335   3.229   2.290   5.576 -0.2130 -0.3301  0.1471
 3901SOL    HW123336   3.318   2.267   5.550  0.3757 -0.9207  2.7194
 3901SOL    HW223337   3.219   2.371   5.526  2.5666  0.8352  1.4951
 3902SOL     OW23338   0.105   0.222  16.162 -0.6172  0.2665 -0.3692
 3902SOL    HW123339   0.170   0.289  16.139 -0.9698  1.5045  2.2556
 3902SOL    HW223340   0.038   0.257  16.103 -0.8395 -1.3700 -1.0964
 3903SOL     OW23341   1.550   2.306   4.909 -0.0131 -0.2577 -0.2001
 3903SOL    HW123342   1.643   2.318   4.926 -0.1775  2.1412 -0.8912
 3903SOL    HW223343   1.540   2.218   4.945  0.3863 -0.8894 -1.6537
 3904SOL     OW23344   1.238   3.172   1.266  0.5493 -0.1164  0.6507
 3904SOL    HW123345   1.178   3.202   1.334  2.1555  1.4775  1.3645
 3904SOL    HW223346   1.311   3.140   1.319  1.3821  2.0046  0.7808
 3905SOL     OW23347   4.429   4.694   2.925 -0.2597 -0.6929  0.1667
 3905SOL    HW123348   4.464   0.030   2.974 -1.0622 -0.2879  0.1236
 3905SOL    HW223349   4.411   4.737   2.842  3.7982  0.9280  0.1065
 3906SOL     OW23350   2.970   2.985   4.842 -0.7675 -0.1530  0.4442
 3906SOL    HW123351   2.905   2.947   4.901 -0.2904  0.2974  1.2773
 3906SOL    HW223352   2.994   3.066   4.889  0.7218  0.2374 -0.9935
 3907SOL     OW23353   3.097   1.952   9.176 -0.1126 -0.9005 -0.0646
 3907SOL    HW123354   3.171   1.994   9.219  0.5937 -1.3832 -0.8286
 3907SOL    HW223355   3.072   1.885   9.240  2.2589 -1.7976 -0.0917
 3908SOL     OW23356   2.029   1.370   1.575 -0.2403 -0.0203 -0.1012
 3908SOL    HW123357   1.993   1.428   1.642 -0.6128 -1.3725  0.8827
 3908SOL    HW223358   1.948   1.328   1.546 -0.3713 -1.1893  2.0050
 3909SOL     OW23359   1.759   3.655   6.292 -0.1326  0.4883  0.5424
 3909SOL    HW123360   1.683   3.622   6.243 -1.5643  3.6299  0.6247
 3909SOL    HW223361   1.835   3.630   6.240 -0.8984  1.4397 -1.0479
 3910SOL     OW23362   2.129   2.645   8.419 -0.4010  0.0277  0.9535
 3910SOL    HW123363   2.118   2.560   8.462 -0.6741  0.9811  2.7434
 3910SOL    HW223364   2.111   2.623   8.327 -1.8929 -1.0304  1.5043
 3911SOL     OW23365   3.213   2.506   3.565 -0.9158 -0.1232  0.4684
 3911SOL    HW123366   3.257   2.425   3.594 -1.7627 -1.1885 -1.2366
 3911SOL    HW223367   3.291   2.560   3.552  0.1638 -1.6492  0.5738
 3912SOL     OW23368   3.442   1.505   7.085 -0.3529  0.1717  0.3970
 3912SOL    HW123369   3.462   1.549   7.168  2.5577  0.2065 -0.2978
 3912SOL    HW223370   3.382   1.445   7.128 -0.9446 -0.4819 -1.3726
 3913SOL     OW23371   4.588   1.774   6.198 -0.1366 -0.3632  0.3138
 3913SOL    HW123372   4.515   1.819   6.155 -0.0350 -1.6138 -1.1607
 3913SOL    HW223373   4.629   1.849   6.240  3.7229 -1.6046 -1.2698
 3914SOL     OW23374   1.134   2.149   5.378 -0.2178 -0.0503  0.3070
 3914SOL    HW123375   1.089   2.077   5.335  2.2258  0.2167 -2.6386
 3914SOL    HW223376   1.221   2.115   5.397 -0.3330  0.0632  1.0480
 3915SOL     OW23377   3.888   4.732   7.812  0.4467  0.2739 -0.1033
 3915SOL    HW123378   3.819   0.058   7.817 -1.8887 -2.3005  1.0103
 3915SOL    HW223379   3.852   4.665   7.870  1.4669 -0.7476 -0.6226
 3916SOL     OW23380   0.011   1.227   5.200 -0.4050  0.3862  0.6555
 3916SOL    HW123381   4.730   1.320   5.210 -2.7431  0.0083 -0.5762
 3916SOL    HW223382   0.093   1.214   5.248 -1.1677  1.1891  2.1765
 3917SOL     OW23383   1.261   2.363  14.875  0.5099 -0.4141 -0.2904
 3917SOL    HW123384   1.212   2.282  14.887  2.2276 -1.6279 -1.4653
 3917SOL    HW223385   1.278   2.356  14.781  2.3939  1.9812 -0.1345
 3918SOL     OW23386   0.340   2.839   8.285  0.3137 -0.0120 -0.3797
 3918SOL    HW123387   0.258   2.883   8.262  1.5728  3.3971  1.7142
 3918SOL    HW223388   0.312   2.781   8.356  1.0753  0.3212  0.1897
 3919SOL     OW23389   2.601   3.537   7.234  0.6212  0.2838 -0.1853
 3919SOL    HW123390   2.657   3.545   7.157  0.0109  2.9289 -0.3460
 3919SOL    HW223391   2.660   3.552   7.308  0.4598 -0.0179  0.0049
 3920SOL     OW23392   1.913   0.239  15.620  0.0665  0.1618  0.3954
 3920SOL    HW123393   1.848   0.186  15.575 -1.2169  0.3864  1.9955
 3920SOL    HW223394   1.922   0.320  15.569  1.1509 -1.6179 -2.1870
 3921SOL     OW23395   3.798   4.738   6.401 -0.2586  0.1905 -0.4509
 3921SOL    HW123396   3.785   0.065   6.333 -1.6317  0.1532 -0.2207
 3921SOL    HW223397   3.845   0.058   6.461 -0.2357  2.3749 -2.6379
 3922SOL     OW23398   1.896   4.587   5.399  0.0359 -0.8104 -0.1543
 3922SOL    HW123399   1.979   4.575   5.446  0.2117  1.3000  0.0796
 3922SOL    HW223400   1.858   4.499   5.394  0.6914 -1.1283  0.3938
 3923SOL     OW23401   3.520   1.818   2.960 -0.5820  0.2849 -0.0887
 3923SOL    HW123402   3.457   1.831   3.031 -1.4421  2.8348 -1.3226
 3923SOL    HW223403   3.465   1.786   2.888  0.2235  0.2539 -0.6918
 3924SOL     OW23404   1.473   0.078  15.551  0.0634  0.7008  0.3175
 3924SOL    HW123405   1.512   0.057  15.636  0.0898  1.7248  0.5579
 3924SOL    HW223406   1.395   0.022  15.558 -1.5319  2.9781  0.7297
 3925SOL     OW23407   1.065   3.268   3.128 -0.1132  0.1025 -0.4133
 3925SOL    HW123408   1.058   3.357   3.165 -2.5914  0.1504 -0.9901
 3925SOL    HW223409   0.995   3.220   3.173  0.4125  0.7498  1.0984
 3926SOL     OW23410   0.602   1.528  10.025 -0.5740  0.2947  0.0123
 3926SOL    HW123411   0.570   1.497   9.940  0.7114 -1.2575  0.0875
 3926SOL    HW223412   0.522   1.524  10.078 -0.5155  2.2150  0.2344
 3927SOL     OW23413   1.728   1.420  12.462  0.0165 -0.3977 -0.1442
 3927SOL    HW123414   1.791   1.362  12.506 -1.2882 -1.5544  0.1985
 3927SOL    HW223415   1.663   1.432  12.531  0.7132 -0.2419  0.4867
 3928SOL     OW23416   3.198   1.568   7.967 -0.2594  0.1567 -0.6797
 3928SOL    HW123417   3.218   1.631   8.036 -2.5776 -2.6265  2.5273
 3928SOL    HW223418   3.282   1.566   7.920 -1.2833 -0.3500 -2.4846
 3929SOL     OW23419   2.371   0.818  15.983 -0.0024  0.2680 -0.5736
 3929SOL    HW123420   2.307   0.889  15.981 -0.3136  0.0088  0.2570
 3929SOL    HW223421   2.450   0.856  15.944 -0.3867 -0.0427 -1.6538
 3930SOL     OW23422   2.891   4.169   0.400 -0.5054 -0.2061  0.0428
 3930SOL    HW123423   2.858   4.134   0.318  1.2358  1.3093 -1.3343
 3930SOL    HW223424   2.964   4.220   0.366  0.6857 -2.7089 -1.1152
 3931SOL     OW23425   1.449   3.805   8.590  0.2514  1.0420 -0.0981
 3931SOL    HW123426   1.467   3.871   8.523  0.2985  0.5981 -0.5146
 3931SOL    HW223427   1.535   3.765   8.582 -0.1424  0.4102 -1.1458
 3932SOL     OW23428   2.167   3.467  15.108  0.1212  0.1775 -0.2097
 3932SOL    HW123429   2.123   3.403  15.052  0.5926 -2.0347  1.9297
 3932SOL    HW223430   2.208   3.514  15.036  0.5319 -2.0117 -1.4052
 3933SOL     OW23431   1.237   3.983   3.079 -0.1205 -0.6686 -0.1543
 3933SOL    HW123432   1.306   4.048   3.068  0.6806 -0.7420  4.3246
 3933SOL    HW223433   1.151   4.019   3.054  0.0751 -1.5121 -2.0047
 3934SOL     OW23434   3.542   2.618   5.378 -0.2360 -0.2878  0.6385
 3934SOL    HW123435   3.616   2.565   5.347 -0.0861 -0.1246  0.7145
 3934SOL    HW223436   3.583   2.662   5.452 -3.6231  0.4566  2.0456
 3935SOL     OW23437   0.723   2.796   1.426  0.2201 -0.5717 -0.3824
 3935SOL    HW123438   0.736   2.783   1.332 -2.0849 -1.6085 -0.5572
 3935SOL    HW223439   0.656   2.731   1.447 -0.0613  0.3023  1.4553
 3936SOL     OW23440   4.653   2.649   5.088 -0.0159 -0.1202 -0.0909
 3936SOL    HW123441   4.699   2.732   5.077 -0.9250  0.1439 -1.8383
 3936SOL    HW223442   4.724   2.595   5.123 -0.2892 -0.4380 -0.0237
 3937SOL     OW23443   2.473   0.979   8.039 -0.2814  0.0776  0.2445
 3937SOL    HW123444   2.382   0.991   8.012 -0.4065  0.4068  0.8091
 3937SOL    HW223445   2.516   0.946   7.960 -1.0634 -0.7179  0.1487
 3938SOL     OW23446   0.320   4.032   3.590  0.4659 -0.0489 -0.5644
 3938SOL    HW123447   0.245   3.976   3.568  0.2525 -0.6353  1.7093
 3938SOL    HW223448   0.348   4.061   3.503  1.2674  0.3729 -0.1567
 3939SOL     OW23449   0.712   2.495   2.694  0.2882  0.1086 -0.0454
 3939SOL    HW123450   0.744   2.573   2.649  2.6762  0.0193  1.5306
 3939SOL    HW223451   0.630   2.483   2.647  1.0980 -1.0942 -1.1559
 3940SOL     OW23452   1.794   3.231   3.247  0.4672  0.3585 -0.0297
 3940SOL    HW123453   1.757   3.262   3.330 -1.5199  0.0672 -0.8094
 3940SOL    HW223454   1.839   3.308   3.213 -1.0075  0.9636 -0.6113
 3941SOL     OW23455   2.341   2.889  12.296  0.0437 -0.4038  0.5412
 3941SOL    HW123456   2.385   2.809  12.323  0.0054 -0.2098  1.1680
 3941SOL    HW223457   2.306   2.907  12.383 -0.0214  1.4027  0.1348
 3942SOL     OW23458   3.889   2.229   8.329  0.5435  0.2756 -0.0870
 3942SOL    HW123459   3.956   2.210   8.394  1.9619  1.0047 -1.3183
 3942SOL    HW223460   3.862   2.144   8.295 -0.7531  0.2717  0.9430
 3943SOL     OW23461   4.051   1.873   6.696 -0.1249  0.5902 -0.2943
 3943SOL    HW123462   4.035   1.798   6.754  2.3390 -0.7333 -1.3072
 3943SOL    HW223463   3.971   1.918   6.721 -1.4100 -1.6458 -0.3644
 3944SOL     OW23464   1.441   3.680   1.211  0.2896 -0.0603 -0.0527
 3944SOL    HW123465   1.426   3.586   1.202 -0.3915 -0.0727  1.2315
 3944SOL    HW223466   1.532   3.697   1.187 -0.5787  3.3674 -1.0430
 3945SOL     OW23467   1.445   2.229  10.941 -0.3547 -0.0678  0.2390
 3945SOL    HW123468   1.420   2.322  10.933 -0.7636 -0.1674  0.3411
 3945SOL    HW223469   1.444   2.207  10.848 -0.7298  0.8626  0.0180
 3946SOL     OW23470   4.656   4.323   9.356  0.2884  0.5095  0.0335
 3946SOL    HW123471   4.653   4.400   9.413 -2.6011  2.1973 -2.3920
 3946SOL    HW223472   0.010   4.300   9.350 -0.1664 -0.8252 -1.7454
 3947SOL     OW23473   3.542   4.522   8.978 -0.0054 -0.4223 -0.1919
 3947SOL    HW123474   3.570   4.577   9.052 -1.6301 -0.3151  0.3341
 3947SOL    HW223475   3.463   4.482   9.014  0.3689 -1.5411 -0.6162
 3948SOL     OW23476   1.903   2.707   3.105  0.1255 -0.2103  0.1103
 3948SOL    HW123477   1.910   2.801   3.093 -1.1399 -0.2607 -1.0268
 3948SOL    HW223478   1.809   2.697   3.092  0.2035 -1.4108  0.3745
 3949SOL     OW23479   0.185   1.675   1.912 -0.5401 -0.3739 -0.5582
 3949SOL    HW123480   0.199   1.735   1.839  2.0414  0.9089  1.0163
 3949SOL    HW223481   0.191   1.737   1.984  1.2464 -0.5605 -0.5482
 3950SOL     OW23482   3.573   3.352   4.094 -0.3670  0.4797  0.1475
 3950SOL    HW123483   3.596   3.289   4.162  0.1023  1.0750  0.5344
 3950SOL    HW223484   3.523   3.420   4.139  2.0184  1.2017  1.6861
 3951SOL     OW23485   1.522   4.060   9.198 -0.1888 -0.6040  0.0328
 3951SOL    HW123486   1.543   3.999   9.127 -2.4794 -2.1484  0.6711
 3951SOL    HW223487   1.584   4.036   9.267  2.1272  0.0601 -1.8427
 3952SOL     OW23488   1.108   0.226  14.003  0.0906 -0.1652 -0.0044
 3952SOL    HW123489   1.102   0.306  14.055  0.0093  0.6000 -1.1877
 3952SOL    HW223490   1.051   0.163  14.048 -0.5952 -0.9038 -1.8856
 3953SOL     OW23491   2.206   4.092  12.719  0.2786 -0.1131  0.1575
 3953SOL    HW123492   2.276   4.087  12.783  1.6899  0.5313 -1.3502
 3953SOL    HW223493   2.231   4.010  12.676 -0.3349  0.6430 -1.6415
 3954SOL     OW23494   2.880   2.614   2.109  0.1915 -0.3683 -0.0933
 3954SOL    HW123495   2.928   2.549   2.160 -0.8530 -1.3518 -0.3539
 3954SOL    HW223496   2.828   2.660   2.175  0.2375  0.9395 -0.9749
 3955SOL     OW23497   2.418   4.073   6.415 -0.5262  0.0059 -0.6602
 3955SOL    HW123498   2.395   3.996   6.361  1.8148 -1.1304 -0.0302
 3955SOL    HW223499   2.447   4.142   6.355 -1.3927  0.8251 -0.1355
 3956SOL     OW23500   1.592   4.366   7.382 -0.0432  0.0956  0.5375
 3956SOL    HW123501   1.668   4.314   7.411 -1.0745 -1.0169  1.2403
 3956SOL    HW223502   1.623   4.413   7.305  1.0549  0.6384  1.3105
 3957SOL     OW23503   2.466   2.424   7.434  0.3306 -0.9167  0.2120
 3957SOL    HW123504   2.373   2.416   7.456  0.4914 -1.5297  0.6647
 3957SOL    HW223505   2.480   2.489   7.504 -0.4295  1.6555 -2.0205
 3958SOL     OW23506   2.469   4.412   3.024 -0.4751 -0.1363  0.5248
 3958SOL    HW123507   2.399   4.438   2.964  0.2248  1.6841  0.4934
 3958SOL    HW223508   2.447   4.326   3.058 -2.7861  0.6936  1.1366
 3959SOL     OW23509   0.175   4.490  15.978 -0.9095 -0.3777 -0.3716
 3959SOL    HW123510   0.159   4.583  15.988  0.8896  0.0432 -1.3330
 3959SOL    HW223511   0.186   4.481  15.883 -1.0023 -1.2704 -0.3040
 3960SOL     OW23512   3.992   3.932   5.827 -0.1296  0.3343  0.0241
 3960SOL    HW123513   4.026   3.970   5.908 -2.5497  3.2786 -0.3792
 3960SOL    HW223514   3.977   4.005   5.768 -0.1138 -0.4345 -0.9374
 3961SOL     OW23515   2.634   2.564   5.597  0.5462  0.0026  0.5625
 3961SOL    HW123516   2.726   2.582   5.579  0.4232 -0.3077 -0.3417
 3961SOL    HW223517   2.603   2.630   5.534  0.0537 -2.0426 -1.3303
 3962SOL     OW23518   4.609   3.776   9.142  0.9055  0.1845  0.0003
 3962SOL    HW123519   4.646   3.727   9.216 -1.5693  0.8835  1.6717
 3962SOL    HW223520   4.527   3.815   9.170  0.8861  2.5264 -3.3157
 3963SOL     OW23521   2.328   1.497   7.702  0.5395  0.4579 -0.6629
 3963SOL    HW123522   2.250   1.524   7.653  1.5894 -1.6545 -3.4803
 3963SOL    HW223523   2.310   1.408   7.733 -0.3092  0.2379 -1.8129
 3964SOL     OW23524   2.140   0.313   4.584  0.7770 -0.6004 -0.3362
 3964SOL    HW123525   2.194   0.234   4.592 -0.0430 -1.1814 -0.5067
 3964SOL    HW223526   2.158   0.364   4.663  0.8648 -2.6184  0.9466
 3965SOL     OW23527   4.122   3.622  15.470  0.2286  0.2539  0.2717
 3965SOL    HW123528   4.152   3.620  15.561  1.2429  2.2905 -0.0176
 3965SOL    HW223529   4.030   3.649  15.472  0.3400  0.7926 -2.1620
 3966SOL     OW23530   0.730   1.465  15.309 -0.6537 -0.4926 -0.3051
 3966SOL    HW123531   0.806   1.475  15.367 -0.0036  2.1839 -1.6114
 3966SOL    HW223532   0.689   1.385  15.339 -2.0316  0.1661 -0.4488
 3967SOL     OW23533   0.773   2.133   1.643  0.1519 -0.2239  0.2570
 3967SOL    HW123534   0.710   2.200   1.615 -0.2205 -0.5307  0.3526
 3967SOL    HW223535   0.821   2.138   1.560  1.3426 -0.3007  0.9387
 3968SOL     OW23536   3.551   0.581  11.809 -0.5194  0.2563  0.3116
 3968SOL    HW123537   3.590   0.494  11.808 -0.4051  0.3321 -1.2693
 3968SOL    HW223538   3.510   0.593  11.723 -1.0381 -1.3148  0.3428
 3969SOL     OW23539   2.339   3.787  16.976 -0.2719  0.0884  0.2025
 3969SOL    HW123540   2.290   3.862  16.942  0.1345  0.3156  0.1179
 3969SOL    HW223541   2.288   3.719  16.933  1.4108  0.5727 -2.5368
 3970SOL     OW23542   3.131   0.982   7.528  0.4975  0.0532  0.3294
 3970SOL    HW123543   3.102   0.931   7.603  0.5088 -0.1404  0.2026
 3970SOL    HW223544   3.063   1.049   7.522  0.2838 -0.1162  0.9456
 3971SOL     OW23545   3.690   0.138   3.078  0.1279  0.7457 -0.1617
 3971SOL    HW123546   3.700   0.105   3.168 -0.1949  0.2796 -0.2941
 3971SOL    HW223547   3.598   0.163   3.079  0.3082  1.3480  1.2246
 3972SOL     OW23548   0.360   3.821   5.328 -0.1391  0.1790 -0.1190
 3972SOL    HW123549   0.345   3.912   5.353  1.6852  0.4593 -0.0851
 3972SOL    HW223550   0.278   3.781   5.360 -0.6835  1.3664 -0.0395
 3973SOL     OW23551   3.630   4.606   4.817 -0.0256 -0.0999 -0.1091
 3973SOL    HW123552   3.679   4.664   4.875 -0.0372  0.4306 -0.6351
 3973SOL    HW223553   3.590   4.681   4.775 -0.2963 -0.7262 -0.9667
 3974SOL     OW23554   1.663   1.652   8.384  1.0795  0.8203  0.6239
 3974SOL    HW123555   1.675   1.698   8.301 -0.6011 -0.9477 -0.5964
 3974SOL    HW223556   1.568   1.644   8.392  1.1494 -0.0015  0.6719
 3975SOL     OW23557   3.376   3.343   2.316 -0.2117  0.4923  0.2240
 3975SOL    HW123558   3.393   3.312   2.405  0.0249 -1.0909 -0.3866
 3975SOL    HW223559   3.323   3.272   2.281 -0.7414  0.8890  0.2053
 3976SOL     OW23560   2.569   0.291   4.089 -0.2540  0.2230  0.6572
 3976SOL    HW123561   2.616   0.352   4.032 -2.6005  1.7313  0.3460
 3976SOL    HW223562   2.562   0.337   4.172 -0.4874  1.4728 -0.0586
 3977SOL     OW23563   3.222   3.090  10.351 -0.0209 -0.0237  0.1425
 3977SOL    HW123564   3.150   3.139  10.392 -0.8326 -2.6548  1.8608
 3977SOL    HW223565   3.192   3.000  10.360 -1.4559  0.5266  0.8433
 3978SOL     OW23566   2.395   3.607  11.379  0.0045  0.1523  0.0642
 3978SOL    HW123567   2.472   3.558  11.408  0.6810 -0.3032 -2.5283
 3978SOL    HW223568   2.377   3.647  11.464  0.6318  1.3542 -0.3792
 3979SOL     OW23569   2.846   2.311   1.999  0.0754  0.8701  0.4114
 3979SOL    HW123570   2.845   2.302   1.904 -0.7238 -2.3533  0.7408
 3979SOL    HW223571   2.866   2.405   2.001  1.8113  0.4592  2.3437
 3980SOL     OW23572   1.756   0.146   8.137  0.0266  0.1178 -0.1130
 3980SOL    HW123573   1.769   0.057   8.171 -1.0718  0.4362  1.1516
 3980SOL    HW223574   1.761   0.180   8.226 -2.5977  2.9658 -1.0566
 3981SOL     OW23575   2.930   1.709   3.197  0.2280  0.1833 -0.2470
 3981SOL    HW123576   2.992   1.726   3.267  1.5229  1.3979 -1.6997
 3981SOL    HW223577   2.938   1.789   3.146 -0.8361  1.2242  1.2260
 3982SOL     OW23578   0.588   0.966   9.998 -0.1107 -0.0374 -0.3050
 3982SOL    HW123579   0.595   1.031  10.068  1.3554 -1.0000  0.4359
 3982SOL    HW223580   0.673   0.922   9.995 -0.6865 -1.0872 -0.9740
 3983SOL     OW23581   2.369   1.977   0.983  0.2613 -0.0121 -0.0498
 3983SOL    HW123582   2.389   2.009   0.895 -0.7128  1.5109  0.2684
 3983SOL    HW223583   2.279   2.010   0.990 -0.1141 -1.7752  3.0358
 3984SOL     OW23584   2.299   1.978   5.614  0.3468 -0.1507 -0.1675
 3984SOL    HW123585   2.242   1.935   5.677  0.3674  1.1006  0.7144
 3984SOL    HW223586   2.377   1.998   5.667 -0.7623  1.2732  0.9161
 3985SOL     OW23587   4.017   2.235  13.973 -0.1894  0.4603  0.3880
 3985SOL    HW123588   4.026   2.168  14.041 -1.2445 -0.2338 -0.1559
 3985SOL    HW223589   3.934   2.281  13.984  1.0233  2.5924  0.6365
 3986SOL     OW23590   0.973   0.379   9.465 -0.6180  0.1408  0.3469
 3986SOL    HW123591   0.986   0.438   9.539 -1.2171 -0.5084  0.9753
 3986SOL    HW223592   1.017   0.431   9.398  0.2024  0.6058  1.2636
 3987SOL     OW23593   2.356   4.428   6.832  0.2021 -0.4884 -0.4292
 3987SOL    HW123594   2.382   4.404   6.744  1.4538 -2.2770  0.4196
 3987SOL    HW223595   2.337   4.521   6.824  1.3472 -0.2032  0.1943
 3988SOL     OW23596   3.745   0.500   1.765  0.3897  0.1739  0.1337
 3988SOL    HW123597   3.671   0.465   1.814 -0.5793  2.2029  0.0995
 3988SOL    HW223598   3.712   0.524   1.679  0.8588  0.7987  0.1255
 3989SOL     OW23599   4.632   4.320  13.705  0.1922  0.7100 -0.1031
 3989SOL    HW123600   4.591   4.291  13.623 -0.4866  0.3998  0.3413
 3989SOL    HW223601   4.724   4.299  13.689  0.6220  3.7820 -1.6118
 3990SOL     OW23602   4.274   1.538   5.645 -0.3767 -0.0895  0.6040
 3990SOL    HW123603   4.216   1.477   5.692 -1.2136  1.6002  1.7687
 3990SOL    HW223604   4.355   1.534   5.696 -0.7203 -1.5417  1.0498
 3991SOL     OW23605   1.856   1.100  12.893  0.5127 -0.5262  0.3608
 3991SOL    HW123606   1.936   1.047  12.892  1.3105  0.7420 -1.4135
 3991SOL    HW223607   1.811   1.043  12.955  0.3863  1.1701  1.8392
 3992SOL     OW23608   3.965   1.195   6.802  0.5738  0.5981  0.5565
 3992SOL    HW123609   3.894   1.226   6.859  0.5238  2.2554 -0.4216
 3992SOL    HW223610   3.926   1.116   6.765  1.3735  0.3036  0.3530
 3993SOL     OW23611   3.131   3.447  16.746 -0.1859 -0.1650  0.1041
 3993SOL    HW123612   3.167   3.535  16.758  0.0442 -0.2100 -0.2558
 3993SOL    HW223613   3.207   3.397  16.775  1.8504  2.8036 -0.1234
 3994SOL     OW23614   2.870   0.878   1.691 -0.1912 -0.6361 -0.1073
 3994SOL    HW123615   2.790   0.917   1.726 -0.7219 -3.0262  1.2686
 3994SOL    HW223616   2.850   0.787   1.709  1.1793 -0.8018  0.5732
 3995SOL     OW23617   3.032   1.376  13.063  0.2211  0.7381  0.0101
 3995SOL    HW123618   3.011   1.470  13.065  2.5486  1.2694 -0.5865
 3995SOL    HW223619   2.943   1.344  13.047  1.4145 -1.5140 -2.0755
 3996SOL     OW23620   1.140   1.867   8.038 -0.0436  0.1643 -0.1864
 3996SOL    HW123621   1.107   1.956   8.029  0.0850  0.2872  0.6077
 3996SOL    HW223622   1.079   1.825   7.976  3.1810 -0.6329 -2.8479
 3997SOL     OW23623   1.907   0.714  11.456 -0.1811  0.3037  0.2177
 3997SOL    HW123624   1.926   0.711  11.550 -0.7718 -2.4472  0.2405
 3997SOL    HW223625   1.862   0.631  11.444  1.7523 -0.6041 -0.6958
 3998SOL     OW23626   1.462   2.262   8.350 -0.5700 -0.2178 -0.0370
 3998SOL    HW123627   1.445   2.182   8.399  1.3533 -2.0609 -2.3844
 3998SOL    HW223628   1.459   2.333   8.414  1.7234 -0.6963  0.5846
 3999SOL     OW23629   2.332   4.272   3.342  0.4866  0.3142 -0.4925
 3999SOL    HW123630   2.249   4.227   3.329  0.8536 -0.1424 -1.2426
 3999SOL    HW223631   2.308   4.358   3.306 -1.7850  0.4631  1.3813
 4000SOL     OW23632   1.036   1.384   3.812 -0.1582  0.7680  0.4010
 4000SOL    HW123633   0.962   1.354   3.864 -0.0418 -2.9637 -1.5945
 4000SOL    HW223634   1.069   1.303   3.774  1.3479  1.2921  0.5817
 4001SOL     OW23635   0.362   1.679   4.088 -0.5416 -0.0613  0.0648
 4001SOL    HW123636   0.387   1.590   4.110 -1.5871 -0.5146 -0.5705
 4001SOL    HW223637   0.310   1.680   4.008 -0.5975  1.2636  0.1172
 4002SOL     OW23638   4.643   3.958  12.394 -0.0773 -0.8014 -0.1656
 4002SOL    HW123639   4.652   3.958  12.299  2.0305  0.0058  0.0416
 4002SOL    HW223640   4.719   4.000  12.435  0.0818 -0.7974 -0.4649
 4003SOL     OW23641   2.659   4.668   4.171  0.2238 -0.1219  0.1286
 4003SOL    HW123642   2.645   4.725   4.246  2.1591 -0.2501  0.5875
 4003SOL    HW223643   2.578   4.695   4.126  0.4953  2.2965  1.0892
 4004SOL     OW23644   0.665   1.528   4.617  0.6395 -0.0513  0.0757
 4004SOL    HW123645   0.686   1.442   4.652 -2.4661 -0.5433  0.7221
 4004SOL    HW223646   0.597   1.562   4.675  1.9124  1.5244  0.6274
 4005SOL     OW23647   4.278   2.551   3.254  0.1547  0.0246 -0.2836
 4005SOL    HW123648   4.272   2.535   3.159  3.2864 -0.0145 -0.4558
 4005SOL    HW223649   4.340   2.622   3.268 -0.5055  0.2274  1.5572
 4006SOL     OW23650   4.636   3.407   4.237  0.7858  0.4069 -0.2426
 4006SOL    HW123651   4.582   3.328   4.238 -1.2490  1.7730 -1.1308
 4006SOL    HW223652   4.721   3.371   4.213  0.1317 -2.4552  1.6669
 4007SOL     OW23653   0.047   2.214   1.641  0.3527 -0.1087  0.0515
 4007SOL    HW123654   0.078   2.265   1.566  0.2567  0.7425  0.6052
 4007SOL    HW223655   4.693   2.206   1.620 -0.5401  2.9491  2.9538
 4008SOL     OW23656   1.284   4.039   1.495 -0.3963  0.5483 -0.1096
 4008SOL    HW123657   1.234   3.958   1.482  0.8496 -0.2056 -0.1632
 4008SOL    HW223658   1.347   4.051   1.424  0.0281 -0.2036  0.1455
 4009SOL     OW23659   1.479   0.375  16.040 -0.2564 -0.1313 -0.0986
 4009SOL    HW123660   1.440   0.341  15.959 -0.9759 -0.8432  0.5461
 4009SOL    HW223661   1.570   0.384  16.014  0.2916 -0.7080  1.6250
 4010SOL     OW23662   3.981   1.923   9.305  0.8041 -0.1644 -0.5640
 4010SOL    HW123663   3.966   1.829   9.313 -1.1156  0.2860  1.2122
 4010SOL    HW223664   4.008   1.936   9.396 -1.0316 -0.1546 -0.0199
 4011SOL     OW23665   4.241   0.577   2.966 -0.0511 -0.3831 -0.1094
 4011SOL    HW123666   4.288   0.547   3.045 -0.7149  1.5837  1.0375
 4011SOL    HW223667   4.306   0.640   2.935  1.0620 -2.5266 -2.1309
 4012SOL     OW23668   3.529   3.428   5.875 -0.2785  0.4488  0.2809
 4012SOL    HW123669   3.598   3.492   5.892  0.5150 -0.8948  2.0961
 4012SOL    HW223670   3.465   3.488   5.838 -0.1216  0.3129 -0.2147
 4013SOL     OW23671   2.035   2.428   4.400  0.8737  0.0541 -0.1805
 4013SOL    HW123672   2.108   2.372   4.371  2.3674  1.8288  0.1745
 4013SOL    HW223673   2.081   2.510   4.380  0.3689 -0.0966 -1.9714
 4014SOL     OW23674   3.683   2.330  11.114  0.3584 -0.6720 -1.1281
 4014SOL    HW123675   3.731   2.251  11.088 -0.9071 -1.6852 -0.3702
 4014SOL    HW223676   3.752   2.396  11.118  0.2875 -0.7881  2.0046
 4015SOL     OW23677   3.959   0.418   3.328  0.0863  0.1398  0.6017
 4015SOL    HW123678   4.010   0.471   3.389  2.9209 -1.6770 -0.2152
 4015SOL    HW223679   3.875   0.405   3.372  0.0602 -0.1196  0.4743
 4016SOL     OW23680   1.238   1.473   5.256 -0.3491 -0.7125 -0.2743
 4016SOL    HW123681   1.279   1.550   5.215 -0.8842 -1.2833 -1.9106
 4016SOL    HW223682   1.308   1.436   5.309  0.7546 -0.2171 -1.3837
 4017SOL     OW23683   1.682   0.793   8.352  0.1434 -0.2218  0.0807
 4017SOL    HW123684   1.591   0.763   8.352  0.7213 -1.9311 -1.7567
 4017SOL    HW223685   1.657   0.886   8.357  0.5466  0.0108 -1.9453
 4018SOL     OW23686   2.572   4.217   3.944 -0.0935 -0.2367  0.7162
 4018SOL    HW123687   2.585   4.190   4.035  1.2162 -0.4095  0.4757
 4018SOL    HW223688   2.550   4.310   3.941 -1.2652 -0.4832  1.8509
 4019SOL     OW23689   3.779   4.240   7.784 -0.4419  0.0963  0.3168
 4019SOL    HW123690   3.836   4.165   7.799  1.5418  1.8246  1.3960
 4019SOL    HW223691   3.690   4.206   7.781  0.4783 -2.2040 -0.2872
 4020SOL     OW23692   2.601   4.216  11.527  0.9010  0.2633  0.6859
 4020SOL    HW123693   2.664   4.246  11.593  0.9230  1.3485  0.1761
 4020SOL    HW223694   2.562   4.150  11.583  3.6240 -0.9907  1.1406
 4021SOL     OW23695   3.636   1.501   4.893 -0.4550 -0.4130 -0.1311
 4021SOL    HW123696   3.628   1.555   4.972 -0.8060  1.1307 -1.2320
 4021SOL    HW223697   3.700   1.549   4.840  0.8607 -1.3749  0.5759
 4022SOL     OW23698   2.361   3.753   3.689 -0.0619 -0.3361  0.1899
 4022SOL    HW123699   2.352   3.838   3.646  2.0102 -0.6613 -0.9004
 4022SOL    HW223700   2.284   3.759   3.746 -0.4102 -2.8415 -0.0403
 4023SOL     OW23701   4.219   3.183   3.688 -1.0224  0.0968 -0.3220
 4023SOL    HW123702   4.137   3.220   3.719 -0.7400  1.9087 -1.6993
 4023SOL    HW223703   4.223   3.100   3.735  1.7265  1.2372  1.4745
 4024SOL     OW23704   4.252   3.709   7.352  0.4279 -0.8040  0.0436
 4024SOL    HW123705   4.276   3.723   7.444  0.1697  2.4302 -0.4051
 4024SOL    HW223706   4.232   3.615   7.356  2.0985 -1.1832 -0.5623
 4025SOL     OW23707   2.537   2.422   7.890  0.0018  0.5497 -0.3202
 4025SOL    HW123708   2.592   2.348   7.865  0.6129  1.3905 -1.4800
 4025SOL    HW223709   2.601   2.463   7.947 -1.6654  2.1529  0.3913
 4026SOL     OW23710   3.817   3.737   5.145  0.1444  0.1428 -0.2019
 4026SOL    HW123711   3.860   3.698   5.221 -1.7308 -3.4824 -1.0119
 4026SOL    HW223712   3.732   3.695   5.152  0.4693 -0.6422 -0.9873
 4027SOL     OW23713   4.041   3.361  12.190 -0.3067 -0.0665 -0.3888
 4027SOL    HW123714   4.104   3.381  12.259 -0.3417  0.1837 -0.4301
 4027SOL    HW223715   3.961   3.382  12.237  0.7986  1.5013  0.7630
 4028SOL     OW23716   2.794   2.025  12.461 -0.3198 -0.6999 -0.5205
 4028SOL    HW123717   2.785   1.947  12.407  0.7325  0.3476 -2.2015
 4028SOL    HW223718   2.828   1.994  12.545  2.3691  0.6544 -1.0837
 4029SOL     OW23719   1.609   3.432   8.979 -0.5128 -0.3019  0.6248
 4029SOL    HW123720   1.578   3.377   8.908 -0.2539 -0.6882  0.8045
 4029SOL    HW223721   1.608   3.364   9.047 -1.3943 -1.3125 -0.4042
 4030SOL     OW23722   1.381   4.613   5.142  0.3901  0.1304  0.3710
 4030SOL    HW123723   1.415   4.578   5.224  0.2306  1.1636  0.8787
 4030SOL    HW223724   1.358   4.703   5.164 -0.5553  0.5286 -2.2037
 4031SOL     OW23725   2.801   4.148   0.648 -0.4655 -0.0880  0.6326
 4031SOL    HW123726   2.834   4.058   0.648 -1.4368 -0.4464 -0.3592
 4031SOL    HW223727   2.847   4.179   0.569  0.0810  0.0035  0.9848
 4032SOL     OW23728   3.390   2.186   4.934  0.2123 -0.2619  0.4513
 4032SOL    HW123729   3.319   2.184   4.869  1.0435  1.6472 -0.4981
 4032SOL    HW223730   3.337   2.190   5.014 -0.1675 -3.3187  0.3573
 4033SOL     OW23731   2.282   3.046   0.873  0.5578  0.6185 -0.4129
 4033SOL    HW123732   2.201   3.091   0.899  0.9286  0.2304  1.3836
 4033SOL    HW223733   2.277   2.971   0.933  0.2009 -0.9118 -2.3189
 4034SOL     OW23734   0.085   0.289   3.767  0.4134  0.0413 -0.4083
 4034SOL    HW123735   0.043   0.240   3.697 -2.1746  1.9694 -0.1854
 4034SOL    HW223736   0.005   0.298   3.818  1.1260  0.7185  0.5947
 4035SOL     OW23737   4.475   4.075  16.304  0.1672 -0.1960  0.2236
 4035SOL    HW123738   4.450   4.071  16.212  2.0339 -0.3644 -0.2820
 4035SOL    HW223739   4.515   4.162  16.301 -0.9837  0.2925 -0.9611
 4036SOL     OW23740   3.514   1.459   1.968  0.0421 -0.2313  0.3021
 4036SOL    HW123741   3.594   1.479   2.016 -0.0075  0.1806  0.2123
 4036SOL    HW223742   3.475   1.544   1.950 -1.0228 -0.9677 -0.9099
 4037SOL     OW23743   0.234   1.729  16.114  0.3449 -0.2769  0.2799
 4037SOL    HW123744   0.196   1.679  16.186 -0.4015 -0.2586 -0.1018
 4037SOL    HW223745   0.196   1.694  16.034 -0.8036  0.7858  0.3706
 4038SOL     OW23746   3.930   1.491   7.453  0.4172 -0.2836  0.0068
 4038SOL    HW123747   3.935   1.408   7.500 -0.2368 -0.6302 -0.5391
 4038SOL    HW223748   3.968   1.452   7.374 -0.7143 -1.5094  0.0736
 4039SOL     OW23749   1.941   0.454   8.253 -0.1567 -0.2525 -0.0574
 4039SOL    HW123750   2.003   0.505   8.201 -0.7643 -1.0031 -1.5150
 4039SOL    HW223751   1.908   0.525   8.308 -1.4655  0.6620 -2.0674
 4040SOL     OW23752   2.915   4.536   4.760  1.2432  0.7304  0.2395
 4040SOL    HW123753   2.909   4.453   4.807  3.4015  0.6410  0.3981
 4040SOL    HW223754   2.994   4.509   4.713 -0.5221 -0.1673 -2.2176
 4041SOL     OW23755   3.574   4.548  13.426 -0.0204 -0.2340 -0.1609
 4041SOL    HW123756   3.563   4.629  13.478  2.6109 -0.2529  0.4488
 4041SOL    HW223757   3.659   4.533  13.469 -0.8249 -2.7494  0.5607
 4042SOL     OW23758   2.503   2.528   6.864  0.3240 -0.3070  0.2065
 4042SOL    HW123759   2.584   2.478   6.850 -0.2996 -0.5991 -2.2365
 4042SOL    HW223760   2.437   2.466   6.834 -0.1602  1.5541 -2.5300
 4043SOL     OW23761   3.868   3.811   4.737 -1.2112  0.5346  0.0612
 4043SOL    HW123762   3.943   3.799   4.680 -0.7529 -0.3621  0.8613
 4043SOL    HW223763   3.800   3.795   4.671 -1.0811 -0.8933  0.2758
 4044SOL     OW23764   2.597   1.269  14.134 -0.6822 -0.0428  0.6195
 4044SOL    HW123765   2.626   1.248  14.223 -1.5650 -0.4151  0.8196
 4044SOL    HW223766   2.536   1.339  14.155 -1.0215 -0.8344  2.2152
 4045SOL     OW23767   1.916   0.209   0.203 -0.0778  0.1524  0.0895
 4045SOL    HW123768   1.859   0.137   0.174 -1.0482  0.8107  0.3702
 4045SOL    HW223769   1.859   0.276   0.240  1.4315 -0.1632  3.0345
 4046SOL     OW23770   3.658   2.994  13.691  0.0484 -0.0835  0.8883
 4046SOL    HW123771   3.574   2.987  13.736  0.5818  0.2678  1.9655
 4046SOL    HW223772   3.682   2.904  13.669 -1.6021 -0.2709 -0.0852
 4047SOL     OW23773   0.433   4.236   6.924  0.3064  0.3404  0.3788
 4047SOL    HW123774   0.401   4.236   6.834  0.3079 -1.1645  0.3685
 4047SOL    HW223775   0.494   4.164   6.906  1.4003  1.5346 -0.7135
 4048SOL     OW23776   3.122   4.471   8.557 -0.6264 -0.4979 -0.0974
 4048SOL    HW123777   3.118   4.381   8.525  1.6726 -0.1124 -1.4809
 4048SOL    HW223778   3.174   4.469   8.637 -0.0575  1.7621 -0.4132
 4049SOL     OW23779   3.192   0.322   0.538  0.2637  0.4069 -0.6214
 4049SOL    HW123780   3.235   0.377   0.603  0.7884 -0.6017 -0.1123
 4049SOL    HW223781   3.154   0.255   0.595  1.6520 -0.0986 -0.2877
 4050SOL     OW23782   4.414   3.488   5.611 -0.5590  0.3192 -1.0366
 4050SOL    HW123783   4.494   3.454   5.571 -0.1859  1.2927 -1.1083
 4050SOL    HW223784   4.432   3.576   5.643  0.6751 -0.2317 -0.2070
 4051SOL     OW23785   1.957   3.920   6.619 -0.0600 -0.1258 -0.3122
 4051SOL    HW123786   2.042   3.965   6.615  0.1292 -0.3969  0.4652
 4051SOL    HW223787   1.965   3.884   6.708 -1.7113 -2.0233 -0.9521
 4052SOL     OW23788   0.446   0.398   7.269  0.1216  0.0843 -0.1455
 4052SOL    HW123789   0.396   0.431   7.195  0.1395  1.4260  0.4276
 4052SOL    HW223790   0.451   0.470   7.332  0.9358 -0.0229 -0.0881
 4053SOL     OW23791   2.039   0.924   7.944  0.2015  1.0108 -0.3098
 4053SOL    HW123792   2.059   0.850   7.887  1.8380  0.3879  1.0444
 4053SOL    HW223793   1.950   0.913   7.975  0.4181  0.1780  0.0142
 4054SOL     OW23794   3.008   3.617   4.925 -0.1463  0.3259 -0.6227
 4054SOL    HW123795   3.070   3.606   4.852  2.3454  1.8921  1.2410
 4054SOL    HW223796   2.945   3.685   4.902 -0.6767 -0.4214 -1.3770
 4055SOL     OW23797   4.523   3.941  17.706 -0.0993  0.4476 -0.3220
 4055SOL    HW123798   4.614   3.969  17.705 -0.2026  0.7406 -1.7463
 4055SOL    HW223799   4.487   4.030  17.709  0.5860  0.7012  0.1268
 4056SOL     OW23800   3.625   2.315   6.727  0.0371  0.3139  0.1142
 4056SOL    HW123801   3.675   2.347   6.652  0.5039  0.5036  0.5042
 4056SOL    HW223802   3.678   2.238   6.746 -0.4121  0.0209  0.1941
 4057SOL     OW23803   1.504   1.031   8.342  0.2962  0.4535  0.4986
 4057SOL    HW123804   1.510   1.088   8.266 -1.0896  0.7720  0.6190
 4057SOL    HW223805   1.410   1.022   8.357  0.1570 -1.1688 -1.3965
 4058SOL     OW23806   2.098   2.890   8.942  0.2092 -0.2264 -0.5820
 4058SOL    HW123807   2.019   2.909   8.994  0.6548 -1.5034  0.5463
 4058SOL    HW223808   2.056   2.834   8.877 -0.6269  0.0944 -0.3321
 4059SOL     OW23809   1.038   0.484   5.486  0.1813 -0.0854 -0.4224
 4059SOL    HW123810   1.010   0.541   5.415  1.2735  2.2165  0.9985
 4059SOL    HW223811   1.085   0.414   5.442  1.9896  0.8382  0.0538
 4060SOL     OW23812   0.776   0.197  14.526 -0.4145  0.1439  0.0850
 4060SOL    HW123813   0.724   0.117  14.533 -0.9031  0.5740  1.3283
 4060SOL    HW223814   0.771   0.235  14.614 -1.9439  1.1074 -0.4242
 4061SOL     OW23815   4.502   2.549  11.157  0.5332  0.1289 -0.1439
 4061SOL    HW123816   4.430   2.595  11.200  0.0644 -1.6764  1.0028
 4061SOL    HW223817   4.579   2.566  11.210  0.3628  0.0165  0.1397
 4062SOL     OW23818   1.820   4.180   7.395  0.0583 -0.3739  0.4197
 4062SOL    HW123819   1.845   4.120   7.324  2.7568  0.0744  1.0069
 4062SOL    HW223820   1.780   4.116   7.455  0.2569 -0.6438  0.2671
 4063SOL     OW23821   3.023   2.044  14.289  0.0421 -0.0141 -0.0258
 4063SOL    HW123822   3.039   1.996  14.208  0.3899 -1.0383  0.6579
 4063SOL    HW223823   2.984   1.979  14.347  0.8986 -0.2917  0.2401
 4064SOL     OW23824   1.187   2.755   6.310 -0.4248  0.4506 -0.1506
 4064SOL    HW123825   1.159   2.665   6.329 -1.3807  1.0990  1.5323
 4064SOL    HW223826   1.112   2.785   6.257 -0.1981 -0.5444 -1.0537
 4065SOL     OW23827   0.391   0.340  11.417  0.4413 -0.0862  0.3286
 4065SOL    HW123828   0.335   0.306  11.487  1.1979  0.5319  1.2392
 4065SOL    HW223829   0.478   0.332  11.457  0.0263 -2.0195  0.8143
 4066SOL     OW23830   0.623   0.277   7.676  0.5780  0.4079 -0.0526
 4066SOL    HW123831   0.577   0.215   7.734 -4.1721  0.2407 -3.9423
 4066SOL    HW223832   0.633   0.220   7.600  1.6507  0.4446  0.0705
 4067SOL     OW23833   1.725   0.553  16.372  0.1722  0.8772  0.2136
 4067SOL    HW123834   1.686   0.604  16.301 -1.3446  0.7844  0.9883
 4067SOL    HW223835   1.817   0.552  16.343  1.0886  0.4522  3.1239
 4068SOL     OW23836   0.934   3.240  14.399 -0.3038 -0.5476 -0.2874
 4068SOL    HW123837   0.846   3.260  14.368 -0.0207  0.8295 -0.1669
 4068SOL    HW223838   0.917   3.170  14.463  2.5022 -2.6007 -1.8002
 4069SOL     OW23839   1.087   0.174   8.371  0.5996 -0.7015  0.2238
 4069SOL    HW123840   0.991   0.175   8.368  0.6536  0.9250 -1.0436
 4069SOL    HW223841   1.102   0.245   8.434 -2.4107 -0.4325  0.6370
 4070SOL     OW23842   2.411   0.306   0.237 -0.4609  0.0443  0.2146
 4070SOL    HW123843   2.342   0.311   0.171 -2.3124 -0.6538  2.0795
 4070SOL    HW223844   2.488   0.289   0.183 -0.3709 -2.5737  1.1443
 4071SOL     OW23845   0.283   4.694   3.808  0.9929 -0.2643  0.0070
 4071SOL    HW123846   0.297   4.622   3.746  1.2985  0.9897 -1.3693
 4071SOL    HW223847   0.303   4.649   3.891 -0.3518  1.1197  1.0728
 4072SOL     OW23848   4.329   0.607   5.420  0.5312  0.3373  0.2333
 4072SOL    HW123849   4.315   0.633   5.511 -0.9642  0.5907 -0.0734
 4072SOL    HW223850   4.272   0.666   5.372 -1.2033 -0.5957  1.1602
 4073SOL     OW23851   3.784   2.742   7.898 -0.1721 -0.2390  0.1198
 4073SOL    HW123852   3.865   2.694   7.919  1.4105  1.9517 -0.9885
 4073SOL    HW223853   3.827   2.828   7.900 -0.2010 -0.1956 -2.2489
 4074SOL     OW23854   1.177   2.339   2.199 -0.2069 -0.3661 -0.0197
 4074SOL    HW123855   1.117   2.295   2.138  0.3261 -0.1889 -0.6731
 4074SOL    HW223856   1.153   2.287   2.276 -2.3995 -1.4823 -1.4316
 4075SOL     OW23857   1.812   3.089   6.987 -0.2344  0.1409 -0.1912
 4075SOL    HW123858   1.877   3.156   6.965 -0.0920  0.4555  1.1704
 4075SOL    HW223859   1.811   3.098   7.083  1.3007  0.5380 -0.2060
 4076SOL     OW23860   4.727   2.444   6.603  0.3134  0.3811 -0.0516
 4076SOL    HW123861   0.038   2.365   6.584 -1.3477 -0.2443 -1.7708
 4076SOL    HW223862   4.664   2.412   6.668 -1.6742 -0.4116 -2.3808
 4077SOL     OW23863   4.400   3.792  17.493 -0.1974  0.5329 -0.2352
 4077SOL    HW123864   4.329   3.848  17.462 -0.8385  0.1232  0.4740
 4077SOL    HW223865   4.413   3.837  17.577  4.5442 -0.3536 -0.4787
 4078SOL     OW23866   3.904   4.055   2.107  0.5705 -0.0634  0.1595
 4078SOL    HW123867   3.857   4.039   2.189 -0.1989 -0.3971 -0.3418
 4078SOL    HW223868   3.844   4.001   2.056 -4.2205  3.2814  2.2414
 4079SOL     OW23869   3.936   0.939  11.886  0.7900  0.3264  0.2849
 4079SOL    HW123870   3.987   0.983  11.955 -5.5349  3.9406  2.6902
 4079SOL    HW223871   3.850   0.976  11.907 -0.1237 -2.3669  1.2891
 4080SOL     OW23872   4.512   3.880   6.608 -0.3460 -0.5383  0.0356
 4080SOL    HW123873   4.437   3.823   6.593 -0.1005 -1.4138  2.1842
 4080SOL    HW223874   4.496   3.900   6.700 -0.9905 -2.4625  0.3404
 4081SOL     OW23875   1.963   0.053   7.627 -0.0163 -0.1451 -0.4452
 4081SOL    HW123876   1.932   0.128   7.678  0.9318  0.1397 -0.2902
 4081SOL    HW223877   1.974   4.722   7.692  0.9892 -0.0763 -0.5435
 4082SOL     OW23878   0.474   2.936   2.152 -0.1204  0.4395  0.2374
 4082SOL    HW123879   0.487   2.849   2.191 -1.5217  0.1065 -0.0074
 4082SOL    HW223880   0.535   2.932   2.078 -0.5223 -1.1943 -0.0253
 4083SOL     OW23881   3.376   0.297   4.972 -1.0567 -0.3011 -0.2016
 4083SOL    HW123882   3.339   0.384   4.986 -1.2121 -0.5062  0.6314
 4083SOL    HW223883   3.374   0.261   5.061  3.4481  0.6504  0.2788
 4084SOL     OW23884   3.748   1.655   3.030 -0.1239 -0.4889 -0.4765
 4084SOL    HW123885   3.682   1.721   3.012 -0.0145 -0.3779 -0.4710
 4084SOL    HW223886   3.828   1.706   3.013 -0.3630 -0.3013 -1.0317
 4085SOL     OW23887   0.160   2.819   1.124 -0.2561  0.3215 -0.3128
 4085SOL    HW123888   0.172   2.913   1.137 -1.7541  0.7631 -2.0634
 4085SOL    HW223889   0.091   2.811   1.191  1.6216 -0.3621  1.5488
 4086SOL     OW23890   1.142   0.291   4.574 -0.0154 -0.5183 -0.7467
 4086SOL    HW123891   1.060   0.327   4.539  0.9893  0.1073 -2.4618
 4086SOL    HW223892   1.125   0.200   4.549 -0.1542 -0.8598  0.6146
 4087SOL     OW23893   0.591   2.194  12.871 -0.2875  0.1433  0.0881
 4087SOL    HW123894   0.540   2.267  12.906 -0.3790  0.1619 -0.0820
 4087SOL    HW223895   0.671   2.211  12.920 -0.4635 -0.2281  0.5060
 4088SOL     OW23896   1.730   2.602   6.630 -0.2312 -0.0265 -0.0880
 4088SOL    HW123897   1.736   2.508   6.618  0.9255 -0.1927  1.7724
 4088SOL    HW223898   1.663   2.625   6.566 -0.3515 -1.9790 -0.6551
 4089SOL     OW23899   4.573   4.100   7.743 -0.5226 -0.5775 -0.0956
 4089SOL    HW123900   4.611   4.188   7.737  2.3012 -1.8674 -1.2716
 4089SOL    HW223901   4.653   4.051   7.764  0.0681 -0.0126 -1.0018
 4090SOL     OW23902   0.614   3.505   8.341 -0.8243 -0.1829 -0.3553
 4090SOL    HW123903   0.647   3.417   8.324  0.7790  0.1963  0.9034
 4090SOL    HW223904   0.569   3.491   8.424 -1.9314  2.4502 -0.4972
 4091SOL     OW23905   4.066   1.894   2.439 -0.1882 -0.1985 -0.0944
 4091SOL    HW123906   4.084   1.929   2.526  1.7753  0.9847 -0.9847
 4091SOL    HW223907   4.035   1.804   2.450 -0.8331  0.1881  1.2164
 4092SOL     OW23908   0.458   0.595   9.682 -0.5059 -0.0537  0.0341
 4092SOL    HW123909   0.362   0.593   9.685 -0.5091 -1.0205 -0.5746
 4092SOL    HW223910   0.466   0.587   9.587  1.1667  0.0941  0.1708
 4093SOL     OW23911   4.659   1.527   7.106  0.6591  0.7080 -0.0006
 4093SOL    HW123912   4.645   1.604   7.162  1.0384 -0.0806  1.1642
 4093SOL    HW223913   4.699   1.571   7.031 -0.0563 -0.1285 -0.8803
 4094SOL     OW23914   0.515   4.231   2.851 -0.1845 -0.0272 -0.3240
 4094SOL    HW123915   0.599   4.239   2.897 -1.0705 -3.8652  1.9055
 4094SOL    HW223916   0.455   4.296   2.887 -0.6079 -1.0467  0.8145
 4095SOL     OW23917   4.427   2.039   0.327  0.8813  0.0166 -0.0372
 4095SOL    HW123918   4.445   2.116   0.272 -1.0676  1.6172  1.5839
 4095SOL    HW223919   4.332   2.046   0.330  0.7923 -1.3669  0.0970
 4096SOL     OW23920   4.170   2.226  10.229  0.0717 -0.4018  0.3455
 4096SOL    HW123921   4.228   2.301  10.216  1.5673 -1.3223  1.6383
 4096SOL    HW223922   4.090   2.247  10.181  0.8947 -1.1764 -1.3805
 4097SOL     OW23923   0.798   1.425  14.920 -0.9986  0.0324  0.5815
 4097SOL    HW123924   0.728   1.416  14.985 -1.9812 -1.9664 -0.7398
 4097SOL    HW223925   0.776   1.348  14.866  0.3821 -0.7632  1.1700
 4098SOL     OW23926   2.157   2.528   6.491  0.1731 -0.5505 -0.4598
 4098SOL    HW123927   2.245   2.547   6.520 -0.0321  3.0212 -2.2482
 4098SOL    HW223928   2.116   2.585   6.555  2.0823  0.6357 -0.3012
 4099SOL     OW23929   3.931   0.190   2.938 -0.3742  0.3349 -0.0024
 4099SOL    HW123930   3.872   0.158   3.007  0.1211 -1.5860 -0.4717
 4099SOL    HW223931   3.897   0.279   2.926 -1.6634 -0.1520 -0.0359
 4100SOL     OW23932   0.093   3.317   7.669 -0.0743 -0.2490  0.1964
 4100SOL    HW123933   0.071   3.359   7.752 -1.3314  0.0645 -0.2953
 4100SOL    HW223934   0.180   3.279   7.686  0.2030  0.2696 -0.0927
 4101SOL     OW23935   3.647   0.233  11.678 -0.0559 -0.7398 -0.2012
 4101SOL    HW123936   3.555   0.257  11.686  0.5537  1.9495 -1.1728
 4101SOL    HW223937   3.637   0.156  11.621  2.5652 -2.1727  1.2880
 4102SOL     OW23938   0.517   4.445   5.979 -0.3776 -0.3381  0.5889
 4102SOL    HW123939   0.512   4.383   6.051 -1.6057  1.6442  2.2322
 4102SOL    HW223940   0.578   4.506   6.022  0.5475  1.1414 -2.8066
 4103SOL     OW23941   2.585   0.798   3.117  0.2269 -0.2087  0.0752
 4103SOL    HW123942   2.516   0.857   3.085  0.1539 -1.1634 -1.5041
 4103SOL    HW223943   2.572   0.722   3.061 -1.6610 -0.4894  0.9113
 4104SOL     OW23944   4.451   4.508   3.750  0.0821  0.2397 -0.9874
 4104SOL    HW123945   4.487   4.490   3.663 -1.0681 -3.9752 -0.5806
 4104SOL    HW223946   4.409   4.424   3.770  0.4530  0.6303  1.3688
 4105SOL     OW23947   2.120   1.675   7.151  0.4021  0.0189 -0.3661
 4105SOL    HW123948   2.197   1.678   7.208  0.6652 -2.2066 -0.5792
 4105SOL    HW223949   2.129   1.587   7.114 -0.1110 -0.2336  0.1181
 4106SOL     OW23950   4.183   2.779  12.076  0.0108  0.1232 -0.2400
 4106SOL    HW123951   4.100   2.821  12.099  0.2617  0.4320  0.1081
 4106SOL    HW223952   4.209   2.851  12.017  3.1354  0.0858  1.1205
 4107SOL     OW23953   2.816   2.663   2.903 -0.0223 -0.1011  0.1115
 4107SOL    HW123954   2.790   2.717   2.978 -0.6750  0.1430 -0.2902
 4107SOL    HW223955   2.812   2.575   2.942  0.6454  1.2930  3.3217
 4108SOL     OW23956   1.818   2.728   4.493 -0.2358 -0.6150 -1.2060
 4108SOL    HW123957   1.733   2.712   4.533  0.1135  1.6855  0.4321
 4108SOL    HW223958   1.787   2.795   4.432  0.2968  0.0092 -0.7834
 4109SOL     OW23959   2.921   4.611  12.894  0.1119 -0.2550 -1.0160
 4109SOL    HW123960   2.998   4.657  12.929  0.1130  1.0469 -2.7521
 4109SOL    HW223961   2.946   4.597  12.803  0.4188 -1.0028 -0.8217
 4110SOL     OW23962   0.299   3.463  14.153  0.5200 -0.5479 -0.1239
 4110SOL    HW123963   0.207   3.472  14.130  0.2313 -2.3902  0.2648
 4110SOL    HW223964   0.318   3.375  14.119 -0.7547  0.2487 -2.8746
 4111SOL     OW23965   1.816   1.174  11.368 -0.2747 -0.5352  0.4265
 4111SOL    HW123966   1.870   1.245  11.403 -0.5726  0.2112 -0.6387
 4111SOL    HW223967   1.778   1.212  11.288 -1.6066  0.1103  1.3722
 4112SOL     OW23968   3.009   0.677   2.387  0.5327  0.0278 -0.1347
 4112SOL    HW123969   2.985   0.614   2.319 -0.9973 -0.1457  0.5510
 4112SOL    HW223970   2.963   0.650   2.467  0.4535  2.4958  0.6620
 4113SOL     OW23971   2.574   0.610  14.020  0.1943  0.3064 -0.2685
 4113SOL    HW123972   2.650   0.615  14.078  0.2847 -2.5098 -0.1373
 4113SOL    HW223973   2.577   0.700  13.987 -0.1904  0.0179 -1.1117
 4114SOL     OW23974   0.101   2.207   6.042 -0.0095 -0.6791 -0.2313
 4114SOL    HW123975   0.016   2.203   5.997 -1.1849 -1.0213  2.0177
 4114SOL    HW223976   0.127   2.278   5.984  0.7224 -1.1262 -0.4473
 4115SOL     OW23977   4.036   3.573   8.802  0.1106  0.3338  0.1704
 4115SOL    HW123978   3.985   3.502   8.842  0.7373 -0.1689  0.0892
 4115SOL    HW223979   4.015   3.643   8.864 -0.5658  1.6856 -1.5710
 4116SOL     OW23980   0.967   1.568  12.318  0.3073 -0.3708  0.1108
 4116SOL    HW123981   1.020   1.617  12.381  0.3258 -2.0072  1.3515
 4116SOL    HW223982   1.039   1.531  12.267  0.2456 -1.9268  1.1715
 4117SOL     OW23983   1.942   3.049   3.136  0.3490 -0.2025 -0.7839
 4117SOL    HW123984   1.894   3.116   3.185  0.9022  0.8508 -1.6716
 4117SOL    HW223985   2.032   3.049   3.169  0.8328 -0.9053 -2.0972
 4118SOL     OW23986   1.774   3.855   5.748 -0.0733  0.0579 -0.2231
 4118SOL    HW123987   1.771   3.885   5.657 -1.6340 -0.6577 -0.4058
 4118SOL    HW223988   1.824   3.928   5.783  0.8845 -0.6936 -0.0181
 4119SOL     OW23989   4.644   0.905   9.074 -0.0671  0.4795  0.4750
 4119SOL    HW123990   4.575   0.957   9.116  0.6240  0.8801  1.1056
 4119SOL    HW223991   4.690   0.874   9.152  0.8517 -2.0693 -1.0831
 4120SOL     OW23992   3.706   3.781   5.775  0.7754 -0.5332  0.2197
 4120SOL    HW123993   3.782   3.815   5.727 -1.4607  1.6330 -1.7859
 4120SOL    HW223994   3.642   3.805   5.708 -0.5869 -0.9864  1.3573
 4121SOL     OW23995   1.881   0.043   7.368 -0.1448 -0.1340 -0.4707
 4121SOL    HW123996   1.967   0.002   7.374 -0.8444 -1.5322 -0.0632
 4121SOL    HW223997   1.879   0.067   7.461 -1.2883 -2.7369  0.1694
 4122SOL     OW23998   1.976   2.600   5.710  0.5189  0.2617 -0.6813
 4122SOL    HW123999   2.029   2.520   5.707  2.1086  1.2572  1.1017
 4122SOL    HW224000   1.903   2.572   5.765  1.2625 -1.6866 -0.6839
 4123SOL     OW24001   1.557   2.926   3.181 -0.2821 -0.2845 -0.1348
 4123SOL    HW124002   1.608   2.945   3.259  0.9622 -0.5588 -0.8763
 4123SOL    HW224003   1.581   2.999   3.124  1.3093 -0.1267  0.7310
 4124SOL     OW24004   3.500   3.884   7.398 -0.3869  0.0553 -0.0640
 4124SOL    HW124005   3.520   3.969   7.436 -1.1372  1.2004 -2.2340
 4124SOL    HW224006   3.410   3.894   7.366  0.2152 -2.2129 -2.4567
 4125SOL     OW24007   4.411   3.204   6.801 -0.0135 -0.3093  0.0335
 4125SOL    HW124008   4.484   3.218   6.741  0.6498 -0.3760  0.8174
 4125SOL    HW224009   4.472   3.185   6.873  0.4599 -2.3863 -0.8964
 4126SOL     OW24010   0.522   0.007   0.176  0.0053 -0.0582 -0.0583
 4126SOL    HW124011   0.608   4.710   0.157 -0.1164 -0.7456  0.6968
 4126SOL    HW224012   0.463   4.671   0.167  0.7039 -0.4948 -0.9728
 4127SOL     OW24013   2.125   3.850   3.810 -0.1706 -0.2373 -0.3863
 4127SOL    HW124014   2.034   3.821   3.811  0.6313 -2.6905  2.1228
 4127SOL    HW224015   2.111   3.943   3.793 -2.1462 -0.8156 -1.8977
 4128SOL     OW24016   2.682   1.312   0.044 -0.2231 -0.5258  1.1485
 4128SOL    HW124017   2.680   1.304  17.703 -1.4845  1.5721  1.0171
 4128SOL    HW224018   2.607   1.368   0.065 -1.2889 -0.4504 -2.9731
 4129SOL     OW24019   0.856   3.350   9.417 -0.2896 -0.3615 -0.2207
 4129SOL    HW124020   0.760   3.348   9.409 -0.2983  2.0493 -0.6909
 4129SOL    HW224021   0.878   3.398   9.337  1.6104  2.8171  2.2289
 4130SOL     OW24022   3.010   1.079   5.231 -0.8606 -0.1188  0.2192
 4130SOL    HW124023   3.000   0.991   5.194 -0.7195 -0.6874  1.5416
 4130SOL    HW224024   2.942   1.121   5.178 -2.1344  0.5934  2.4225
 4131SOL     OW24025   2.517   2.328   5.580 -0.0072 -0.2191 -0.5054
 4131SOL    HW124026   2.510   2.246   5.629  0.4600  0.2593  0.3573
 4131SOL    HW224027   2.574   2.383   5.633  1.5681 -0.8096 -1.5880
 4132SOL     OW24028   3.041   3.445  11.550  0.3444  0.5678 -0.0870
 4132SOL    HW124029   2.953   3.445  11.512  0.3078  2.6830  0.0061
 4132SOL    HW224030   3.038   3.521  11.608  0.0303  0.8992 -0.5429
 4133SOL     OW24031   3.025   0.439  17.312 -0.5261 -0.3601  0.2443
 4133SOL    HW124032   3.118   0.460  17.306 -1.0656  1.8502 -0.4540
 4133SOL    HW224033   2.989   0.503  17.374 -1.3075 -0.1821 -0.3873
 4134SOL     OW24034   3.073   3.987   4.855 -0.2258  0.0191  0.1968
 4134SOL    HW124035   3.070   3.906   4.905 -0.7947  1.1013  1.9203
 4134SOL    HW224036   3.134   3.970   4.783 -0.4286 -0.2167  0.0829
 4135SOL     OW24037   1.921   4.198   4.619  0.2343 -0.5366 -0.1548
 4135SOL    HW124038   1.852   4.264   4.628  1.5674  0.9485 -0.7859
 4135SOL    HW224039   1.880   4.119   4.655  0.9206 -0.9588 -0.2934
 4136SOL     OW24040   0.174   2.948  10.218  0.9244 -0.3093 -0.4158
 4136SOL    HW124041   0.229   2.870  10.227  0.9717 -0.2484 -0.1546
 4136SOL    HW224042   0.223   3.014  10.266  0.7847 -0.9591  0.6514
 4137SOL     OW24043   3.646   3.160   2.138 -0.1737 -0.0052  0.3113
 4137SOL    HW124044   3.719   3.142   2.198 -1.2332  0.2852  1.6978
 4137SOL    HW224045   3.611   3.249   2.147 -0.2675  0.2280 -2.3979
 4138SOL     OW24046   0.134   3.370   3.266  0.1050  0.3594  0.1212
 4138SOL    HW124047   0.171   3.303   3.209 -0.7503 -0.8807  1.0134
 4138SOL    HW224048   0.118   3.441   3.205 -0.7801  0.8635  0.9413
 4139SOL     OW24049   2.216   4.428   8.193  0.6359 -0.0507  0.0515
 4139SOL    HW124050   2.199   4.452   8.102 -2.3151 -0.8157  0.3934
 4139SOL    HW224051   2.156   4.490   8.234  0.2203 -0.4554  0.0497
 4140SOL     OW24052   4.314   4.560   7.908  0.5641  0.0325  0.0435
 4140SOL    HW124053   4.248   4.594   7.968  1.0857 -1.9551  1.7160
 4140SOL    HW224054   4.392   4.609   7.934  0.4510  0.3031 -0.1297
 4141SOL     OW24055   0.977   0.549   8.830 -0.2535 -0.3955  0.4905
 4141SOL    HW124056   0.963   0.492   8.906  2.3464 -0.8818  0.6084
 4141SOL    HW224057   1.067   0.578   8.844 -0.9418  0.7222  2.5856
 4142SOL     OW24058   0.454   0.609   3.436  0.0612 -0.1403  0.2151
 4142SOL    HW124059   0.387   0.543   3.421  0.3161 -0.6611  1.3466
 4142SOL    HW224060   0.414   0.695   3.422 -0.1235  0.1933  2.8856
 4143SOL     OW24061   3.949   1.883   3.640  0.3025 -0.2933 -0.1478
 4143SOL    HW124062   3.940   1.955   3.579 -2.2125 -0.4315  0.0275
 4143SOL    HW224063   4.043   1.873   3.657  0.3282 -2.5452 -1.6691
 4144SOL     OW24064   4.581   4.591  13.812  0.0800  0.6601 -0.5704
 4144SOL    HW124065   4.547   4.583  13.723 -1.1883  2.8660 -0.2835
 4144SOL    HW224066   4.654   4.529  13.807 -1.0807 -1.2444  5.1214
 4145SOL     OW24067   0.670   3.693   9.727  0.5472 -0.0705 -0.3495
 4145SOL    HW124068   0.697   3.681   9.818 -0.1676 -1.3507 -0.3020
 4145SOL    HW224069   0.756   3.698   9.684  1.0001 -0.3905  0.5291
 4146SOL     OW24070   2.694   0.248   3.791 -0.2562  0.1885  0.1695
 4146SOL    HW124071   2.747   0.205   3.857 -1.6962  1.3339  2.0844
 4146SOL    HW224072   2.671   0.330   3.835 -0.7637  1.4527 -2.4288
 4147SOL     OW24073   2.098   0.007   6.824 -0.0776 -0.7715  0.8864
 4147SOL    HW124074   2.035   0.027   6.894 -2.5952 -1.3081 -1.2025
 4147SOL    HW224075   2.169   4.715   6.879  0.4592  0.1097  0.6986
 4148SOL     OW24076   1.795   1.337  15.033  0.3560  0.0131  0.5963
 4148SOL    HW124077   1.796   1.362  14.940 -0.2548 -1.7905  0.1210
 4148SOL    HW224078   1.872   1.282  15.026 -1.2328 -2.0613 -0.5395
 4149SOL     OW24079   2.903   1.725   4.580  0.1912  0.0076  0.1520
 4149SOL    HW124080   2.904   1.682   4.666 -0.3640  2.1572  1.2535
 4149SOL    HW224081   2.817   1.694   4.553  0.9556 -0.5096 -1.6416
 4150SOL     OW24082   2.069   0.603  10.485  0.6025 -0.0482 -0.4547
 4150SOL    HW124083   2.085   0.598  10.391  1.9830 -2.4799 -0.0990
 4150SOL    HW224084   1.974   0.591  10.488  0.5694  0.4302  0.2587
 4151SOL     OW24085   1.153   0.467   8.404 -0.1886 -0.2428 -0.3331
 4151SOL    HW124086   1.175   0.546   8.454 -0.8215 -0.9245  1.0152
 4151SOL    HW224087   1.207   0.474   8.326  0.6967  0.0411  0.3038
 4152SOL     OW24088   4.245   2.490  16.191  0.2764 -0.1107 -0.4113
 4152SOL    HW124089   4.288   2.573  16.213 -1.7998  1.0130 -0.5463
 4152SOL    HW224090   4.202   2.463  16.271  0.0874 -0.2104 -0.5463
 4153SOL     OW24091   4.329   2.735   1.855 -0.3929  0.2985 -0.3052
 4153SOL    HW124092   4.366   2.670   1.916 -0.4752  0.5629  0.0275
 4153SOL    HW224093   4.251   2.686   1.829 -0.7169  0.2959  0.6536
 4154SOL     OW24094   1.617   0.063   0.759 -0.2826  0.4951 -0.4059
 4154SOL    HW124095   1.687   0.121   0.728  0.5975 -1.9043 -2.9159
 4154SOL    HW224096   1.634   4.719   0.713 -0.4728 -0.6307  1.5752
 4155SOL     OW24097   2.280   1.429  12.555 -0.5048 -0.1651  0.0565
 4155SOL    HW124098   2.297   1.361  12.490  0.5299  1.5649 -1.4933
 4155SOL    HW224099   2.185   1.440  12.558 -0.4131  0.4106  0.8408
 4156SOL     OW24100   0.957   2.427   4.881  0.4679 -0.0134  0.6720
 4156SOL    HW124101   0.923   2.482   4.811 -0.1562  0.6433  1.4886
 4156SOL    HW224102   0.937   2.470   4.964  0.9303  1.1634  0.1691
 4157SOL     OW24103   0.049   3.392   8.368 -0.0623  0.0231 -0.3252
 4157SOL    HW124104   4.723   3.412   8.301 -1.5959  0.6064  1.3304
 4157SOL    HW224105   0.124   3.370   8.313 -0.7750 -3.1442 -0.0408
 4158SOL     OW24106   1.612   0.900   5.380 -0.1455  0.0802  0.5247
 4158SOL    HW124107   1.634   0.806   5.381 -0.2150  0.0809  1.8591
 4158SOL    HW224108   1.518   0.891   5.362  0.1455  2.0300 -1.9100
 4159SOL     OW24109   2.480   1.741   1.052 -0.3011 -0.0769  0.2428
 4159SOL    HW124110   2.450   1.680   0.984 -0.8831 -2.3490  2.5451
 4159SOL    HW224111   2.436   1.818   1.016 -1.2462 -1.5743 -1.8125
 4160SOL     OW24112   0.452   3.329   5.395  0.5178 -0.4449  0.4712
 4160SOL    HW124113   0.379   3.269   5.378  0.7534 -1.2636  2.4268
 4160SOL    HW224114   0.507   3.282   5.456  0.6971 -2.6133 -1.3623
 4161SOL     OW24115   3.758   3.862   0.247  0.4492 -0.5138 -0.3939
 4161SOL    HW124116   3.693   3.820   0.190 -0.9838 -0.6799  1.3407
 4161SOL    HW224117   3.756   3.798   0.319 -2.6405  1.3934  1.2342
 4162SOL     OW24118   1.107   3.776   4.562  0.9466 -0.3313  0.4745
 4162SOL    HW124119   1.023   3.772   4.517  1.5910 -2.1072 -0.5973
 4162SOL    HW224120   1.103   3.695   4.614  0.9358  0.2891  1.4434
 4163SOL     OW24121   0.743   3.763  15.560 -0.1052 -0.3428  0.6337
 4163SOL    HW124122   0.781   3.719  15.636  0.3832 -1.2370 -0.1222
 4163SOL    HW224123   0.820   3.794  15.512 -0.8598  0.9636  0.2832
 4164SOL     OW24124   4.329   4.384   5.075  0.1290 -0.2634  0.3661
 4164SOL    HW124125   4.290   4.360   4.991 -1.0852  1.3503  0.4759
 4164SOL    HW224126   4.344   4.475   5.050  1.1982 -0.6171 -0.3189
 4165SOL     OW24127   3.430   0.370   4.107 -0.4172 -0.3965 -0.3853
 4165SOL    HW124128   3.358   0.425   4.136  1.3530  0.5031  2.2771
 4165SOL    HW224129   3.420   0.287   4.155  1.6123  1.5543  3.3988
 4166SOL     OW24130   0.137   3.852   8.835 -0.4340 -0.2328 -0.0352
 4166SOL    HW124131   0.209   3.914   8.826  0.4781 -0.9024  2.6133
 4166SOL    HW224132   0.102   3.869   8.922 -1.6522 -0.3587 -0.5054
 4167SOL     OW24133   1.747   1.930  12.514  0.3710 -0.7393 -0.7400
 4167SOL    HW124134   1.815   1.980  12.468 -0.7874  3.9136  2.5993
 4167SOL    HW224135   1.785   1.843  12.506  2.1362 -0.0374 -0.0336
 4168SOL     OW24136   3.130   0.002   2.737  0.2646 -0.1032 -0.1090
 4168SOL    HW124137   3.122   0.085   2.690  1.4282 -0.3521 -0.7583
 4168SOL    HW224138   3.148   4.676   2.669 -1.6533 -1.1839  0.4372
 4169SOL     OW24139   0.308   0.025   2.927 -0.5371 -0.2803 -0.2038
 4169SOL    HW124140   0.340   0.005   3.015  1.4702  1.5296 -0.5289
 4169SOL    HW224141   0.332   0.117   2.921  0.6212 -0.4575  1.5977
 4170SOL     OW24142   1.286   2.948   7.806 -0.6761 -0.6001  0.3037
 4170SOL    HW124143   1.311   2.975   7.895 -2.1876 -2.7350  1.3788
 4170SOL    HW224144   1.352   2.881   7.790  0.3160  0.7173 -1.1135
 4171SOL     OW24145   0.779   1.928   4.599 -0.1440  0.5387  0.0069
 4171SOL    HW124146   0.836   1.975   4.660  1.5712 -0.8755 -0.5203
 4171SOL    HW224147   0.838   1.913   4.526 -1.2657  0.5094 -0.8967
 4172SOL     OW24148   3.182   4.576   7.895  0.5392 -0.4733 -0.2104
 4172SOL    HW124149   3.171   4.663   7.933 -0.8482 -1.3743  1.4710
 4172SOL    HW224150   3.090   4.550   7.885 -0.5215  3.3543 -0.4194
 4173SOL     OW24151   2.388   0.705   7.336 -0.3254  0.1254  0.1413
 4173SOL    HW124152   2.378   0.637   7.269 -1.5143 -0.4459  0.8819
 4173SOL    HW224153   2.300   0.709   7.375 -0.2793 -3.4148  0.6285
 4174SOL     OW24154   3.810   2.115   6.386  0.0867  0.4289  0.6571
 4174SOL    HW124155   3.846   2.028   6.370  1.3279  0.8912  0.9029
 4174SOL    HW224156   3.781   2.139   6.298  3.0364  0.2766 -0.3530
 4175SOL     OW24157   1.781   1.180   4.240 -0.6532  0.2660  0.1702
 4175SOL    HW124158   1.853   1.225   4.284 -0.8737 -0.5898  1.3972
 4175SOL    HW224159   1.816   1.173   4.151 -1.7886 -0.1742 -0.2422
 4176SOL     OW24160   2.841   0.287   0.408 -0.1919 -0.6400  0.3748
 4176SOL    HW124161   2.834   0.265   0.501 -1.0913 -1.3299  0.1373
 4176SOL    HW224162   2.794   0.207   0.387  0.2436 -1.0516  0.9328
 4177SOL     OW24163   1.289   3.355   2.024  0.1492  0.0176  0.0773
 4177SOL    HW124164   1.338   3.434   2.045  1.9571 -0.7916 -1.1209
 4177SOL    HW224165   1.345   3.289   2.066  0.0932 -0.0011  0.1238
 4178SOL     OW24166   0.523   3.597   6.490 -0.3757 -0.0803  0.6267
 4178SOL    HW124167   0.545   3.509   6.522  0.9750  0.1782  0.4061
 4178SOL    HW224168   0.441   3.620   6.535  0.3523 -0.4526  2.1640
 4179SOL     OW24169   0.720   2.851   2.025  0.0987  0.0391 -0.0599
 4179SOL    HW124170   0.740   2.937   2.063 -1.6958  1.3267 -2.0412
 4179SOL    HW224171   0.720   2.872   1.932  0.6513 -0.3355 -0.1451
 4180SOL     OW24172   1.577   1.680  13.453  0.2888  0.3309 -0.5821
 4180SOL    HW124173   1.580   1.776  13.455  1.2764  0.2624  0.9624
 4180SOL    HW224174   1.497   1.654  13.498 -0.9359  0.5074 -2.6154
 4181SOL     OW24175   1.880   2.550   9.131  0.0071 -0.0478 -0.3794
 4181SOL    HW124176   1.928   2.632   9.121  0.8353 -0.4003  0.7033
 4181SOL    HW224177   1.803   2.582   9.180 -0.3267 -0.4187 -0.6638
 4182SOL     OW24178   2.259   3.137   0.604  0.1456  0.8672  0.0900
 4182SOL    HW124179   2.315   3.212   0.586  0.8258  0.3301 -0.0278
 4182SOL    HW224180   2.248   3.145   0.699  2.7598  0.5517  0.4247
 4183SOL     OW24181   3.538   1.164  10.587 -0.1838  0.2922 -0.1431
 4183SOL    HW124182   3.522   1.071  10.573 -0.4949  0.4440 -0.7715
 4183SOL    HW224183   3.507   1.176  10.677  0.3162  0.4489  0.0065
 4184SOL     OW24184   2.488   1.185   2.954 -0.1774 -0.2391 -0.6741
 4184SOL    HW124185   2.421   1.247   2.927  0.2386  1.1885  1.5478
 4184SOL    HW224186   2.512   1.137   2.875 -0.7689 -2.2497  0.3435
 4185SOL     OW24187   2.330   1.562   6.852  0.8370  0.4953 -0.2203
 4185SOL    HW124188   2.304   1.614   6.776 -1.1825 -1.8886 -1.1507
 4185SOL    HW224189   2.426   1.564   6.848  0.7992  0.3749 -1.0931
 4186SOL     OW24190   1.315   3.309   9.518  0.1160  0.2117  0.2972
 4186SOL    HW124191   1.282   3.222   9.495  0.8490  0.0918 -0.3336
 4186SOL    HW224192   1.256   3.364   9.466  2.3412  2.5001  0.1901
 4187SOL     OW24193   4.235   2.835   8.025 -0.1555 -0.9400  0.2103
 4187SOL    HW124194   4.237   2.931   8.032  2.1353 -1.1435  2.2149
 4187SOL    HW224195   4.324   2.800   8.024 -0.5939 -2.0434 -1.6442
 4188SOL     OW24196   1.440   0.095   7.018  0.9257  0.2404 -0.3343
 4188SOL    HW124197   1.468   0.007   6.991  0.4727  0.0034 -0.0458
 4188SOL    HW224198   1.452   0.149   6.940 -0.5692 -1.7787 -1.9674
 4189SOL     OW24199   2.941   3.599   7.887  0.0853  0.6382 -0.0941
 4189SOL    HW124200   2.914   3.621   7.798  1.3239  0.6232 -0.4698
 4189SOL    HW224201   2.966   3.510   7.865 -4.6854 -0.8355  0.3903
 4190SOL     OW24202   4.629   0.114   9.363  0.3460  0.1155 -0.6610
 4190SOL    HW124203   4.713   0.131   9.321  0.3648  1.2311 -0.1461
 4190SOL    HW224204   4.578   0.133   9.284 -1.0961 -0.0574  0.2272
 4191SOL     OW24205   2.196   1.104   4.087  0.7953 -0.1391 -0.0574
 4191SOL    HW124206   2.246   1.067   4.158 -1.3981  1.5002  2.3513
 4191SOL    HW224207   2.248   1.179   4.057  0.2163  1.3083  2.5958
 4192SOL     OW24208   4.677   4.228   7.301 -0.3009 -0.3611  0.4814
 4192SOL    HW124209   4.678   4.315   7.340 -0.5822 -0.2228  0.1769
 4192SOL    HW224210   4.586   4.222   7.272 -0.2664  0.0679  0.2786
 4193SOL     OW24211   0.067   2.406  17.163  0.1260  0.1694  0.2265
 4193SOL    HW124212   0.078   2.345  17.091 -2.9875  1.5835 -1.4671
 4193SOL    HW224213   0.061   2.491  17.119 -2.0552 -0.2819 -0.3688
 4194SOL     OW24214   2.643   1.035  10.866 -0.2336 -0.2040  0.3409
 4194SOL    HW124215   2.670   0.984  10.943 -0.6774 -0.2580  0.4608
 4194SOL    HW224216   2.614   1.115  10.911 -3.1036 -0.5162 -0.9371
 4195SOL     OW24217   4.306   1.604   6.592 -0.0156  0.3819 -0.4108
 4195SOL    HW124218   4.302   1.686   6.544  1.9838  1.1325  0.7022
 4195SOL    HW224219   4.335   1.539   6.529  2.0310  1.6325 -0.7786
 4196SOL     OW24220   3.820   2.733   0.089  0.5138  0.2700 -0.0275
 4196SOL    HW124221   3.738   2.726   0.138 -0.6708 -2.2672 -2.3710
 4196SOL    HW224222   3.807   2.665   0.022  0.2418 -0.1292  0.4317
 4197SOL     OW24223   4.707   4.382   2.580 -0.4742 -0.0149 -0.8646
 4197SOL    HW124224   4.635   4.323   2.557 -0.1518 -0.4443 -0.7616
 4197SOL    HW224225   4.683   4.471   2.555  1.2591  0.8327  0.5332
 4198SOL     OW24226   1.093   1.655  16.471  0.9157  0.3504  0.4195
 4198SOL    HW124227   1.152   1.690  16.538  0.4884  1.3493  0.2741
 4198SOL    HW224228   1.013   1.615  16.506  1.4137 -0.6367  0.4331
 4199SOL     OW24229   1.761   1.786   3.437  0.0067 -0.2001 -0.3581
 4199SOL    HW124230   1.691   1.846   3.464  0.9327  0.2409  1.0806
 4199SOL    HW224231   1.788   1.841   3.364 -2.2190  0.6086 -0.5867
 4200SOL     OW24232   4.579   0.523  14.700  0.0873  0.1401 -0.0169
 4200SOL    HW124233   4.660   0.557  14.664 -0.1367  0.3655 -0.3121
 4200SOL    HW224234   4.552   0.594  14.759  1.5939 -0.2222  1.1074
 4201SOL     OW24235   4.416   4.471   7.657  0.2851  0.3099  0.5627
 4201SOL    HW124236   4.479   4.441   7.722  1.6136  1.5776 -0.1435
 4201SOL    HW224237   4.379   4.537   7.716 -1.1298 -0.0986  0.1329
 4202SOL     OW24238   3.744   0.354   3.899 -0.3756  0.1549 -0.2596
 4202SOL    HW124239   3.832   0.326   3.925  0.2778  1.4178 -1.0946
 4202SOL    HW224240   3.716   0.406   3.974  0.5650  2.1867 -1.3088
 4203SOL     OW24241   2.091   0.085  12.583  0.7531 -0.7145  0.4571
 4203SOL    HW124242   2.121   0.083  12.674  0.9446  1.2820  0.4427
 4203SOL    HW224243   2.175   0.079  12.540  0.0184 -2.3837 -0.7205
 4204SOL     OW24244   3.587   0.504   2.818 -0.0669 -0.0478 -0.4787
 4204SOL    HW124245   3.526   0.491   2.745  2.6871 -1.2890 -2.5520
 4204SOL    HW224246   3.532   0.543   2.886 -0.2476 -2.2849  0.6766
 4205SOL     OW24247   4.643   0.334  16.038  0.2606 -0.1108 -0.2413
 4205SOL    HW124248   4.552   0.323  16.068 -0.8265  0.0453 -3.4558
 4205SOL    HW224249   4.638   0.381  15.954  2.9627 -2.5747 -1.7864
 4206SOL     OW24250   0.254   3.949  12.430  0.5706  0.4971  0.0384
 4206SOL    HW124251   0.190   3.911  12.490  0.3773 -0.1542 -0.5936
 4206SOL    HW224252   0.247   4.042  12.452 -0.8239  0.2067  0.8123
 4207SOL     OW24253   3.342   3.136   0.758 -0.2601  0.2215 -0.1291
 4207SOL    HW124254   3.351   3.110   0.850  1.3585 -3.1818 -1.2322
 4207SOL    HW224255   3.382   3.057   0.721 -1.8724 -1.0229  0.7962
 4208SOL     OW24256   0.484   3.210   3.789  0.6582  0.3232  0.4965
 4208SOL    HW124257   0.556   3.149   3.774  1.1813  1.1852 -0.5243
 4208SOL    HW224258   0.412   3.154   3.816  0.5514 -0.2238 -0.9035
 4209SOL     OW24259   3.025   3.287  10.445 -0.3771  0.4815 -0.6529
 4209SOL    HW124260   3.069   3.320  10.524 -0.9438 -1.3410  0.4035
 4209SOL    HW224261   2.954   3.236  10.482  0.0671  0.5235  0.2642
 4210SOL     OW24262   2.017   0.116   9.619  0.2050  0.6522 -0.6880
 4210SOL    HW124263   2.063   0.197   9.643 -0.2510  1.1632 -1.5418
 4210SOL    HW224264   2.019   0.078   9.707  1.1306 -1.1903 -1.5021
 4211SOL     OW24265   2.142   1.068   6.696  0.4476 -0.6752  0.0090
 4211SOL    HW124266   2.230   1.061   6.732  0.8315  2.7758 -0.3511
 4211SOL    HW224267   2.097   1.056   6.780  0.1230 -1.2197 -0.2376
 4212SOL     OW24268   4.536   0.770   8.853  0.3677  0.1223 -0.4549
 4212SOL    HW124269   4.597   0.794   8.923 -1.0622 -0.7205  1.0883
 4212SOL    HW224270   4.476   0.706   8.891 -0.8389  1.8059  0.4688
 4213SOL     OW24271   1.127   2.983   7.527  0.5381  0.2051  0.2493
 4213SOL    HW124272   1.060   2.999   7.461  0.3148  0.8510  0.6257
 4213SOL    HW224273   1.155   2.894   7.507  0.3806 -0.0124  0.9994
 4214SOL     OW24274   0.958   0.087   6.093 -0.0199 -0.2644 -0.4820
 4214SOL    HW124275   1.045   0.094   6.132  0.0712 -1.7556 -0.4276
 4214SOL    HW224276   0.957   0.158   6.030 -0.2211  0.6304  0.5321
 4215SOL     OW24277   1.152   1.963   2.047  0.1319 -0.1119  0.2582
 4215SOL    HW124278   1.099   2.042   2.055 -0.9416 -1.0038  1.8725
 4215SOL    HW224279   1.119   1.912   2.121 -0.2244 -2.6745 -1.6625
 4216SOL     OW24280   0.115   3.692   7.175  0.2335 -0.6810 -0.2987
 4216SOL    HW124281   0.073   3.637   7.109  0.5017 -1.6634  0.3469
 4216SOL    HW224282   0.047   3.759   7.188 -0.8240 -1.4986 -1.6751
 4217SOL     OW24283   4.627   1.392   2.514 -0.2733 -0.3341  0.2700
 4217SOL    HW124284   4.576   1.338   2.453 -0.9597  1.8195 -1.0441
 4217SOL    HW224285   4.569   1.392   2.591 -0.1997 -0.0482  0.3242
 4218SOL     OW24286   3.611   2.451   5.070 -0.3276  0.7220  0.6588
 4218SOL    HW124287   3.697   2.424   5.103 -0.4150  1.2625  1.3252
 4218SOL    HW224288   3.606   2.398   4.991 -0.3420  1.3021  0.2653
 4219SOL     OW24289   0.787   4.588   8.566  0.1539 -0.2428 -0.2895
 4219SOL    HW124290   0.821   4.556   8.483 -1.5675 -0.1569 -1.0151
 4219SOL    HW224291   0.782   4.681   8.544  0.9690  0.4699  2.4188
 4220SOL     OW24292   1.745   2.311   8.180 -0.5190  0.0264  0.3057
 4220SOL    HW124293   1.775   2.248   8.114 -4.4801 -2.1569  0.5987
 4220SOL    HW224294   1.790   2.286   8.260  0.7386  0.7462 -0.1751
 4221SOL     OW24295   4.340   4.314   9.444  0.0470 -0.7821  0.2670
 4221SOL    HW124296   4.313   4.405   9.456  1.4286 -0.5711  1.8331
 4221SOL    HW224297   4.414   4.317   9.383 -1.3462  2.1401 -1.2566
 4222SOL     OW24298   1.736   3.531   8.517  0.0818 -0.8577  0.0082
 4222SOL    HW124299   1.790   3.497   8.445  2.5244  0.6137  1.1390
 4222SOL    HW224300   1.658   3.476   8.509  0.7187 -1.6320 -0.8437
 4223SOL     OW24301   2.544   3.516  15.226 -0.3755  0.1191 -0.8655
 4223SOL    HW124302   2.628   3.478  15.251  0.5404  1.2850 -2.1350
 4223SOL    HW224303   2.561   3.607  15.201  0.8485  0.3391  0.7385
 4224SOL     OW24304   1.469   0.609  15.838  0.1603  0.5435  0.1343
 4224SOL    HW124305   1.473   0.579  15.747 -0.8007  0.3136  0.1625
 4224SOL    HW224306   1.562   0.619  15.856  0.6057 -1.2916 -1.1657
 4225SOL     OW24307   4.403   1.635  10.814  0.4496 -0.2551 -0.9806
 4225SOL    HW124308   4.498   1.637  10.814  0.3848  2.2324  0.2712
 4225SOL    HW224309   4.391   1.544  10.841 -0.2000 -0.4162 -1.7857
 4226SOL     OW24310   2.508   1.216  15.566 -0.0669 -0.4461 -0.0024
 4226SOL    HW124311   2.533   1.213  15.474 -0.2180  0.8435 -0.0800
 4226SOL    HW224312   2.529   1.304  15.596  0.6663 -0.3114 -0.9266
 4227SOL     OW24313   0.713   3.455   0.300 -0.2272 -0.0552  0.2094
 4227SOL    HW124314   0.634   3.459   0.353 -0.5315 -0.6859 -0.1931
 4227SOL    HW224315   0.722   3.547   0.276 -0.0937  0.2010  1.2332
 4228SOL     OW24316   4.186   4.020   4.168 -0.2839 -1.1289  0.1925
 4228SOL    HW124317   4.204   4.084   4.099  1.1390 -1.7509 -0.0092
 4228SOL    HW224318   4.276   3.998   4.194  0.4296  0.9914 -0.4834
 4229SOL     OW24319   4.717   2.339   5.515 -0.0552  0.1830  0.1631
 4229SOL    HW124320   4.680   2.302   5.435  0.0400 -0.4595  0.4094
 4229SOL    HW224321   0.067   2.364   5.488 -0.7731  1.6068 -0.8277
 4230SOL     OW24322   1.498   2.813   3.991 -0.2069  0.7647  0.0647
 4230SOL    HW124323   1.466   2.890   4.038 -0.1250  0.4599  0.6271
 4230SOL    HW224324   1.539   2.850   3.913  1.0315  0.9252  0.7884
 4231SOL     OW24325   2.718   3.299   3.978 -0.1197  0.4548 -0.1450
 4231SOL    HW124326   2.769   3.240   4.035 -0.3984 -0.9396 -1.3288
 4231SOL    HW224327   2.772   3.378   3.983  1.8182 -0.7870 -1.2182
 4232SOL     OW24328   1.417   0.206   9.073 -0.0758  0.0844  0.3668
 4232SOL    HW124329   1.405   0.167   8.986  0.6714 -0.7651  0.6374
 4232SOL    HW224330   1.506   0.237   9.060  0.5040 -1.2340  1.2090
 4233SOL     OW24331   0.938   4.296  10.806 -0.3834 -0.2212  0.1481
 4233SOL    HW124332   1.030   4.317  10.822 -0.3735  0.0352 -0.2517
 4233SOL    HW224333   0.932   4.316  10.712  0.5471 -0.2048  0.0917
 4234SOL     OW24334   2.305   1.498   6.512  0.2429 -0.3646  0.0366
 4234SOL    HW124335   2.387   1.498   6.464 -0.2718  0.8540 -0.8471
 4234SOL    HW224336   2.308   1.583   6.555  2.4970 -0.0513 -0.7698
 4235SOL     OW24337   1.735   0.466  15.841 -0.2718  0.0385  0.6861
 4235SOL    HW124338   1.758   0.544  15.789  0.0011  2.0978  3.8668
 4235SOL    HW224339   1.686   0.417  15.775  3.6606  0.4741 -2.5980
 4236SOL     OW24340   3.965   3.442   3.511  0.1669 -0.1550 -0.1161
 4236SOL    HW124341   3.952   3.536   3.502  1.3891  0.2120  2.0424
 4236SOL    HW224342   4.039   3.431   3.450 -1.0822  0.2788 -1.7216
 4237SOL     OW24343   2.433   4.428  11.461 -0.0276  0.5034  0.0255
 4237SOL    HW124344   2.498   4.494  11.435  0.6790  0.2132  1.0402
 4237SOL    HW224345   2.485   4.349  11.477 -0.7110  0.0771  0.1128
 4238SOL     OW24346   1.395   1.229   4.129  0.3358  0.3282 -0.2505
 4238SOL    HW124347   1.439   1.250   4.211 -1.1052 -1.9637  1.1124
 4238SOL    HW224348   1.335   1.304   4.125 -0.6261 -0.4189  0.0631
 4239SOL     OW24349   3.136   2.957   2.409 -0.1549  0.1577  0.0415
 4239SOL    HW124350   3.116   2.866   2.429 -2.2406  0.8810  1.3041
 4239SOL    HW224351   3.224   2.947   2.373 -0.5813 -3.5389  0.0134
 4240SOL     OW24352   2.152   0.306   9.725  0.4228  0.1526 -0.7546
 4240SOL    HW124353   2.235   0.258   9.726  0.9737  1.0816 -2.7988
 4240SOL    HW224354   2.156   0.356   9.807  1.4577 -1.9732  0.4888
 4241SOL     OW24355   1.036   1.024   3.113  0.1142 -0.0054 -0.7384
 4241SOL    HW124356   1.067   1.056   3.198 -2.5483 -0.0513  0.2720
 4241SOL    HW224357   1.009   1.101   3.064 -0.9692 -0.3658 -0.7050
 4242SOL     OW24358   4.593   0.685   1.507 -0.0931 -0.1945  0.1678
 4242SOL    HW124359   4.585   0.756   1.442  1.0739  0.0500  0.3000
 4242SOL    HW224360   4.516   0.631   1.488 -0.6720 -0.1213  2.3308
 4243SOL     OW24361   0.836   4.229   7.630  0.0633  0.0930 -0.6565
 4243SOL    HW124362   0.803   4.275   7.553  0.3803 -0.1717 -0.9544
 4243SOL    HW224363   0.833   4.296   7.698  1.1529  1.6721 -2.1512
 4244SOL     OW24364   4.012   2.532  11.950  0.0773 -0.3621 -0.0322
 4244SOL    HW124365   4.103   2.512  11.973  0.4144 -0.2069 -1.2074
 4244SOL    HW224366   4.020   2.528  11.854  0.6776 -0.5016  0.0204
 4245SOL     OW24367   2.923   0.324   6.378 -0.5149  0.2413 -0.2020
 4245SOL    HW124368   3.016   0.303   6.374 -1.4194 -2.9508 -3.5885
 4245SOL    HW224369   2.894   0.281   6.297  0.0688  0.8870 -0.7476
 4246SOL     OW24370   3.173   2.926   9.548 -0.1961 -0.0688  0.5992
 4246SOL    HW124371   3.183   3.012   9.508 -0.7500 -0.3460 -0.1349
 4246SOL    HW224372   3.089   2.950   9.587 -0.5431  0.9624 -0.7898
 4247SOL     OW24373   3.523   1.105   4.166 -0.3485  0.5497 -0.0632
 4247SOL    HW124374   3.555   1.165   4.234 -0.7883 -0.4919  1.0692
 4247SOL    HW224375   3.455   1.053   4.210  0.2901 -1.4091 -1.4199
 4248SOL     OW24376   1.179   2.401   8.944  0.1638 -0.4516  0.0355
 4248SOL    HW124377   1.196   2.435   9.031 -1.1060  2.5734 -0.9032
 4248SOL    HW224378   1.255   2.349   8.916  0.0239 -0.8829  0.4520
 4249SOL     OW24379   0.022   0.579   8.683 -0.0488 -0.0751 -0.7912
 4249SOL    HW124380   0.028   0.573   8.779 -0.6241 -0.4077 -0.7738
 4249SOL    HW224381   0.113   0.588   8.657 -0.4523 -0.6652 -2.3705
 4250SOL     OW24382   4.487   2.764  12.044  0.1311 -0.4653 -0.1459
 4250SOL    HW124383   4.505   2.757  12.138  0.0477  2.0296  0.0405
 4250SOL    HW224384   4.396   2.736  12.053  0.0016 -0.1153 -0.3696
 4251SOL     OW24385   3.526   2.399  13.295  0.2696  0.1331  0.9021
 4251SOL    HW124386   3.606   2.446  13.275 -0.2713  0.1743 -1.1671
 4251SOL    HW224387   3.495   2.471  13.351 -1.2817 -0.6137  1.0177
 4252SOL     OW24388   4.098   4.301   9.756  0.5643 -0.0981 -0.1278
 4252SOL    HW124389   4.088   4.231   9.821  0.2167  0.7108  0.6822
 4252SOL    HW224390   4.119   4.240   9.686  0.3972 -0.4645  0.1402
 4253SOL     OW24391   1.955   3.374   3.664 -0.5473 -0.7296  0.1888
 4253SOL    HW124392   1.961   3.317   3.740 -0.3592 -0.8645  0.0727
 4253SOL    HW224393   2.010   3.445   3.697 -0.6006  0.0055 -1.2919
 4254SOL     OW24394   3.233   0.171  16.193  0.7008  0.6062 -0.2686
 4254SOL    HW124395   3.166   0.232  16.161  0.6970  0.6463 -0.1862
 4254SOL    HW224396   3.292   0.167  16.119 -2.3352 -1.5806 -2.5726
 4255SOL     OW24397   0.825   1.221   9.121 -0.0617 -0.3475 -0.5510
 4255SOL    HW124398   0.815   1.268   9.203 -0.1610  0.9349 -1.2886
 4255SOL    HW224399   0.735   1.205   9.093 -0.1638 -0.6236 -0.0458
 4256SOL     OW24400   1.556   2.216   9.755 -0.1753 -0.2389 -0.1378
 4256SOL    HW124401   1.474   2.167   9.752 -0.1331 -0.3078 -0.1620
 4256SOL    HW224402   1.588   2.201   9.844 -0.1465 -0.4007 -0.1749
 4257SOL     OW24403   2.717   0.390   8.344  0.2300  0.2450  0.1779
 4257SOL    HW124404   2.666   0.471   8.352 -0.0999 -0.0414  1.0373
 4257SOL    HW224405   2.684   0.338   8.417 -2.0068  0.2422 -0.8541
 4258SOL     OW24406   1.802   0.035   3.197  0.1264  0.1410 -0.3911
 4258SOL    HW124407   1.855   0.113   3.182  0.4662 -0.1304 -0.5874
 4258SOL    HW224408   1.744   0.063   3.268 -2.1309  0.3703 -2.3228
 4259SOL     OW24409   0.527   2.968   7.357 -0.5173 -0.2947 -0.9525
 4259SOL    HW124410   0.618   2.999   7.356 -0.2047 -1.2077 -0.4610
 4259SOL    HW224411   0.540   2.876   7.379 -1.7386 -0.2856 -0.2362
 4260SOL     OW24412   3.586   3.082  15.407 -0.1798 -0.4419 -0.0484
 4260SOL    HW124413   3.661   3.139  15.422  0.6426 -1.6635  0.4721
 4260SOL    HW224414   3.590   3.030  15.486 -0.9614 -0.2110  0.1425
 4261SOL     OW24415   2.876   2.913  17.017  0.1656 -0.0121 -0.1814
 4261SOL    HW124416   2.824   2.915  16.936  0.5839  0.7966 -0.4299
 4261SOL    HW224417   2.863   2.823  17.045 -3.8735  1.3078  2.1717
 4262SOL     OW24418   3.853   1.983   0.348  0.1045  0.0642 -0.0900
 4262SOL    HW124419   3.814   2.046   0.408 -1.2436  0.3759 -1.2950
 4262SOL    HW224420   3.800   1.903   0.350 -0.7391  0.6675  1.4738
 4263SOL     OW24421   0.571   1.835   4.004 -0.7788 -0.7438  0.3637
 4263SOL    HW124422   0.496   1.779   4.024 -2.6865  1.0715 -1.8100
 4263SOL    HW224423   0.539   1.868   3.920  1.3267 -1.7638 -0.8536
 4264SOL     OW24424   4.425   4.075   0.517 -0.1261 -0.4532 -0.4835
 4264SOL    HW124425   4.392   3.986   0.507 -1.9434  0.0099  1.3280
 4264SOL    HW224426   4.373   4.099   0.594 -0.5987 -1.4026 -0.5139
 4265SOL     OW24427   1.788   1.657   5.142  0.8672 -0.1640  0.5594
 4265SOL    HW124428   1.706   1.693   5.109 -0.0317 -2.6373  0.1087
 4265SOL    HW224429   1.842   1.734   5.162  2.0963 -0.9261  0.1336
 4266SOL     OW24430   0.531   1.855   4.700 -0.1238 -0.0930 -0.0880
 4266SOL    HW124431   0.484   1.881   4.621 -2.3693 -0.7300  1.0193
 4266SOL    HW224432   0.601   1.918   4.685  1.1222 -1.5492 -0.3616
 4267SOL     OW24433   2.607   1.897   6.360 -0.0461 -0.3992  0.0047
 4267SOL    HW124434   2.527   1.844   6.361 -0.8456  0.8168  0.5090
 4267SOL    HW224435   2.660   1.854   6.427 -1.8913 -1.9813  0.4356
 4268SOL     OW24436   2.185   1.574   5.497  0.3037 -0.3040 -0.6143
 4268SOL    HW124437   2.280   1.572   5.505  0.3681 -1.7581 -1.6326
 4268SOL    HW224438   2.190   1.641   5.428 -1.0842 -0.4798 -0.8766
 4269SOL     OW24439   3.462   3.128  15.969 -0.0889  0.1185 -0.0158
 4269SOL    HW124440   3.501   3.045  15.940  1.1113 -0.1922  2.5174
 4269SOL    HW224441   3.412   3.149  15.890 -0.7368 -1.2636  0.0224
 4270SOL     OW24442   3.620   1.240   5.409  0.0454  0.0413 -0.5243
 4270SOL    HW124443   3.546   1.295   5.435  1.9391  1.9381  0.8150
 4270SOL    HW224444   3.617   1.245   5.313 -1.1738  2.0025 -0.3764
 4271SOL     OW24445   3.150   1.643   8.984  0.3257 -0.4761  0.3888
 4271SOL    HW124446   3.239   1.676   8.997 -0.6292  2.0153  0.6913
 4271SOL    HW224447   3.157   1.605   8.896 -1.5672 -0.8505  0.3965
 4272SOL     OW24448   4.674   4.477   3.920  0.0262  0.3287 -0.6229
 4272SOL    HW124449   4.594   4.457   3.872  0.5195 -1.0078 -0.8808
 4272SOL    HW224450   4.697   4.562   3.883 -1.1768  0.8396 -0.2251
 4273SOL     OW24451   1.897   1.147  13.391 -0.6865 -0.4076 -0.1048
 4273SOL    HW124452   1.867   1.201  13.318  1.3519 -0.6871 -1.1620
 4273SOL    HW224453   1.848   1.180  13.466  1.5921 -0.2096  1.3018
 4274SOL     OW24454   1.059   3.813   5.995  0.3931 -0.0376  0.0461
 4274SOL    HW124455   1.120   3.866   5.943  0.3074  1.1267  1.1418
 4274SOL    HW224456   0.998   3.872   6.039  0.7891  1.4186 -1.3161
 4275SOL     OW24457   4.487   0.069   8.342  0.3501 -0.5741  0.3880
 4275SOL    HW124458   4.528   4.722   8.341 -0.1190 -0.7640 -1.9362
 4275SOL    HW224459   4.555   0.123   8.383  1.5400  0.8545 -3.4317
 4276SOL     OW24460   1.103   1.605  15.772 -0.0019 -0.0529  0.8656
 4276SOL    HW124461   1.153   1.524  15.770  1.6848  0.9908  1.3008
 4276SOL    HW224462   1.163   1.654  15.829  0.7398  1.7229 -1.4298
 4277SOL     OW24463   2.080   0.205   4.943  0.1611 -0.3982 -1.2269
 4277SOL    HW124464   2.148   0.171   5.001 -0.1949  0.3341 -0.3752
 4277SOL    HW224465   2.125   0.265   4.883 -0.5312  1.7428  0.3788
 4278SOL     OW24466   3.958   0.637   5.296 -0.7045  0.0333  0.3959
 4278SOL    HW124467   3.888   0.689   5.334 -1.5082  0.9973 -2.3759
 4278SOL    HW224468   3.969   0.684   5.213  2.1435  0.7163  1.1629
 4279SOL     OW24469   1.369   4.477   8.125  0.7712  0.0999  0.4060
 4279SOL    HW124470   1.444   4.435   8.166  0.2343 -0.6150  0.6477
 4279SOL    HW224471   1.314   4.494   8.202  1.5012  0.9333  0.7504
 4280SOL     OW24472   3.710   1.746  16.379  0.3229 -0.1468  0.0571
 4280SOL    HW124473   3.641   1.743  16.445 -0.8885  1.7034 -1.1458
 4280SOL    HW224474   3.676   1.685  16.315  0.3285 -0.6288  0.5099
 4281SOL     OW24475   4.567   3.746  13.086 -0.7091 -0.5251  0.0687
 4281SOL    HW124476   4.573   3.839  13.107 -3.9077 -0.5919  1.2430
 4281SOL    HW224477   4.493   3.720  13.141 -1.2538  0.2699 -0.3020
 4282SOL     OW24478   4.536   0.814  16.513 -0.0952  0.2101  0.0739
 4282SOL    HW124479   4.605   0.831  16.449 -0.3607 -0.1028 -0.2982
 4282SOL    HW224480   4.583   0.751  16.568 -0.9684 -0.6238 -0.1160
 4283SOL     OW24481   3.420   0.585   3.509 -0.0244 -1.1808  0.2183
 4283SOL    HW124482   3.493   0.594   3.570  1.2501  0.9094 -1.6374
 4283SOL    HW224483   3.412   0.679   3.495  3.0020 -0.7290  1.5342
 4284SOL     OW24484   0.991   3.527  14.355 -0.1989  0.7967  0.4917
 4284SOL    HW124485   0.924   3.459  14.368 -0.9879  1.5685  0.4525
 4284SOL    HW224486   0.945   3.603  14.389 -0.8724 -0.1561  1.7431
 4285SOL     OW24487   0.570   1.611   7.113  0.2547  0.7742 -0.1496
 4285SOL    HW124488   0.503   1.652   7.167 -0.1083 -0.1639  0.1118
 4285SOL    HW224489   0.632   1.683   7.100  0.0065  1.1367  0.6381
 4286SOL     OW24490   0.967   1.734   3.142 -0.0123  0.2476  0.4157
 4286SOL    HW124491   0.874   1.719   3.157 -0.4443  2.0112 -0.5898
 4286SOL    HW224492   0.987   1.775   3.227 -0.9447  2.4765 -0.4527
 4287SOL     OW24493   3.396   2.458   7.100 -0.1211  0.6559  0.4759
 4287SOL    HW124494   3.394   2.381   7.156 -0.2621  1.1937  1.2014
 4287SOL    HW224495   3.469   2.505   7.142  0.5541  0.5679 -0.5871
 4288SOL     OW24496   2.647   3.828   7.137  0.1991 -0.5085  0.0580
 4288SOL    HW124497   2.690   3.858   7.057 -0.5275  0.9045  0.2094
 4288SOL    HW224498   2.721   3.819   7.197 -1.3638 -2.3803  1.7059
 4289SOL     OW24499   2.157   2.394   5.698 -0.6987 -0.0758 -0.1425
 4289SOL    HW124500   2.152   2.330   5.627 -0.2498 -1.2354  0.8758
 4289SOL    HW224501   2.231   2.453   5.682  0.3654 -1.1393  0.8650
 4290SOL     OW24502   0.601   0.113  17.689 -0.3429 -0.3172  0.3037
 4290SOL    HW124503   0.558   0.076   0.012  0.7104  1.7802  1.8927
 4290SOL    HW224504   0.561   0.081  17.608  0.6752  1.4697 -0.8991
 4291SOL     OW24505   4.709   2.713   0.103  0.2393 -0.1707 -0.6707
 4291SOL    HW124506   0.007   2.660   0.173  0.9802 -0.3276 -1.1797
 4291SOL    HW224507   0.046   2.746   0.054 -0.2275  1.8601 -0.0501
 4292SOL     OW24508   1.911   4.290   9.023 -0.0225  0.0099 -0.3383
 4292SOL    HW124509   1.975   4.251   9.083 -0.1918  0.6534  0.2513
 4292SOL    HW224510   1.898   4.378   9.057  1.7796  1.1811 -2.6950
 4293SOL     OW24511   0.427   4.175   4.001  0.3521  0.0623 -0.4020
 4293SOL    HW124512   0.427   4.215   4.088  0.1597 -1.2306  0.1826
 4293SOL    HW224513   0.419   4.089   4.041 -0.7394 -0.1834 -1.1533
 4294SOL     OW24514   2.874   4.544   6.535  0.2660 -0.0777  0.2941
 4294SOL    HW124515   2.967   4.552   6.555  0.4089 -2.9285  0.7767
 4294SOL    HW224516   2.882   4.480   6.464 -0.9521  0.2023 -0.1060
 4295SOL     OW24517   1.594   3.137   3.030 -0.3423 -0.0029 -0.7043
 4295SOL    HW124518   1.536   3.205   3.062 -1.1631 -0.9657 -0.1325
 4295SOL    HW224519   1.572   3.132   2.937 -0.3271  0.9585 -0.7543
 4296SOL     OW24520   0.374   4.535   5.071  0.1038 -0.3143 -0.0282
 4296SOL    HW124521   0.388   4.448   5.035  1.0854 -1.3009  2.6919
 4296SOL    HW224522   0.355   4.504   5.160 -0.7851 -2.6099 -1.0340
 4297SOL     OW24523   2.461   4.497   1.940 -0.2770  0.5789 -0.7973
 4297SOL    HW124524   2.446   4.501   2.034  1.1846  1.0860 -0.5822
 4297SOL    HW224525   2.481   4.404   1.926 -0.9114  0.2774  0.4127
 4298SOL     OW24526   3.335   2.568  10.188 -0.0101  0.3358  0.1150
 4298SOL    HW124527   3.306   2.490  10.236  1.7644 -0.5350 -0.1992
 4298SOL    HW224528   3.427   2.548  10.171 -0.3911 -0.4302 -1.0798
 4299SOL     OW24529   2.767   0.736   6.962  0.4944 -0.3175 -0.2489
 4299SOL    HW124530   2.684   0.719   6.917 -0.2046  1.2899  0.4232
 4299SOL    HW224531   2.801   0.647   6.949  0.4251 -0.6013  1.4630
 4300SOL     OW24532   1.716   3.001   0.895 -0.1456  0.3830  0.8465
 4300SOL    HW124533   1.791   3.053   0.867 -0.0151 -0.1462  0.1976
 4300SOL    HW224534   1.757   2.928   0.941 -0.8814  0.7733  2.1227
 4301SOL     OW24535   4.192   3.472   8.361  0.4507 -0.4879 -0.0130
 4301SOL    HW124536   4.196   3.384   8.399 -1.5713 -0.3933  0.4479
 4301SOL    HW224537   4.151   3.518   8.434  1.9973 -0.0481  0.5838
 4302SOL     OW24538   1.389   1.247   5.882  0.1451  0.7483 -0.0484
 4302SOL    HW124539   1.335   1.324   5.897  0.8427  0.8271  2.0964
 4302SOL    HW224540   1.451   1.255   5.955  1.0801  0.0468 -0.7674
 4303SOL     OW24541   2.674   3.073  16.567  0.6142  0.3326  0.3815
 4303SOL    HW124542   2.687   3.014  16.642 -2.0686 -3.1335 -1.8804
 4303SOL    HW224543   2.724   3.141  16.612 -0.9572  2.3663 -0.9696
 4304SOL     OW24544   3.914   3.512  13.486 -0.2690  0.4540  0.1486
 4304SOL    HW124545   3.906   3.455  13.409  0.1622  0.6841 -0.0639
 4304SOL    HW224546   3.930   3.437  13.544 -0.1482 -0.2025 -0.7274
 4305SOL     OW24547   3.348   2.819  13.645  0.2089 -0.0112 -0.3740
 4305SOL    HW124548   3.350   2.755  13.716  2.2191  0.8656  0.3514
 4305SOL    HW224549   3.350   2.900  13.695 -2.2113 -0.2563  0.1167
 4306SOL     OW24550   3.115   0.508  10.438 -0.4023 -0.4080  0.6675
 4306SOL    HW124551   3.020   0.498  10.449 -0.6798 -0.7408 -1.9072
 4306SOL    HW224552   3.123   0.539  10.347  2.9168 -0.0984  1.0676
 4307SOL     OW24553   4.083   3.132   6.322 -0.0994  0.1115 -0.4115
 4307SOL    HW124554   4.006   3.165   6.369 -0.5580 -1.5199 -0.0127
 4307SOL    HW224555   4.149   3.201   6.335  1.2662 -1.6779  2.1595
 4308SOL     OW24556   3.212   1.137   6.359  0.1553 -0.5172  0.8307
 4308SOL    HW124557   3.156   1.116   6.434  0.3459  1.3757  1.4866
 4308SOL    HW224558   3.215   1.232   6.365  2.5071 -0.5932  0.8142
 4309SOL     OW24559   1.477   0.071  11.171 -0.5333  0.0539 -0.3838
 4309SOL    HW124560   1.544   0.112  11.115 -0.8751  0.3735 -0.5611
 4309SOL    HW224561   1.412   0.051  11.103 -1.1755 -0.4422  0.3837
 4310SOL     OW24562   4.582   2.659   8.851 -0.3925  0.2605  0.0605
 4310SOL    HW124563   4.610   2.716   8.923  0.1323  3.1502 -2.4823
 4310SOL    HW224564   4.488   2.677   8.844 -0.2358  0.8579 -0.4844
 4311SOL     OW24565   3.269   2.849  12.856  0.1000 -0.0239 -0.6847
 4311SOL    HW124566   3.363   2.839  12.841  0.4211  1.4679  0.2927
 4311SOL    HW224567   3.269   2.878  12.947  0.0139  2.4606 -1.4807
 4312SOL     OW24568   3.106   3.334   6.089 -0.1753 -0.4330 -0.0693
 4312SOL    HW124569   3.090   3.253   6.137 -0.1036 -0.4572 -0.0878
 4312SOL    HW224570   3.130   3.302   6.003 -1.9755 -2.2674  0.1183
 4313SOL     OW24571   4.271   2.942  10.079  0.1772  0.2463 -0.4295
 4313SOL    HW124572   4.238   2.869  10.028 -0.2945 -0.8063  1.3742
 4313SOL    HW224573   4.362   2.914  10.088  0.5836  2.4745  2.6290
 4314SOL     OW24574   3.069   3.393   4.271 -0.0674 -0.6505 -0.0600
 4314SOL    HW124575   3.015   3.320   4.300  2.4580 -1.4491  2.5764
 4314SOL    HW224576   3.000   3.447   4.230 -0.4930 -0.4192  0.9593
 4315SOL     OW24577   3.002   1.570  13.336 -0.3579 -0.0133 -0.0033
 4315SOL    HW124578   3.098   1.575  13.343 -0.2992 -1.9814  0.6224
 4315SOL    HW224579   2.986   1.578  13.242  2.3717 -0.9845 -0.5614
 4316SOL     OW24580   4.312   2.472   5.821  0.3337 -0.2845 -0.0479
 4316SOL    HW124581   4.309   2.379   5.846  0.9282 -0.5189 -0.8326
 4316SOL    HW224582   4.396   2.476   5.775  0.0212 -1.3644 -0.7199
 4317SOL     OW24583   1.083   2.350   1.142 -0.9331  0.0764  0.3442
 4317SOL    HW124584   1.118   2.365   1.230 -1.4852  1.5053  0.3292
 4317SOL    HW224585   1.005   2.406   1.138 -0.6555  0.4379 -0.1409
 4318SOL     OW24586   1.745   0.022   9.780  0.2003  0.5121  0.2041
 4318SOL    HW124587   1.833   0.042   9.810  0.0778  0.2433  0.7343
 4318SOL    HW224588   1.720   4.709   9.856  0.0326 -0.1643 -0.3104
 4319SOL     OW24589   3.082   1.833   4.112  0.1167 -0.4348 -0.1425
 4319SOL    HW124590   3.058   1.900   4.176 -0.6295 -0.6709 -0.1752
 4319SOL    HW224591   3.147   1.892   4.073  1.2867 -2.5282 -1.3617
 4320SOL     OW24592   2.021   0.577   0.953 -0.5013 -0.1307 -0.2696
 4320SOL    HW124593   2.110   0.591   0.983 -0.0458 -0.7401 -1.3178
 4320SOL    HW224594   2.040   0.490   0.918 -0.5224  0.6676 -2.3073
 4321SOL     OW24595   1.762   3.848  12.343 -0.2309 -0.0764 -0.6806
 4321SOL    HW124596   1.807   3.932  12.339  0.7426 -0.5126  1.3676
 4321SOL    HW224597   1.823   3.807  12.404 -2.7544 -2.1946  0.4586
 4322SOL     OW24598   4.540   1.671   3.055  0.4859 -0.1288  0.2326
 4322SOL    HW124599   4.478   1.743   3.043 -0.0828  0.0776  4.4185
 4322SOL    HW224600   4.624   1.716   3.065  0.9478 -0.4183 -2.2031
 4323SOL     OW24601   3.801   2.970   4.356  0.0697  0.3424  0.3426
 4323SOL    HW124602   3.845   2.899   4.308  0.3886  1.3385 -0.8478
 4323SOL    HW224603   3.866   2.984   4.425 -0.6532  0.6299  0.9605
 4324SOL     OW24604   3.375   0.369  10.456 -0.2604  0.2443 -0.3180
 4324SOL    HW124605   3.280   0.372  10.448 -0.3731 -2.5096 -0.1846
 4324SOL    HW224606   3.374   0.394  10.549  0.1002 -2.3549  0.3932
 4325SOL     OW24607   0.707   2.345   7.328  0.2169 -0.0519  0.7209
 4325SOL    HW124608   0.779   2.298   7.286 -1.1953 -0.6159 -1.0600
 4325SOL    HW224609   0.651   2.270   7.348 -0.9259  0.4618 -0.5997
 4326SOL     OW24610   1.989   0.812  14.784  0.1687 -0.0562 -0.4865
 4326SOL    HW124611   2.075   0.844  14.812 -0.6704  0.2170  1.7412
 4326SOL    HW224612   2.008   0.720  14.770 -1.4083 -0.2081 -1.6743
 4327SOL     OW24613   1.574   2.030   1.872  0.0735 -0.3894  0.7053
 4327SOL    HW124614   1.584   2.096   1.941  2.3714  2.7971 -2.7010
 4327SOL    HW224615   1.479   2.021   1.863 -0.0039  1.2853 -0.3523
 4328SOL     OW24616   2.188   1.204  15.548 -0.1253  0.5755  0.8049
 4328SOL    HW124617   2.139   1.258  15.609 -2.8146 -0.1496 -0.7397
 4328SOL    HW224618   2.270   1.253  15.555 -0.7001  1.5310  0.7089
 4329SOL     OW24619   4.394   0.357   1.821 -0.7762 -0.0899  0.2570
 4329SOL    HW124620   4.365   0.271   1.791 -0.7325  0.1541 -0.4852
 4329SOL    HW224621   4.362   0.408   1.747 -1.8471 -1.1422 -0.0033
 4330SOL     OW24622   2.651   1.974   7.600 -0.1087  0.1910 -0.7138
 4330SOL    HW124623   2.640   2.050   7.658 -1.1851 -0.0131 -0.6569
 4330SOL    HW224624   2.634   1.906   7.665  2.6678  0.5741  0.4308
 4331SOL     OW24625   0.378   0.259   0.909  0.0901 -0.0971  0.3249
 4331SOL    HW124626   0.406   0.285   0.821 -1.3690  1.1014  0.2118
 4331SOL    HW224627   0.453   0.264   0.968 -0.7136  1.1363  1.2444
 4332SOL     OW24628   4.418   3.225   5.221 -0.0805 -0.4099  0.0198
 4332SOL    HW124629   4.436   3.282   5.296  0.2411  0.9282 -1.0563
 4332SOL    HW224630   4.349   3.162   5.242  0.9448 -1.4410  0.2567
 4333SOL     OW24631   2.552   2.727   5.420  0.0964 -0.1902  0.1539
 4333SOL    HW124632   2.459   2.723   5.398  0.2231  1.3850 -0.6736
 4333SOL    HW224633   2.577   2.819   5.427  1.6676 -0.4111 -2.4964
 4334SOL     OW24634   4.544   2.915   0.153  0.1484  0.1898 -0.0343
 4334SOL    HW124635   4.523   2.862   0.231 -3.8738  0.8779 -0.6377
 4334SOL    HW224636   4.603   2.850   0.115  0.0510 -0.9048  1.6488
 4335SOL     OW24637   3.695   3.315   8.228 -0.2664  0.2880  0.4249
 4335SOL    HW124638   3.607   3.327   8.264 -0.2704  0.7487  0.2566
 4335SOL    HW224639   3.739   3.387   8.273 -0.9495  1.8924 -1.4890
 4336SOL     OW24640   3.880   0.643   4.987  0.0868 -0.7053  0.1341
 4336SOL    HW124641   3.871   0.549   5.003  1.4988 -0.8931 -0.2040
 4336SOL    HW224642   3.939   0.653   4.913  0.4663  2.1827  0.8533
 4337SOL     OW24643   2.465   0.603  10.310  0.7247  0.2918  0.1084
 4337SOL    HW124644   2.423   0.535  10.257 -1.4181  1.1143  0.7616
 4337SOL    HW224645   2.556   0.574  10.304 -0.2007 -1.9964 -2.9502
 4338SOL     OW24646   1.499   2.380   3.352  0.0158 -0.0597  0.0473
 4338SOL    HW124647   1.459   2.461   3.384 -0.4980 -0.5593  0.6681
 4338SOL    HW224648   1.590   2.410   3.344  0.3266 -0.6665  1.3338
 4339SOL     OW24649   2.394   4.678   9.449  0.3848  0.7988  0.0100
 4339SOL    HW124650   2.368   4.686   9.357 -1.5805 -0.6141  0.4503
 4339SOL    HW224651   2.312   4.642   9.483  0.8151  0.1171  0.3290
 4340SOL     OW24652   2.869   3.768  15.293  0.1686  0.7201 -0.0872
 4340SOL    HW124653   2.933   3.742  15.361  1.3700 -0.0364 -1.5106
 4340SOL    HW224654   2.900   3.858  15.285  1.7953  0.3567  2.0157
 4341SOL     OW24655   3.473   3.855   0.636 -0.1940  0.1142  0.3194
 4341SOL    HW124656   3.473   3.763   0.664  1.1782 -1.2997 -4.3224
 4341SOL    HW224657   3.419   3.888   0.708  0.0842  5.1305 -1.8266
 4342SOL     OW24658   3.822   2.181   4.844  0.5982 -0.2436  0.0046
 4342SOL    HW124659   3.903   2.130   4.839  1.0908  0.6683 -1.2200
 4342SOL    HW224660   3.860   2.245   4.784  0.9103 -0.4035  0.0356
 4343SOL     OW24661   3.666   4.167  12.569 -0.3381  0.0498  0.6593
 4343SOL    HW124662   3.698   4.255  12.588  1.0602 -0.5957  1.3033
 4343SOL    HW224663   3.620   4.147  12.650  1.4965  0.3060  1.7667
 4344SOL     OW24664   1.230   1.714  10.502 -0.9071  0.1940 -0.2019
 4344SOL    HW124665   1.287   1.660  10.557 -0.6620  2.7486  2.0567
 4344SOL    HW224666   1.144   1.673  10.507 -0.1271 -1.5543 -0.8476
 4345SOL     OW24667   0.675   2.179   6.416 -0.1362  0.3501 -0.0551
 4345SOL    HW124668   0.732   2.129   6.475 -2.0085 -2.0054 -0.2379
 4345SOL    HW224669   0.586   2.164   6.449  0.7482  1.1402  2.6375
 4346SOL     OW24670   2.243   3.027   3.102 -0.6372 -0.2073  0.2956
 4346SOL    HW124671   2.267   3.094   3.038  0.0590  0.5627  1.3600
 4346SOL    HW224672   2.283   3.062   3.182 -1.6258 -0.6719  0.9954
 4347SOL     OW24673   0.103   2.110   5.604 -0.3496  0.4753 -0.2516
 4347SOL    HW124674   0.069   2.196   5.578 -1.1005 -0.3230 -1.8266
 4347SOL    HW224675   0.042   2.051   5.561  0.4490  1.1407 -2.3151
 4348SOL     OW24676   0.339   3.989   9.293 -0.4966  0.3783  0.2074
 4348SOL    HW124677   0.314   3.931   9.365 -0.6245 -1.8002 -1.6010
 4348SOL    HW224678   0.351   3.929   9.219 -2.1018 -0.5890  0.7344
 4349SOL     OW24679   0.708   4.261   3.546 -0.5165  0.3283 -0.0776
 4349SOL    HW124680   0.636   4.238   3.604 -0.1443 -0.1534  0.1992
 4349SOL    HW224681   0.784   4.232   3.597 -1.6325 -0.2088  1.2715
 4350SOL     OW24682   0.489   1.047   4.027  0.0803 -0.1090  0.5321
 4350SOL    HW124683   0.521   0.962   4.056  0.1916 -0.7097 -1.3256
 4350SOL    HW224684   0.473   1.089   4.111 -2.6597 -0.0001 -0.0493
 4351SOL     OW24685   4.663   3.790   8.051  0.8345  0.3634 -0.4504
 4351SOL    HW124686   0.003   3.748   8.087  1.0872  3.2561  2.3345
 4351SOL    HW224687   4.666   3.876   8.092  1.3584  0.3777 -0.5162
 4352SOL     OW24688   3.859   4.568   2.700  0.4300 -0.2416 -0.4247
 4352SOL    HW124689   3.794   4.599   2.762 -0.6645 -1.8513 -0.7580
 4352SOL    HW224690   3.932   4.625   2.723  0.3987 -0.6763  0.7382
 4353SOL     OW24691   0.767   3.370   9.024 -0.3369  0.0644  0.6788
 4353SOL    HW124692   0.751   3.379   8.930  0.7686  4.2684  0.9352
 4353SOL    HW224693   0.684   3.363   9.071 -0.3406  1.6405  0.8950
 4354SOL     OW24694   0.043   3.518   8.604 -0.8135  0.9234 -0.1503
 4354SOL    HW124695   0.060   3.506   8.510  0.1187 -2.0619  0.3955
 4354SOL    HW224696   0.021   3.611   8.609 -1.3876  0.7476  0.5314
 4355SOL     OW24697   3.340   0.530   6.406  0.5656 -0.3817 -0.1808
 4355SOL    HW124698   3.333   0.473   6.483 -2.2253  1.4255  0.8840
 4355SOL    HW224699   3.288   0.607   6.429 -0.5303 -1.3019  0.4450
 4356SOL     OW24700   0.684   4.626  13.204  0.0957  0.5461  0.3871
 4356SOL    HW124701   0.639   4.711  13.212 -1.0043  0.0407 -0.4609
 4356SOL    HW224702   0.768   4.645  13.245  0.5222 -0.0659 -0.2149
 4357SOL     OW24703   3.094   2.657   5.965  0.3308  0.4155 -0.1049
 4357SOL    HW124704   3.123   2.567   5.952  0.0180  0.2851  0.0755
 4357SOL    HW224705   3.160   2.683   6.029  0.8218 -2.2688  0.4906
 4358SOL     OW24706   4.606   3.700   5.129 -0.0141  0.5690 -0.0656
 4358SOL    HW124707   4.564   3.770   5.078  0.1193  1.3543  0.9116
 4358SOL    HW224708   4.592   3.730   5.219 -1.1705  0.0622 -0.0701
 4359SOL     OW24709   4.486   2.747   6.320 -0.0057 -0.0874  0.0859
 4359SOL    HW124710   4.412   2.702   6.361  0.6455 -0.9945  0.2665
 4359SOL    HW224711   4.461   2.839   6.313 -2.3473 -0.7001  0.1976
 4360SOL     OW24712   2.627   4.236   4.261  0.1775  0.0456 -0.1139
 4360SOL    HW124713   2.712   4.278   4.274  1.1252 -1.2377 -2.1339
 4360SOL    HW224714   2.576   4.316   4.267 -1.6719 -1.2722  1.7975
 4361SOL     OW24715   0.325   0.849   6.037 -0.6308 -0.1090 -0.0880
 4361SOL    HW124716   0.292   0.908   6.105  6.8625  0.9106  2.6784
 4361SOL    HW224717   0.316   0.909   5.963  1.6298  2.0567  1.3406
 4362SOL     OW24718   3.522   0.035   8.860  0.3831 -0.2514  0.1440
 4362SOL    HW124719   3.529   4.681   8.881  1.7205 -0.1265  0.2491
 4362SOL    HW224720   3.611   0.069   8.857  0.0534  0.5346 -0.6875
 4363SOL     OW24721   0.945   4.441   7.806 -0.2452 -0.0622  0.1314
 4363SOL    HW124722   1.027   4.450   7.853 -0.0276  0.8324 -0.4172
 4363SOL    HW224723   0.961   4.481   7.721  1.6295  0.2533  0.6383
 4364SOL     OW24724   0.410   0.519  16.520  0.3995 -0.9071  0.2676
 4364SOL    HW124725   0.415   0.428  16.491  1.4919 -0.3937 -1.1831
 4364SOL    HW224726   0.417   0.506  16.614  1.5237  1.0572  0.4444
 4365SOL     OW24727   0.301   2.942   5.899 -0.3965  0.2216  0.9092
 4365SOL    HW124728   0.393   2.916   5.902 -0.6192 -0.6077  0.5961
 4365SOL    HW224729   0.290   2.960   5.992  0.9814  1.3885  0.8416
 4366SOL     OW24730   4.423   3.085   8.668 -0.4765 -0.0884  0.2697
 4366SOL    HW124731   4.390   3.119   8.752 -1.1741  0.7804 -0.3643
 4366SOL    HW224732   4.472   3.166   8.653  0.1883 -0.1233  2.2296
 4367SOL     OW24733   1.118   1.877   8.865 -0.0012 -0.5972  0.1988
 4367SOL    HW124734   1.106   1.939   8.937 -0.3703  1.2967 -1.4930
 4367SOL    HW224735   1.079   1.915   8.787 -0.8705 -0.2351  0.8018
 4368SOL     OW24736   3.653   4.097   0.838 -0.0242  0.1007  0.5762
 4368SOL    HW124737   3.714   4.159   0.798  1.6340 -0.4579  2.1965
 4368SOL    HW224738   3.578   4.155   0.830  0.0040 -0.2429 -2.2333
 4369SOL     OW24739   1.128   2.321   7.409  0.3856  0.1030  0.0464
 4369SOL    HW124740   1.162   2.282   7.489  1.3214  1.8136  0.4814
 4369SOL    HW224741   1.046   2.274   7.393  0.2371  0.5899 -0.6607
 4370SOL     OW24742   1.020   0.582   9.630  0.1047  0.3832 -0.4834
 4370SOL    HW124743   0.950   0.637   9.666 -1.8116 -3.0729  1.0840
 4370SOL    HW224744   1.093   0.642   9.615  1.5114 -0.6949  1.9790
 4371SOL     OW24745   2.363   2.528   3.247 -0.1980 -0.7389 -0.2663
 4371SOL    HW124746   2.302   2.588   3.205  1.0087  0.9646  0.3895
 4371SOL    HW224747   2.402   2.589   3.309  0.8537 -1.8945  0.2194
 4372SOL     OW24748   3.871   0.413  11.725 -0.3543 -0.4858 -0.8107
 4372SOL    HW124749   3.870   0.401  11.820 -1.2877 -1.5703 -0.9604
 4372SOL    HW224750   3.804   0.351  11.695 -1.7407  0.8000 -0.4182
 4373SOL     OW24751   3.807   0.791   9.324 -0.2381 -0.3857 -0.2356
 4373SOL    HW124752   3.730   0.814   9.272 -1.1914  1.3161  1.9399
 4373SOL    HW224753   3.785   0.700   9.341  1.1581 -0.5330  0.7523
 4374SOL     OW24754   2.033   3.621   4.408 -0.4831  0.2261  0.1431
 4374SOL    HW124755   2.066   3.687   4.347  1.0050 -1.1747 -0.5687
 4374SOL    HW224756   1.942   3.651   4.401 -0.4492  0.0346 -1.0866
 4375SOL     OW24757   3.303   0.236   6.536 -0.1631  0.2324 -0.5185
 4375SOL    HW124758   3.377   0.258   6.479  0.6882  0.3981  0.6519
 4375SOL    HW224759   3.346   0.229   6.621  1.6481  0.4622 -1.4210
 4376SOL     OW24760   1.882   1.813   8.741  0.3375  0.0064 -0.2116
 4376SOL    HW124761   1.953   1.859   8.786 -1.3686  2.2793  0.1186
 4376SOL    HW224762   1.919   1.774   8.662  0.1324 -0.3233 -0.1455
 4377SOL     OW24763   2.584   0.524   7.513  0.4517 -0.2095  0.5053
 4377SOL    HW124764   2.539   0.562   7.438  3.0245  2.7442  0.4903
 4377SOL    HW224765   2.639   0.462   7.464  0.0811  2.3646 -3.2043
 4378SOL     OW24766   3.443   0.731  17.748 -0.5066  0.0577  0.1999
 4378SOL    HW124767   3.370   0.679   0.029 -0.3939  0.5147  1.1360
 4378SOL    HW224768   3.509   0.667  17.722 -0.2995  0.0302  0.7761
 4379SOL     OW24769   3.166   0.439   2.563 -0.3092 -0.1363 -0.1520
 4379SOL    HW124770   3.216   0.427   2.482  1.2466 -2.0211  1.0876
 4379SOL    HW224771   3.145   0.348   2.582 -1.2347  0.6235  2.4814
 4380SOL     OW24772   2.120   0.775   4.127 -0.1521  0.0434  0.3328
 4380SOL    HW124773   2.105   0.717   4.202 -2.3438  0.1521 -0.0290
 4380SOL    HW224774   2.040   0.825   4.114 -0.4604 -0.5685 -0.1847
 4381SOL     OW24775   0.531   0.608   6.275 -0.6009 -0.3665 -0.4715
 4381SOL    HW124776   0.552   0.574   6.362  1.2001  2.5491  0.2398
 4381SOL    HW224777   0.445   0.649   6.283 -0.3322 -0.1408  1.3510
 4382SOL     OW24778   4.109   4.323  13.533  0.4014  0.9827  0.1655
 4382SOL    HW124779   4.099   4.371  13.451  0.8708  2.2638  0.8517
 4382SOL    HW224780   4.205   4.313  13.530  0.2382  0.0371 -2.1769
 4383SOL     OW24781   1.869   4.453  14.101  0.4538 -0.2448 -0.4157
 4383SOL    HW124782   1.835   4.364  14.101 -1.3508  0.4543  1.4526
 4383SOL    HW224783   1.842   4.487  14.186  1.2634  0.1441 -0.3138
 4384SOL     OW24784   2.409   3.697   7.035  0.3865  0.1647  0.7391
 4384SOL    HW124785   2.498   3.711   7.068  0.7375 -1.6188  0.5518
 4384SOL    HW224786   2.406   3.617   6.982  2.5688 -0.0268  0.9133
 4385SOL     OW24787   0.758   1.030   4.107 -0.5329 -0.1736  0.0127
 4385SOL    HW124788   0.779   0.996   4.020 -0.6057 -2.2441  0.8047
 4385SOL    HW224789   0.707   1.107   4.083  1.9757  1.2115 -0.8146
 4386SOL     OW24790   3.499   1.638   4.314  0.1026  0.5021 -0.1357
 4386SOL    HW124791   3.422   1.619   4.261  0.2792  0.5138 -0.3956
 4386SOL    HW224792   3.501   1.733   4.307 -0.7638  0.3509 -2.2598
 4387SOL     OW24793   1.362   4.719   9.259 -0.2030  0.4567  0.2274
 4387SOL    HW124794   1.311   0.050   9.299 -2.2304 -1.4087  0.8854
 4387SOL    HW224795   1.398   0.033   9.188 -0.9950  1.6976  0.7558
 4388SOL     OW24796   0.795   1.183   6.050  0.0884 -0.2177  0.3259
 4388SOL    HW124797   0.805   1.090   6.066  2.1352 -0.1337 -0.5145
 4388SOL    HW224798   0.879   1.208   6.010  0.8266  2.2313  3.4322
 4389SOL     OW24799   4.387   4.359  12.582 -0.5311 -0.1240 -0.1076
 4389SOL    HW124800   4.440   4.281  12.603  0.4328 -0.1518 -2.7050
 4389SOL    HW224801   4.325   4.342  12.653  1.0843 -0.1592  1.3199
 4390SOL     OW24802   2.218   3.252   6.243  0.1525  0.3995 -0.5392
 4390SOL    HW124803   2.123   3.239   6.244  0.5086 -2.3502 -2.0159
 4390SOL    HW224804   2.244   3.162   6.221  0.2982  0.7851 -1.9501
 4391SOL     OW24805   2.342   2.739  16.965  0.8106 -0.7776  0.6692
 4391SOL    HW124806   2.422   2.740  17.018  0.8245 -1.7456  0.6780
 4391SOL    HW224807   2.297   2.798  17.026 -1.4108 -0.6208 -1.1293
 4392SOL     OW24808   2.085   3.747   9.124 -0.4817  0.5098 -0.6088
 4392SOL    HW124809   2.060   3.825   9.174  0.6566 -0.4024  1.3941
 4392SOL    HW224810   2.023   3.683   9.159  1.7842 -1.8757 -0.9521
 4393SOL     OW24811   0.925   4.503   3.820  0.2873  0.4350 -0.1707
 4393SOL    HW124812   0.914   4.417   3.862 -0.7291  1.4953  1.7255
 4393SOL    HW224813   0.985   4.534   3.887  2.5411 -1.8496 -1.1411
 4394SOL     OW24814   0.458   0.216  16.175  0.1434  0.5252 -0.0210
 4394SOL    HW124815   0.418   0.134  16.148 -1.9278  1.1873  1.0183
 4394SOL    HW224816   0.542   0.205  16.129  1.3196  0.8415  2.0526
 4395SOL     OW24817   4.554   3.781   5.428 -0.6003 -0.2506 -0.2168
 4395SOL    HW124818   4.523   3.871   5.417  1.4469  0.5584  0.5741
 4395SOL    HW224819   4.539   3.763   5.521  0.4225  0.2473  0.0407
 4396SOL     OW24820   3.601   4.575  15.590  0.3162 -0.1924  0.0581
 4396SOL    HW124821   3.600   4.668  15.614 -0.1548 -0.3617  0.7066
 4396SOL    HW224822   3.691   4.573  15.557  0.1271  0.9900 -0.5337
 4397SOL     OW24823   1.137   4.202  13.908  0.2994 -0.0279  0.3152
 4397SOL    HW124824   1.076   4.220  13.837  0.4197  0.9106  0.4482
 4397SOL    HW224825   1.133   4.108  13.924 -1.1083  0.1464  0.9736
 4398SOL     OW24826   0.162   0.386   9.447 -0.0664 -0.3456  0.7688
 4398SOL    HW124827   0.214   0.403   9.525  1.6448  1.2966 -0.7203
 4398SOL    HW224828   0.098   0.321   9.475  0.4519 -0.3311  1.9796
 4399SOL     OW24829   4.522   4.052   5.705  0.4783  0.6899 -0.0405
 4399SOL    HW124830   4.506   4.027   5.796 -0.0999 -1.2642 -0.6896
 4399SOL    HW224831   4.435   4.073   5.672  1.3756 -0.0648 -2.8658
 4400SOL     OW24832   0.511   4.672  12.740  0.5735  0.4825 -0.1200
 4400SOL    HW124833   0.566   4.654  12.816  0.0115 -0.9330 -0.0403
 4400SOL    HW224834   0.432   4.623  12.765  0.8730  0.0127 -0.0984
 4401SOL     OW24835   3.988   4.316   2.163 -0.3234 -0.1338  0.2755
 4401SOL    HW124836   3.968   4.225   2.145 -1.4070  0.1433  0.0588
 4401SOL    HW224837   4.054   4.300   2.230  1.4832 -0.6403 -1.6330
 4402SOL     OW24838   2.601   3.762  16.851  0.1061  0.3802 -0.0340
 4402SOL    HW124839   2.508   3.755  16.872  0.1980  2.2601  0.9922
 4402SOL    HW224840   2.626   3.842  16.897 -0.0314  1.9918 -2.7285
 4403SOL     OW24841   0.319   3.084   1.842  0.5772 -0.6089  0.1744
 4403SOL    HW124842   0.318   3.008   1.784 -1.5281  1.4400 -2.4202
 4403SOL    HW224843   0.226   3.075   1.862  0.6726  1.1656  1.3836
 4404SOL     OW24844   0.789   1.636   6.814 -0.8113 -0.3247 -0.0657
 4404SOL    HW124845   0.844   1.654   6.890  0.0403  1.8370 -1.1826
 4404SOL    HW224846   0.847   1.625   6.738 -0.1296 -0.4665  0.4754
 4405SOL     OW24847   0.100   2.214  11.832 -0.1783  0.4778 -0.2856
 4405SOL    HW124848   0.020   2.265  11.844 -0.5518  0.3657 -2.1606
 4405SOL    HW224849   0.156   2.284  11.800  0.6581 -0.8808 -1.8544
 4406SOL     OW24850   0.793   4.611   9.558 -0.1057  0.3304 -0.3866
 4406SOL    HW124851   0.835   4.693   9.533 -0.4116  1.2221  2.0911
 4406SOL    HW224852   0.865   4.547   9.559 -0.9706 -0.6474 -0.6011
 4407SOL     OW24853   3.127   0.295   1.410 -0.3272 -0.1033  0.2889
 4407SOL    HW124854   3.194   0.300   1.342  1.3668 -0.8372  1.8999
 4407SOL    HW224855   3.111   0.387   1.433  1.1965 -0.0651  1.2225
 4408SOL     OW24856   3.316   0.054  13.983 -0.0695  0.3961 -0.1593
 4408SOL    HW124857   3.375   0.127  13.965  2.7928 -1.1591  2.9714
 4408SOL    HW224858   3.366   4.716  13.955 -0.7185  0.7588 -2.3684
 4409SOL     OW24859   3.336   1.144   5.663  0.0358 -0.1255  0.4786
 4409SOL    HW124860   3.276   1.105   5.600  2.9005 -0.7883 -1.8070
 4409SOL    HW224861   3.402   1.075   5.661 -0.4065 -0.5624  0.8979
 4410SOL     OW24862   4.374   3.792   4.230  0.1545 -0.2790  0.0732
 4410SOL    HW124863   4.457   3.760   4.265  0.1473  0.1790  0.5146
 4410SOL    HW224864   4.376   3.739   4.150 -2.4657 -0.2923 -0.0016
 4411SOL     OW24865   3.122   2.942   2.738  0.7714  0.0649  0.3993
 4411SOL    HW124866   3.094   2.850   2.741 -1.1858  0.6197 -0.5306
 4411SOL    HW224867   3.071   2.970   2.814  0.0741 -0.9147  0.3018
 4412SOL     OW24868   2.096   0.138   2.416 -0.3272  0.3393  0.1289
 4412SOL    HW124869   2.105   0.135   2.511  1.4240  0.1220 -0.0493
 4412SOL    HW224870   2.001   0.131   2.411 -0.2349 -0.7001 -0.1045
 4413SOL     OW24871   2.049   3.841   6.372 -0.4459  0.0382  0.2128
 4413SOL    HW124872   1.969   3.812   6.329 -0.1966 -0.5438  0.1468
 4413SOL    HW224873   2.022   3.850   6.463 -1.4022  1.5224 -0.2199
 4414SOL     OW24874   0.619   0.347   5.435 -0.1660 -0.5697 -0.4932
 4414SOL    HW124875   0.710   0.371   5.419  0.0936  0.1587  1.9956
 4414SOL    HW224876   0.558   0.389   5.375 -0.0105  0.2259 -0.0994
 4415SOL     OW24877   4.511   4.378  16.396 -0.0274 -0.0618  0.0532
 4415SOL    HW124878   4.525   4.372  16.302  1.1167  0.1994  0.2034
 4415SOL    HW224879   4.596   4.412  16.425 -0.6031 -0.4129  2.1569
 4416SOL     OW24880   2.161   0.359   1.168  0.2080 -0.3798  0.0920
 4416SOL    HW124881   2.175   0.416   1.243 -0.8288 -2.0408  1.5371
 4416SOL    HW224882   2.251   0.354   1.135 -0.0276 -1.4178 -0.4036
 4417SOL     OW24883   0.765   0.591   3.703  0.2977 -0.1858  0.0883
 4417SOL    HW124884   0.765   0.678   3.661 -2.8801 -0.0995  0.2106
 4417SOL    HW224885   0.679   0.595   3.745  0.4271 -0.7700  0.4044
 4418SOL     OW24886   2.372   3.897   6.164 -0.5203 -0.7150  0.5018
 4418SOL    HW124887   2.398   3.807   6.145 -0.4879 -0.5298 -0.3060
 4418SOL    HW224888   2.458   3.937   6.152 -0.5745 -1.1088 -1.1700
 4419SOL     OW24889   3.959   3.209   9.997  0.1980  0.3392 -0.0099
 4419SOL    HW124890   4.016   3.131   9.996 -1.3459 -0.7970  0.7457
 4419SOL    HW224891   3.962   3.229  10.090  0.2995 -0.9727  0.2731
 4420SOL     OW24892   2.363   3.843   5.816  0.3135  0.1113  0.2587
 4420SOL    HW124893   2.451   3.876   5.801  0.3300  0.5178  1.2771
 4420SOL    HW224894   2.333   3.809   5.732  1.0815  3.0639 -1.2031
 4421SOL     OW24895   4.393   2.978   7.576 -0.2090 -0.5595 -0.0093
 4421SOL    HW124896   4.354   3.039   7.514  1.7815 -1.2691 -1.9743
 4421SOL    HW224897   4.484   3.007   7.575 -0.6265  0.6468 -2.5105
 4422SOL     OW24898   3.427   0.990  12.915  0.3549 -0.4751 -0.0439
 4422SOL    HW124899   3.397   1.026  12.998  0.2600  1.3620 -0.8831
 4422SOL    HW224900   3.357   1.006  12.851  0.0838 -1.2452  0.0609
 4423SOL     OW24901   2.969   4.312   2.169 -0.2359 -0.3890  0.0332
 4423SOL    HW124902   2.932   4.238   2.121 -0.1674 -0.5963  0.3036
 4423SOL    HW224903   3.034   4.271   2.225  1.4465  2.0603 -0.1148
 4424SOL     OW24904   0.173   1.517   4.896  0.4212 -0.7651 -0.4661
 4424SOL    HW124905   0.160   1.542   4.804 -0.9610 -1.6974 -0.5276
 4424SOL    HW224906   0.100   1.456   4.893 -0.5416  0.4630 -1.8641
 4425SOL     OW24907   2.547   4.183   0.912  0.1075 -0.3405 -0.2885
 4425SOL    HW124908   2.608   4.254   0.894 -0.1055 -0.0914 -0.0153
 4425SOL    HW224909   2.521   4.152   0.825  0.0088 -1.0235 -0.0186
 4426SOL     OW24910   1.731   1.318   3.661  0.0992 -0.6533  0.0720
 4426SOL    HW124911   1.649   1.295   3.704 -1.2712  2.1599 -1.0138
 4426SOL    HW224912   1.708   1.298   3.570  0.0973  1.2703 -0.3499
 4427SOL     OW24913   3.225   3.311   3.473 -0.0797  0.0326 -0.0598
 4427SOL    HW124914   3.240   3.399   3.439 -0.9970  0.5089  0.7660
 4427SOL    HW224915   3.260   3.313   3.563 -0.1495 -0.1869 -0.0273
 4428SOL     OW24916   3.326   2.923   5.173 -0.2919  0.0266  1.0587
 4428SOL    HW124917   3.336   2.932   5.078  0.2981  0.2704  1.1463
 4428SOL    HW224918   3.333   3.016   5.197 -0.0192 -0.0078  1.1073
 4429SOL     OW24919   0.804   2.317   1.333  0.0418 -0.5744  0.2142
 4429SOL    HW124920   0.811   2.410   1.313 -3.0333 -0.6287 -1.0614
 4429SOL    HW224921   0.778   2.263   1.258 -0.1808 -1.3785  0.8755
 4430SOL     OW24922   4.609   0.393   9.878 -0.3967  0.0053  0.0288
 4430SOL    HW124923   4.680   0.373   9.817  0.3221  1.8387  0.2790
 4430SOL    HW224924   4.588   0.483   9.856  2.3200 -0.0495 -2.7597
 4431SOL     OW24925   0.179   4.155  14.779  0.0218  0.3555  0.6948
 4431SOL    HW124926   0.140   4.182  14.862 -0.3839 -0.6802  0.8421
 4431SOL    HW224927   0.250   4.100  14.813 -0.8186 -0.1588  1.6225
 4432SOL     OW24928   2.960   3.405  16.965  0.8834  0.4495  0.6966
 4432SOL    HW124929   2.990   3.416  16.875  1.3044 -1.2675  0.6251
 4432SOL    HW224930   2.941   3.311  16.974 -1.5159  1.0106  1.5906
 4433SOL     OW24931   0.442   2.837   6.586 -0.6649  0.2588  0.3264
 4433SOL    HW124932   0.477   2.866   6.502 -1.2690 -1.7516 -0.6171
 4433SOL    HW224933   0.502   2.767   6.609  0.1696  0.5724 -0.8774
 4434SOL     OW24934   3.174   2.882   4.070 -0.0576 -0.1258 -0.8469
 4434SOL    HW124935   3.085   2.907   4.045 -0.8663 -0.3560  1.7737
 4434SOL    HW224936   3.170   2.792   4.038  1.2105 -0.3841 -0.2641
 4435SOL     OW24937   0.388   1.482   9.087 -0.3803 -0.0770 -0.5386
 4435SOL    HW124938   0.354   1.492   8.998  0.0459  1.8652 -0.4701
 4435SOL    HW224939   0.446   1.558   9.092 -0.1647 -0.4533  2.3330
 4436SOL     OW24940   2.676   1.024   3.634 -0.2274  0.5466 -0.3095
 4436SOL    HW124941   2.675   1.103   3.688  1.0977  1.0968 -1.0958
 4436SOL    HW224942   2.707   1.066   3.553 -1.5249  1.0251 -0.5677
 4437SOL     OW24943   3.218   0.494   4.297  0.7913  0.0040 -0.3745
 4437SOL    HW124944   3.290   0.528   4.350  1.5179 -1.0538 -0.6695
 4437SOL    HW224945   3.207   0.408   4.337 -0.8272  1.1418  1.6352
 4438SOL     OW24946   1.877   0.616  16.921  0.4874 -0.8433  0.2689
 4438SOL    HW124947   1.783   0.635  16.926  1.2720  2.6331  1.7113
 4438SOL    HW224948   1.871   0.540  16.863 -0.0659 -0.5480 -0.0661
 4439SOL     OW24949   0.080   3.072   3.893 -0.2908 -0.1310 -0.5086
 4439SOL    HW124950   0.173   3.059   3.910 -0.5360 -0.0981  0.9006
 4439SOL    HW224951   0.065   3.132   3.967  2.6096  0.1270 -0.1389
 4440SOL     OW24952   2.522   3.622  16.471 -0.3810  0.2909 -0.0419
 4440SOL    HW124953   2.512   3.712  16.441  1.2202 -0.3459 -2.4687
 4440SOL    HW224954   2.568   3.585  16.396  1.4310  1.0162  0.7266
 4441SOL     OW24955   3.335   2.900   3.056 -0.5683 -0.1298  0.5849
 4441SOL    HW124956   3.343   2.984   3.011  0.8012  0.7185  2.4248
 4441SOL    HW224957   3.247   2.908   3.092 -1.4487 -0.7410 -1.3992
 4442SOL     OW24958   3.907   4.300   3.062 -0.5255 -0.4159 -0.1033
 4442SOL    HW124959   3.917   4.274   3.154  1.0178  0.6201  0.0292
 4442SOL    HW224960   3.992   4.279   3.023 -0.8984  1.4493 -1.8726
 4443SOL     OW24961   0.624   0.282   8.413 -0.3387  0.1881  0.4036
 4443SOL    HW124962   0.694   0.346   8.404  0.2744 -0.5724 -0.1981
 4443SOL    HW224963   0.639   0.218   8.344 -2.1466 -0.8463  0.9738
 4444SOL     OW24964   1.228   2.968   0.597 -0.2008  0.4502 -0.0391
 4444SOL    HW124965   1.161   2.945   0.662  0.4526  1.1513  0.8857
 4444SOL    HW224966   1.303   2.962   0.656  0.6268  2.9531 -0.8159
 4445SOL     OW24967   3.786   0.425   5.304  0.3337 -0.4280 -0.1966
 4445SOL    HW124968   3.833   0.505   5.282 -0.1975  0.2684  1.1713
 4445SOL    HW224969   3.853   0.367   5.340  1.6531  1.2509  0.0696
 4446SOL     OW24970   2.958   4.293  17.460 -0.1212  0.0538  0.4544
 4446SOL    HW124971   2.936   4.200  17.453  0.5588 -0.0999  0.3599
 4446SOL    HW224972   3.045   4.287  17.422 -0.0534  0.1000  0.6034
 4447SOL     OW24973   1.077   2.216   5.648  0.4283  0.1727 -0.6293
 4447SOL    HW124974   1.119   2.191   5.565  1.8276 -2.7020  0.9762
 4447SOL    HW224975   1.089   2.311   5.649 -2.4317  0.5323  1.3518
 4448SOL     OW24976   2.466   3.215   6.974 -0.1577 -0.1337  0.1039
 4448SOL    HW124977   2.543   3.186   7.022 -0.9728 -1.0721  0.8485
 4448SOL    HW224978   2.463   3.133   6.925 -1.7313 -0.4241  0.7041
 4449SOL     OW24979   0.217   2.846   5.662  0.5792 -0.0732  0.8631
 4449SOL    HW124980   0.248   2.881   5.745  0.5344 -0.3646  1.0033
 4449SOL    HW224981   0.135   2.895   5.660 -0.9005 -2.5935 -0.2105
 4450SOL     OW24982   1.840   0.067   6.152 -0.0698 -0.0558  0.0856
 4450SOL    HW124983   1.777   0.017   6.205 -0.0037 -1.0532 -0.7688
 4450SOL    HW224984   1.902   4.736   6.133  1.6043  1.5883 -0.4390
 4451SOL     OW24985   4.650   0.042   5.209 -0.0701 -0.2043 -0.6804
 4451SOL    HW124986   4.622   0.116   5.155 -1.8914  1.1652  2.1571
 4451SOL    HW224987   4.592   4.709   5.182  0.1012 -0.1901 -1.0785
 4452SOL     OW24988   0.283   3.802   9.507 -0.4385  0.8302 -0.0445
 4452SOL    HW124989   0.196   3.772   9.533 -0.9550  1.4795 -0.9993
 4452SOL    HW224990   0.301   3.856   9.585  0.4092  2.0475 -1.0863
 4453SOL     OW24991   4.326   3.617  11.066 -0.1311  0.2506 -0.1120
 4453SOL    HW124992   4.323   3.611  11.162  1.6175 -0.7117 -0.1206
 4453SOL    HW224993   4.251   3.565  11.037  0.6201 -1.7228  1.4662
 4454SOL     OW24994   3.983   3.477   5.874 -0.6165  0.4607  0.3772
 4454SOL    HW124995   4.032   3.396   5.890 -0.4187  0.6210  0.5687
 4454SOL    HW224996   4.058   3.532   5.852 -0.0065  0.6873  3.0777
 4455SOL     OW24997   0.318   2.626   5.993 -0.2069 -0.1276 -0.1151
 4455SOL    HW124998   0.279   2.707   5.959  0.6989 -0.2702 -1.5029
 4455SOL    HW224999   0.404   2.657   6.019 -1.1426  0.5109  2.1999
 4456SOL     OW25000   1.241   0.353   5.795 -0.1225 -0.0624  0.0102
 4456SOL    HW125001   1.222   0.292   5.723  0.1492 -1.6382  1.2831
 4456SOL    HW225002   1.234   0.302   5.875  0.4298  0.1745  0.2075
 4457SOL     OW25003   4.428   2.538   3.626 -0.3270  0.1871  0.0524
 4457SOL    HW125004   4.490   2.566   3.558  1.1193 -2.9978  0.0504
 4457SOL    HW225005   4.415   2.626   3.662 -1.2833  0.6568 -1.4296
 4458SOL     OW25006   2.955   1.247   2.882  0.0361 -0.0498  0.0807
 4458SOL    HW125007   2.883   1.263   2.943  0.6685  1.8925  0.3359
 4458SOL    HW225008   2.907   1.209   2.808 -1.3365  0.5543  0.6480
 4459SOL     OW25009   2.028   3.447   2.892  0.4498 -0.0278  0.3958
 4459SOL    HW125010   2.116   3.485   2.888 -0.3959  1.8504 -0.0404
 4459SOL    HW225011   2.018   3.447   2.987 -2.2632  1.2665  0.0819
 4460SOL     OW25012   3.393   4.562   5.394  0.4089  0.4340 -0.2060
 4460SOL    HW125013   3.474   4.603   5.424  0.3603  0.9498 -0.7644
 4460SOL    HW225014   3.417   4.473   5.416 -0.6564  0.1081 -0.3604
 4461SOL     OW25015   3.863   1.376   3.785  0.0985  0.0582  0.2449
 4461SOL    HW125016   3.814   1.330   3.854  0.4028  0.6110  0.8367
 4461SOL    HW225017   3.889   1.298   3.737  1.6800  0.2385  0.8090
 4462SOL     OW25018   1.421   0.698   8.296  0.1857  0.1824  0.4906
 4462SOL    HW125019   1.433   0.752   8.218  2.0320 -1.0005 -0.0503
 4462SOL    HW225020   1.375   0.622   8.261  1.6342  0.5386 -2.1599
 4463SOL     OW25021   1.699   0.174  15.429 -0.3161  0.8064  0.6396
 4463SOL    HW125022   1.678   0.214  15.345  0.3154  0.7950  0.4759
 4463SOL    HW225023   1.616   0.129  15.447 -0.1657  0.0584 -0.5545
 4464SOL     OW25024   3.620   0.817   3.352  0.0214  0.3063 -0.2965
 4464SOL    HW125025   3.655   0.888   3.298 -1.3520  1.1538 -0.0451
 4464SOL    HW225026   3.540   0.857   3.386  1.4859  2.3497  0.7068
 4465SOL     OW25027   3.995   0.369  14.103  0.2180  0.4833  0.4753
 4465SOL    HW125028   3.975   0.357  14.196  0.9120 -1.8187  0.3352
 4465SOL    HW225029   3.971   0.461  14.098 -0.1444  0.1790 -3.6265
 4466SOL     OW25030   0.532   3.757   3.844 -0.2256  0.6293 -0.0179
 4466SOL    HW125031   0.506   3.665   3.842  0.7127  0.3563  0.6129
 4466SOL    HW225032   0.448   3.803   3.841 -1.1035 -0.9894 -0.4400
 4467SOL     OW25033   2.504   1.797   4.891  0.2533  0.1806  0.4919
 4467SOL    HW125034   2.560   1.818   4.965  0.2364  1.7374  0.0749
 4467SOL    HW225035   2.479   1.885   4.863  0.8447  0.2501  0.1852
 4468SOL     OW25036   0.348   0.222   8.148  0.4198 -0.2582  0.3920
 4468SOL    HW125037   0.333   0.162   8.075 -0.2966  0.6751 -0.2144
 4468SOL    HW225038   0.402   0.283   8.097 -0.1806 -0.3373 -0.3298
 4469SOL     OW25039   1.709   4.374   0.875  0.3418 -0.4125 -0.0370
 4469SOL    HW125040   1.728   4.281   0.890  2.4535 -0.1025 -0.9105
 4469SOL    HW225041   1.664   4.380   0.790 -1.4497 -0.3139  0.9023
 4470SOL     OW25042   1.377   0.971   4.164  0.1464 -0.0376 -0.4762
 4470SOL    HW125043   1.364   1.066   4.164  0.6176  0.0267 -0.4197
 4470SOL    HW225044   1.414   0.954   4.251  1.0962 -1.1242 -1.0837
 4471SOL     OW25045   4.322   0.435   2.076  0.4008  0.1125  0.0504
 4471SOL    HW125046   4.332   0.408   1.985 -3.0721  1.1827 -0.6340
 4471SOL    HW225047   4.355   0.524   2.066  0.1885  0.0745 -0.9291
 4472SOL     OW25048   2.882   2.106   7.092 -0.1696  0.0677 -0.0644
 4472SOL    HW125049   2.930   2.188   7.105  1.2108 -1.3660  4.0306
 4472SOL    HW225050   2.793   2.139   7.082  0.1090  0.5534 -0.8960
 4473SOL     OW25051   1.273   3.010   3.039 -0.1800  0.3291  0.0092
 4473SOL    HW125052   1.312   3.096   3.054 -3.1360  1.4903  1.0232
 4473SOL    HW225053   1.358   2.970   3.019 -1.3460 -0.8369 -2.5661
 4474SOL     OW25054   2.870   3.695  17.236 -1.0445  0.4675  0.0902
 4474SOL    HW125055   2.931   3.622  17.249 -0.9452  0.2864 -1.3804
 4474SOL    HW225056   2.871   3.699  17.140  1.9062  0.8505  0.1420
 4475SOL     OW25057   0.585   1.301  15.476 -0.1357 -0.0892 -0.3606
 4475SOL    HW125058   0.544   1.240  15.538  0.9044  0.5996  1.0313
 4475SOL    HW225059   0.508   1.341  15.437 -0.0278  0.4089 -0.0672
 4476SOL     OW25060   3.996   3.808   7.539  0.1944 -0.4036  0.5401
 4476SOL    HW125061   4.081   3.806   7.583  2.3435 -1.2110 -3.6648
 4476SOL    HW225062   4.026   3.823   7.450 -1.0129  1.0335  0.3700
 4477SOL     OW25063   3.440   3.336  17.529  0.3697 -0.1619 -0.5750
 4477SOL    HW125064   3.392   3.310  17.450  0.3131  1.7542 -1.1815
 4477SOL    HW225065   3.474   3.421  17.500 -1.2379  0.5507 -0.3713
 4478SOL     OW25066   4.314   0.287  14.166 -0.3413  0.6109  0.1950
 4478SOL    HW125067   4.288   0.348  14.098 -2.0917 -0.1410  0.1846
 4478SOL    HW225068   4.405   0.263  14.145 -0.7742  0.1490 -1.1093
 4479SOL     OW25069   1.595   2.504   3.766  0.0635 -0.2201  0.3309
 4479SOL    HW125070   1.513   2.515   3.718 -0.5059 -1.4605  1.0040
 4479SOL    HW225071   1.649   2.521   3.689  0.7446 -0.8037  0.6795
 4480SOL     OW25072   1.178   1.674   3.578  0.0473  0.7372  0.4484
 4480SOL    HW125073   1.205   1.590   3.543  0.8551  1.1349  0.1159
 4480SOL    HW225074   1.256   1.730   3.571  0.9214 -0.4182  0.8953
 4481SOL     OW25075   0.803   3.552   7.315  0.4243  0.1789  0.0705
 4481SOL    HW125076   0.800   3.596   7.399  1.8184 -1.1793  0.8249
 4481SOL    HW225077   0.848   3.619   7.263  2.4771 -1.1610  0.0990
 4482SOL     OW25078   0.073   4.376   5.831 -0.2633 -0.3562 -0.8760
 4482SOL    HW125079   0.003   4.440   5.848  1.1565  1.0120 -0.2270
 4482SOL    HW225080   0.149   4.431   5.815  1.4579 -1.7822  2.3872
 4483SOL     OW25081   2.290   1.692   8.826 -0.7389  0.5428 -0.4046
 4483SOL    HW125082   2.219   1.756   8.830 -0.3185  0.9687  0.2303
 4483SOL    HW225083   2.359   1.754   8.849 -0.6155 -0.3597  1.5752
 4484SOL     OW25084   0.486   1.552   6.773  0.2053  0.3356 -0.4155
 4484SOL    HW125085   0.572   1.561   6.814  0.3320  1.1586 -0.8612
 4484SOL    HW225086   0.419   1.549   6.842 -0.4459 -2.3910 -1.1500
 4485SOL     OW25087   1.857   4.449   1.244 -0.4434  0.3791  0.0510
 4485SOL    HW125088   1.907   4.386   1.192  0.5717  2.2762 -1.2779
 4485SOL    HW225089   1.788   4.491   1.193 -0.8946 -2.7305 -1.8422
 4486SOL     OW25090   3.620   3.074   6.282  0.4379 -0.2346  0.2283
 4486SOL    HW125091   3.621   3.116   6.196  0.8257  0.2473  0.4704
 4486SOL    HW225092   3.526   3.075   6.297  0.4598 -0.6258  0.3804
 4487SOL     OW25093   1.817   3.995   4.761 -0.3895 -0.7411  0.5559
 4487SOL    HW125094   1.742   3.942   4.789 -1.1317 -0.5567 -1.0673
 4487SOL    HW225095   1.874   3.989   4.837 -0.2691 -2.2086  0.3528
 4488SOL     OW25096   0.185   1.557   3.923 -0.4879 -0.0242  0.1682
 4488SOL    HW125097   0.182   1.567   3.828  1.7721 -0.0332  0.0873
 4488SOL    HW225098   0.095   1.539   3.950 -0.8844  1.0940 -0.3862
 4489SOL     OW25099   0.272   0.492   4.502 -0.0921  0.2187 -0.6131
 4489SOL    HW125100   0.249   0.553   4.431  2.5815  2.7978  0.7117
 4489SOL    HW225101   0.313   0.420   4.455  0.8167  0.6355 -0.4628
 4490SOL     OW25102   2.546   4.041   5.137  0.3334 -0.8353 -0.2475
 4490SOL    HW125103   2.642   4.048   5.140  0.2394  0.1464  0.5837
 4490SOL    HW225104   2.527   4.134   5.127 -2.8873 -1.3171  1.3779
 4491SOL     OW25105   0.024   1.189   3.197  0.3049 -0.1122  0.2290
 4491SOL    HW125106   0.032   1.094   3.209 -1.4701  0.0180  2.3822
 4491SOL    HW225107   0.029   1.203   3.102 -0.9920  0.5044  0.2579
 4492SOL     OW25108   0.149   3.758   2.993 -0.0356  0.0701 -0.1713
 4492SOL    HW125109   0.240   3.772   3.018  0.2637 -0.8170 -0.7345
 4492SOL    HW225110   0.109   3.841   3.018 -1.0589 -1.1464  2.2261
 4493SOL     OW25111   1.140   2.662   6.612 -0.3150 -0.0306 -0.4946
 4493SOL    HW125112   1.156   2.733   6.674 -1.5678 -1.3144  1.3332
 4493SOL    HW225113   1.209   2.602   6.638  0.3313  0.8456 -0.1960
 4494SOL     OW25114   1.952   1.060   2.525  0.1346 -0.2880  0.2614
 4494SOL    HW125115   1.973   1.116   2.450  0.5341  1.3202  1.5762
 4494SOL    HW225116   1.987   1.106   2.601 -1.9839 -1.1389  1.7492
 4495SOL     OW25117   1.208   1.327   6.509 -0.3541  0.2002  0.5761
 4495SOL    HW125118   1.124   1.374   6.508  0.8557  2.3607  0.2791
 4495SOL    HW225119   1.180   1.242   6.477 -2.1728  0.5795  1.1261
 4496SOL     OW25120   4.696   4.234  11.738  0.4686 -0.4610 -0.3052
 4496SOL    HW125121   0.002   4.158  11.775 -0.6823 -1.5232 -1.0959
 4496SOL    HW225122   4.662   4.274  11.819 -2.8448  0.3381 -2.0797
 4497SOL     OW25123   3.196   3.121   1.915  0.3132  0.1232  0.5538
 4497SOL    HW125124   3.146   3.200   1.898  2.3524  1.2254 -0.3310
 4497SOL    HW225125   3.286   3.150   1.896  0.3025  0.2100  0.6330
 4498SOL     OW25126   4.384   3.857  12.137  0.3904  0.1727  0.0588
 4498SOL    HW125127   4.336   3.940  12.148  0.1099  0.0582 -0.2779
 4498SOL    HW225128   4.387   3.831  12.229  0.9638 -1.8621 -0.5496
 4499SOL     OW25129   3.873   1.698   0.652 -0.0357 -0.1851 -0.4949
 4499SOL    HW125130   3.938   1.760   0.687  2.3382 -2.2881 -1.1315
 4499SOL    HW225131   3.811   1.681   0.723  0.1486 -1.2106 -0.5778
 4500SOL     OW25132   0.089   1.733   9.693 -0.1434 -0.3181 -0.7667
 4500SOL    HW125133   0.053   1.678   9.762 -0.0580 -0.6783 -1.0074
 4500SOL    HW225134   0.006   1.735   9.643  0.3870 -0.8064 -1.6749
 4501SOL     OW25135   2.911   3.509  15.882  0.4373  0.1553  0.2392
 4501SOL    HW125136   3.001   3.538  15.901  0.3998  0.7635 -0.5368
 4501SOL    HW225137   2.904   3.443  15.951  1.8593  0.6776  0.8916
 4502SOL     OW25138   4.500   1.868  10.204 -0.1747 -0.2783 -0.0825
 4502SOL    HW125139   4.425   1.918  10.237 -0.1634  1.0000 -1.9479
 4502SOL    HW225140   4.558   1.880  10.279 -0.0759  1.2559 -0.3871
 4503SOL     OW25141   1.371   2.636   8.779  0.6578 -0.0748  0.0411
 4503SOL    HW125142   1.385   2.647   8.873  0.9029 -0.0575  0.0025
 4503SOL    HW225143   1.372   2.723   8.740 -1.5628 -0.0919 -0.0768
 4504SOL     OW25144   0.761   3.576   6.721  0.5394  0.1692  1.0884
 4504SOL    HW125145   0.693   3.512   6.701 -0.5595  2.2214 -1.7578
 4504SOL    HW225146   0.719   3.631   6.787 -0.1114  0.0453  0.7777
 4505SOL     OW25147   0.048   4.018  15.086 -0.0881 -0.3222 -0.0645
 4505SOL    HW125148   0.008   4.098  15.051  0.3945 -0.9496 -1.9970
 4505SOL    HW225149   4.711   3.970  15.121 -0.9794  0.8886 -0.3021
 4506SOL     OW25150   4.581   2.209   5.953 -0.2300 -0.3286 -0.1635
 4506SOL    HW125151   4.525   2.142   5.914 -0.3593 -0.9883  1.1254
 4506SOL    HW225152   4.538   2.283   5.910 -0.4483  0.7539  1.9037
 4507SOL     OW25153   3.739   1.726   8.229 -0.2482  0.6286 -0.1075
 4507SOL    HW125154   3.660   1.704   8.180 -1.2557  0.2147  1.6876
 4507SOL    HW225155   3.708   1.750   8.317  0.2650 -1.1079  0.5460
 4508SOL     OW25156   1.518   3.760   4.169 -0.7305  0.3326 -0.2457
 4508SOL    HW125157   1.473   3.826   4.116  0.4195  0.6658 -0.8220
 4508SOL    HW225158   1.611   3.775   4.152 -0.8147  0.9031 -0.2129
 4509SOL     OW25159   4.427   3.365   7.231 -0.2629 -0.3532 -0.3464
 4509SOL    HW125160   4.369   3.374   7.155  1.7007  0.0687 -1.7822
 4509SOL    HW225161   4.472   3.287   7.198  0.4203  1.0180 -2.5943
 4510SOL     OW25162   1.752   3.457   4.033 -0.1449 -0.0988  0.3169
 4510SOL    HW125163   1.745   3.476   4.126 -0.2059  1.2075  0.0596
 4510SOL    HW225164   1.825   3.516   4.012 -1.4962  1.6673  0.5678
 4511SOL     OW25165   3.988   4.079   3.651 -0.0135  0.0901 -0.4990
 4511SOL    HW125166   3.990   4.152   3.713 -3.5817 -0.2554  0.0046
 4511SOL    HW225167   4.059   4.120   3.601  1.9024  1.6936  3.4968
 4512SOL     OW25168   4.113   0.927  13.760  0.1151 -0.3719 -0.0663
 4512SOL    HW125169   4.110   1.021  13.778 -1.3637 -0.3395 -0.4581
 4512SOL    HW225170   4.067   0.928  13.676  1.7288  1.2346 -0.9033
 4513SOL     OW25171   0.487   4.572   7.524  0.0280  0.1041  0.4501
 4513SOL    HW125172   0.418   4.639   7.514 -0.5468 -0.1242  2.9080
 4513SOL    HW225173   0.444   4.505   7.577  3.1056  0.5421  3.5160
 4514SOL     OW25174   0.029   3.974   3.079 -0.4045  0.1568 -0.5135
 4514SOL    HW125175   0.100   4.036   3.091 -1.3016  0.3168  3.7998
 4514SOL    HW225176   4.691   4.030   3.072  0.6099  1.4828 -1.0489
 4515SOL     OW25177   4.405   3.681   8.610  0.1121 -0.0688  0.4823
 4515SOL    HW125178   4.375   3.635   8.688 -1.0886 -0.6190 -0.3037
 4515SOL    HW225179   4.491   3.708   8.641 -0.1346 -0.2521  1.3279
 4516SOL     OW25180   4.241   1.354   7.472 -0.4819 -0.2820 -0.1677
 4516SOL    HW125181   4.160   1.339   7.424  0.3329 -1.6422 -1.1053
 4516SOL    HW225182   4.254   1.271   7.517  3.8433  0.8900  0.8526
 4517SOL     OW25183   2.526   0.579  14.377  0.0186 -0.0401 -0.8214
 4517SOL    HW125184   2.513   0.650  14.314 -0.9241  0.9440  0.4925
 4517SOL    HW225185   2.593   0.621  14.431 -3.3818  1.9510  1.8285
 4518SOL     OW25186   4.113   0.798   9.393 -0.4703 -1.1166  0.7369
 4518SOL    HW125187   4.152   0.714   9.370  1.0550  0.3185 -1.8011
 4518SOL    HW225188   4.027   0.789   9.352 -0.8489  2.4758  0.7716
 4519SOL     OW25189   1.895   0.113   1.955 -0.2231  0.5323  0.2271
 4519SOL    HW125190   1.988   0.091   1.955  0.2813  2.6699  1.8668
 4519SOL    HW225191   1.868   0.033   1.911 -1.6234  0.9831  0.2547
 4520SOL     OW25192   2.688   2.821   9.638 -0.1889 -0.3500 -0.5163
 4520SOL    HW125193   2.758   2.759   9.618  0.7424 -0.0226  1.7818
 4520SOL    HW225194   2.656   2.795   9.724  1.3568  1.2928  0.5386
 4521SOL     OW25195   4.049   3.240   1.974 -0.2159  0.1786 -0.3700
 4521SOL    HW125196   4.050   3.232   2.069 -3.3867  1.0028 -0.2796
 4521SOL    HW225197   4.001   3.322   1.972  0.5548  0.5767 -2.6661
 4522SOL     OW25198   3.510   0.522  15.737 -0.3883  0.0063 -0.3008
 4522SOL    HW125199   3.460   0.516  15.656 -0.9088  0.9799 -0.0593
 4522SOL    HW225200   3.515   0.615  15.759  4.3528 -0.1621 -0.7782
 4523SOL     OW25201   1.695   1.461  15.292  0.1283  0.0036 -0.0761
 4523SOL    HW125202   1.739   1.428  15.214  1.3933 -0.3213  0.7743
 4523SOL    HW225203   1.749   1.414  15.355 -1.3446 -0.9163  0.4944
 4524SOL     OW25204   3.938   2.766   5.390  0.3838  0.1788 -0.2229
 4524SOL    HW125205   3.945   2.742   5.482  1.0950 -0.1258 -0.3561
 4524SOL    HW225206   4.024   2.806   5.380  1.0500 -1.7436 -2.0898
 4525SOL     OW25207   1.278   1.025   6.568 -0.5724 -0.0887  0.0196
 4525SOL    HW125208   1.238   1.052   6.484 -0.3420  2.2836  0.6574
 4525SOL    HW225209   1.371   1.041   6.554 -0.5617  0.6203  0.9015
 4526SOL     OW25210   4.368   2.205   1.433 -0.4964  0.8682 -0.2099
 4526SOL    HW125211   4.306   2.185   1.363  0.0771  1.1637 -0.8020
 4526SOL    HW225212   4.404   2.290   1.408 -0.0910  1.4897  2.5024
 4527SOL     OW25213   2.521   2.758  15.711  0.7803  0.7353 -0.0936
 4527SOL    HW125214   2.437   2.804  15.708  1.3929  1.8399  0.0735
 4527SOL    HW225215   2.520   2.711  15.627  2.0079 -1.8222  1.3013
 4528SOL     OW25216   4.638   4.567   2.397  0.3947  0.2002  0.0144
 4528SOL    HW125217   4.626   4.660   2.375 -1.5864 -0.2850 -0.9137
 4528SOL    HW225218   4.626   4.526   2.312  1.0656  0.5951 -0.2764
 4529SOL     OW25219   0.164   0.223  11.603  0.2669 -0.2162 -0.1563
 4529SOL    HW125220   0.163   0.227  11.699  3.0408  0.4179 -0.1637
 4529SOL    HW225221   0.069   0.224  11.589  0.2442  3.2146  0.2406
 4530SOL     OW25222   1.816   1.895   3.156 -0.2527  0.2845 -0.0626
 4530SOL    HW125223   1.811   1.989   3.137  2.0240  0.7327  1.5374
 4530SOL    HW225224   1.732   1.857   3.132 -0.1783  0.5752 -0.7793
 4531SOL     OW25225   0.760   3.042   3.025 -0.1881  0.0307 -0.2797
 4531SOL    HW125226   0.751   2.948   3.036  3.3808 -0.4410 -1.5083
 4531SOL    HW225227   0.852   3.048   2.998 -0.2099 -0.2401 -0.4082
 4532SOL     OW25228   0.848   3.900   7.985  0.1573  0.5680 -0.8140
 4532SOL    HW125229   0.772   3.847   7.959  0.4465  0.0527 -0.6081
 4532SOL    HW225230   0.860   3.971   7.923  1.0683  1.0004 -0.1295
 4533SOL     OW25231   0.157   1.778  13.993 -0.0319  0.6310  0.1187
 4533SOL    HW125232   0.228   1.735  14.041 -0.8728  0.3527  1.1184
 4533SOL    HW225233   0.092   1.709  13.978  0.1325  0.3255  0.8162
 4534SOL     OW25234   1.523   3.588  14.405  0.4409  0.2356 -0.6959
 4534SOL    HW125235   1.440   3.543  14.416  0.1770  0.3509 -2.3214
 4534SOL    HW225236   1.498   3.648  14.335 -0.9338  1.0812  0.5128
 4535SOL     OW25237   2.021   0.861  13.209  0.1688  0.4273 -0.3820
 4535SOL    HW125238   1.990   0.818  13.130  0.0590  2.1310 -1.2766
 4535SOL    HW225239   1.937   0.882  13.248  0.5132  0.5676  0.2794
 4536SOL     OW25240   2.433   4.639   6.515 -0.3968  0.2825  0.2415
 4536SOL    HW125241   2.421   4.560   6.463 -0.7853  0.2581  0.3680
 4536SOL    HW225242   2.419   4.705   6.447  0.1642  0.9353  0.7581
 4537SOL     OW25243   2.194   3.357   2.564 -0.0416 -0.0923  0.4020
 4537SOL    HW125244   2.262   3.300   2.529 -1.1218 -1.2765  0.2501
 4537SOL    HW225245   2.175   3.421   2.495 -0.2934 -0.5033  0.0931
 4538SOL     OW25246   2.703   4.433   5.559  0.0413  0.1409 -0.4200
 4538SOL    HW125247   2.656   4.431   5.475 -1.4818 -1.3009  0.4767
 4538SOL    HW225248   2.714   4.526   5.579  0.7395  0.4792 -2.3322
 4539SOL     OW25249   3.149   3.379   7.516  0.1661 -0.4447  0.0813
 4539SOL    HW125250   3.137   3.367   7.610  1.4041  0.3730  0.3418
 4539SOL    HW225251   3.106   3.305   7.473  0.6370 -1.4798  1.3943
 4540SOL     OW25252   1.171   3.598  13.733 -0.7566  0.0146 -0.0544
 4540SOL    HW125253   1.241   3.632  13.789  0.4053 -0.0984 -1.4190
 4540SOL    HW225254   1.102   3.580  13.796 -0.4628  0.4057  0.3844
 4541SOL     OW25255   1.159   2.518   1.647 -0.1370 -0.3898 -0.0033
 4541SOL    HW125256   1.088   2.549   1.591  0.1368  0.9209  0.3752
 4541SOL    HW225257   1.136   2.560   1.730 -0.0067 -0.4047  0.0410
 4542SOL     OW25258   3.004   1.540   2.772 -0.8960 -0.7803  0.1273
 4542SOL    HW125259   2.969   1.471   2.827  0.7645 -1.1755  0.7116
 4542SOL    HW225260   2.992   1.498   2.688 -3.1217 -0.1260  0.1289
 4543SOL     OW25261   0.737   1.987   3.147 -0.5560  0.1026 -0.3468
 4543SOL    HW125262   0.662   2.015   3.095 -1.6205  0.2237  1.2476
 4543SOL    HW225263   0.792   2.052   3.103  0.6630 -1.0248 -0.4648
 4544SOL     OW25264   3.671   1.450  14.508  0.3568  0.1623 -0.3354
 4544SOL    HW125265   3.688   1.522  14.569 -0.8126 -1.1156  1.5053
 4544SOL    HW225266   3.576   1.437  14.509  0.6042 -1.7151 -0.3112
 4545SOL     OW25267   3.563   4.078  16.732 -0.1445 -0.4554  0.2425
 4545SOL    HW125268   3.645   4.118  16.707  2.2427 -2.6978  4.4458
 4545SOL    HW225269   3.582   4.050  16.822  1.0176  2.1016  0.7790
 4546SOL     OW25270   0.767   1.630   9.703 -0.4168  0.3129 -0.1615
 4546SOL    HW125271   0.779   1.537   9.721  0.0951  0.5214  0.5522
 4546SOL    HW225272   0.691   1.637   9.645 -1.6473 -1.5935  1.2294
 4547SOL     OW25273   4.619   1.680   9.539 -0.0719  0.2570 -0.0151
 4547SOL    HW125274   4.531   1.717   9.536  0.0476  0.6183  0.7302
 4547SOL    HW225275   4.591   1.588   9.538 -1.0300  0.5572 -0.6821
 4548SOL     OW25276   0.451   3.644   4.870  0.6375  0.1892 -1.0033
 4548SOL    HW125277   0.416   3.714   4.815 -1.3539  0.4405  0.5980
 4548SOL    HW225278   0.402   3.570   4.834 -1.5794  0.7415  0.9004
 4549SOL     OW25279   2.105   1.595   9.718  0.5742  0.4903  0.6595
 4549SOL    HW125280   2.188   1.634   9.745  0.6824  1.7736 -1.5234
 4549SOL    HW225281   2.096   1.507   9.756  1.3016 -0.5551 -1.5711
 4550SOL     OW25282   2.719   1.117   8.298  0.1926 -0.2766 -0.1507
 4550SOL    HW125283   2.783   1.076   8.355  1.7871 -0.1513 -1.8631
 4550SOL    HW225284   2.663   1.041   8.281 -0.8558  0.2937  0.7505
 4551SOL     OW25285   2.509   3.588   5.284  0.9134  0.5262  0.0562
 4551SOL    HW125286   2.428   3.549   5.315  2.5413 -1.6366  1.5893
 4551SOL    HW225287   2.533   3.518   5.223 -0.9914 -0.4310  0.3962
 4552SOL     OW25288   2.671   0.033   2.797 -0.3770 -0.4966 -0.0596
 4552SOL    HW125289   2.669   4.703   2.863 -0.7941  1.0345  1.5316
 4552SOL    HW225290   2.714   4.727   2.724  0.4607  0.6704 -0.2798
 4553SOL     OW25291   3.334   0.085   2.240  0.3423 -0.1960  1.5565
 4553SOL    HW125292   3.386   0.023   2.290  1.3278  1.0269  2.0356
 4553SOL    HW225293   3.402   0.117   2.181  0.8733  1.2209  2.9336
 4554SOL     OW25294   0.200   0.681   4.342 -0.3385 -0.4335  0.0469
 4554SOL    HW125295   0.229   0.667   4.252  1.3075 -0.0654  0.5396
 4554SOL    HW225296   0.223   0.773   4.351  3.4844 -1.6989  2.8355
 4555SOL     OW25297   0.952   0.862   9.764 -0.0120  0.2405  0.6896
 4555SOL    HW125298   1.028   0.886   9.817 -0.4027 -0.1521  1.4160
 4555SOL    HW225299   0.878   0.859   9.825 -0.5834 -1.3058 -0.0800
 4556SOL     OW25300   2.326   0.236  17.399 -0.0143  0.6418  0.0545
 4556SOL    HW125301   2.337   0.329  17.417  1.6332  0.5465 -0.5016
 4556SOL    HW225302   2.415   0.221  17.369  0.4442  0.6139  1.4064
 4557SOL     OW25303   3.347   4.384  15.806  0.7543 -0.5634  0.7921
 4557SOL    HW125304   3.387   4.458  15.853  1.1037  0.2476 -0.7962
 4557SOL    HW225305   3.279   4.345  15.861 -0.6251  0.5784 -0.0831
 4558SOL     OW25306   1.276   0.856   2.956 -0.0261  0.8314  0.2543
 4558SOL    HW125307   1.355   0.906   2.932  0.1021  0.6492  0.2940
 4558SOL    HW225308   1.252   0.899   3.038 -1.1226 -0.4136  0.5893
 4559SOL     OW25309   4.291   0.306  11.690  0.1028 -0.5542  0.2484
 4559SOL    HW125310   4.243   0.223  11.690 -1.1642  0.1811 -1.5132
 4559SOL    HW225311   4.233   0.360  11.636  0.9594 -0.5192 -0.6328
 4560SOL     OW25312   3.286   4.728   0.926  0.7529 -0.5513  0.2286
 4560SOL    HW125313   3.309   0.081   0.932 -3.4257  0.5054  0.3587
 4560SOL    HW225314   3.321   4.719   0.837  0.2188 -2.4831  0.1950
 4561SOL     OW25315   0.194   1.877   2.091  0.2457 -0.0063  0.7612
 4561SOL    HW125316   0.138   1.954   2.097 -0.1770 -0.2811  0.3167
 4561SOL    HW225317   0.267   1.909   2.145 -0.1439 -1.7710  2.3166
 4562SOL     OW25318   1.036   4.483   9.647  0.6028 -0.3330  0.1161
 4562SOL    HW125319   1.044   4.388   9.636 -0.9673 -0.4268 -0.2157
 4562SOL    HW225320   1.100   4.513   9.582 -3.2014  0.6418 -3.1924
 4563SOL     OW25321   2.638   1.820   0.125  0.4824 -0.7159  0.1828
 4563SOL    HW125322   2.671   1.881   0.060  0.5720 -0.7495  0.1970
 4563SOL    HW225323   2.637   1.874   0.204  1.3297  0.3093 -0.5152
 4564SOL     OW25324   2.009   0.230   6.644 -0.5048  0.4061  0.6104
 4564SOL    HW125325   1.966   0.268   6.720 -0.8057  2.9557 -0.8308
 4564SOL    HW225326   2.054   0.159   6.690 -0.2988 -1.6970 -2.7591
 4565SOL     OW25327   1.576   0.584   3.091  0.2458  0.3054 -0.5026
 4565SOL    HW125328   1.541   0.529   3.021  1.9355 -0.4830 -0.7272
 4565SOL    HW225329   1.638   0.644   3.051 -1.6397  1.8524 -1.1138
 4566SOL     OW25330   1.421   3.139   2.143  0.2605 -0.3849 -0.2410
 4566SOL    HW125331   1.496   3.095   2.105 -1.0530 -1.0121 -2.0839
 4566SOL    HW225332   1.450   3.152   2.234 -0.9413 -1.7876  0.3499
 4567SOL     OW25333   0.951   1.591   8.362 -0.6476  0.6471 -0.6188
 4567SOL    HW125334   0.872   1.539   8.344 -1.0440  0.7576  0.7947
 4567SOL    HW225335   0.938   1.626   8.451 -0.8810 -0.6988 -0.1244
 4568SOL     OW25336   2.888   0.121  15.547  0.4230  0.9155 -0.4818
 4568SOL    HW125337   2.936   0.070  15.612 -1.7243  2.7510  2.5129
 4568SOL    HW225338   2.816   0.145  15.604 -0.8351  0.5132 -1.8914
 4569SOL     OW25339   0.120   4.180   6.051  0.4977  0.1715 -0.2357
 4569SOL    HW125340   0.099   4.255   5.995 -1.4038 -0.0796  0.1589
 4569SOL    HW225341   0.203   4.149   6.014  0.8106 -0.6857  1.1997
 4570SOL     OW25342   3.201   0.017  16.436 -0.0146 -0.4361 -0.0626
 4570SOL    HW125343   3.205   0.090  16.373 -0.1969 -2.5880 -2.5694
 4570SOL    HW225344   3.290   0.013  16.472 -0.5184 -1.0206  1.0841
 4571SOL     OW25345   1.814   3.626  11.382  0.3212  0.1500  0.4159
 4571SOL    HW125346   1.902   3.661  11.398  0.8975  0.2345 -2.9609
 4571SOL    HW225347   1.806   3.557  11.448 -2.1933 -0.9055 -0.9930
 4572SOL     OW25348   2.059   4.130   6.311  0.5208  0.0412  0.2569
 4572SOL    HW125349   2.050   4.037   6.328 -0.6623  0.1777  0.3778
 4572SOL    HW225350   2.020   4.131   6.224  2.4437  0.7451 -0.6032
 4573SOL     OW25351   1.367   2.582   4.026  0.2496 -0.1014  0.3690
 4573SOL    HW125352   1.412   2.663   4.004 -0.4229  0.0730 -0.3573
 4573SOL    HW225353   1.292   2.626   4.066  1.5075  2.0673  0.3516
 4574SOL     OW25354   0.775   2.180   8.070  0.2683 -0.1472 -0.2793
 4574SOL    HW125355   0.785   2.155   8.162 -0.8139  0.0672 -0.0963
 4574SOL    HW225356   0.747   2.272   8.077  1.0179  0.0072  0.6410
 4575SOL     OW25357   3.668   1.653   6.211  0.3434 -0.5827  0.3044
 4575SOL    HW125358   3.654   1.673   6.303  0.3728 -1.4418  0.4951
 4575SOL    HW225359   3.599   1.702   6.166  0.3563  0.8578  1.8762
 4576SOL     OW25360   3.792   3.042   5.946 -0.3097 -0.2037  0.0553
 4576SOL    HW125361   3.869   3.099   5.947 -0.4818  0.0253  0.4442
 4576SOL    HW225362   3.723   3.102   5.977 -0.5256 -0.1526 -0.5165
 4577SOL     OW25363   3.599   1.481   0.407  0.2738  0.3706 -0.1728
 4577SOL    HW125364   3.534   1.439   0.463  1.7477 -1.6310  0.0433
 4577SOL    HW225365   3.556   1.490   0.322  1.1211 -2.8848 -0.9604
 4578SOL     OW25366   4.446   4.467   1.458 -0.0697 -0.2617 -0.0840
 4578SOL    HW125367   4.393   4.390   1.438  1.3452 -0.8061 -1.8439
 4578SOL    HW225368   4.520   4.455   1.399 -1.2256 -0.0875 -1.5745
 4579SOL     OW25369   0.225   0.331   4.149 -0.1821  0.8014  0.0469
 4579SOL    HW125370   0.234   0.257   4.209  1.4058  0.9182 -0.0405
 4579SOL    HW225371   0.249   0.289   4.067 -0.8532  0.8479 -0.1719
 4580SOL     OW25372   1.412   1.006   8.047 -0.3090  0.2278  0.0951
 4580SOL    HW125373   1.430   1.084   7.995  0.8297 -0.1509 -0.0682
 4580SOL    HW225374   1.467   0.943   8.001  0.5999  0.8857  0.2902
 4581SOL     OW25375   1.252   4.656   3.616  0.6440 -0.4209  0.7823
 4581SOL    HW125376   1.231   4.590   3.550  2.9534  0.1332 -0.4965
 4581SOL    HW225377   1.345   4.676   3.606  0.6731 -0.7583  0.3969
 4582SOL     OW25378   3.692   4.128  11.218  0.0199  0.6815  0.4671
 4582SOL    HW125379   3.667   4.057  11.277  0.1865  0.3749  0.1661
 4582SOL    HW225380   3.723   4.070  11.148 -1.4595 -1.0648  1.2582
 4583SOL     OW25381   0.515   2.318   1.849 -0.4543  0.3608 -0.0700
 4583SOL    HW125382   0.482   2.393   1.899  1.0347 -0.6519  2.4556
 4583SOL    HW225383   0.572   2.357   1.783 -0.0680 -0.5696 -0.2911
 4584SOL     OW25384   4.680   1.896   7.415 -0.2327 -0.2034  0.2161
 4584SOL    HW125385   4.613   1.909   7.348  1.6385  0.0649 -1.5859
 4584SOL    HW225386   4.635   1.914   7.497  2.2694 -0.3263  1.6152
 4585SOL     OW25387   4.170   0.992   2.251 -0.6086  0.2532 -0.0888
 4585SOL    HW125388   4.141   0.933   2.182  1.4675 -1.6536  0.6911
 4585SOL    HW225389   4.257   1.007   2.213  0.3460  0.1734  2.0912
 4586SOL     OW25390   2.834   1.966   1.604  0.0424 -0.1401  0.3642
 4586SOL    HW125391   2.878   2.041   1.562 -0.9433 -0.6369 -1.5514
 4586SOL    HW225392   2.825   1.906   1.530 -1.0687  0.8404 -0.3038
 4587SOL     OW25393   0.369   0.241  16.442 -0.1895  0.4273  0.4111
 4587SOL    HW125394   0.401   0.243  16.352 -0.2083 -0.7649  0.3785
 4587SOL    HW225395   0.279   0.262  16.420 -0.7542 -1.9439  0.4893
 4588SOL     OW25396   4.563   2.663   4.784  0.4425 -0.0004 -0.0866
 4588SOL    HW125397   4.550   2.754   4.809  1.5226  0.7073 -2.2174
 4588SOL    HW225398   4.571   2.633   4.875  1.2140  0.0767 -0.1321
 4589SOL     OW25399   3.763   3.071   4.054  0.5416 -0.1870 -0.4050
 4589SOL    HW125400   3.755   3.165   4.037 -0.9910 -0.1427  0.5497
 4589SOL    HW225401   3.750   3.056   4.148  1.6649  2.1588  0.1152
 4590SOL     OW25402   2.130   1.105  13.225  0.0241 -0.4691  0.3646
 4590SOL    HW125403   2.054   1.127  13.279  0.0238  0.0623  0.1513
 4590SOL    HW225404   2.112   1.016  13.194  1.2016 -1.1988  1.7657
 4591SOL     OW25405   2.868   3.070   2.395  0.0960  0.0443 -0.0679
 4591SOL    HW125406   2.847   3.102   2.306 -3.0830  0.1570  0.7210
 4591SOL    HW225407   2.935   3.004   2.378  0.7783  0.7185  0.0001
 4592SOL     OW25408   2.897   1.595  16.246 -0.3236 -0.5192 -0.5489
 4592SOL    HW125409   2.887   1.517  16.302  1.3540 -0.7438 -0.5552
 4592SOL    HW225410   2.827   1.585  16.182 -1.6431  0.2608  0.7474
 4593SOL     OW25411   2.332   2.956   5.570 -0.0582  0.3670  0.5160
 4593SOL    HW125412   2.312   2.895   5.642 -1.0131  0.9107  0.7174
 4593SOL    HW225413   2.289   3.034   5.603  0.9503  0.9719  0.3871
 4594SOL     OW25414   1.673   2.426   3.133 -0.6635 -0.2808  0.0757
 4594SOL    HW125415   1.599   2.388   3.086 -0.0867  1.3824 -2.1793
 4594SOL    HW225416   1.654   2.514   3.102  2.0312  0.1314 -0.4812
 4595SOL     OW25417   1.509   4.736   6.242 -0.1461 -0.3735  0.3223
 4595SOL    HW125418   1.542   0.079   6.279 -0.4330 -0.0408 -0.1626
 4595SOL    HW225419   1.513   4.666   6.307  0.0763 -0.8181 -0.1647
 4596SOL     OW25420   0.964   1.326   8.615 -0.0151 -0.0131 -0.4221
 4596SOL    HW125421   0.933   1.242   8.648 -1.2205  0.2223 -0.9642
 4596SOL    HW225422   0.995   1.383   8.686  4.0641 -0.1055 -2.1414
 4597SOL     OW25423   3.465   2.794  11.345  0.0417  0.0249  0.0413
 4597SOL    HW125424   3.474   2.708  11.386 -0.4380  0.1832  0.4791
 4597SOL    HW225425   3.531   2.844  11.394  0.8402  0.5498 -1.5550
 4598SOL     OW25426   1.545   3.325  10.023 -0.3530  0.0578  0.2229
 4598SOL    HW125427   1.588   3.277  10.094 -0.1014 -0.0332  0.0104
 4598SOL    HW225428   1.463   3.278  10.007 -0.1591 -0.4299  0.6651
 4599SOL     OW25429   3.922   3.915   8.700 -0.1019 -0.1903 -0.6175
 4599SOL    HW125430   3.926   3.993   8.644  0.4065  0.1209 -0.1360
 4599SOL    HW225431   4.013   3.885   8.700 -0.5133 -1.4474  1.6439
 4600SOL     OW25432   2.396   4.683   6.777 -0.4449  0.4432 -0.0319
 4600SOL    HW125433   2.453   0.019   6.793 -1.9709  1.4075  0.7999
 4600SOL    HW225434   2.397   4.681   6.681  1.0560  0.8317 -0.0147
 4601SOL     OW25435   3.059   2.161   2.091 -0.2737  0.1478  0.0445
 4601SOL    HW125436   2.977   2.198   2.059 -0.7510 -1.0815 -0.1275
 4601SOL    HW225437   3.042   2.093   2.157  2.7847 -0.2157  0.4606
 4602SOL     OW25438   3.335   3.249   0.022 -0.4587  0.6177  0.3206
 4602SOL    HW125439   3.283   3.170   0.008  1.3159 -0.0244 -2.6781
 4602SOL    HW225440   3.371   3.270  17.690  1.6647 -0.8482  0.8498
 4603SOL     OW25441   3.518   1.481  10.537 -0.3202  0.2310  0.2074
 4603SOL    HW125442   3.545   1.460  10.447 -1.3451 -0.6232  0.1075
 4603SOL    HW225443   3.552   1.405  10.586  0.4436  0.0342 -0.6202
 4604SOL     OW25444   2.396   1.531   4.696 -0.5848 -0.5518 -0.4610
 4604SOL    HW125445   2.310   1.527   4.737 -0.7049 -1.0504 -0.7704
 4604SOL    HW225446   2.458   1.564   4.762 -1.3677 -0.8361  0.4211
 4605SOL     OW25447   1.886   0.100   2.616  0.3630 -0.0207  0.2505
 4605SOL    HW125448   1.893   0.168   2.683 -0.4422 -1.6829  2.0043
 4605SOL    HW225449   1.811   0.140   2.573 -0.6435 -0.9122  1.1844
 4606SOL     OW25450   1.911   0.850   6.945 -0.3997  0.5299 -0.3015
 4606SOL    HW125451   1.957   0.777   6.901  1.3022  1.2852  0.2210
 4606SOL    HW225452   1.991   0.902   6.952 -0.3862  0.2527  1.7212
 4607SOL     OW25453   3.394   0.248   0.939 -0.1645 -0.0720  0.0700
 4607SOL    HW125454   3.490   0.243   0.937 -0.0675  1.3740  0.6799
 4607SOL    HW225455   3.393   0.297   0.857 -1.4930  1.0791  0.7709
 4608SOL     OW25456   3.747   0.914   5.103 -0.1419 -0.2735 -0.1825
 4608SOL    HW125457   3.654   0.894   5.093 -0.3801  0.5186  0.4207
 4608SOL    HW225458   3.792   0.864   5.035 -0.4707 -1.3583  0.4031
 4609SOL     OW25459   3.017   0.227   4.912  0.5719  0.5295 -0.4216
 4609SOL    HW125460   3.071   0.292   4.867 -0.3620  0.7106 -1.2642
 4609SOL    HW225461   3.083   0.162   4.934 -0.4548  0.0514  1.2148
 4610SOL     OW25462   3.064   3.178   8.436  0.1920 -0.4928  0.0143
 4610SOL    HW125463   3.145   3.138   8.404 -0.6180  0.2708 -2.9540
 4610SOL    HW225464   3.108   3.241   8.494 -2.0216 -0.7314  1.9661
 4611SOL     OW25465   0.795   1.403   9.311 -0.1136  0.0552 -0.3757
 4611SOL    HW125466   0.880   1.435   9.341  0.4899 -0.2816 -1.7564
 4611SOL    HW225467   0.729   1.430   9.376 -1.4152 -0.9931 -1.2487
 4612SOL     OW25468   0.962   4.532   2.665  0.6182 -0.2895 -1.1303
 4612SOL    HW125469   0.920   4.600   2.613  0.7794 -0.1176 -1.0347
 4612SOL    HW225470   0.963   4.461   2.601  0.9693 -0.7014 -0.6662
 4613SOL     OW25471   3.971   0.767   6.881  0.1975 -0.1873  0.0046
 4613SOL    HW125472   4.025   0.712   6.823 -3.3837 -2.6940 -0.9339
 4613SOL    HW225473   4.041   0.823   6.914  0.8487 -0.6377 -0.6009
 4614SOL     OW25474   4.687   3.813   8.600  0.7171  0.2323 -0.1081
 4614SOL    HW125475   4.733   3.795   8.681 -0.6548  1.1801  0.8821
 4614SOL    HW225476   4.665   3.905   8.620  0.6143  0.2044 -0.0910
 4615SOL     OW25477   1.251   0.453   6.154  0.3692  0.0984 -0.0465
 4615SOL    HW125478   1.316   0.523   6.149  0.3749 -0.0078 -1.3170
 4615SOL    HW225479   1.274   0.425   6.243 -0.7888  0.1637  0.2647
 4616SOL     OW25480   2.609   2.489   5.920 -0.1723  0.0397 -0.2230
 4616SOL    HW125481   2.648   2.494   6.007 -2.2386  0.3191  0.6835
 4616SOL    HW225482   2.665   2.545   5.864 -0.8486 -0.1553 -1.0966
 4617SOL     OW25483   3.523   2.221   4.088 -0.1539 -0.0769  0.5443
 4617SOL    HW125484   3.457   2.185   4.029  0.6264 -1.6297  0.6127
 4617SOL    HW225485   3.483   2.301   4.121  1.5369  0.9321  0.1431
 4618SOL     OW25486   4.546   1.281   7.131 -0.2555 -0.0638  0.4955
 4618SOL    HW125487   4.583   1.366   7.106 -0.6837 -0.0001  0.0778
 4618SOL    HW225488   4.621   1.224   7.114 -0.1906 -0.4430  2.0442
 4619SOL     OW25489   0.250   3.194   3.086 -0.2520 -0.2778 -0.4957
 4619SOL    HW125490   0.339   3.199   3.051  0.4681  2.4428  1.7053
 4619SOL    HW225491   0.274   3.127   3.151 -2.8675  1.4131  2.2258
 4620SOL     OW25492   3.014   0.929   9.963 -0.3630  0.0335  0.1560
 4620SOL    HW125493   3.048   0.852  10.009 -2.4932 -1.1492 -0.2196
 4620SOL    HW225494   3.096   0.967   9.933 -0.9608  1.6244  0.5285
 4621SOL     OW25495   1.840   2.159   5.783  0.3264 -0.5724 -0.2600
 4621SOL    HW125496   1.861   2.230   5.843  2.6041 -0.2462 -1.4522
 4621SOL    HW225497   1.855   2.211   5.705 -2.3391 -1.6271 -1.4642
 4622SOL     OW25498   3.568   3.175   3.521 -0.0464 -0.2411  0.0705
 4622SOL    HW125499   3.606   3.257   3.492 -0.5895 -0.3312 -0.8746
 4622SOL    HW225500   3.552   3.202   3.612  2.3949  1.6139 -0.0781
 4623SOL     OW25501   0.407   3.624   9.748 -0.3313 -0.3208 -0.9325
 4623SOL    HW125502   0.496   3.645   9.719 -0.5617 -0.7243 -1.9481
 4623SOL    HW225503   0.412   3.637   9.842 -0.9158  0.0316 -0.9511
 4624SOL     OW25504   4.526   3.729   3.039 -0.5622 -0.0940 -0.2096
 4624SOL    HW125505   4.568   3.695   3.118 -1.9993  0.6167  0.8609
 4624SOL    HW225506   4.505   3.818   3.066  2.1231  0.5411 -0.2768
 4625SOL     OW25507   2.508   1.515   6.357 -0.1756  0.5737  0.1232
 4625SOL    HW125508   2.529   1.470   6.275 -1.4934  1.5937 -0.7764
 4625SOL    HW225509   2.586   1.490   6.407 -1.3931  0.6981  2.0804
 4626SOL     OW25510   1.864   1.906   8.358  0.7571  0.5821 -0.0518
 4626SOL    HW125511   1.770   1.893   8.349  0.6531  1.0568  0.3744
 4626SOL    HW225512   1.869   1.993   8.398  1.2211 -0.0761  1.3147
 4627SOL     OW25513   1.603   3.173   9.098  0.1444  0.2918  0.2403
 4627SOL    HW125514   1.572   3.103   9.156  0.0202  0.8079  0.7947
 4627SOL    HW225515   1.555   3.155   9.017  0.2576  0.3600  0.1588
 4628SOL     OW25516   0.789   1.866   3.680  0.6821  0.2800  0.0775
 4628SOL    HW125517   0.758   1.802   3.744  0.7156  0.3486  0.1638
 4628SOL    HW225518   0.719   1.863   3.616  0.8484 -1.0369 -0.0247
 4629SOL     OW25519   3.166   0.510   5.112  0.0304 -0.6712 -0.7492
 4629SOL    HW125520   3.173   0.596   5.070  0.1603 -0.6745 -0.7333
 4629SOL    HW225521   3.135   0.541   5.197  1.9049 -1.1382  0.1035
 4630SOL     OW25522   3.834   4.095   7.422 -1.0958  0.0948  0.0989
 4630SOL    HW125523   3.926   4.074   7.439 -1.2646 -1.1482 -0.5409
 4630SOL    HW225524   3.820   4.061   7.334  1.6025 -1.5872  0.3231
 4631SOL     OW25525   0.752   2.519  12.924  0.2855 -0.0701  0.0360
 4631SOL    HW125526   0.660   2.494  12.915  0.4810 -0.8146  0.0875
 4631SOL    HW225527   0.761   2.606  12.886 -1.2641 -0.2636 -0.7424
 4632SOL     OW25528   1.834   1.887   3.679 -0.2340 -0.0861  0.1546
 4632SOL    HW125529   1.902   1.950   3.654  0.2639 -0.1197  1.4433
 4632SOL    HW225530   1.825   1.836   3.598 -0.0940 -0.0386  0.1090
 4633SOL     OW25531   3.814   4.549   6.818  0.1368 -0.6080  0.0466
 4633SOL    HW125532   3.849   4.609   6.884 -1.3761  1.2141 -0.8004
 4633SOL    HW225533   3.884   4.484   6.818 -0.9328 -1.7688 -0.4210
 4634SOL     OW25534   2.936   0.129   1.305 -0.2188 -0.1501 -0.1266
 4634SOL    HW125535   2.975   0.058   1.356 -2.5740  0.0206  1.9378
 4634SOL    HW225536   2.987   0.198   1.346  1.3733  0.2571 -2.7878
 4635SOL     OW25537   2.215   1.874   4.006 -0.0113 -0.6284 -0.0378
 4635SOL    HW125538   2.213   1.821   4.087 -0.0917 -1.7753 -0.7918
 4635SOL    HW225539   2.133   1.853   3.962  0.9445  0.8655 -2.5301
 4636SOL     OW25540   1.849   0.536  15.517 -0.2235  0.3049 -0.5733
 4636SOL    HW125541   1.826   0.599  15.586  0.3898 -1.5426  1.3016
 4636SOL    HW225542   1.944   0.539  15.512 -0.2035  0.0716 -0.2766
 4637SOL     OW25543   3.607   2.280   4.518 -0.0357  0.7577  0.0740
 4637SOL    HW125544   3.526   2.234   4.539  0.4690 -0.0035  0.3552
 4637SOL    HW225545   3.617   2.313   4.607 -2.7816 -0.9189  0.9927
 4638SOL     OW25546   4.020   4.077   6.393  0.5140  0.3197  0.7873
 4638SOL    HW125547   4.011   4.171   6.410 -2.3444  0.2444 -0.2029
 4638SOL    HW225548   3.928   4.067   6.370  1.4479 -1.0679 -2.2645
 4639SOL     OW25549   1.765   0.473   7.612 -0.3009 -0.0864 -0.3011
 4639SOL    HW125550   1.826   0.412   7.571 -0.8477  0.0586 -1.3148
 4639SOL    HW225551   1.685   0.438   7.573 -0.4770  1.5618 -1.4169
 4640SOL     OW25552   1.288   4.702   3.903  0.4424 -0.4575  0.1856
 4640SOL    HW125553   1.290   4.667   3.814 -1.0691  1.1015 -0.4437
 4640SOL    HW225554   1.360   4.652   3.941  1.0834 -0.9786 -1.7067
 4641SOL     OW25555   4.526   4.488   6.206  0.1096  0.1925 -0.3359
 4641SOL    HW125556   4.558   4.473   6.295  0.4295  0.0632 -0.4729
 4641SOL    HW225557   4.434   4.509   6.220 -0.4306 -1.2388 -1.8349
 4642SOL     OW25558   4.381   1.268  10.539  0.7859  0.1593  0.1680
 4642SOL    HW125559   4.309   1.205  10.534  0.7076  0.2076  0.6595
 4642SOL    HW225560   4.352   1.309  10.620 -1.5316 -1.9140  0.3906
 4643SOL     OW25561   0.511   2.802  13.597 -0.4267  0.1417 -0.1648
 4643SOL    HW125562   0.565   2.823  13.520  0.7145 -0.9596  0.3411
 4643SOL    HW225563   0.446   2.872  13.600  0.2210  0.6345  2.2856
 4644SOL     OW25564   0.824   2.120  11.758 -0.3230  0.4955  0.0641
 4644SOL    HW125565   0.819   2.214  11.773 -2.1448 -0.1780  3.6489
 4644SOL    HW225566   0.912   2.109  11.722  0.4890  1.6092  1.7044
 4645SOL     OW25567   4.119   3.454  10.980 -0.3905  0.3097  0.7127
 4645SOL    HW125568   4.050   3.518  10.998  0.0529  0.6680  1.1467
 4645SOL    HW225569   4.114   3.440  10.886 -0.1066 -0.3189  0.7907
 4646SOL     OW25570   4.389   4.233   8.245  0.1290 -0.2139  0.3363
 4646SOL    HW125571   4.431   4.174   8.308 -1.3048 -0.7079  0.8068
 4646SOL    HW225572   4.364   4.175   8.172  1.0584 -1.1725  0.7664
 4647SOL     OW25573   0.769   3.678   3.713  0.0388 -0.7005  0.2408
 4647SOL    HW125574   0.779   3.584   3.702  0.0558 -0.9392  2.3620
 4647SOL    HW225575   0.708   3.677   3.787  1.0833  0.5398  1.1336
 4648SOL     OW25576   3.095   0.604  16.488  0.1449 -0.6004  0.2175
 4648SOL    HW125577   3.124   0.523  16.530  0.6371  0.2207  1.4669
 4648SOL    HW225578   3.175   0.630  16.442 -0.1774  0.1676  0.0751
 4649SOL     OW25579   0.107   2.791  12.752  0.2821 -0.1434  0.4154
 4649SOL    HW125580   0.191   2.804  12.797 -0.0694  0.9251  0.7677
 4649SOL    HW225581   0.118   2.700  12.726  0.8939 -0.5574  2.0807
 4650SOL     OW25582   0.462   1.073   2.658 -0.4309 -0.0584 -0.3391
 4650SOL    HW125583   0.462   1.168   2.664  2.3865  0.0151 -1.4786
 4650SOL    HW225584   0.556   1.063   2.673 -0.2176  2.3436 -0.2072
 4651SOL     OW25585   4.484   2.049   3.677  0.8683  0.1781  0.3125
 4651SOL    HW125586   4.494   2.040   3.582 -1.1138 -0.1204  0.1284
 4651SOL    HW225587   4.496   2.144   3.688 -0.3451  0.2386  1.0871
 4652SOL     OW25588   2.904   2.802   4.010 -0.6196  0.1640 -0.1958
 4652SOL    HW125589   2.926   2.709   4.021 -3.2611 -0.6153 -1.5135
 4652SOL    HW225590   2.833   2.802   4.074  0.0993 -1.7498  0.6082
 4653SOL     OW25591   1.966   2.473   3.925  0.2277  0.1438  0.0456
 4653SOL    HW125592   2.022   2.460   3.848  2.4623  1.2021  1.5077
 4653SOL    HW225593   2.003   2.553   3.961 -2.1237  1.3436 -0.1993
 4654SOL     OW25594   3.526   3.885   5.222  0.4735  0.5864  0.0249
 4654SOL    HW125595   3.454   3.825   5.202 -1.1251  2.0137  1.4956
 4654SOL    HW225596   3.490   3.924   5.302  0.7049  3.9286 -1.5361
 4655SOL     OW25597   4.173   3.986  11.309  0.0081 -0.2572  0.0394
 4655SOL    HW125598   4.107   4.049  11.337  0.6950 -0.3621  1.8677
 4655SOL    HW225599   4.170   3.929  11.385 -1.4533 -0.1690  0.0504
 4656SOL     OW25600   2.671   3.865  14.621 -0.3665  0.2998 -0.2179
 4656SOL    HW125601   2.691   3.925  14.693 -2.2873 -0.7304  1.1723
 4656SOL    HW225602   2.581   3.890  14.602 -0.1573 -0.1820 -1.8011
 4657SOL     OW25603   0.187   2.896   7.414  0.2600 -0.1515 -0.2525
 4657SOL    HW125604   0.120   2.832   7.391  0.5536 -1.1044  1.5863
 4657SOL    HW225605   0.270   2.850   7.400 -0.0394 -0.4643 -1.0232
 4658SOL     OW25606   4.303   4.085  17.214 -0.7285 -0.3093 -0.5105
 4658SOL    HW125607   4.235   4.047  17.269 -0.6922  1.9773  1.1036
 4658SOL    HW225608   4.333   4.005  17.171  0.4990  1.2633 -2.5492
 4659SOL     OW25609   3.508   2.346   2.476 -0.5357  0.2558 -0.6425
 4659SOL    HW125610   3.576   2.310   2.419  0.2902  0.8278 -0.0213
 4659SOL    HW225611   3.551   2.422   2.513  0.6924 -2.4151  3.4356
 4660SOL     OW25612   1.336   0.271  16.235  0.1603 -0.0977 -0.1434
 4660SOL    HW125613   1.396   0.306  16.169 -1.6632  0.9144 -1.2954
 4660SOL    HW225614   1.385   0.301  16.311  0.2874 -1.8835  0.4661
 4661SOL     OW25615   2.026   3.318   7.779  0.2260 -0.6269 -0.1938
 4661SOL    HW125616   1.957   3.278   7.832  0.5205 -1.8869 -0.7639
 4661SOL    HW225617   2.108   3.277   7.806  0.0157 -0.7937  0.1910
 4662SOL     OW25618   1.900   2.855   9.518  0.0066  1.0204  0.5948
 4662SOL    HW125619   1.866   2.768   9.541  1.0970  0.7131  1.0738
 4662SOL    HW225620   1.981   2.852   9.569  0.0326  1.1471  0.5603
 4663SOL     OW25621   4.689   2.413  13.815 -0.3515  0.2391  0.0653
 4663SOL    HW125622   4.622   2.456  13.762 -3.0265 -0.2135  3.0774
 4663SOL    HW225623   0.018   2.426  13.749 -0.0548  2.6158  0.8514
 4664SOL     OW25624   4.283   0.576   9.402  0.3125  0.2664  0.6282
 4664SOL    HW125625   4.248   0.516   9.336  0.8109 -1.0270  1.5414
 4664SOL    HW225626   4.374   0.545   9.399  1.0135  2.2397  1.3466
 4665SOL     OW25627   3.154   0.827   3.024  0.2319  0.0926 -0.3773
 4665SOL    HW125628   3.179   0.884   3.097 -0.1127 -0.4825  0.1895
 4665SOL    HW225629   3.091   0.765   3.060  1.0826 -1.4199 -1.5157
 4666SOL     OW25630   0.553   4.029  12.122 -0.2478 -0.1261  0.1297
 4666SOL    HW125631   0.608   4.052  12.047 -0.3784  0.5148  0.2328
 4666SOL    HW225632   0.595   4.084  12.188  1.9961 -0.6215 -0.8760
 4667SOL     OW25633   0.376   3.507   5.174  0.0351 -0.2642 -0.1325
 4667SOL    HW125634   0.347   3.447   5.106 -1.9996  0.7914 -0.1649
 4667SOL    HW225635   0.425   3.452   5.236  0.9410  0.3961 -0.2616
 4668SOL     OW25636   0.802   2.711  15.120 -0.1441  0.0720  0.1143
 4668SOL    HW125637   0.895   2.731  15.127  0.0292 -1.4066  2.0210
 4668SOL    HW225638   0.762   2.791  15.154  0.1668  0.1966  0.1891
 4669SOL     OW25639   2.061   3.517   6.499  0.1135  0.6220 -0.2857
 4669SOL    HW125640   1.984   3.573   6.492 -0.0288  0.3065 -1.2624
 4669SOL    HW225641   2.130   3.582   6.503  1.0877 -0.4561  0.6513
 4670SOL     OW25642   3.806   3.058   3.709  0.3847 -0.1634  0.3501
 4670SOL    HW125643   3.852   3.137   3.737 -0.8069  0.8265 -0.4613
 4670SOL    HW225644   3.864   3.028   3.639 -0.3696  0.4282 -0.5224
 4671SOL     OW25645   1.624   2.199   5.536 -0.4435 -0.3017 -0.3271
 4671SOL    HW125646   1.666   2.243   5.610  0.3021 -0.4493 -0.6608
 4671SOL    HW225647   1.634   2.266   5.469 -1.6703  1.2363  1.0224
 4672SOL     OW25648   2.750   2.187   4.794 -0.3484  0.2114 -0.1229
 4672SOL    HW125649   2.804   2.122   4.749 -1.4584  0.2808 -1.5641
 4672SOL    HW225650   2.761   2.268   4.746 -0.1962  0.6767  0.6898
 4673SOL     OW25651   4.052   2.036   5.507 -0.2634 -0.4291 -0.1708
 4673SOL    HW125652   4.024   2.090   5.580 -1.3985  1.2877 -1.8893
 4673SOL    HW225653   4.072   2.099   5.438  0.2380 -0.4139 -0.0130
 4674SOL     OW25654   2.161   1.467  15.068  0.3096 -0.9420 -0.4424
 4674SOL    HW125655   2.134   1.520  14.993  0.8573  2.1742  1.5666
 4674SOL    HW225656   2.148   1.378  15.036 -1.1343 -0.5044 -1.0515
 4675SOL     OW25657   3.594   0.722   7.753 -0.0431  0.1492 -0.6631
 4675SOL    HW125658   3.649   0.654   7.791 -0.1470  0.6242  0.3369
 4675SOL    HW225659   3.652   0.767   7.690 -1.0795 -0.3499 -1.9719
 4676SOL     OW25660   2.682   2.788   3.336  0.5125 -0.4560  0.2933
 4676SOL    HW125661   2.725   2.853   3.391 -0.5322  1.2431 -0.9001
 4676SOL    HW225662   2.751   2.778   3.271 -0.5947 -4.1643 -0.2852
 4677SOL     OW25663   2.005   3.994   2.494  0.2009 -0.0821  0.2353
 4677SOL    HW125664   2.084   4.024   2.540  0.2958 -2.9594  1.9633
 4677SOL    HW225665   1.984   3.906   2.524 -1.3628 -0.5320 -2.1839
 4678SOL     OW25666   4.090   4.194  10.831 -0.0542  0.0338  0.0759
 4678SOL    HW125667   4.029   4.257  10.871 -1.4887 -1.1729 -0.2286
 4678SOL    HW225668   4.109   4.126  10.895  2.3970 -0.3957 -1.1129
 4679SOL     OW25669   2.522   0.332  13.972 -0.2290 -0.3446 -1.0082
 4679SOL    HW125670   2.554   0.422  13.978 -2.1085  0.1141  2.1071
 4679SOL    HW225671   2.453   0.336  13.905 -0.9925 -0.6164 -0.2319
 4680SOL     OW25672   4.195   3.621   7.966  0.0510  0.2355  0.5157
 4680SOL    HW125673   4.153   3.695   7.921 -0.7182  0.2537  1.2584
 4680SOL    HW225674   4.277   3.653   8.003  1.1487 -2.3382  0.3104
 4681SOL     OW25675   4.216   3.244   8.550 -0.1529  0.1357 -0.1096
 4681SOL    HW125676   4.190   3.206   8.634  0.0839  0.3893  0.0821
 4681SOL    HW225677   4.283   3.179   8.528 -1.7371 -1.3870 -0.4437
 4682SOL     OW25678   0.316   1.537   0.545  0.3964  0.4061  0.4290
 4682SOL    HW125679   0.353   1.527   0.633  0.9912 -1.7856 -0.0724
 4682SOL    HW225680   0.382   1.488   0.496  0.1277 -1.0006  1.4489
 4683SOL     OW25681   3.804   4.506   6.258 -0.3978  0.0731 -0.3270
 4683SOL    HW125682   3.835   4.527   6.170  0.7489 -3.4874 -0.7649
 4683SOL    HW225683   3.795   4.595   6.293  1.7414 -0.2642  1.0877
 4684SOL     OW25684   0.966   2.329   6.068  0.2650  0.1257 -0.1287
 4684SOL    HW125685   0.901   2.275   6.114  0.7818  1.1816  1.8433
 4684SOL    HW225686   1.016   2.253   6.038 -0.5755  0.2602 -1.9007
 4685SOL     OW25687   1.300   3.273   8.223  0.3737  0.5245 -0.7131
 4685SOL    HW125688   1.243   3.348   8.234 -1.3873 -0.7495 -1.1851
 4685SOL    HW225689   1.254   3.213   8.282  1.7559 -0.1838 -0.3322
 4686SOL     OW25690   2.665   4.545   0.165 -0.5184  0.2975  0.0529
 4686SOL    HW125691   2.716   4.553   0.085  1.4949 -1.4235  1.1833
 4686SOL    HW225692   2.593   4.488   0.137 -1.3138  1.1738  0.2988
 4687SOL     OW25693   3.006   1.393  11.891 -0.1947 -0.3633  0.1621
 4687SOL    HW125694   3.034   1.393  11.799  0.0950 -0.8972  0.2473
 4687SOL    HW225695   3.029   1.484  11.912 -1.6863  0.0433  0.0073
 4688SOL     OW25696   3.694   1.001  10.936  0.1487 -0.3474 -0.2381
 4688SOL    HW125697   3.708   1.061  11.010 -1.5787  0.4559 -0.5436
 4688SOL    HW225698   3.777   0.957  10.950  1.0617  0.9456 -1.5680
 4689SOL     OW25699   1.470   1.059   0.001  0.0799 -0.4749 -0.7972
 4689SOL    HW125700   1.453   0.972   0.037  2.7995  0.3762  2.5854
 4689SOL    HW225701   1.555   1.052  17.711 -0.2411  2.3878 -1.8458
 4690SOL     OW25702   2.281   4.060   1.602  0.3917 -0.4974  0.4397
 4690SOL    HW125703   2.267   4.146   1.642 -0.6732 -0.3348 -0.2906
 4690SOL    HW225704   2.291   4.091   1.512 -0.7858 -0.8324  0.1857
 4691SOL     OW25705   3.476   3.362   5.437  0.0013 -0.3165  0.3148
 4691SOL    HW125706   3.479   3.266   5.444 -0.3211 -0.3306  0.2419
 4691SOL    HW225707   3.431   3.370   5.353  0.1192  0.4792  0.3299
 4692SOL     OW25708   2.722   3.132   6.225  0.2110 -0.1639  0.6478
 4692SOL    HW125709   2.769   3.214   6.212 -2.7381  1.4293 -0.0045
 4692SOL    HW225710   2.785   3.072   6.185  0.2758 -0.1239  0.6897
 4693SOL     OW25711   1.560   1.608   4.257 -0.5989 -0.2081  0.2484
 4693SOL    HW125712   1.498   1.612   4.183  0.8620  3.7963 -0.7754
 4693SOL    HW225713   1.593   1.697   4.243  2.1397 -1.7123 -2.6648
 4694SOL     OW25714   0.410   4.062  14.952 -0.1308  0.7126 -0.0486
 4694SOL    HW125715   0.482   4.071  14.889 -0.1071 -0.7808 -0.2167
 4694SOL    HW225716   0.390   4.150  14.986  1.0495  0.8792  0.2499
 4695SOL     OW25717   2.055   0.390   7.840  0.2113  0.3499 -0.1129
 4695SOL    HW125718   1.965   0.360   7.832  1.3059 -2.6570 -1.4482
 4695SOL    HW225719   2.092   0.311   7.879  0.7007  0.2520 -0.7691
 4696SOL     OW25720   2.526   2.896   5.190  0.2234 -0.0398 -0.4649
 4696SOL    HW125721   2.512   2.801   5.192 -1.2590  0.1804 -0.4419
 4696SOL    HW225722   2.583   2.903   5.266  0.6069  1.5169 -0.9058
 4697SOL     OW25723   1.845   4.641  13.918  0.1787  0.4085  0.1840
 4697SOL    HW125724   1.848   4.584  13.995  2.0815  0.2788 -0.0055
 4697SOL    HW225725   1.757   4.675  13.935 -0.1768  0.2860 -1.4149
 4698SOL     OW25726   3.496   2.517   6.838  0.2668 -0.1176  0.3694
 4698SOL    HW125727   3.484   2.485   6.927  1.2744 -0.4778  0.3791
 4698SOL    HW225728   3.523   2.439   6.789  0.3798  1.3905 -2.0031
 4699SOL     OW25729   4.486   0.013   8.000  0.1380  0.3980 -0.0153
 4699SOL    HW125730   4.506   0.052   7.915  2.9271 -0.4743  0.2378
 4699SOL    HW225731   4.485   0.092   8.054 -0.4254  1.4129 -1.5144
 4700SOL     OW25732   2.865   2.851   6.509  0.4714 -0.3069  0.2153
 4700SOL    HW125733   2.858   2.915   6.437 -1.5330 -0.7204  0.0340
 4700SOL    HW225734   2.941   2.798   6.485  1.0551  1.4846 -1.9166
 4701SOL     OW25735   2.511   4.330   1.573 -0.0307  0.1410 -0.1428
 4701SOL    HW125736   2.578   4.311   1.639 -0.4526 -0.1501  0.2037
 4701SOL    HW225737   2.563   4.315   1.494 -2.7047 -2.6669 -1.3628
 4702SOL     OW25738   3.532   3.928   1.772  0.6359 -0.6806 -0.0327
 4702SOL    HW125739   3.556   3.919   1.680  0.5411  0.1218 -0.1287
 4702SOL    HW225740   3.440   3.953   1.782  0.6424 -0.1299 -1.3942
 4703SOL     OW25741   0.931   2.337   6.774 -0.2487  0.5842  0.3689
 4703SOL    HW125742   0.855   2.382   6.737 -1.1562 -0.6813  0.7043
 4703SOL    HW225743   0.997   2.401   6.801 -0.1689 -0.5536  2.9011
 4704SOL     OW25744   4.512   1.178   6.034  0.1305  0.1031 -0.3516
 4704SOL    HW125745   4.585   1.129   6.072  0.3174  0.0180 -0.8227
 4704SOL    HW225746   4.456   1.204   6.108  0.3104 -0.5983  0.0316
 4705SOL     OW25747   3.970   0.913   9.897 -0.7412 -0.3782  0.0293
 4705SOL    HW125748   4.033   0.923   9.826  0.7078 -1.2697  1.2076
 4705SOL    HW225749   3.907   0.980   9.871 -0.4754 -0.9386 -2.0797
 4706SOL     OW25750   2.727   1.490   2.036 -0.3834 -0.0503 -0.3034
 4706SOL    HW125751   2.718   1.583   2.015 -0.7176 -0.1721 -0.6927
 4706SOL    HW225752   2.640   1.457   2.062  0.1701 -0.0027  1.5957
 4707SOL     OW25753   2.470   1.071  10.622  0.1267 -0.0732 -0.0823
 4707SOL    HW125754   2.484   0.983  10.587 -1.1974 -1.1732  2.1870
 4707SOL    HW225755   2.523   1.072  10.701 -2.0799  2.3605  1.3729
 4708SOL     OW25756   4.601   3.325   8.677 -0.1077  0.0795 -0.4279
 4708SOL    HW125757   4.635   3.414   8.691  0.0569  0.0186 -0.4418
 4708SOL    HW225758   4.649   3.288   8.603 -0.9810  0.1402 -1.0239
 4709SOL     OW25759   4.170   2.215   7.810 -0.0651 -0.1391  0.0616
 4709SOL    HW125760   4.154   2.300   7.851  2.2132  0.7677 -0.8873
 4709SOL    HW225761   4.257   2.193   7.844 -0.3488  0.7931  1.3853
 4710SOL     OW25762   4.728   1.185   2.863 -0.0272 -0.0444 -0.1387
 4710SOL    HW125763   0.041   1.237   2.801 -1.5400 -0.6528 -1.8895
 4710SOL    HW225764   4.688   1.259   2.908 -0.6749 -0.0794 -0.6616
 4711SOL     OW25765   3.744   4.550   3.266  0.5257 -0.6604 -0.3111
 4711SOL    HW125766   3.660   4.572   3.227  0.6624 -0.7579 -0.6637
 4711SOL    HW225767   3.809   4.562   3.196  0.4158 -2.3028 -0.6981
 4712SOL     OW25768   4.310   3.702   5.001  0.3692  0.2290  0.2665
 4712SOL    HW125769   4.301   3.794   5.026 -1.0034  0.5179 -1.2846
 4712SOL    HW225770   4.217   3.684   4.986  0.4591 -0.2203  0.2377
 4713SOL     OW25771   4.254   0.626   8.465  0.2571 -0.3661 -0.3623
 4713SOL    HW125772   4.245   0.546   8.413 -1.1012 -1.3124  1.3456
 4713SOL    HW225773   4.344   0.615   8.495 -0.0845  2.1080  1.5585
 4714SOL     OW25774   2.994   3.947   3.239 -0.2985  0.3131  0.1649
 4714SOL    HW125775   2.899   3.951   3.244 -0.3112  0.3701 -0.0990
 4714SOL    HW225776   3.016   4.007   3.310  0.1886 -1.0867  1.1899
 4715SOL     OW25777   0.230   1.062   6.958 -0.3401 -0.7157  0.2797
 4715SOL    HW125778   0.187   1.134   6.912  1.7785 -0.4768 -1.3062
 4715SOL    HW225779   0.281   1.014   6.893 -1.9338 -0.1114 -1.4168
 4716SOL     OW25780   0.677   4.194  15.979 -0.4939 -0.4718  0.1452
 4716SOL    HW125781   0.605   4.240  15.936 -0.5590  0.9466  1.7742
 4716SOL    HW225782   0.677   4.115  15.925 -2.1708 -0.1402 -0.3287
 4717SOL     OW25783   3.060   0.974  16.725  0.1015 -0.8015 -0.2467
 4717SOL    HW125784   3.009   1.050  16.697  1.1907  0.0596  0.1355
 4717SOL    HW225785   3.003   0.898  16.739  0.4442 -0.5504  2.3698
 4718SOL     OW25786   3.325   3.786   1.502  0.4115 -0.1947 -0.3184
 4718SOL    HW125787   3.278   3.870   1.503  1.8136  0.5681  0.8938
 4718SOL    HW225788   3.252   3.741   1.459  1.8720 -1.7726 -1.1104
 4719SOL     OW25789   1.402   0.300  10.822 -0.0688 -0.1096 -0.4217
 4719SOL    HW125790   1.486   0.313  10.777  0.6615 -2.5448  0.2316
 4719SOL    HW225791   1.346   0.282  10.746 -2.9160 -0.3624  1.7457
 4720SOL     OW25792   3.321   4.301   2.147  1.0629  0.5770 -1.2007
 4720SOL    HW125793   3.383   4.229   2.133  0.3977 -0.1713 -0.3253
 4720SOL    HW225794   3.263   4.304   2.071 -2.4744  0.4057  1.5113
 4721SOL     OW25795   1.539   4.180   7.096 -0.0686 -0.8020  0.4627
 4721SOL    HW125796   1.605   4.126   7.141  1.3905  1.2472  0.7921
 4721SOL    HW225797   1.570   4.184   7.006 -1.5364  0.2481  0.0275
 4722SOL     OW25798   0.855   3.526  13.216  0.5599  0.1165 -0.2791
 4722SOL    HW125799   0.860   3.466  13.291  0.6958 -1.6524 -1.7122
 4722SOL    HW225800   0.907   3.603  13.240  0.9604 -0.4569  0.7160
 4723SOL     OW25801   0.296   2.120  14.341 -0.2638 -0.0994  0.2818
 4723SOL    HW125802   0.219   2.133  14.286 -0.2266 -1.7395 -0.1768
 4723SOL    HW225803   0.367   2.117  14.276 -0.7571  2.3196 -0.3458
 4724SOL     OW25804   3.511   0.045   7.876 -0.1079 -0.1802  0.7969
 4724SOL    HW125805   3.432   0.063   7.824  1.6745 -1.1961 -2.2401
 4724SOL    HW225806   3.575   0.114   7.859  0.7778 -0.6423  2.2361
 4725SOL     OW25807   2.119   2.419   8.587  0.7932 -0.1058 -0.8077
 4725SOL    HW125808   2.202   2.431   8.540 -0.8568 -1.8477 -4.1035
 4725SOL    HW225809   2.100   2.327   8.571 -0.1271 -0.1721  0.5994
 4726SOL     OW25810   1.290   1.756  16.636  0.9011 -0.3998  0.2360
 4726SOL    HW125811   1.384   1.745  16.622  0.6110  2.6351 -4.0325
 4726SOL    HW225812   1.297   1.767  16.731  3.5909 -1.6328  0.2085
 4727SOL     OW25813   2.115   2.388   8.961 -0.0587 -0.6147 -0.4499
 4727SOL    HW125814   2.030   2.387   9.006 -0.1412 -1.4468 -0.6180
 4727SOL    HW225815   2.160   2.452   9.016  2.4464 -2.0668 -0.8377
 4728SOL     OW25816   1.795   2.024   3.962 -0.6757 -0.1226 -0.5495
 4728SOL    HW125817   1.792   2.010   3.867 -0.7670 -1.8993 -0.2926
 4728SOL    HW225818   1.733   2.097   3.962 -0.0080  0.4239  1.5107
 4729SOL     OW25819   3.402   0.081  17.409  0.0258  0.5892  0.5419
 4729SOL    HW125820   3.324   0.137  17.408 -0.6969 -0.4335 -0.2675
 4729SOL    HW225821   3.461   0.128  17.350  1.0943 -1.5334 -0.0786
 4730SOL     OW25822   3.180   0.752   6.450 -0.1383  0.0372  0.0317
 4730SOL    HW125823   3.105   0.702   6.417  0.4917 -0.3809 -0.7773
 4730SOL    HW225824   3.143   0.811   6.515  0.3748  0.1173  0.2500
 4731SOL     OW25825   4.065   4.204  12.346  0.0767 -0.7798 -0.3782
 4731SOL    HW125826   4.046   4.247  12.263  0.5748  0.0533 -0.0591
 4731SOL    HW225827   4.146   4.252  12.361 -0.4301 -0.5626  1.7487
 4732SOL     OW25828   3.913   2.867   9.052 -0.1208 -0.5441  0.4091
 4732SOL    HW125829   3.971   2.814   9.107  1.3152  0.3045 -0.2947
 4732SOL    HW225830   3.852   2.807   9.008 -0.9635  0.4993  0.1655
 4733SOL     OW25831   3.571   4.140   7.516 -1.0053  0.3781 -0.0001
 4733SOL    HW125832   3.551   4.234   7.512  0.4695  0.6144 -1.9349
 4733SOL    HW225833   3.649   4.149   7.460 -0.9639  1.2357  0.1922
 4734SOL     OW25834   1.463   0.156  13.253 -0.0052 -0.1291 -0.4462
 4734SOL    HW125835   1.377   0.183  13.285  0.6913  4.2354 -2.3109
 4734SOL    HW225836   1.464   0.229  13.192  0.5402 -0.3241 -0.6760
 4735SOL     OW25837   3.096   0.968   3.486 -0.3555  0.1339 -0.0430
 4735SOL    HW125838   3.073   0.966   3.579 -0.0509  0.6997  0.0479
 4735SOL    HW225839   3.152   0.892   3.475 -2.0985 -1.2851  0.9395
 4736SOL     OW25840   1.210   0.448  15.854  0.1382 -0.1902  0.3210
 4736SOL    HW125841   1.283   0.508  15.872  0.3975 -0.2710 -0.4325
 4736SOL    HW225842   1.267   0.378  15.820 -1.8718 -0.6480 -2.0807
 4737SOL     OW25843   4.079   2.900  14.320 -0.1485  0.3610 -0.1950
 4737SOL    HW125844   4.150   2.962  14.336  0.3409 -0.2176 -0.0972
 4737SOL    HW225845   4.019   2.950  14.265  0.1595  1.2240  0.2569
 4738SOL     OW25846   3.041   2.120  16.955 -0.7543  0.4415 -0.2715
 4738SOL    HW125847   2.972   2.054  16.945  0.6490 -1.3079  1.6379
 4738SOL    HW225848   3.110   2.064  16.921  0.0824  1.1486  0.2531
 4739SOL     OW25849   3.795   1.777  11.306  0.5612  0.3132  0.1269
 4739SOL    HW125850   3.712   1.824  11.317 -2.0294 -3.6920 -2.1018
 4739SOL    HW225851   3.764   1.705  11.252  2.8893  1.0990 -2.2228
 4740SOL     OW25852   1.071   1.091   2.633 -0.2684  0.1322  0.4963
 4740SOL    HW125853   1.103   1.065   2.547  2.2416  0.4518  1.3421
 4740SOL    HW225854   1.020   1.013   2.656 -0.3120 -0.7376 -2.6383
 4741SOL     OW25855   0.396   1.584   4.700 -0.0702 -0.4040  0.1366
 4741SOL    HW125856   0.395   1.563   4.793  2.2305 -0.3123  0.1800
 4741SOL    HW225857   0.409   1.678   4.716 -0.8450 -0.3038  0.1804
 4742SOL     OW25858   1.907   0.953  17.139 -0.1038 -0.0543 -0.2135
 4742SOL    HW125859   1.929   0.885  17.075  0.6895  1.5575 -1.6657
 4742SOL    HW225860   1.873   0.902  17.212  0.7266  1.6187  1.3338
 4743SOL     OW25861   1.348   1.283  13.353  0.2228  0.0934  0.1025
 4743SOL    HW125862   1.437   1.257  13.376 -0.9825 -0.7570  3.7188
 4743SOL    HW225863   1.314   1.196  13.332  2.0882 -0.5162 -0.4107
 4744SOL     OW25864   4.339   0.304   9.968  0.2713  0.0488  0.2256
 4744SOL    HW125865   4.420   0.351   9.949  0.6509  0.1420  2.0622
 4744SOL    HW225866   4.320   0.353  10.049 -0.8699  1.2643 -0.7795
 4745SOL     OW25867   1.188   4.405   5.644 -0.5704  0.2234 -0.0587
 4745SOL    HW125868   1.190   4.391   5.550 -0.5815  0.4621 -0.0961
 4745SOL    HW225869   1.236   4.328   5.674 -0.2453  0.7281  0.7075
 4746SOL     OW25870   4.525   2.200   9.465  0.1557 -0.2777  0.4429
 4746SOL    HW125871   4.516   2.290   9.497  3.1562  0.5945 -1.1127
 4746SOL    HW225872   4.530   2.151   9.547  1.3244  2.5369  2.0821
 4747SOL     OW25873   1.506   1.927   5.267  0.3246 -0.3515  0.2128
 4747SOL    HW125874   1.519   1.864   5.196  1.0240  1.6359 -1.4083
 4747SOL    HW225875   1.559   2.002   5.241 -0.4762 -0.1523 -0.8193
 4748SOL     OW25876   0.992   0.908   0.321 -0.9871  0.3762 -0.3961
 4748SOL    HW125877   0.939   0.987   0.330  0.2406  1.7106 -4.6909
 4748SOL    HW225878   1.071   0.935   0.368  0.2465 -0.7669 -1.8316
 4749SOL     OW25879   0.344   0.158   7.111  0.2460  0.1875  0.7856
 4749SOL    HW125880   0.343   0.249   7.080  1.6317 -0.2901 -0.6703
 4749SOL    HW225881   0.434   0.126   7.099  0.0439  0.5622 -1.6449
 4750SOL     OW25882   2.447   1.981   2.608  0.1103 -0.1498 -0.0264
 4750SOL    HW125883   2.385   1.911   2.626 -1.5832  0.4747 -3.3580
 4750SOL    HW225884   2.390   2.021   2.542 -0.9892 -1.1085  0.3385
 4751SOL     OW25885   4.461   0.325   8.031  0.1042  0.1233  0.5423
 4751SOL    HW125886   4.512   0.361   8.103 -1.4796  0.9127  1.2622
 4751SOL    HW225887   4.465   0.391   7.962  0.2657 -1.2461 -0.7592
 4752SOL     OW25888   4.499   3.203   7.753 -0.0488 -0.7329 -0.4825
 4752SOL    HW125889   4.568   3.165   7.698  0.3295 -0.7608  0.0203
 4752SOL    HW225890   4.504   3.145   7.829  1.3856 -0.3128 -0.2620
 4753SOL     OW25891   2.683   0.230   8.566  0.2006 -0.1973 -0.1104
 4753SOL    HW125892   2.706   0.143   8.535  0.1947 -0.1275 -0.3098
 4753SOL    HW225893   2.595   0.213   8.599  0.0371 -0.3598 -0.6254
 4754SOL     OW25894   0.312   0.254   1.242  0.5922 -0.2950 -0.0300
 4754SOL    HW125895   0.397   0.242   1.199 -0.6068 -1.9794 -1.9763
 4754SOL    HW225896   0.268   0.323   1.191 -1.4212  0.1820  2.3731
 4755SOL     OW25897   4.087   1.169   8.512  0.1280 -0.5093  0.7556
 4755SOL    HW125898   4.108   1.077   8.531 -0.4991 -0.9974 -0.8970
 4755SOL    HW225899   4.172   1.193   8.476  0.0607 -1.7208 -0.2333
 4756SOL     OW25900   4.059   0.228   4.389  0.0155  0.1152 -0.0868
 4756SOL    HW125901   4.024   0.281   4.461  0.8594 -2.1251  1.9644
 4756SOL    HW225902   4.016   0.143   4.404 -0.6030  0.3331 -0.6103
 4757SOL     OW25903   4.631   4.492  15.935 -0.0746 -0.1507  0.2978
 4757SOL    HW125904   4.725   4.484  15.948 -0.2880 -0.0202  1.9319
 4757SOL    HW225905   4.619   4.476  15.842  1.6562 -1.8238  0.3610
 4758SOL     OW25906   4.371   0.723  15.102  0.0698 -0.2448 -0.0589
 4758SOL    HW125907   4.343   0.815  15.101 -0.5036 -0.4197 -0.2461
 4758SOL    HW225908   4.332   0.682  15.179 -0.2076 -1.2713 -0.7490
 4759SOL     OW25909   1.344   0.494  12.181  0.5184 -0.2104 -0.7264
 4759SOL    HW125910   1.275   0.441  12.140 -0.8899  0.4617  0.7312
 4759SOL    HW225911   1.334   0.456  12.269  0.0941  0.4504 -0.4792
 4760SOL     OW25912   1.133   2.883   4.969 -0.2999  0.2711 -0.1120
 4760SOL    HW125913   1.200   2.939   4.930 -0.0827 -0.7160 -1.1762
 4760SOL    HW225914   1.188   2.805   4.975 -0.9116 -0.3446 -2.3134
 4761SOL     OW25915   1.877   1.424   2.576 -0.4533 -0.2503  0.2011
 4761SOL    HW125916   1.953   1.423   2.634  0.2095  0.0051 -0.6575
 4761SOL    HW225917   1.799   1.432   2.632 -0.8372 -1.5324 -0.1542
 4762SOL     OW25918   1.743   1.272   1.139 -0.5850  0.1912 -0.1729
 4762SOL    HW125919   1.767   1.236   1.224 -0.6778  0.5637  0.0101
 4762SOL    HW225920   1.721   1.364   1.157 -1.4877 -0.1157  0.2964
 4763SOL     OW25921   1.285   2.575   7.239 -1.1968 -0.0924 -0.2704
 4763SOL    HW125922   1.312   2.503   7.183  2.9782  0.0798  1.4750
 4763SOL    HW225923   1.313   2.541   7.324  2.7377 -0.3164 -1.6606
 4764SOL     OW25924   4.700   3.298   7.011  0.3076  0.1255  0.4590
 4764SOL    HW125925   0.042   3.349   7.000  0.3133  0.0226 -0.0033
 4764SOL    HW225926   4.639   3.352   6.961  0.0237 -0.5575  0.0627
 4765SOL     OW25927   1.825   3.713  15.761 -0.2922  0.3713 -0.2045
 4765SOL    HW125928   1.903   3.670  15.795  0.2899  1.1257 -0.5841
 4765SOL    HW225929   1.840   3.726  15.667 -0.4250 -1.4257 -0.4718
 4766SOL     OW25930   1.686   4.174   5.154 -0.3100  0.0869  0.0766
 4766SOL    HW125931   1.727   4.260   5.152  1.9626 -1.0080 -0.3637
 4766SOL    HW225932   1.641   4.183   5.239 -1.1809  2.1039 -0.5952
 4767SOL     OW25933   3.437   0.439   3.217  0.2302  0.1487  0.0540
 4767SOL    HW125934   3.418   0.501   3.147  1.5951  1.1850  0.6085
 4767SOL    HW225935   3.530   0.451   3.199  0.3627  0.6104  1.0611
 4768SOL     OW25936   0.735   4.628   0.789 -0.0904  0.5019 -0.0052
 4768SOL    HW125937   0.792   4.636   0.713 -3.0123 -0.9853 -2.3688
 4768SOL    HW225938   0.691   4.547   0.762  3.7180 -1.7170  0.4327
 4769SOL     OW25939   4.401   0.099   2.130 -0.2667 -0.4870 -0.5168
 4769SOL    HW125940   4.365   0.174   2.082  0.7845 -0.3216 -1.0533
 4769SOL    HW225941   4.397   0.027   2.066 -1.6562 -1.5862  0.8014
 4770SOL     OW25942   3.224   1.998   6.027 -0.0069  0.1816 -0.1259
 4770SOL    HW125943   3.208   2.092   6.017 -3.1575 -0.2654  0.5568
 4770SOL    HW225944   3.261   1.974   5.942 -3.1885  1.5602 -1.8878
 4771SOL     OW25945   2.001   0.299   0.853  0.2568  0.1917 -0.4027
 4771SOL    HW125946   2.054   0.238   0.801  0.1547  0.5168 -0.8905
 4771SOL    HW225947   1.919   0.302   0.803  0.1812 -2.3733 -0.4503
 4772SOL     OW25948   3.999   1.831  17.477  0.2953  0.0191  0.3566
 4772SOL    HW125949   4.090   1.806  17.461 -0.2723 -1.3860 -0.6562
 4772SOL    HW225950   4.014   1.914  17.524 -1.1883 -0.0631  0.9666
 4773SOL     OW25951   0.292   0.224   3.921  0.2337  0.0517  0.9030
 4773SOL    HW125952   0.235   0.278   3.867 -0.6931 -0.2899  1.5318
 4773SOL    HW225953   0.293   0.140   3.874  1.0972 -1.2252  3.1723
 4774SOL     OW25954   3.901   1.673   4.128  0.2014  0.0225  0.4158
 4774SOL    HW125955   3.811   1.701   4.146 -0.6754 -0.0936 -3.9259
 4774SOL    HW225956   3.894   1.661   4.034  1.4632 -1.1508  0.4642
 4775SOL     OW25957   2.653   3.216  15.005  0.0213 -0.4294  0.7150
 4775SOL    HW125958   2.663   3.271  14.927 -1.3546 -0.1839  0.7056
 4775SOL    HW225959   2.741   3.214  15.042  0.6061  0.1876 -0.6538
 4776SOL     OW25960   2.101   4.007   0.804 -0.1797 -0.1089 -0.0279
 4776SOL    HW125961   2.012   3.972   0.808  0.8131 -2.6944  0.1287
 4776SOL    HW225962   2.140   3.969   0.883 -0.6371  2.5033  1.4435
 4777SOL     OW25963   3.025   3.126  16.978 -0.0821  0.0564  0.4691
 4777SOL    HW125964   3.105   3.104  17.025 -0.5558 -0.2775  1.1225
 4777SOL    HW225965   2.961   3.064  17.013 -0.0181 -2.0154 -3.0672
 4778SOL     OW25966   2.150   4.127  11.612  0.8978  0.7463 -0.1390
 4778SOL    HW125967   2.157   4.207  11.665  0.3598  0.7392 -0.0638
 4778SOL    HW225968   2.237   4.088  11.622  0.2113 -0.9969 -1.0600
 4779SOL     OW25969   2.934   3.481  16.514  0.4550  0.2334 -0.2348
 4779SOL    HW125970   2.860   3.511  16.566  1.1341  2.8265 -0.7510
 4779SOL    HW225971   2.995   3.440  16.576 -1.3734 -2.1166  0.0119
 4780SOL     OW25972   1.377   1.517  15.626  0.1441 -0.3956 -0.4465
 4780SOL    HW125973   1.427   1.586  15.670  1.6044 -1.9270  0.2676
 4780SOL    HW225974   1.351   1.463  15.700  0.8248  0.9154  0.7442
 4781SOL     OW25975   3.525   1.594   1.557  0.2872 -0.3578  0.3982
 4781SOL    HW125976   3.588   1.653   1.599 -0.7285  0.9133  0.1166
 4781SOL    HW225977   3.547   1.503   1.580  0.1415 -1.0179 -2.0101
 4782SOL     OW25978   4.235   0.902   8.846 -0.0696  0.5607 -0.0523
 4782SOL    HW125979   4.309   0.958   8.823  0.5620  0.2180  1.1073
 4782SOL    HW225980   4.200   0.947   8.923  0.5405  0.7974  0.0832
 4783SOL     OW25981   2.078   3.151  13.930 -0.7190  0.4208 -0.0073
 4783SOL    HW125982   2.073   3.083  13.863 -1.4073 -1.0025  1.4981
 4783SOL    HW225983   2.026   3.211  13.876 -0.4422 -0.5037 -1.3009
 4784SOL     OW25984   0.844   4.278   0.990  0.5635 -0.4396 -0.6190
 4784SOL    HW125985   0.764   4.329   0.989  0.6501 -0.3439 -3.6121
 4784SOL    HW225986   0.859   4.242   0.902  0.9706 -1.5673 -0.0852
 4785SOL     OW25987   0.948   2.145   9.575 -0.1789  0.1869 -0.6901
 4785SOL    HW125988   1.034   2.170   9.542 -0.1159  0.2581 -0.4720
 4785SOL    HW225989   0.972   2.061   9.613 -0.9041 -0.1480 -0.9716
 4786SOL     OW25990   2.909   4.074   2.662 -0.4023 -0.3917 -0.3940
 4786SOL    HW125991   2.857   4.084   2.583  1.2653 -0.9491 -1.5726
 4786SOL    HW225992   2.874   4.138   2.723  0.7901  0.5850 -0.7325
 4787SOL     OW25993   1.174   2.556   2.399  0.0367  0.0014 -0.3701
 4787SOL    HW125994   1.095   2.582   2.351  0.9877  1.0797 -1.3830
 4787SOL    HW225995   1.205   2.490   2.337  1.3745 -0.5214  0.8828
 4788SOL     OW25996   1.122   0.446  14.548  0.0972 -0.0664 -0.0615
 4788SOL    HW125997   1.202   0.480  14.587 -0.0518 -1.1521  1.1757
 4788SOL    HW225998   1.153   0.436  14.458  3.1775  0.1525  0.9826
 4789SOL     OW25999   1.299   3.479   3.778  0.3013  0.0891  0.7734
 4789SOL    HW126000   1.222   3.457   3.727  0.0791  2.0269  0.2686
 4789SOL    HW226001   1.372   3.431   3.740  0.1504 -0.3516  1.0492
 4790SOL     OW26002   3.357   2.751   5.766  0.0375  0.2539 -0.2124
 4790SOL    HW126003   3.332   2.762   5.858 -0.5530 -1.0757 -0.2145
 4790SOL    HW226004   3.441   2.798   5.767  0.2752 -0.0904 -3.5524
 4791SOL     OW26005   2.348   3.166   0.227  0.7687 -0.5398 -0.5799
 4791SOL    HW126006   2.385   3.085   0.260 -1.3186 -0.9864  0.6700
 4791SOL    HW226007   2.254   3.147   0.226  0.7464 -0.3616 -1.8294
 4792SOL     OW26008   4.387   1.086   7.027  0.0194 -0.0860  0.3102
 4792SOL    HW126009   4.417   1.020   7.089 -0.4815 -0.8272 -0.2284
 4792SOL    HW226010   4.424   1.163   7.070  1.6863 -1.4902  1.4020
 4793SOL     OW26011   2.091   3.073   2.771  0.5946 -0.4287  0.5882
 4793SOL    HW126012   2.013   3.100   2.819  0.9009  0.0786  0.8025
 4793SOL    HW226013   2.159   3.135   2.798  1.3398 -1.4675  1.0993
 4794SOL     OW26014   3.069   1.422   2.516 -0.2292  0.0435 -0.1405
 4794SOL    HW126015   3.038   1.464   2.436 -1.1131 -0.3504  0.0007
 4794SOL    HW226016   3.138   1.368   2.478 -0.4500 -0.5050  0.2419
 4795SOL     OW26017   1.894   2.926   9.111 -0.3374  0.3529  0.0057
 4795SOL    HW126018   1.817   2.902   9.061  0.9547 -3.4922 -0.1468
 4795SOL    HW226019   1.898   3.021   9.121  2.5171  0.1209  1.1141
 4796SOL     OW26020   3.922   1.652   3.865 -0.3190  0.0315  0.1398
 4796SOL    HW126021   3.970   1.668   3.784 -0.9436 -0.4407 -0.3269
 4796SOL    HW226022   3.894   1.560   3.859  0.3605 -0.0811 -1.4436
 4797SOL     OW26023   4.022   0.512   9.750  0.1937 -0.3848 -0.8865
 4797SOL    HW126024   3.956   0.453   9.713 -1.3871 -1.4577  3.6198
 4797SOL    HW226025   4.074   0.447   9.797  0.8053  0.0557 -0.9627
 4798SOL     OW26026   2.997   3.212   7.714  0.0130  0.5928 -0.1357
 4798SOL    HW126027   3.045   3.131   7.697 -0.2301  0.3172  0.4845
 4798SOL    HW226028   2.924   3.184   7.771 -1.1157  0.8510 -1.4564
 4799SOL     OW26029   3.965   3.152   2.213 -0.0160  0.5511  0.0683
 4799SOL    HW126030   3.909   3.122   2.285  1.7250 -1.8934  0.4059
 4799SOL    HW226031   3.937   3.091   2.144  1.0458 -1.3885  1.3387
 4800SOL     OW26032   3.573   3.584   5.010  0.0353  0.0131  0.0327
 4800SOL    HW126033   3.540   3.666   4.972  3.0563  0.8109 -0.8637
 4800SOL    HW226034   3.619   3.552   4.932 -1.7409  0.4395 -1.2003
 4801SOL     OW26035   1.976   0.463  16.030 -0.8919 -0.5455 -0.4352
 4801SOL    HW126036   2.025   0.388  15.995  0.1624  0.7591 -1.7321
 4801SOL    HW226037   1.892   0.455  15.986 -0.8910 -2.8034 -0.0700
 4802SOL     OW26038   0.344   2.453  17.239  0.0633  0.1950 -0.7493
 4802SOL    HW126039   0.343   2.460  17.144 -1.0681 -1.5079 -0.8714
 4802SOL    HW226040   0.252   2.476  17.249 -0.0445 -0.7030  0.3871
 4803SOL     OW26041   1.417   3.057   1.449  0.3550  0.4096 -0.5552
 4803SOL    HW126042   1.492   3.106   1.417  1.4486 -1.5632 -0.9948
 4803SOL    HW226043   1.456   2.970   1.451 -1.0708 -0.2817 -2.4637
 4804SOL     OW26044   0.586   3.702   2.252  0.1093 -0.3151 -0.7259
 4804SOL    HW126045   0.590   3.768   2.184 -0.8106  0.2171 -0.2645
 4804SOL    HW226046   0.551   3.618   2.220 -0.5863 -0.1989 -0.2714
 4805SOL     OW26047   1.049   4.142  11.902  0.6844  0.0830  0.0277
 4805SOL    HW126048   1.132   4.124  11.858 -1.5909 -1.9227 -3.5313
 4805SOL    HW226049   1.004   4.063  11.872  0.9449  1.1539 -3.1827
 4806SOL     OW26050   0.978   1.276   5.484 -0.1246  0.5424  0.3958
 4806SOL    HW126051   1.017   1.341   5.543  0.0757  0.6849  0.1069
 4806SOL    HW226052   1.003   1.190   5.516 -1.6123 -0.4700 -1.1605
 4807SOL     OW26053   4.648   3.557  17.197 -0.3422 -0.0134 -0.2038
 4807SOL    HW126054   4.694   3.565  17.114 -0.8879  1.5086 -0.3657
 4807SOL    HW226055   4.560   3.576  17.165  0.1487  1.5819 -0.6007
 4808SOL     OW26056   4.306   2.588  12.203 -0.2703  0.3374 -0.2727
 4808SOL    HW126057   4.238   2.645  12.167 -2.3028  0.3642  3.6067
 4808SOL    HW226058   4.309   2.513  12.144 -0.9199  1.1027 -1.2711
 4809SOL     OW26059   0.708   4.056   2.711  0.4536 -0.5928 -0.8521
 4809SOL    HW126060   0.632   4.109   2.733  1.2211 -0.7839  2.3049
 4809SOL    HW226061   0.713   4.071   2.616 -0.2671  2.8978 -0.3477
 4810SOL     OW26062   2.500   2.963   0.301 -0.1893 -0.3927  0.5590
 4810SOL    HW126063   2.534   2.950   0.212  5.0954 -2.3878  2.8891
 4810SOL    HW226064   2.580   3.005   0.333 -0.5766 -0.7207  1.9700
 4811SOL     OW26065   2.694   3.612  13.185  0.1525 -0.3599 -0.4340
 4811SOL    HW126066   2.616   3.628  13.132  0.3922  1.9341 -0.0659
 4811SOL    HW226067   2.756   3.588  13.115  0.7983  1.0159 -0.3287
 4812SOL     OW26068   0.725   1.668   4.395  0.0323 -0.3140 -0.2823
 4812SOL    HW126069   0.718   1.745   4.452  0.2606 -1.1415  0.8690
 4812SOL    HW226070   0.709   1.599   4.458  1.6694  0.6108  1.1452
 4813SOL     OW26071   1.479   4.145   1.356 -0.1947  0.5551 -0.1753
 4813SOL    HW126072   1.469   4.241   1.359 -2.8582  0.3542 -2.4057
 4813SOL    HW226073   1.566   4.137   1.395 -0.2237 -0.2488 -0.2817
 4814SOL     OW26074   0.726   2.136   5.323 -0.0506 -0.3059 -0.2883
 4814SOL    HW126075   0.768   2.052   5.302  2.2533  0.4728  1.2365
 4814SOL    HW226076   0.752   2.140   5.415  1.9639 -0.2365 -0.8522
 4815SOL     OW26077   0.495   1.384  10.315 -0.1037 -0.2658  0.3621
 4815SOL    HW126078   0.445   1.455  10.274 -0.3566  0.5530  2.0957
 4815SOL    HW226079   0.434   1.347  10.379 -1.3912  0.6660 -0.3264
 4816SOL     OW26080   1.527   3.046   6.843  0.0238  0.1853 -0.0581
 4816SOL    HW126081   1.574   3.105   6.784 -0.7722 -1.0258 -1.8827
 4816SOL    HW226082   1.598   3.011   6.896  0.6173  0.0050 -0.9754
 4817SOL     OW26083   0.426   2.754   1.013 -0.2651 -0.3596 -0.2053
 4817SOL    HW126084   0.357   2.720   1.070  0.7177 -0.0393  1.1621
 4817SOL    HW226085   0.375   2.729   0.935  1.3276 -0.1060 -1.3286
 4818SOL     OW26086   2.132   1.843   4.575  0.4371  0.0723 -0.0151
 4818SOL    HW126087   2.160   1.932   4.596  2.2958  0.3840 -3.8243
 4818SOL    HW226088   2.068   1.859   4.506  1.5861 -1.2078 -1.3691
 4819SOL     OW26089   1.475   1.239  10.237 -0.0232  0.2049  1.3660
 4819SOL    HW126090   1.535   1.312  10.245 -1.0375  1.2263 -0.3952
 4819SOL    HW226091   1.533   1.163  10.227  1.4437  1.7349 -1.5168
 4820SOL     OW26092   1.329   2.460   3.746 -0.4362  0.4303  0.5483
 4820SOL    HW126093   1.271   2.383   3.748 -0.0074  0.1621  2.4212
 4820SOL    HW226094   1.323   2.487   3.838  0.4690  0.5564  0.5683
 4821SOL     OW26095   0.001   2.782   0.914  0.0207 -0.2281  0.3791
 4821SOL    HW126096   4.667   2.786   0.976 -0.3269  0.4936 -0.0844
 4821SOL    HW226097   0.079   2.781   0.969  1.0205 -1.6512 -1.0375
 4822SOL     OW26098   3.432   2.708   1.926 -0.3862  0.5034 -0.5523
 4822SOL    HW126099   3.343   2.742   1.920 -0.4275  0.7386  1.4464
 4822SOL    HW226100   3.485   2.783   1.899 -0.6881  1.0521  0.4098
 4823SOL     OW26101   2.702   3.303  14.571 -0.3000  0.1762 -0.0363
 4823SOL    HW126102   2.632   3.362  14.541 -0.7511 -1.0962 -1.4429
 4823SOL    HW226103   2.767   3.291  14.503  0.5983 -1.0616  1.0448
 4824SOL     OW26104   0.038   1.520  17.076  0.7191 -0.0971 -0.1529
 4824SOL    HW126105   4.732   1.518  16.991 -1.0338  0.2603  0.7568
 4824SOL    HW226106   0.106   1.459  17.046  1.7985  1.8330 -1.6131
 4825SOL     OW26107   3.352   1.058   4.669  0.4678 -0.4614  0.4788
 4825SOL    HW126108   3.443   1.042   4.641  0.0458 -0.5589 -0.8353
 4825SOL    HW226109   3.303   1.061   4.587  0.8428  1.6960  0.3308
 4826SOL     OW26110   4.697   4.209  15.745  0.2471  0.9251  0.6077
 4826SOL    HW126111   4.667   4.295  15.716 -0.6597 -0.0037 -1.2359
 4826SOL    HW226112   4.676   4.147  15.675 -0.0365  1.2256  0.4289
 4827SOL     OW26113   1.556   2.703  16.610 -0.6388  0.2995  0.9678
 4827SOL    HW126114   1.476   2.713  16.558  0.3004 -0.3795 -0.5932
 4827SOL    HW226115   1.609   2.639  16.562 -0.7972 -0.5153  1.8681
 4828SOL     OW26116   4.355   1.552   7.854 -0.0902 -1.1769 -0.2069
 4828SOL    HW126117   4.262   1.575   7.843 -0.3812 -0.2042  4.2294
 4828SOL    HW226118   4.376   1.594   7.937 -0.9299 -1.4520  0.1474
 4829SOL     OW26119   4.038   3.421   2.244 -0.0686  0.3341 -0.7478
 4829SOL    HW126120   3.990   3.340   2.230 -0.2829  0.2485  0.4821
 4829SOL    HW226121   3.967   3.485   2.254  0.4882  0.8949 -0.3360
 4830SOL     OW26122   3.503   1.437  11.214  0.1738  0.5901 -0.3885
 4830SOL    HW126123   3.575   1.488  11.178  0.5607 -0.6407 -1.3399
 4830SOL    HW226124   3.475   1.382  11.141  0.6102  0.2903 -0.3246
 4831SOL     OW26125   0.503   0.250   9.440  0.1605  0.0800  0.1211
 4831SOL    HW126126   0.495   0.305   9.361 -1.5744  0.9906  0.9271
 4831SOL    HW226127   0.568   0.190   9.404 -1.0556 -0.4404 -1.1903
 4832SOL     OW26128   3.108   0.966   1.828  0.2340 -0.0123 -0.2753
 4832SOL    HW126129   3.039   0.936   1.768 -0.5998  0.5410  0.4164
 4832SOL    HW226130   3.090   0.908   1.902 -2.0670  0.0044 -0.8375
 4833SOL     OW26131   3.010   2.910   6.757 -0.3071  0.4056 -0.3152
 4833SOL    HW126132   3.059   2.863   6.689 -0.2204  0.4363 -0.2738
 4833SOL    HW226133   2.921   2.905   6.723  0.5886 -2.5478 -2.2907
 4834SOL     OW26134   2.355   0.414   6.258 -0.4806 -0.5197  0.1253
 4834SOL    HW126135   2.321   0.383   6.175 -1.4128  2.1954 -0.4900
 4834SOL    HW226136   2.282   0.379   6.308 -1.4187 -0.5216 -1.2660
 4835SOL     OW26137   1.766   3.485   6.676 -0.4275  0.5920  0.0248
 4835SOL    HW126138   1.826   3.446   6.740 -2.5357 -2.0876  0.3566
 4835SOL    HW226139   1.730   3.407   6.634  0.1867  0.6820 -0.6753
 4836SOL     OW26140   1.185   4.517  17.299 -0.0993 -0.6083 -0.0740
 4836SOL    HW126141   1.203   4.578  17.370  0.4529 -0.3602 -0.4318
 4836SOL    HW226142   1.229   4.567  17.230 -1.2935 -1.2431 -1.3068
 4837SOL     OW26143   0.548   0.714  12.655 -0.2545  0.9584 -0.3899
 4837SOL    HW126144   0.598   0.643  12.614  1.1829  2.2228 -0.8323
 4837SOL    HW226145   0.459   0.689  12.632 -0.8254  2.0459  0.6658
 4838SOL     OW26146   2.657   3.840   0.584  0.1295  0.0192  0.3291
 4838SOL    HW126147   2.581   3.825   0.528  0.5760  0.7950 -0.4682
 4838SOL    HW226148   2.623   3.810   0.669  1.1219  1.4335  1.2204
 4839SOL     OW26149   1.884   3.628   8.072 -0.1048  0.3035 -0.0170
 4839SOL    HW126150   1.889   3.609   7.979  0.4507 -2.7668  0.6218
 4839SOL    HW226151   1.976   3.643   8.096  0.0352 -1.0315  0.3058
 4840SOL     OW26152   2.310   2.914  15.652  0.1293  0.5005  0.5751
 4840SOL    HW126153   2.277   3.003  15.639 -1.1319 -0.1506 -0.7354
 4840SOL    HW226154   2.269   2.875  15.574  1.3183 -0.6289  0.5243
 4841SOL     OW26155   2.684   2.385  11.364  0.1091  0.3147  0.1421
 4841SOL    HW126156   2.743   2.386  11.289  3.5017  1.9389  2.8305
 4841SOL    HW226157   2.706   2.309  11.417  1.0295  0.7791  0.4155
 4842SOL     OW26158   4.007   0.301   6.894  0.3461  0.3287 -0.1061
 4842SOL    HW126159   4.098   0.321   6.915  0.2029  0.5741  0.2785
 4842SOL    HW226160   3.994   0.351   6.814 -1.2747  1.0205  0.5774
 4843SOL     OW26161   2.573   2.992   5.747 -0.4617 -0.1904  0.2165
 4843SOL    HW126162   2.637   2.931   5.709  0.5123  0.8476  0.1760
 4843SOL    HW226163   2.502   2.982   5.684  1.4413 -0.5368 -1.9129
 4844SOL     OW26164   1.912   3.644  14.563 -0.2980 -0.1660  1.1365
 4844SOL    HW126165   1.902   3.597  14.480  1.6810  1.6282 -0.1366
 4844SOL    HW226166   1.957   3.578  14.615 -0.5715 -0.4204  1.0440
 4845SOL     OW26167   3.756   3.942  15.872 -0.4639 -0.1798 -0.7130
 4845SOL    HW126168   3.722   3.853  15.873 -1.0970  0.0759  0.9667
 4845SOL    HW226169   3.850   3.923  15.868 -0.6571 -1.4567  1.0008
 4846SOL     OW26170   3.963   1.427  11.169 -0.2491 -0.0145  0.2013
 4846SOL    HW126171   4.021   1.356  11.197 -0.2919 -0.5407 -1.0507
 4846SOL    HW226172   4.030   1.495  11.171  0.3751 -0.5575 -2.9382
 4847SOL     OW26173   1.721   0.081   8.685  0.4665  0.2033 -0.0881
 4847SOL    HW126174   1.805   0.126   8.673  1.6591 -2.3441 -1.2467
 4847SOL    HW226175   1.659   0.154   8.675  1.3050  0.5306 -2.8173
 4848SOL     OW26176   3.866   4.212  13.552  0.2670  0.2477  0.3127
 4848SOL    HW126177   3.961   4.223  13.555  0.3049 -0.0693  0.2825
 4848SOL    HW226178   3.828   4.287  13.508 -2.7823  0.2531  2.8996
 4849SOL     OW26179   1.727   2.987   6.261 -0.3733 -0.2525  0.0421
 4849SOL    HW126180   1.651   3.044   6.246  1.1430  1.7808  0.1142
 4849SOL    HW226181   1.733   2.935   6.181 -0.6606  0.4264 -0.4246
 4850SOL     OW26182   2.540   2.430   2.414  0.2425 -0.3376 -0.3350
 4850SOL    HW126183   2.582   2.374   2.479 -0.8045 -0.3100  0.3605
 4850SOL    HW226184   2.579   2.398   2.332 -0.8739  0.6925 -1.2796
 4851SOL     OW26185   3.260   2.181   8.856 -0.6273  0.7103  0.5189
 4851SOL    HW126186   3.203   2.110   8.826  2.5859 -1.8122  0.4728
 4851SOL    HW226187   3.235   2.254   8.798  1.1290 -0.1384 -1.2948
 4852SOL     OW26188   1.114   3.235   9.137 -0.4833  0.3493  0.3415
 4852SOL    HW126189   1.124   3.243   9.042  0.2429  0.9033  0.4640
 4852SOL    HW226190   1.065   3.316   9.156  1.3970  1.4541  0.4707
 4853SOL     OW26191   1.998   3.584  15.297 -0.0807  0.3876 -0.2766
 4853SOL    HW126192   2.013   3.546  15.211  2.3721  0.6674  0.0273
 4853SOL    HW226193   2.090   3.584  15.324 -0.2316  1.4840  0.2614
 4854SOL     OW26194   0.071   1.255   6.866 -0.2153  0.0102 -1.2939
 4854SOL    HW126195   4.739   1.194   6.846 -1.7194  1.4224 -0.2783
 4854SOL    HW226196   0.017   1.332   6.884 -3.3024 -1.9026 -2.4329
 4855SOL     OW26197   0.147   4.284   2.824 -0.3896  0.0745  0.0836
 4855SOL    HW126198   0.134   4.376   2.802  0.2903  0.6792  2.2016
 4855SOL    HW226199   0.059   4.247   2.815 -0.4857  0.5616 -0.8693
 4856SOL     OW26200   4.588   2.195   5.000  0.2190  0.2743 -0.4756
 4856SOL    HW126201   4.546   2.160   4.921  0.4010  0.3845 -0.6222
 4856SOL    HW226202   4.617   2.115   5.045  0.7629  1.5492  1.4455
 4857SOL     OW26203   4.327   0.129   8.926  0.3028 -0.4027 -0.1597
 4857SOL    HW126204   4.388   0.129   8.851 -0.8501  0.2791 -1.0891
 4857SOL    HW226205   4.294   0.039   8.916 -1.2772  0.1756 -0.0030
 4858SOL     OW26206   1.692   0.578  10.791 -0.4246 -0.2368  0.4866
 4858SOL    HW126207   1.761   0.643  10.799  1.4165 -2.0008 -1.0970
 4858SOL    HW226208   1.616   0.627  10.821 -0.4859  0.1859 -0.3660
 4859SOL     OW26209   3.888   2.425   4.301  0.5288  0.3672 -0.6499
 4859SOL    HW126210   3.978   2.397   4.314  0.8599  1.9421  0.4503
 4859SOL    HW226211   3.845   2.357   4.249 -0.2234  0.8939 -0.7282
 4860SOL     OW26212   0.756   1.956  11.503 -0.0949  0.1686 -0.2163
 4860SOL    HW126213   0.762   1.999  11.588  1.2886  1.8926 -1.1885
 4860SOL    HW226214   0.815   1.881  11.503 -0.2349  0.0527 -0.5883
 4861SOL     OW26215   4.017   4.365   3.581 -0.6729 -0.5205 -0.3445
 4861SOL    HW126216   4.048   4.454   3.563 -1.8783 -0.4334 -1.9984
 4861SOL    HW226217   3.965   4.374   3.661  1.0736  0.6691  0.6368
 4862SOL     OW26218   2.722   3.335  13.810  0.2886 -0.4170  0.0823
 4862SOL    HW126219   2.788   3.402  13.829  1.2610 -1.6062  0.9495
 4862SOL    HW226220   2.638   3.360  13.848  1.4660  2.1106  0.9768
 4863SOL     OW26221   2.672   1.851   8.413 -0.2962 -0.5783 -0.0364
 4863SOL    HW126222   2.750   1.876   8.463 -0.8934  0.2227  0.4893
 4863SOL    HW226223   2.627   1.934   8.398 -0.4400 -0.9061 -1.4000
 4864SOL     OW26224   4.060   1.876   2.178  0.0682  0.1172  0.2862
 4864SOL    HW126225   4.132   1.937   2.167  2.5280 -2.7983  0.2027
 4864SOL    HW226226   4.058   1.863   2.272  0.6962  0.7301  0.3801
 4865SOL     OW26227   2.747   0.514   2.849  0.0386 -0.6932  0.0762
 4865SOL    HW126228   2.762   0.608   2.844 -0.1913 -0.6134  0.8821
 4865SOL    HW226229   2.824   0.476   2.893 -1.7232  0.4480  4.1331
 4866SOL     OW26230   0.813   3.176   8.566  0.0952  0.0564 -0.2167
 4866SOL    HW126231   0.742   3.146   8.509  1.8188  2.3201 -3.5365
 4866SOL    HW226232   0.843   3.090   8.594  1.0955  0.7617  0.8917
 4867SOL     OW26233   4.414   0.691   2.037  0.7521  0.0854 -0.4465
 4867SOL    HW126234   4.489   0.740   2.070  0.9854  0.5844 -1.7160
 4867SOL    HW226235   4.352   0.757   2.003  1.3940  0.6546 -0.5088
 4868SOL     OW26236   4.588   1.124   6.765  0.3092 -0.3601 -0.6173
 4868SOL    HW126237   4.506   1.085   6.735 -1.2144  0.1397  2.9330
 4868SOL    HW226238   4.577   1.216   6.739  3.6236 -0.0012 -0.7434
 4869SOL     OW26239   1.922   3.171   2.239 -0.2451  0.5113 -0.2394
 4869SOL    HW126240   1.876   3.245   2.200 -0.5072  0.0604 -0.7959
 4869SOL    HW226241   1.881   3.156   2.324 -0.2956 -2.1259 -0.7135
 4870SOL     OW26242   0.172   4.683   0.118  0.5632  0.2674 -0.5771
 4870SOL    HW126243   0.140   0.002   0.187  1.7419 -2.9176  2.6744
 4870SOL    HW226244   0.168   4.738   0.040 -1.2083  2.5169  1.0794
 4871SOL     OW26245   0.014   4.167   6.333  0.0038 -0.3448  0.5653
 4871SOL    HW126246   0.023   4.165   6.238  0.4446  1.5086  0.5792
 4871SOL    HW226247   4.659   4.148   6.329  0.1030 -1.1034  1.7060
 4872SOL     OW26248   3.698   4.567   2.476 -0.1492  0.1580  0.6084
 4872SOL    HW126249   3.759   4.597   2.408 -1.1571 -0.1554 -0.4242
 4872SOL    HW226250   3.756   4.556   2.552  0.8823 -1.1937 -0.3639
 4873SOL     OW26251   1.177   0.575   4.559  0.0022  0.0395 -0.6400
 4873SOL    HW126252   1.126   0.640   4.608  0.9422 -1.1185  1.8448
 4873SOL    HW226253   1.206   0.498   4.608 -1.8316 -0.1358  0.1796
 4874SOL     OW26254   3.291   0.252  12.272 -0.7208  0.5364 -0.3017
 4874SOL    HW126255   3.310   0.259  12.366  0.4914  0.3740 -0.5353
 4874SOL    HW226256   3.308   0.158  12.263  2.2464  0.9412  1.1924
 4875SOL     OW26257   1.053   3.113   3.570  0.3092 -0.7810  0.7831
 4875SOL    HW126258   1.100   3.042   3.526  0.4647 -0.0183 -0.2862
 4875SOL    HW226259   0.962   3.095   3.545  0.7462  0.2104 -1.4718
 4876SOL     OW26260   4.557   0.547   7.880 -0.0316 -0.3616 -0.2867
 4876SOL    HW126261   4.646   0.525   7.908 -0.0565  0.3872  0.3735
 4876SOL    HW226262   4.567   0.524   7.787 -1.7523  1.4543 -0.9029
 4877SOL     OW26263   0.662   1.136   7.729  0.4477 -0.2872 -0.5476
 4877SOL    HW126264   0.717   1.076   7.779  0.0567 -1.8848 -2.0153
 4877SOL    HW226265   0.704   1.222   7.727 -0.9995  0.4673  0.7731
 4878SOL     OW26266   3.785   0.942   6.746 -0.0752  0.0381  0.9930
 4878SOL    HW126267   3.808   0.891   6.824 -2.1281 -0.5617  1.2093
 4878SOL    HW226268   3.711   0.991   6.781  0.8499  2.9147 -1.0452
 4879SOL     OW26269   4.525   0.276  17.212 -0.4210 -0.0853 -0.2274
 4879SOL    HW126270   4.515   0.242  17.123  0.0582  0.3429 -0.4387
 4879SOL    HW226271   4.438   0.316  17.220 -1.2174 -1.2842 -2.7781
 4880SOL     OW26272   1.290   1.024  13.319  0.2031 -0.2741  0.3605
 4880SOL    HW126273   1.242   0.955  13.365  2.7751 -2.1066  0.2888
 4880SOL    HW226274   1.351   0.973  13.264 -0.6762 -1.4513  0.4688
 4881SOL     OW26275   1.691   2.963   6.623  0.1111 -0.4149 -0.3538
 4881SOL    HW126276   1.749   2.926   6.689  1.9097  3.5315  0.3356
 4881SOL    HW226277   1.664   2.886   6.574 -0.6778 -1.4558  1.7419
 4882SOL     OW26278   0.317   0.968   9.416  0.3863  0.1160  0.2337
 4882SOL    HW126279   0.309   1.047   9.468 -2.7126  2.0562 -3.1672
 4882SOL    HW226280   0.352   0.921   9.491 -0.7243  0.8081  1.1719
 4883SOL     OW26281   3.615   2.937   5.750  0.1679 -0.1264 -0.0689
 4883SOL    HW126282   3.672   2.976   5.816  1.5726 -3.1050  0.4575
 4883SOL    HW226283   3.561   3.014   5.731  0.7105 -0.2261 -2.0195
 4884SOL     OW26284   4.296   1.691  16.096  0.1031  0.4788  0.2318
 4884SOL    HW126285   4.279   1.777  16.135 -2.0168 -0.0310  0.4266
 4884SOL    HW226286   4.245   1.692  16.015 -0.9345 -3.4370  0.8895
 4885SOL     OW26287   2.043   3.616   1.110 -0.1712  0.0755  0.0328
 4885SOL    HW126288   2.077   3.616   1.020 -0.9954 -0.7292 -0.2933
 4885SOL    HW226289   1.948   3.611   1.094 -0.2187 -2.6739  1.1251
 4886SOL     OW26290   2.389   2.930   4.591 -0.0803  0.4954 -0.4777
 4886SOL    HW126291   2.316   2.868   4.588  1.4438 -1.2920 -0.4751
 4886SOL    HW226292   2.336   3.009   4.605  0.5708  0.7098  0.8139
 4887SOL     OW26293   2.795   4.142   5.075 -0.1415  0.4909 -0.0781
 4887SOL    HW126294   2.785   4.151   4.980  1.2305  1.5877 -0.1214
 4887SOL    HW226295   2.839   4.224   5.096 -0.9517  0.7810  0.4801
 4888SOL     OW26296   3.417   1.015   5.153 -0.1486 -0.4619 -0.2521
 4888SOL    HW126297   3.381   1.083   5.209  0.3938 -2.3214  2.3504
 4888SOL    HW226298   3.428   1.060   5.069 -0.4239 -0.2970 -0.1984
 4889SOL     OW26299   3.634   3.206  17.711  0.6130  0.5268 -0.3182
 4889SOL    HW126300   3.684   3.127  17.729  0.8722  0.7834  0.0752
 4889SOL    HW226301   3.586   3.195  17.629  1.3325 -1.3680 -0.4640
 4890SOL     OW26302   1.303   4.058   2.067  0.2068 -0.1496 -0.0181
 4890SOL    HW126303   1.370   4.119   2.034 -0.0886  0.8416  1.2165
 4890SOL    HW226304   1.258   4.038   1.985  0.7112  1.1940 -0.6296
 4891SOL     OW26305   2.281   2.481   4.917 -0.2907 -0.0908  0.5274
 4891SOL    HW126306   2.367   2.446   4.894  0.2373  2.2964 -1.1427
 4891SOL    HW226307   2.288   2.538   4.994 -0.8337  1.0982 -0.3108
 4892SOL     OW26308   1.050   0.683   2.856  0.1220 -0.4395  0.3503
 4892SOL    HW126309   1.113   0.736   2.904  1.1338 -2.0813  0.8626
 4892SOL    HW226310   1.026   0.611   2.914 -1.7486 -2.0021 -2.3851
 4893SOL     OW26311   1.933   0.326   7.468 -0.0794 -0.3982 -0.4401
 4893SOL    HW126312   1.923   0.268   7.392 -2.1247  0.7345 -1.0365
 4893SOL    HW226313   2.018   0.291   7.494  1.3070  1.9381 -1.9495
 4894SOL     OW26314   4.132   2.081   0.339 -0.5300  0.0970 -0.4069
 4894SOL    HW126315   4.050   2.031   0.339 -1.1109  1.0518 -0.7665
 4894SOL    HW226316   4.158   2.080   0.247  0.2249 -2.7512 -0.1759
 4895SOL     OW26317   2.910   3.644  11.987 -0.0279  0.1957 -0.3500
 4895SOL    HW126318   2.859   3.716  12.024 -3.2593 -2.6810  0.7318
 4895SOL    HW226319   2.842   3.580  12.009  0.8840 -0.5488  0.2636
 4896SOL     OW26320   2.165   4.394   7.920  0.7142  0.8445 -0.1369
 4896SOL    HW126321   2.244   4.383   7.867 -0.7554  0.3893 -2.2174
 4896SOL    HW226322   2.130   4.306   7.928  0.5021  1.0402  1.0903
 4897SOL     OW26323   3.761   1.917   7.471  0.2310  0.3359  0.0402
 4897SOL    HW126324   3.849   1.881   7.461  0.4852  0.9893 -0.0441
 4897SOL    HW226325   3.781   2.004   7.505 -0.0509  1.1550 -1.8681
 4898SOL     OW26326   4.566   3.429   6.542 -0.1749  0.5456 -0.1070
 4898SOL    HW126327   4.592   3.339   6.562 -0.1774  0.7014  0.5849
 4898SOL    HW226328   4.574   3.473   6.627 -0.6279 -1.2770  0.8602
 4899SOL     OW26329   2.377   1.258   7.174 -0.4717 -0.1988 -0.3156
 4899SOL    HW126330   2.380   1.201   7.251 -1.9833  0.8981  0.5756
 4899SOL    HW226331   2.468   1.249   7.146 -0.1792 -1.0435  0.8688
 4900SOL     OW26332   4.309   3.879   3.774 -0.4957 -0.4948 -0.0398
 4900SOL    HW126333   4.246   3.812   3.748  1.0834 -1.5087 -1.2822
 4900SOL    HW226334   4.384   3.822   3.788 -0.5226 -0.7697 -1.0123
 4901SOL     OW26335   4.556   2.988   2.190  0.0204 -0.0239  1.1809
 4901SOL    HW126336   4.482   2.978   2.129 -0.4968 -1.3571  2.0161
 4901SOL    HW226337   4.541   2.908   2.241  0.1263 -0.3680  0.6776
 4902SOL     OW26338   0.743   4.055   7.103  0.2833 -0.1409 -0.3154
 4902SOL    HW126339   0.680   3.983   7.114  0.8241 -0.5225  0.3058
 4902SOL    HW226340   0.813   4.011   7.152  0.1058 -0.7313 -0.5877
 4903SOL     OW26341   2.844   4.067   5.978  0.3276 -0.1652 -0.0083
 4903SOL    HW126342   2.887   4.123   5.914 -1.2287  1.7238  0.6120
 4903SOL    HW226343   2.914   4.064   6.043  0.5437 -0.6176 -0.2597
 4904SOL     OW26344   1.250   4.325  15.122  0.4006  0.0741  0.6119
 4904SOL    HW126345   1.287   4.400  15.169 -0.9407  0.3905  1.1595
 4904SOL    HW226346   1.204   4.274  15.189  1.5487  0.8920  2.0232
 4905SOL     OW26347   0.292   1.195   8.489 -0.3345 -0.5637  0.2270
 4905SOL    HW126348   0.210   1.243   8.488  0.1366  0.2833  2.0940
 4905SOL    HW226349   0.338   1.230   8.566 -0.5660 -0.2892  0.2401
 4906SOL     OW26350   4.652   4.245  15.343  0.6839 -0.5025 -0.1391
 4906SOL    HW126351   4.573   4.237  15.289 -0.0184 -0.7056  0.9015
 4906SOL    HW226352   4.662   4.153  15.369 -2.2663 -0.8004 -0.0529
 4907SOL     OW26353   4.230   0.347  17.174  0.5661 -0.3382  0.0893
 4907SOL    HW126354   4.202   0.265  17.215 -2.2984  1.0165  0.8504
 4907SOL    HW226355   4.182   0.353  17.092 -1.0446 -1.3060  0.9634
 4908SOL     OW26356   1.988   1.274   1.279 -0.5089 -0.3071  0.4216
 4908SOL    HW126357   2.048   1.232   1.218  0.0397 -0.9897  1.4280
 4908SOL    HW226358   1.999   1.365   1.251 -0.0425 -1.1274 -2.0299
 4909SOL     OW26359   4.504   0.864   3.622  0.2189  0.3791  0.2127
 4909SOL    HW126360   4.427   0.903   3.663  0.4864  0.3161  0.7797
 4909SOL    HW226361   4.544   0.833   3.703 -0.5161  3.8231  1.8844
 4910SOL     OW26362   0.673   0.067   9.323 -0.5711  0.1660  0.5389
 4910SOL    HW126363   0.720   0.083   9.241 -1.6788 -1.1522 -0.3555
 4910SOL    HW226364   0.700   4.723   9.360  0.0270  0.7381  1.3628
 4911SOL     OW26365   3.301   2.276  12.279 -0.2256 -0.0448 -0.1755
 4911SOL    HW126366   3.344   2.346  12.230 -2.6132 -1.0102 -3.6311
 4911SOL    HW226367   3.271   2.322  12.358 -1.3160  0.3523 -0.8282
 4912SOL     OW26368   4.516   1.149   7.382 -0.5976  0.1246 -0.0590
 4912SOL    HW126369   4.453   1.080   7.365  0.6882 -0.7750 -1.1510
 4912SOL    HW226370   4.497   1.211   7.312  0.9118  2.3419  1.4888
 4913SOL     OW26371   1.220   0.476   3.700  0.1091 -0.2530 -0.6486
 4913SOL    HW126372   1.276   0.431   3.636 -0.8545  0.6321 -2.1218
 4913SOL    HW226373   1.265   0.454   3.781  0.8521  1.5331 -0.5861
 4914SOL     OW26374   3.308   3.227   6.560 -0.0423  0.3795  0.1432
 4914SOL    HW126375   3.281   3.318   6.553 -0.8174  0.1395  0.0826
 4914SOL    HW226376   3.353   3.230   6.645  0.7735 -0.1003 -0.2609
 4915SOL     OW26377   1.862   1.523   5.427 -0.1395  0.5628  0.2862
 4915SOL    HW126378   1.848   1.592   5.362 -2.0936 -1.0157 -1.0119
 4915SOL    HW226379   1.931   1.557   5.484  2.3167  1.9284 -3.4954
 4916SOL     OW26380   1.146   2.950   0.870 -0.1571 -0.0559 -0.2472
 4916SOL    HW126381   1.078   3.016   0.880 -0.5516 -0.0180 -3.3451
 4916SOL    HW226382   1.222   2.997   0.904 -0.2529  1.1227 -1.6616
 4917SOL     OW26383   1.086   0.265  16.083  0.5826  0.2793 -0.6723
 4917SOL    HW126384   1.116   0.336  16.026  1.7091  1.2235  1.0690
 4917SOL    HW226385   1.155   0.267  16.150  0.7782 -1.5079 -0.8414
 4918SOL     OW26386   3.590   4.535   6.674  0.1881  0.3556 -0.6908
 4918SOL    HW126387   3.616   4.448   6.642  1.1883 -0.2118  1.6448
 4918SOL    HW226388   3.676   4.556   6.711 -1.5671  2.0939  2.4016
 4919SOL     OW26389   1.024   3.806   5.428  0.7261 -0.4162  0.7012
 4919SOL    HW126390   1.051   3.898   5.421 -3.4926  1.0020  3.3838
 4919SOL    HW226391   1.025   3.795   5.524 -1.5983 -0.5047  0.7084
 4920SOL     OW26392   2.057   3.306   5.479 -0.2572  0.3317  0.0920
 4920SOL    HW126393   2.137   3.264   5.510 -0.5643 -1.9077 -2.1980
 4920SOL    HW226394   2.000   3.240   5.517  0.7041  0.4122  1.6819
 4921SOL     OW26395   0.594   0.763   6.048 -0.1408  0.4925 -0.7871
 4921SOL    HW126396   0.513   0.812   6.039 -0.2064  0.7309  1.0955
 4921SOL    HW226397   0.560   0.703   6.114 -0.7940  0.4330 -1.1764
 4922SOL     OW26398   1.150   3.055  15.509  0.7503 -0.1217  0.3602
 4922SOL    HW126399   1.138   3.149  15.516  1.6466  0.0406 -0.2582
 4922SOL    HW226400   1.229   3.047  15.563  0.4399 -0.9673  0.6995
 4923SOL     OW26401   2.711   4.084   8.800  0.2586  0.0684 -0.2072
 4923SOL    HW126402   2.761   4.164   8.818 -1.8582  1.3093  0.2059
 4923SOL    HW226403   2.625   4.123   8.781  0.4547  0.1225 -0.9645
 4924SOL     OW26404   3.968   1.320   9.465  0.0368 -0.6430 -0.0517
 4924SOL    HW126405   3.923   1.268   9.398  1.1385  1.9127 -2.7821
 4924SOL    HW226406   4.056   1.292   9.439  0.8264  0.8050  1.0488
 4925SOL     OW26407   1.045   0.835   0.707  0.0306 -0.2955 -0.2324
 4925SOL    HW126408   1.100   0.827   0.629 -1.7571  1.0868 -1.6238
 4925SOL    HW226409   0.960   0.824   0.665 -1.4413  1.7754  2.2425
 4926SOL     OW26410   1.749   4.314   3.554 -0.1150 -0.9558 -0.3542
 4926SOL    HW126411   1.656   4.333   3.553 -0.3694 -2.2654 -1.0746
 4926SOL    HW226412   1.766   4.251   3.484  1.8976  1.6949 -2.2923
 4927SOL     OW26413   4.266   0.638   9.681  0.0462  0.0846  0.0712
 4927SOL    HW126414   4.190   0.581   9.692  1.1495 -0.9623  2.2908
 4927SOL    HW226415   4.286   0.616   9.590 -0.1683 -1.2257  0.3425
 4928SOL     OW26416   0.892   2.517   3.721  0.3752 -0.3277 -0.5798
 4928SOL    HW126417   0.961   2.452   3.734 -0.2772 -0.9610 -0.2810
 4928SOL    HW226418   0.817   2.461   3.704 -1.3323  1.7145  0.2254
 4929SOL     OW26419   0.417   1.025   7.653 -0.4321  0.7560 -0.3117
 4929SOL    HW126420   0.503   1.065   7.667 -1.0860  0.9255  3.1708
 4929SOL    HW226421   0.358   1.094   7.683  1.3912  2.3785 -0.4447
 4930SOL     OW26422   1.102   2.928   1.248 -0.6361  0.1463  0.4575
 4930SOL    HW126423   1.119   3.012   1.206 -1.9954 -0.1465 -0.7010
 4930SOL    HW226424   1.030   2.957   1.304 -1.3508  0.8031 -0.8117
 4931SOL     OW26425   0.829   0.326   4.295 -0.0476 -0.0882  0.0982
 4931SOL    HW126426   0.819   0.319   4.390  0.0679  0.1302  0.1257
 4931SOL    HW226427   0.867   0.412   4.277 -0.1409 -0.0436  0.1115
 4932SOL     OW26428   0.682   3.339  14.317 -0.4944  0.2165 -0.1103
 4932SOL    HW126429   0.608   3.309  14.264  0.7631 -0.5692 -1.4197
 4932SOL    HW226430   0.626   3.378  14.385  0.1412 -1.7012  1.5267
 4933SOL     OW26431   3.367   3.777   3.638  0.0839 -0.2633  0.2946
 4933SOL    HW126432   3.394   3.689   3.663  0.0083 -0.6710 -1.0803
 4933SOL    HW226433   3.340   3.760   3.548  0.7869 -0.2034  0.0701
 4934SOL     OW26434   2.938   3.218   0.093  0.2812 -0.4622 -0.2223
 4934SOL    HW126435   3.007   3.227   0.028 -1.2735 -0.4819 -1.8470
 4934SOL    HW226436   3.000   3.207   0.166 -1.2351 -0.0934  1.1131
 4935SOL     OW26437   3.637   1.907   5.179  0.7095  0.5613  0.6978
 4935SOL    HW126438   3.546   1.883   5.196  1.1864 -2.0980 -0.4621
 4935SOL    HW226439   3.657   1.890   5.087 -1.0137 -0.6556  0.5392
 4936SOL     OW26440   2.131   0.634   4.672  0.0116 -0.0874 -0.4345
 4936SOL    HW126441   2.133   0.699   4.742 -0.4989 -1.7486  1.1082
 4936SOL    HW226442   2.042   0.600   4.670  0.3357 -1.0333  1.6234
 4937SOL     OW26443   1.690   3.614   0.479 -0.1656 -0.2185  0.2412
 4937SOL    HW126444   1.623   3.579   0.421 -0.5042  0.4381  0.2327
 4937SOL    HW226445   1.680   3.540   0.538  2.0831 -0.6568  0.0843
 4938SOL     OW26446   2.884   4.652   8.214 -0.9464  0.0528 -0.1341
 4938SOL    HW126447   2.878   4.561   8.243  3.4242  0.2296  1.3116
 4938SOL    HW226448   2.897   4.649   8.119 -0.0568 -0.0577 -0.0047
 4939SOL     OW26449   4.046   2.563   0.700 -0.5711  0.3541 -0.1348
 4939SOL    HW126450   4.127   2.521   0.672  0.3146  1.6266  0.4908
 4939SOL    HW226451   4.075   2.655   0.702  2.0794 -0.4256 -2.6252
 4940SOL     OW26452   4.658   1.386   3.973  0.1988  0.3747 -0.3838
 4940SOL    HW126453   4.594   1.357   4.038 -1.5576  1.4310 -1.6612
 4940SOL    HW226454   4.698   1.302   3.951  0.1816  0.3855 -0.4548
 4941SOL     OW26455   1.547   0.470  17.415 -0.1569  0.3672  0.0656
 4941SOL    HW126456   1.587   0.556  17.423 -0.2907  0.3099  1.3487
 4941SOL    HW226457   1.519   0.463  17.323 -0.6113  0.5798  0.1863
 4942SOL     OW26458   2.957   1.166   5.762 -0.5287 -0.3034 -0.1697
 4942SOL    HW126459   2.896   1.175   5.689  0.6005  1.5151 -0.8829
 4942SOL    HW226460   2.967   1.256   5.792 -1.8798  0.1434 -1.0663
 4943SOL     OW26461   1.465   1.566   7.276  0.0827  0.6299 -0.7653
 4943SOL    HW126462   1.547   1.577   7.323  0.4149  1.7931 -1.6267
 4943SOL    HW226463   1.505   1.554   7.190 -3.4001  0.3279 -2.3501
 4944SOL     OW26464   1.197   0.453  11.345 -0.1796 -0.4408 -1.1116
 4944SOL    HW126465   1.207   0.520  11.413 -0.3987 -1.1485 -0.3814
 4944SOL    HW226466   1.280   0.472  11.302  0.7429  0.2943  0.9765
 4945SOL     OW26467   1.950   1.090   5.079  0.7701 -0.3640  0.4924
 4945SOL    HW126468   2.027   1.055   5.034  0.9692  1.6994 -0.7823
 4945SOL    HW226469   1.999   1.152   5.133 -2.3238  1.7068  0.9502
 4946SOL     OW26470   0.515   0.287   0.655  0.0148 -0.2752  0.1469
 4946SOL    HW126471   0.560   0.364   0.623 -0.1208 -0.7100 -1.1016
 4946SOL    HW226472   0.523   0.228   0.580  1.9988  0.1133  0.0748
 4947SOL     OW26473   0.740   4.462   9.080 -0.0175  0.2807 -0.1676
 4947SOL    HW126474   0.722   4.478   9.172  0.3952  0.4743 -0.1209
 4947SOL    HW226475   0.831   4.490   9.075  0.1873  0.0534  2.2387
 4948SOL     OW26476   1.531   4.038   6.646  0.3055 -0.0389  0.1542
 4948SOL    HW126477   1.462   4.017   6.584 -0.7667  1.3753  0.8644
 4948SOL    HW226478   1.579   3.955   6.641  1.0646  0.1819  3.6110
 4949SOL     OW26479   3.043   4.122   4.523  0.2623  0.4956 -0.2527
 4949SOL    HW126480   3.068   4.033   4.497  1.6064  1.1753 -1.2316
 4949SOL    HW226481   2.976   4.107   4.589  1.6900 -2.0132  0.6274
 4950SOL     OW26482   4.305   2.132   6.112  0.1858 -0.5883  0.5250
 4950SOL    HW126483   4.281   2.142   6.204  1.0793  1.5215  0.5310
 4950SOL    HW226484   4.389   2.176   6.122 -0.0603 -0.4658  1.9978
 4951SOL     OW26485   2.694   0.116   4.378 -0.3375  0.1998  0.8023
 4951SOL    HW126486   2.603   0.127   4.403 -0.0793 -0.2703  1.9685
 4951SOL    HW226487   2.740   0.143   4.457  0.6274 -0.9671  0.6456
 4952SOL     OW26488   2.357   1.463   3.570  0.6657  0.1651 -0.4299
 4952SOL    HW126489   2.290   1.529   3.583  0.9861  0.6188 -1.0910
 4952SOL    HW226490   2.314   1.404   3.632 -3.5113  1.8304 -1.7217
 4953SOL     OW26491   2.409   1.496  12.148 -0.6447 -0.2570 -0.3156
 4953SOL    HW126492   2.327   1.458  12.180 -1.2468  1.8347  0.5942
 4953SOL    HW226493   2.439   1.432  12.083  0.2026  0.3840 -0.5553
 4954SOL     OW26494   1.908   1.348   0.084 -0.5394  0.1082 -0.3225
 4954SOL    HW126495   1.917   1.441   0.100  0.4978 -0.2035  0.9251
 4954SOL    HW226496   1.963   1.309   0.153 -1.1255 -1.6897 -0.8585
 4955SOL     OW26497   2.384   3.769  17.294 -0.4416 -0.3327 -0.2822
 4955SOL    HW126498   2.474   3.800  17.306 -0.9308  0.0908  2.3226
 4955SOL    HW226499   2.360   3.782  17.386 -0.4336  1.9119 -0.5999
 4956SOL     OW26500   4.738   1.788  16.871  0.4887  0.3567 -0.2321
 4956SOL    HW126501   4.687   1.715  16.906  2.4994 -0.5744  0.7826
 4956SOL    HW226502   0.083   1.773  16.914 -1.2156  1.1627  3.3811
 4957SOL     OW26503   3.294   1.606  11.733  0.7865 -0.4303 -0.0356
 4957SOL    HW126504   3.260   1.545  11.667  2.3206 -0.3092 -0.9555
 4957SOL    HW226505   3.219   1.660  11.757  0.3006  0.1875 -2.9548
 4958SOL     OW26506   0.165   3.452  13.821 -0.5324 -0.4757 -0.1308
 4958SOL    HW126507   0.095   3.394  13.850 -0.1120  0.0564  1.9322
 4958SOL    HW226508   0.241   3.396  13.834 -0.6389 -0.5264  0.2471
 4959SOL     OW26509   2.613   3.427   8.667 -0.1793  0.5004 -0.5428
 4959SOL    HW126510   2.559   3.357   8.630 -0.5967  0.3260  0.3974
 4959SOL    HW226511   2.552   3.495   8.639  0.9151  2.1321  1.0494
 4960SOL     OW26512   0.901   1.445   3.571  0.2933 -0.4861 -0.3335
 4960SOL    HW126513   0.839   1.391   3.620  0.7245  0.3971  1.1723
 4960SOL    HW226514   0.970   1.455   3.637  0.7691  1.7321 -1.1888
 4961SOL     OW26515   2.728   0.507   5.697 -0.2574 -0.1502 -0.2701
 4961SOL    HW126516   2.682   0.579   5.740 -0.4996 -2.1838  2.8954
 4961SOL    HW226517   2.807   0.521   5.749  0.8600  0.7907 -2.2430
 4962SOL     OW26518   0.488   3.258   5.959  0.1667 -0.2624  0.4631
 4962SOL    HW126519   0.418   3.301   5.910 -0.7088 -0.2523  1.7265
 4962SOL    HW226520   0.554   3.265   5.890 -0.2563  1.6426  0.2423
 4963SOL     OW26521   1.515   3.147   6.213 -0.0779  0.2390  0.1089
 4963SOL    HW126522   1.544   3.229   6.253 -0.7441  0.8083 -0.5786
 4963SOL    HW226523   1.421   3.139   6.233  0.2998 -4.5128  0.1482
 4964SOL     OW26524   1.749   4.146   6.461 -0.0522  0.0248  0.0276
 4964SOL    HW126525   1.681   4.138   6.527  1.1758 -1.6644  1.0895
 4964SOL    HW226526   1.747   4.057   6.426 -0.3798  0.8821 -2.1504
 4965SOL     OW26527   3.599   3.582   9.684 -0.4850 -0.0657  0.0953
 4965SOL    HW126528   3.559   3.504   9.645  0.0725 -0.2642 -0.0815
 4965SOL    HW226529   3.594   3.635   9.604 -1.6742  0.0969  0.2817
 4966SOL     OW26530   4.454   2.851   2.743 -0.0102 -0.4127 -0.3609
 4966SOL    HW126531   4.475   2.850   2.836 -0.0864  1.4821 -0.3308
 4966SOL    HW226532   4.492   2.771   2.706  1.6476 -1.1509  2.9744
 4967SOL     OW26533   2.289   3.563   1.716 -0.3496 -0.2663  0.2767
 4967SOL    HW126534   2.296   3.492   1.652 -0.7643  1.8068 -2.0780
 4967SOL    HW226535   2.198   3.592   1.712 -1.1399 -2.6388  0.7601
 4968SOL     OW26536   1.519   2.187   1.096 -0.3207  0.1218 -0.4931
 4968SOL    HW126537   1.449   2.253   1.096  0.6640  1.1380  1.7239
 4968SOL    HW226538   1.564   2.204   1.178  0.8574 -3.2622 -0.4720
 4969SOL     OW26539   2.376   1.293   3.935  0.0585  0.0093 -0.1364
 4969SOL    HW126540   2.355   1.383   3.959 -0.1442  0.0654 -0.5133
 4969SOL    HW226541   2.365   1.300   3.840 -1.1008  1.1160  0.0878
 4970SOL     OW26542   1.005   2.063   9.295 -0.1529 -0.5256 -0.4994
 4970SOL    HW126543   0.998   2.142   9.349 -0.2829  0.6054 -2.1965
 4970SOL    HW226544   1.029   2.000   9.364  0.2358 -0.7026 -0.7960
 4971SOL     OW26545   3.388   2.249   7.318 -0.4974  0.4994  0.1701
 4971SOL    HW126546   3.463   2.190   7.312 -0.0564  0.8479  2.1374
 4971SOL    HW226547   3.320   2.184   7.333 -1.9298  1.7161 -1.0608
 4972SOL     OW26548   1.935   2.289   9.129  0.4213  0.5224  0.2260
 4972SOL    HW126549   1.915   2.376   9.165 -2.2662  0.8930 -2.1283
 4972SOL    HW226550   1.952   2.240   9.210  2.3859 -0.4942 -0.8257
 4973SOL     OW26551   4.396   1.154   4.651 -0.3245 -0.3793 -0.1471
 4973SOL    HW126552   4.439   1.157   4.737 -0.6921 -1.7036  0.0815
 4973SOL    HW226553   4.472   1.146   4.593  1.1266 -0.5659  1.7540
 4974SOL     OW26554   0.407   2.702   6.240 -0.4069  0.7487 -0.4827
 4974SOL    HW126555   0.486   2.653   6.262  0.3026  1.6183 -1.1276
 4974SOL    HW226556   0.341   2.641   6.273 -1.2414  1.9900  0.1693
 4975SOL     OW26557   0.710   4.351  13.649  0.1149 -0.6197  0.3330
 4975SOL    HW126558   0.646   4.317  13.712  0.1213  0.5420  0.9552
 4975SOL    HW226559   0.789   4.305  13.677  0.2456 -0.4524  0.2439
 4976SOL     OW26560   1.568   3.563   2.545 -0.2664 -0.4357 -0.1819
 4976SOL    HW126561   1.622   3.629   2.588 -2.0180  1.4044 -0.8051
 4976SOL    HW226562   1.535   3.617   2.474 -1.6001 -1.5542 -0.4296
 4977SOL     OW26563   1.497   1.161   9.257  0.1189 -0.6134  0.2883
 4977SOL    HW126564   1.447   1.219   9.199  1.0040 -2.7967 -2.6811
 4977SOL    HW226565   1.454   1.082   9.224 -1.0356  0.3582 -0.5263
 4978SOL     OW26566   0.592   3.902   7.259  0.2931  0.8758 -0.1414
 4978SOL    HW126567   0.630   3.879   7.344 -0.2854 -1.2134 -0.4656
 4978SOL    HW226568   0.517   3.843   7.255 -0.1840  1.5469 -1.2342
 4979SOL     OW26569   1.451   4.567   6.898 -0.2640  0.1056  0.5602
 4979SOL    HW126570   1.430   4.586   6.807  1.3032 -2.8099 -0.3857
 4979SOL    HW226571   1.505   4.488   6.894 -1.4103 -0.7180  1.5699
 4980SOL     OW26572   1.077   1.377   0.788  0.3271 -0.3962  0.3446
 4980SOL    HW126573   1.109   1.466   0.803 -1.2418  0.2397 -0.0049
 4980SOL    HW226574   1.145   1.324   0.830  0.5227 -1.2399 -1.0202
 4981SOL     OW26575   2.050   0.218   5.417  0.1020  0.0743  0.1856
 4981SOL    HW126576   2.029   0.289   5.479 -0.3716  2.0573 -2.2440
 4981SOL    HW226577   2.141   0.201   5.443  0.3210  0.5117 -0.2928
 4982SOL     OW26578   1.319   0.297  15.422  0.0095  0.2154  0.3889
 4982SOL    HW126579   1.261   0.233  15.381  0.8841 -0.5018  0.2603
 4982SOL    HW226580   1.380   0.244  15.473 -0.8516  0.1577  1.3543
 4983SOL     OW26581   1.976   1.547  11.712  0.4108  0.5903 -0.3107
 4983SOL    HW126582   1.895   1.508  11.745  0.9443  0.0200  0.3305
 4983SOL    HW226583   1.940   1.600  11.641  0.1904 -0.7340 -1.2083
 4984SOL     OW26584   3.208   2.988   9.042  0.0351  0.1608  0.0441
 4984SOL    HW126585   3.136   3.039   9.005  0.0807 -0.0735 -0.3624
 4984SOL    HW226586   3.171   2.970   9.129  1.0775  0.1279  0.4906
 4985SOL     OW26587   0.103   3.202   4.640 -0.1287  0.2218 -0.1719
 4985SOL    HW126588   0.097   3.119   4.687  1.6263 -0.4592 -1.1481
 4985SOL    HW226589   0.023   3.248   4.664  0.6603  1.0187  0.9108
 4986SOL     OW26590   2.112   0.765   5.251 -0.6009 -0.2123 -0.0642
 4986SOL    HW126591   2.166   0.842   5.234 -2.2298  0.5859 -1.5664
 4986SOL    HW226592   2.094   0.732   5.164 -0.0626  0.1460 -0.3106
 4987SOL     OW26593   2.680   3.882   2.870  0.0604  0.2710  0.9414
 4987SOL    HW126594   2.594   3.850   2.843 -0.0969 -2.1685  4.2563
 4987SOL    HW226595   2.694   3.828   2.948  0.6149 -3.2615 -1.5979
 4988SOL     OW26596   0.149   1.612   4.624 -0.3905 -0.7407 -0.6425
 4988SOL    HW126597   0.155   1.599   4.529  1.1458 -3.4259 -0.1839
 4988SOL    HW226598   0.241   1.604   4.646 -0.4480 -2.2708 -0.9559
 4989SOL     OW26599   1.892   3.193   9.055 -0.1413 -0.4564  0.2957
 4989SOL    HW126600   1.904   3.257   9.125 -2.1010  1.6584 -1.2877
 4989SOL    HW226601   1.801   3.166   9.067 -0.1350 -1.1652 -1.2615
 4990SOL     OW26602   0.958   1.585   4.242 -0.6306 -0.0260  0.6313
 4990SOL    HW126603   0.938   1.664   4.191 -0.0698 -1.9003 -2.4471
 4990SOL    HW226604   0.884   1.597   4.302 -1.3156  0.8945 -0.4008
 4991SOL     OW26605   2.013   3.145  15.372 -0.2458  0.2310 -0.1599
 4991SOL    HW126606   2.012   3.138  15.277 -2.5234  0.0497 -0.1254
 4991SOL    HW226607   1.938   3.090  15.397 -0.9613  1.4122  0.3153
 4992SOL     OW26608   3.921   4.128  14.510  0.6172 -0.1478 -0.1154
 4992SOL    HW126609   3.882   4.193  14.569  1.6367  2.5561 -2.4273
 4992SOL    HW226610   3.838   4.099  14.472  0.2962  0.7652 -0.1175
 4993SOL     OW26611   1.928   1.923   2.227 -0.1335 -0.7315  0.7676
 4993SOL    HW126612   1.835   1.906   2.218 -0.2344  0.2861 -0.1548
 4993SOL    HW226613   1.921   1.972   2.309  0.4533 -0.5636  0.7170
 4994SOL     OW26614   3.279   2.871   1.630 -0.5341 -0.0217  0.8937
 4994SOL    HW126615   3.273   2.775   1.621 -0.7166  0.0285  0.4878
 4994SOL    HW226616   3.248   2.887   1.719  0.3881 -0.2085  1.2473
 4995SOL     OW26617   2.479   2.373   4.596  0.1944  0.2434 -0.4336
 4995SOL    HW126618   2.506   2.401   4.683 -1.0979  0.4938 -0.1094
 4995SOL    HW226619   2.440   2.452   4.557 -0.4892  0.3762  0.5325
 4996SOL     OW26620   2.702   3.803   6.331 -0.5776  0.1108 -0.1034
 4996SOL    HW126621   2.652   3.721   6.326 -0.0636 -0.1666 -0.7797
 4996SOL    HW226622   2.707   3.810   6.426  2.0410  1.6713 -0.3476
 4997SOL     OW26623   2.509   2.179  16.348  0.1529 -0.2331 -0.4966
 4997SOL    HW126624   2.602   2.161  16.336  0.1801  0.3794 -1.2430
 4997SOL    HW226625   2.476   2.095  16.381 -0.1720  0.3756  0.7256
 4998SOL     OW26626   3.092   0.597   3.774 -0.6233 -0.4857  0.4478
 4998SOL    HW126627   3.099   0.605   3.869  2.5279 -0.3314  0.2014
 4998SOL    HW226628   3.095   0.690   3.754  1.1732 -0.5029  0.6850
 4999SOL     OW26629   4.057   4.709   8.328 -0.1020 -0.5865  0.2490
 4999SOL    HW126630   4.021   0.040   8.274  2.6909  2.0692  1.7932
 4999SOL    HW226631   4.136   4.692   8.277  0.2459 -0.0010  0.5931
 5000SOL     OW26632   3.961   4.471   7.240  0.0888  0.6076 -0.0567
 5000SOL    HW126633   3.989   4.544   7.184  0.6204  1.4746  1.3602
 5000SOL    HW226634   3.928   4.526   7.310  2.3266  1.0334  0.6654
 5001SOL     OW26635   2.733   4.409  15.945 -0.0087 -0.0099  0.1639
 5001SOL    HW126636   2.680   4.353  15.889  1.0065 -0.4267 -0.3780
 5001SOL    HW226637   2.811   4.354  15.952 -0.4302 -0.6003  0.1296
 5002SOL     OW26638   4.237   3.837   0.546  0.5830  0.5846  0.0695
 5002SOL    HW126639   4.146   3.851   0.571  0.3093  0.4459 -0.8632
 5002SOL    HW226640   4.231   3.818   0.453 -0.6268  0.5432  0.1513
 5003SOL     OW26641   1.224   0.995   8.467 -0.1727  0.1203  0.2941
 5003SOL    HW126642   1.145   0.965   8.421  1.9875 -2.0990 -1.9944
 5003SOL    HW226643   1.238   0.919   8.524  1.8282  0.5703  0.3823
 5004SOL     OW26644   4.418   2.811   3.256 -0.2521 -0.2612 -0.0595
 5004SOL    HW126645   4.476   2.816   3.180  0.3224 -0.3900  0.3792
 5004SOL    HW226646   4.367   2.888   3.231  1.1532  0.3311 -1.0585
 5005SOL     OW26647   0.047   4.468   7.076 -0.2534 -0.4249 -0.4475
 5005SOL    HW126648   0.058   4.482   6.982  0.2781 -1.7946 -0.5924
 5005SOL    HW226649   0.064   4.374   7.081  0.9478 -0.1795  0.0509
 5006SOL     OW26650   2.359   2.340  17.089  0.2928 -0.5959 -0.2187
 5006SOL    HW126651   2.372   2.379  17.175 -2.7429 -0.9136  0.3951
 5006SOL    HW226652   2.387   2.401  17.021 -0.4389  0.4912  0.4586
 5007SOL     OW26653   2.073   4.487   0.678 -0.2788  0.2985  0.3220
 5007SOL    HW126654   2.146   4.425   0.679  1.5590  2.4714  0.3441
 5007SOL    HW226655   2.006   4.448   0.622 -0.1953 -1.0639  1.1525
 5008SOL     OW26656   3.472   2.867   0.763  0.3454 -0.1935 -0.1929
 5008SOL    HW126657   3.443   2.837   0.849 -0.8122 -0.3529 -0.6380
 5008SOL    HW226658   3.567   2.859   0.772  0.2446  0.2683  1.3056
 5009SOL     OW26659   3.356   3.916   4.184  0.6005  0.6073  0.3356
 5009SOL    HW126660   3.329   3.866   4.107 -0.4864  0.4415  0.8201
 5009SOL    HW226661   3.314   3.999   4.163 -0.0534  0.7254  2.1250
 5010SOL     OW26662   3.408   3.074  11.025 -0.4395  0.5041 -0.5398
 5010SOL    HW126663   3.410   2.980  11.040  1.6431  0.7686  0.8951
 5010SOL    HW226664   3.429   3.113  11.110  1.8034 -0.6608 -0.5486
 5011SOL     OW26665   1.857   1.862  13.213  0.6159  0.4062  0.2948
 5011SOL    HW126666   1.928   1.879  13.275  0.3089  0.2643  0.6807
 5011SOL    HW226667   1.784   1.859  13.274  0.8638  1.7966  0.6577
 5012SOL     OW26668   4.604   2.653  11.574  0.3824 -0.7082 -0.8400
 5012SOL    HW126669   4.636   2.613  11.493  2.0835  1.8634 -1.4824
 5012SOL    HW226670   4.678   2.709  11.601 -0.5242  0.8112 -1.5041
 5013SOL     OW26671   1.150   2.060   6.365 -0.0149 -0.3158  0.3050
 5013SOL    HW126672   1.201   2.088   6.441  0.1651  1.9085 -0.6187
 5013SOL    HW226673   1.218   2.006   6.324  0.8061  1.8229 -1.1630
 5014SOL     OW26674   1.382   4.623  10.936  0.5029 -1.3190 -0.6541
 5014SOL    HW126675   1.334   4.605  10.855 -1.9766  1.5404  0.1742
 5014SOL    HW226676   1.473   4.614  10.909  0.4854 -0.7266 -0.9047
 5015SOL     OW26677   0.091   3.212  10.048 -0.4234  0.6851 -0.0495
 5015SOL    HW126678   4.738   3.185  10.052 -0.0612 -0.7724 -1.4147
 5015SOL    HW226679   0.145   3.133  10.039  1.0851  1.8719 -1.4645
 5016SOL     OW26680   2.911   3.617   7.622  0.1714 -0.1584 -0.5457
 5016SOL    HW126681   2.893   3.529   7.589 -0.7961 -0.8881  1.9123
 5016SOL    HW226682   2.849   3.666   7.568 -0.7430 -0.1864  0.4827
 5017SOL     OW26683   1.333   1.787   9.352  0.1181 -0.5236 -0.5934
 5017SOL    HW126684   1.376   1.842   9.287  0.7226 -0.2578  0.0297
 5017SOL    HW226685   1.402   1.774   9.417  1.1446  3.0199 -1.0241
 5018SOL     OW26686   0.267   3.989   6.539 -0.0045 -0.1585  0.0343
 5018SOL    HW126687   0.184   3.950   6.511  0.5595 -0.0476 -1.8257
 5018SOL    HW226688   0.241   4.080   6.527 -0.0362 -0.2179 -0.3473
 5019SOL     OW26689   2.558   0.261   2.109 -0.7025  0.4047 -0.4833
 5019SOL    HW126690   2.565   0.284   2.017  0.7031  3.1812  0.2897
 5019SOL    HW226691   2.582   0.169   2.111 -0.9415  0.3403 -0.5262
 5020SOL     OW26692   4.248   1.084   7.596  0.2430 -0.0313  0.0991
 5020SOL    HW126693   4.298   1.043   7.525  0.6854  2.1232 -0.8487
 5020SOL    HW226694   4.175   1.024   7.612  1.6236 -1.7524 -0.0378
 5021SOL     OW26695   0.094   2.439   3.093  0.6444 -0.7680  1.1084
 5021SOL    HW126696   0.095   2.373   3.024 -0.3770 -1.8651  2.1469
 5021SOL    HW226697   0.101   2.525   3.051 -2.0136 -1.0350  0.1532
 5022SOL     OW26698   2.262   3.047  15.230  0.0931 -0.2907 -0.3352
 5022SOL    HW126699   2.297   3.129  15.193  0.9229 -0.3359  0.3811
 5022SOL    HW226700   2.172   3.058  15.197 -0.1781  2.5251  1.2707
 5023SOL     OW26701   4.351   0.031   7.043  0.2781 -0.0302 -0.4504
 5023SOL    HW126702   4.320   4.713   7.114  0.0117 -1.5093 -1.7591
 5023SOL    HW226703   4.405   0.100   7.081 -1.6666  0.2309  1.8387
 5024SOL     OW26704   0.133   3.257   6.523  0.1914 -0.1219 -0.3628
 5024SOL    HW126705   0.154   3.348   6.544  0.2626 -0.3395  0.4774
 5024SOL    HW226706   0.198   3.208   6.573  0.6354 -0.6308 -1.4477
 5025SOL     OW26707   2.222   0.913   7.597 -0.2325  0.1608  0.3849
 5025SOL    HW126708   2.295   0.964   7.632  1.7792 -0.5309 -2.7742
 5025SOL    HW226709   2.256   0.825   7.616  1.7664  0.7744 -0.4048
 5026SOL     OW26710   4.229   1.744   7.654 -0.1683  0.6642  0.0162
 5026SOL    HW126711   4.223   1.712   7.564 -2.1801  0.3774  0.2509
 5026SOL    HW226712   4.287   1.820   7.651  0.4727  0.0900 -2.2620
 5027SOL     OW26713   1.815   2.105   8.021 -0.4761  0.9396 -0.0084
 5027SOL    HW126714   1.766   2.046   7.964  1.2032  0.6110 -1.1123
 5027SOL    HW226715   1.880   2.144   7.961  2.1408 -0.5466  1.8384
 5028SOL     OW26716   1.133   2.842   8.848  0.5371 -0.1968 -0.4094
 5028SOL    HW126717   1.208   2.862   8.904 -0.8295  2.6065  0.4248
 5028SOL    HW226718   1.182   2.849   8.766 -0.2247 -1.3312 -0.9561
 5029SOL     OW26719   2.234   4.409   1.431 -0.2697  0.2327  0.0585
 5029SOL    HW126720   2.222   4.504   1.422 -1.7325  0.1796  1.5735
 5029SOL    HW226721   2.248   4.395   1.524  1.3044  0.6155 -0.1208
 5030SOL     OW26722   2.145   0.557  16.557 -0.0579 -0.4961  0.1230
 5030SOL    HW126723   2.225   0.578  16.605  0.6458 -1.2835 -0.7008
 5030SOL    HW226724   2.172   0.576  16.467  0.6781 -2.0499  0.0191
 5031SOL     OW26725   4.252   4.324   6.290  0.0902 -0.2924  0.1280
 5031SOL    HW126726   4.232   4.418   6.295 -0.5253 -0.4063 -0.0949
 5031SOL    HW226727   4.215   4.282   6.367  1.5274 -0.1444  0.8894
 5032SOL     OW26728   0.903   1.339   4.489  0.2404  0.4248  0.1055
 5032SOL    HW126729   0.933   1.427   4.514  1.9365 -0.0958 -0.0830
 5032SOL    HW226730   0.853   1.353   4.408 -0.3758  1.3848  0.6447
 5033SOL     OW26731   2.833   2.069   0.782 -0.5920 -0.5405  0.1952
 5033SOL    HW126732   2.860   2.104   0.867 -1.3918 -0.3577  0.3784
 5033SOL    HW226733   2.890   2.114   0.720 -1.3433  1.7659  1.1606
 5034SOL     OW26734   1.768   1.646   9.089 -0.0549 -0.0080 -0.4237
 5034SOL    HW126735   1.794   1.598   9.010 -0.5193 -0.5624 -0.2375
 5034SOL    HW226736   1.843   1.610   9.137  0.8821 -0.7490 -2.4672
 5035SOL     OW26737   3.431   1.620   7.799 -0.2130 -0.5807  0.9680
 5035SOL    HW126738   3.489   1.549   7.773 -0.9910 -1.3427  1.3187
 5035SOL    HW226739   3.443   1.681   7.725  2.0410 -1.7601  0.3748
 5036SOL     OW26740   4.532   3.747  10.181 -0.1435  0.1997 -0.1874
 5036SOL    HW126741   4.559   3.830  10.143  2.6584 -1.2921 -1.4618
 5036SOL    HW226742   4.440   3.769  10.197 -0.5417  0.5967 -2.8864
 5037SOL     OW26743   0.810   4.615   6.060 -0.0285 -0.5715  0.1334
 5037SOL    HW126744   0.777   4.648   5.976  0.1136 -0.5109  0.1016
 5037SOL    HW226745   0.857   4.697   6.078 -0.6157 -0.3355  0.6012
 5038SOL     OW26746   0.539   1.219   9.087  0.3630 -0.1710  0.4119
 5038SOL    HW126747   0.516   1.308   9.063  1.0459  0.1994  1.1124
 5038SOL    HW226748   0.552   1.233   9.181  1.2621 -0.3832  0.3228
 5039SOL     OW26749   3.199   3.843   7.077  0.8487 -0.6966  0.4850
 5039SOL    HW126750   3.220   3.872   7.166 -0.0195 -0.6648  0.6826
 5039SOL    HW226751   3.284   3.826   7.038  0.5693 -0.0877 -0.3775
 5040SOL     OW26752   0.885   3.870   9.235 -0.4649  0.4878  0.1251
 5040SOL    HW126753   0.903   3.964   9.235 -1.6791  0.7116  0.8431
 5040SOL    HW226754   0.797   3.859   9.271  0.2739 -0.7657  1.5532
 5041SOL     OW26755   4.262   1.830   9.301  0.5175  0.1699  0.0064
 5041SOL    HW126756   4.314   1.908   9.281 -2.9897  2.3607 -0.5570
 5041SOL    HW226757   4.219   1.819   9.217 -1.1330  2.5321  0.5258
 5042SOL     OW26758   1.511   1.649   3.637 -0.6700  0.5066  0.0333
 5042SOL    HW126759   1.551   1.601   3.564 -0.0819  1.5905 -0.3551
 5042SOL    HW226760   1.489   1.571   3.687  1.7002 -0.3169 -0.1804
 5043SOL     OW26761   1.771   0.037  10.704 -0.2264 -0.5697 -0.3412
 5043SOL    HW126762   1.830   0.022  10.630  0.4405 -0.2567  0.1292
 5043SOL    HW226763   1.779   0.132  10.714  0.5678 -0.4753 -1.8936
 5044SOL     OW26764   2.562   0.208  17.251  0.1465 -0.5476  0.2063
 5044SOL    HW126765   2.554   0.239  17.161  0.6096  0.3204  0.4633
 5044SOL    HW226766   2.606   0.123  17.242  0.6427 -0.4807  1.8646
 5045SOL     OW26767   2.006   4.508  10.470 -0.1637 -0.5047 -0.3334
 5045SOL    HW126768   2.022   4.460  10.389 -0.7039 -2.5654  0.7520
 5045SOL    HW226769   2.083   4.478  10.519 -0.1165  1.8644  1.0479
 5046SOL     OW26770   2.679   4.438   0.840  0.1916  0.1835  0.0874
 5046SOL    HW126771   2.651   4.506   0.779  1.3420  1.6884  1.2505
 5046SOL    HW226772   2.665   4.489   0.919  1.7799 -0.2671  0.6597
 5047SOL     OW26773   1.691   3.879   6.408  0.2723 -0.4753 -0.4909
 5047SOL    HW126774   1.690   3.863   6.503  0.9242 -1.1081 -0.5902
 5047SOL    HW226775   1.705   3.788   6.382  1.1036 -0.7541  0.9292
 5048SOL     OW26776   2.620   4.678  15.874  0.3128 -0.6051  0.0052
 5048SOL    HW126777   2.683   0.009  15.892  1.2882 -2.1230  2.6135
 5048SOL    HW226778   2.650   4.614  15.940  2.2836  1.9057  1.5381
 5049SOL     OW26779   1.610   4.449   6.187  0.6320  0.2804 -0.4808
 5049SOL    HW126780   1.663   4.398   6.125 -1.2709 -1.0187 -1.0344
 5049SOL    HW226781   1.554   4.502   6.129 -1.6789  0.1340  1.6213
 5050SOL     OW26782   4.569   3.473   4.630  0.1258  0.4098  0.6777
 5050SOL    HW126783   4.585   3.566   4.644 -3.6021  0.8173  2.1248
 5050SOL    HW226784   4.630   3.441   4.696  0.8393  0.4555  0.0452
 5051SOL     OW26785   4.495   3.241   3.286 -0.0244 -0.6507  0.0664
 5051SOL    HW126786   4.404   3.247   3.316  0.6036  2.8104  1.3476
 5051SOL    HW226787   4.487   3.190   3.206 -0.4772 -2.9849  1.5916
 5052SOL     OW26788   0.840   1.968  17.141  0.3571 -0.3096 -0.2060
 5052SOL    HW126789   0.839   1.921  17.058 -0.5467  0.0000 -0.3657
 5052SOL    HW226790   0.875   2.053  17.113  0.3475 -0.4205 -0.5484
 5053SOL     OW26791   0.551   0.518   7.705  0.0986 -0.2049  0.2553
 5053SOL    HW126792   0.585   0.429   7.713 -0.5195 -0.2674  2.2180
 5053SOL    HW226793   0.623   0.581   7.705  0.3936 -0.5369 -0.7569
 5054SOL     OW26794   1.454   2.306   8.929  0.2263 -0.0194 -0.0698
 5054SOL    HW126795   1.487   2.395   8.920  0.2501 -0.0242 -0.0286
 5054SOL    HW226796   1.526   2.265   8.977 -0.5152 -2.8273 -1.3311
 5055SOL     OW26797   1.174   4.371  11.960  0.0930  0.4199  0.1929
 5055SOL    HW126798   1.186   4.402  11.870  0.5514 -1.2552 -0.3284
 5055SOL    HW226799   1.119   4.297  11.935  0.2649 -0.7140  3.2778
 5056SOL     OW26800   4.040   2.022   4.774 -0.0368  0.1710  0.0863
 5056SOL    HW126801   4.097   1.947   4.759  0.9622  0.9947 -0.2343
 5056SOL    HW226802   4.016   2.044   4.684 -0.4307  1.9918  0.6192
 5057SOL     OW26803   1.487   0.040  17.462  0.6540 -0.5406 -0.3528
 5057SOL    HW126804   1.505   4.688  17.438  2.8951 -0.3287  0.5518
 5057SOL    HW226805   1.569   0.079  17.431 -1.3669  3.0029 -1.2740
 5058SOL     OW26806   0.290   0.865  10.515 -0.0283  0.0092 -0.2314
 5058SOL    HW126807   0.281   0.821  10.431  2.6558  0.3066 -0.6761
 5058SOL    HW226808   0.306   0.791  10.573 -1.0718  1.2117  1.6027
 5059SOL     OW26809   2.192   2.838   3.574  0.0858 -0.2569 -0.2432
 5059SOL    HW126810   2.253   2.879   3.635 -0.2826 -2.4696  1.5932
 5059SOL    HW226811   2.155   2.912   3.525  0.9794 -0.0335 -0.5785
 5060SOL     OW26812   1.630   2.268  16.723  0.3603  0.1015 -0.2378
 5060SOL    HW126813   1.561   2.332  16.743  1.6493  1.1571  0.8009
 5060SOL    HW226814   1.687   2.327  16.674  0.5863  0.0101 -0.0816
 5061SOL     OW26815   0.329   3.959   6.045  0.2056  0.2726  0.8598
 5061SOL    HW126816   0.373   3.877   6.021 -2.1771 -1.5416  2.6580
 5061SOL    HW226817   0.314   3.991   5.956  1.3424 -0.0706  0.5468
 5062SOL     OW26818   3.314   4.316   7.527 -0.2482 -0.6791 -0.2027
 5062SOL    HW126819   3.321   4.402   7.486 -1.5691 -1.1006 -1.3320
 5062SOL    HW226820   3.255   4.333   7.600  0.6893  0.4904  0.2812
 5063SOL     OW26821   0.057   2.677   3.674  0.2284  0.6900  0.8962
 5063SOL    HW126822   0.121   2.683   3.745 -0.3612  1.6894  1.3453
 5063SOL    HW226823   4.728   2.714   3.730 -1.1529  0.6777 -0.7883
 5064SOL     OW26824   4.004   3.198  14.518  0.6107  0.8183  0.4616
 5064SOL    HW126825   4.071   3.148  14.471  1.4952 -0.3446  3.0033
 5064SOL    HW226826   3.953   3.237  14.447  1.2889  0.1532 -0.3989
 5065SOL     OW26827   3.182   1.523  12.250  0.2298 -0.3086 -0.4279
 5065SOL    HW126828   3.200   1.593  12.312  2.4111  0.0886 -1.5309
 5065SOL    HW226829   3.268   1.483  12.243  0.4062 -0.7041  3.8218
 5066SOL     OW26830   3.830   3.496   3.869 -0.5019 -0.3525  0.6050
 5066SOL    HW126831   3.794   3.570   3.919 -1.1681 -0.8964  0.9372
 5066SOL    HW226832   3.750   3.447   3.849 -0.1487 -0.4704 -0.4965
 5067SOL     OW26833   4.176   4.633   0.148  0.3261  0.2836 -0.2330
 5067SOL    HW126834   4.267   4.661   0.157  1.0359 -1.9177 -0.7255
 5067SOL    HW226835   4.141   4.721   0.133 -1.1977 -0.3591 -0.4237
 5068SOL     OW26836   2.018   0.852   4.416  0.4840  0.1951  0.0665
 5068SOL    HW126837   2.112   0.868   4.412  0.5878 -0.5157 -0.1855
 5068SOL    HW226838   2.015   0.757   4.407  1.9646  0.2687 -1.1160
 5069SOL     OW26839   4.044   0.875   4.529  0.0772 -0.0516 -0.4437
 5069SOL    HW126840   3.961   0.921   4.518  0.1523  0.1264 -0.2665
 5069SOL    HW226841   4.108   0.939   4.561 -0.2954 -0.2560  0.7235
 5070SOL     OW26842   3.228   3.875   7.364  0.6489 -0.7509  0.5223
 5070SOL    HW126843   3.211   3.864   7.457  1.2525 -1.4584  0.5437
 5070SOL    HW226844   3.167   3.946   7.342 -0.3612 -1.8752 -0.3736
 5071SOL     OW26845   0.931   2.200   4.183  0.5890 -0.2484 -0.1372
 5071SOL    HW126846   0.853   2.172   4.136  0.4310 -0.7645  0.4337
 5071SOL    HW226847   0.898   2.221   4.270 -0.5038  0.0293 -0.6231
 5072SOL     OW26848   1.772   3.926   7.531  0.0780  0.4720 -0.2463
 5072SOL    HW126849   1.825   3.872   7.473  1.0319 -1.3163  2.2724
 5072SOL    HW226850   1.686   3.883   7.527  0.7031 -0.7919 -0.2806
 5073SOL     OW26851   0.040   1.977   0.639 -0.5650  0.4294  0.3469
 5073SOL    HW126852   0.003   1.928   0.565  1.9604  0.6209 -1.0429
 5073SOL    HW226853   0.077   1.909   0.695  0.5418  1.1415  0.4800
 5074SOL     OW26854   2.468   3.373  14.769  0.0689 -0.3142  0.2474
 5074SOL    HW126855   2.432   3.290  14.799 -0.0567 -0.6142 -0.7437
 5074SOL    HW226856   2.432   3.377  14.680 -0.7398 -0.2219  0.5845
 5075SOL     OW26857   2.973   1.752   0.509 -0.1454  0.7242 -0.5443
 5075SOL    HW126858   3.010   1.763   0.421 -0.9379  1.9557 -0.7205
 5075SOL    HW226859   3.043   1.707   0.555 -0.6672 -1.3784 -1.8152
 5076SOL     OW26860   0.291   2.832   3.553 -0.0746 -0.0921  0.3149
 5076SOL    HW126861   0.217   2.885   3.583 -0.1786  0.0792 -0.2440
 5076SOL    HW226862   0.240   2.750   3.550  1.3547 -0.9730  0.2880
 5077SOL     OW26863   0.320   3.396  11.169  0.3933 -0.1385 -0.0875
 5077SOL    HW126864   0.286   3.395  11.080  0.0160 -1.0009  0.0676
 5077SOL    HW226865   0.375   3.474  11.168 -0.0924  0.2317  1.3113
 5078SOL     OW26866   3.269   0.738  10.901  0.0549 -0.0801 -0.5438
 5078SOL    HW126867   3.290   0.652  10.937  0.7745  0.1136 -0.5180
 5078SOL    HW226868   3.354   0.759  10.863  0.3932 -0.8584 -0.2005
 5079SOL     OW26869   4.002   0.749   8.400  0.2069  0.3047 -0.4273
 5079SOL    HW126870   4.082   0.711   8.436  0.1096 -0.2657 -0.8314
 5079SOL    HW226871   4.038   0.787   8.320 -1.5407  1.1647 -0.8186
 5080SOL     OW26872   4.483   2.436   4.629  0.3954  0.3885 -0.1124
 5080SOL    HW126873   4.529   2.496   4.687 -2.0932 -0.3409  2.6230
 5080SOL    HW226874   4.403   2.486   4.612  0.7513  0.4677 -1.5653
 5081SOL     OW26875   0.313   4.070   7.952 -0.1193  0.2236  0.2089
 5081SOL    HW126876   0.382   4.041   7.892  2.3703  2.6243  1.9108
 5081SOL    HW226877   0.315   3.998   8.015 -2.5331  0.6251  0.7488
 5082SOL     OW26878   1.046   2.926   2.958  0.0154 -0.3224 -0.0420
 5082SOL    HW126879   1.065   2.857   2.895  0.5187 -0.3001  0.0887
 5082SOL    HW226880   1.131   2.969   2.971 -0.0729  0.1933 -1.1575
 5083SOL     OW26881   1.020   0.999   8.208 -0.5049 -0.6527 -0.5789
 5083SOL    HW126882   1.013   0.937   8.281  1.3764  0.9546  0.9668
 5083SOL    HW226883   1.056   0.948   8.135  0.3776 -1.2080  0.2399
 5084SOL     OW26884   3.578   4.622   3.971 -0.0350 -0.7117  0.6486
 5084SOL    HW126885   3.490   4.658   3.969  0.3242  0.1887  0.7674
 5084SOL    HW226886   3.558   4.538   4.011  0.1026 -1.0170  0.0637
 5085SOL     OW26887   3.789   3.659  10.214  0.5799  0.0447 -0.7752
 5085SOL    HW126888   3.782   3.630  10.123  0.2583 -1.0913 -0.3948
 5085SOL    HW226889   3.882   3.639  10.222  0.0824 -2.0505 -0.0661
 5086SOL     OW26890   1.628   2.506   9.779  0.0281  0.3210  0.6434
 5086SOL    HW126891   1.599   2.457   9.857  3.0602  0.7620  2.0343
 5086SOL    HW226892   1.599   2.437   9.719  0.8505  1.9336 -1.5944
 5087SOL     OW26893   4.132   2.654   1.718  0.4560  0.2521  0.2203
 5087SOL    HW126894   4.050   2.614   1.689  1.5944 -1.7849 -0.1564
 5087SOL    HW226895   4.093   2.741   1.731 -1.7616 -0.7076 -0.0767
 5088SOL     OW26896   2.780   4.321   1.652  0.0208 -0.3520  0.2797
 5088SOL    HW126897   2.789   4.251   1.717 -1.2727  1.5086  2.4629
 5088SOL    HW226898   2.774   4.395   1.713 -1.9448 -1.1484  1.0649
 5089SOL     OW26899   3.195   1.586   0.543  0.1762 -0.6941  0.8164
 5089SOL    HW126900   3.282   1.549   0.552 -0.5465 -2.5386  0.2404
 5089SOL    HW226901   3.145   1.563   0.622 -1.6953  1.7501  0.3457
 5090SOL     OW26902   1.159   1.796  12.568 -1.0109 -0.4783  0.3972
 5090SOL    HW126903   1.195   1.878  12.533 -1.9858 -0.2887 -0.1455
 5090SOL    HW226904   1.070   1.821  12.592  0.1193  0.9301  3.1712
 5091SOL     OW26905   4.146   3.005   3.023  0.3508  0.0215  0.4149
 5091SOL    HW126906   4.203   3.025   2.949  0.2435  1.5812  0.7714
 5091SOL    HW226907   4.057   3.029   2.997  0.0514  0.2129  1.6202
 5092SOL     OW26908   0.444   2.952   7.075 -0.0324  0.8846 -0.1300
 5092SOL    HW126909   0.478   2.948   7.165 -1.6979 -0.6461  0.4290
 5092SOL    HW226910   0.519   2.978   7.022 -0.8725 -0.3031 -1.8947
 5093SOL     OW26911   1.187   4.448  11.699 -0.1872 -0.6808  0.4500
 5093SOL    HW126912   1.124   4.445  11.627 -0.9519  0.5389  1.0627
 5093SOL    HW226913   1.260   4.401  11.659  0.9779  1.0567  0.5346
 5094SOL     OW26914   2.221   0.883  10.532  0.4496  0.3024  0.8408
 5094SOL    HW126915   2.216   0.967  10.486  1.8982  1.0988  2.1631
 5094SOL    HW226916   2.197   0.918  10.618  1.0057 -2.7126  2.2131
 5095SOL     OW26917   2.985   0.683   3.206 -0.0652  0.2250 -0.0911
 5095SOL    HW126918   3.064   0.643   3.240 -0.3659 -0.6928 -0.4572
 5095SOL    HW226919   2.937   0.601   3.189 -2.3825  1.7084 -0.6794
 5096SOL     OW26920   3.392   0.141   3.706  0.2196  0.1588  0.0395
 5096SOL    HW126921   3.326   0.112   3.643 -0.1282  1.4724 -0.2020
 5096SOL    HW226922   3.464   0.124   3.647  0.1102 -0.4848  0.0910
 5097SOL     OW26923   2.098   1.968   9.461  0.3931  0.0102 -0.0534
 5097SOL    HW126924   2.030   1.967   9.528  0.5744 -1.0894  0.1117
 5097SOL    HW226925   2.075   1.882   9.426 -0.4164 -0.1066  0.7759
 5098SOL     OW26926   0.127   4.188   8.404 -0.1104 -0.1881 -0.3061
 5098SOL    HW126927   0.122   4.261   8.343  1.6397 -0.3737 -0.6610
 5098SOL    HW226928   0.220   4.185   8.424 -0.6910 -0.8913  2.3260
 5099SOL     OW26929   1.597   2.617   0.169  0.4338  0.1477 -0.0191
 5099SOL    HW126930   1.577   2.652   0.083  0.6910  0.8749  0.2108
 5099SOL    HW226931   1.692   2.601   0.174  0.6959  2.1172  1.3847
 5100SOL     OW26932   1.769   2.276   1.225  0.1823  0.2104 -0.0606
 5100SOL    HW126933   1.723   2.215   1.283 -1.0925  0.5864 -0.6697
 5100SOL    HW226934   1.845   2.219   1.230 -1.2787 -1.7561 -0.3378
 5101SOL     OW26935   1.078   1.601   2.409 -0.0223  0.4177 -0.2745
 5101SOL    HW126936   0.984   1.587   2.403  0.0921  0.3578 -1.9533
 5101SOL    HW226937   1.097   1.554   2.490 -1.8074  0.3359  0.0871
 5102SOL     OW26938   3.553   0.202   2.721  0.0203 -0.4154 -0.3662
 5102SOL    HW126939   3.501   0.281   2.708  1.6123  0.5122 -1.0977
 5102SOL    HW226940   3.580   0.193   2.630  1.3587  2.0810 -0.2107
 5103SOL     OW26941   3.291   3.316   3.739  0.0414  0.3509  0.7024
 5103SOL    HW126942   3.281   3.318   3.834  2.1677 -3.4246  0.9986
 5103SOL    HW226943   3.324   3.226   3.732 -0.2652  0.4232 -1.9022
 5104SOL     OW26944   1.540   3.160   8.112 -0.2438  0.3684  0.0274
 5104SOL    HW126945   1.463   3.191   8.161  0.7392  0.5884  1.4129
 5104SOL    HW226946   1.516   3.188   8.024  0.1238 -0.0830 -0.2151
 5105SOL     OW26947   3.252   2.051   5.339  0.4489 -0.3966 -0.3383
 5105SOL    HW126948   3.328   2.101   5.369 -0.3889 -0.2846  1.6096
 5105SOL    HW226949   3.298   1.986   5.286  0.6793  0.7096 -1.5192
 5106SOL     OW26950   4.588   1.188   9.717  0.4728  0.4947  0.8035
 5106SOL    HW126951   4.529   1.250   9.760 -0.7712 -0.0504 -0.1366
 5106SOL    HW226952   4.600   1.105   9.763 -2.3012 -1.3993 -1.9557
 5107SOL     OW26953   3.893   2.653   9.909  0.2871  0.0010  0.0868
 5107SOL    HW126954   3.812   2.705   9.907  0.5812  0.4015 -1.3551
 5107SOL    HW226955   3.859   2.567   9.883  2.1726 -0.4806 -0.7148
 5108SOL     OW26956   0.966   4.169   0.777 -0.2744 -0.3564  0.6833
 5108SOL    HW126957   0.982   4.075   0.770 -2.7741 -0.5598 -2.3499
 5108SOL    HW226958   1.052   4.202   0.750 -1.0755  2.1335  1.1587
 5109SOL     OW26959   0.645   0.508  12.522  0.0717  0.6265  0.4835
 5109SOL    HW126960   0.688   0.423  12.528  1.2966  0.8998 -4.4309
 5109SOL    HW226961   0.588   0.496  12.446  0.8228  2.9873 -0.4609
 5110SOL     OW26962   2.305   2.003   3.625  0.2420  0.1171 -0.2926
 5110SOL    HW126963   2.212   2.001   3.646  0.3941 -0.2634  0.3651
 5110SOL    HW226964   2.302   2.011   3.530 -0.8492 -1.0003 -0.3528
 5111SOL     OW26965   0.505   2.039  12.074  0.7915 -0.0598 -0.4841
 5111SOL    HW126966   0.441   2.010  12.008 -2.6423  0.2338  2.6839
 5111SOL    HW226967   0.587   2.026  12.027  1.3168  0.1088  0.4136
 5112SOL     OW26968   2.735   0.605   0.863 -0.0412  0.1761 -0.8163
 5112SOL    HW126969   2.696   0.546   0.928 -1.8432  0.5300 -1.5793
 5112SOL    HW226970   2.686   0.686   0.876 -0.4718  0.1575 -2.3208
 5113SOL     OW26971   1.083   3.116   5.211 -0.4960 -0.1745 -0.2018
 5113SOL    HW126972   1.032   3.117   5.130  0.2483 -0.7400 -0.6653
 5113SOL    HW226973   1.077   3.026   5.243  0.4541  0.4172  1.6128
 5114SOL     OW26974   0.264   3.144   2.759  0.3003 -1.1051  0.1595
 5114SOL    HW126975   0.349   3.187   2.758  0.3004 -1.0951  0.4643
 5114SOL    HW226976   0.224   3.204   2.696 -0.8943 -2.7451 -0.6508
 5115SOL     OW26977   0.797   0.765   0.596  0.1083  0.1079  0.2108
 5115SOL    HW126978   0.800   0.672   0.573 -2.5096  0.2322 -0.6502
 5115SOL    HW226979   0.777   0.800   0.509  0.8209 -1.6175 -0.6395
 5116SOL     OW26980   2.573   3.400   2.164  0.4108 -0.0554  0.4222
 5116SOL    HW126981   2.639   3.380   2.230  2.5827 -0.3807 -1.8243
 5116SOL    HW226982   2.542   3.309   2.161  0.7991 -0.1419 -1.0853
 5117SOL     OW26983   1.907   1.050   4.574  0.0594 -0.1401  0.2456
 5117SOL    HW126984   1.986   1.097   4.600 -0.2491  1.0236 -0.8924
 5117SOL    HW226985   1.934   1.000   4.497 -0.8191  0.7083 -0.6124
 5118SOL     OW26986   3.278   3.632   9.133  0.7277  0.1868 -0.1052
 5118SOL    HW126987   3.271   3.687   9.055 -1.4249  2.2920  1.5612
 5118SOL    HW226988   3.278   3.696   9.204  0.2650 -1.1872  1.1426
 5119SOL     OW26989   3.302   1.953  12.845 -0.1147  0.9842 -0.0733
 5119SOL    HW126990   3.249   2.027  12.874  0.3941  0.0337  3.2704
 5119SOL    HW226991   3.285   1.891  12.915  0.0095 -0.1434 -1.0422
 5120SOL     OW26992   4.508   3.511   2.603 -0.1988 -0.3323 -0.0979
 5120SOL    HW126993   4.421   3.549   2.606 -0.1907 -0.3859  0.7518
 5120SOL    HW226994   4.517   3.486   2.511  0.2869 -0.9778  0.1165
 5121SOL     OW26995   1.245   2.709   1.356  0.2862  0.2217  0.0755
 5121SOL    HW126996   1.190   2.781   1.326 -0.1429  0.0352  0.4161
 5121SOL    HW226997   1.310   2.752   1.412 -0.4378  0.1223  0.9997
 5122SOL     OW26998   3.870   3.825   3.102  0.3232 -0.0212 -0.6546
 5122SOL    HW126999   3.891   3.888   3.033 -1.4131  1.0585 -0.1901
 5122SOL    HW227000   3.775   3.826   3.093  0.2260  0.9076  0.6343
 5123SOL     OW27001   0.180   1.736   0.717 -0.7030  0.8360 -0.7630
 5123SOL    HW127002   0.256   1.728   0.774 -2.0170 -0.0583  0.8865
 5123SOL    HW227003   0.201   1.675   0.647  1.3845 -3.1877  3.4218
 5124SOL     OW27004   1.039   1.474   9.398  0.0468 -0.4572 -0.1058
 5124SOL    HW127005   1.082   1.559   9.383 -1.9691  0.8080  1.2054
 5124SOL    HW227006   1.068   1.466   9.489  0.1567 -0.3923 -0.1358
 5125SOL     OW27007   3.475   2.387  17.714  0.7784  0.2601 -0.1394
 5125SOL    HW127008   3.558   2.430  17.691  2.0786 -1.9487  0.4416
 5125SOL    HW227009   3.475   2.306  17.664 -0.2424  1.5663 -2.2401
 5126SOL     OW27010   1.769   0.243   8.394  0.2322  0.0451  0.5528
 5126SOL    HW127011   1.787   0.335   8.376  4.9780 -1.5751 -2.9941
 5126SOL    HW227012   1.827   0.232   8.470  0.0513 -0.4541  0.6197
 5127SOL     OW27013   0.072   1.704   9.017  0.0488  0.1647 -0.2540
 5127SOL    HW127014   0.163   1.680   8.998  0.1890  1.3933 -1.1262
 5127SOL    HW227015   0.060   1.688   9.110 -2.0116 -0.7522 -0.6648
 5128SOL     OW27016   2.222   1.216   8.687  0.2366 -0.7200  0.2539
 5128SOL    HW127017   2.215   1.295   8.740  2.1491 -0.4182  0.0432
 5128SOL    HW227018   2.150   1.224   8.624  1.3399  2.0609 -0.6225
 5129SOL     OW27019   3.129   4.095  10.064  0.0312 -0.1653  0.2674
 5129SOL    HW127020   3.204   4.101  10.123 -1.1391  1.1248  1.6374
 5129SOL    HW227021   3.057   4.121  10.121 -1.6201  0.9139 -2.3472
 5130SOL     OW27022   0.439   2.818   5.154 -0.6009  0.5079 -0.0719
 5130SOL    HW127023   0.478   2.901   5.126  0.2319  1.0142  2.5638
 5130SOL    HW227024   0.500   2.767   5.100 -0.3376  1.6213 -0.8085
 5131SOL     OW27025   2.131   4.133   7.826 -0.0394  0.1749  0.0908
 5131SOL    HW127026   2.139   4.038   7.819 -0.5387  0.2618 -1.5549
 5131SOL    HW227027   2.102   4.149   7.736 -2.5683 -0.6221  0.7731
 5132SOL     OW27028   3.387   3.511   3.305 -0.2481  0.1421  0.3687
 5132SOL    HW127029   3.480   3.488   3.310  0.0255  0.4073 -3.1969
 5132SOL    HW227030   3.357   3.441   3.247  3.1833 -0.2488 -0.8969
 5133SOL     OW27031   1.986   3.804   1.727  0.7654 -0.5713  0.3471
 5133SOL    HW127032   2.000   3.850   1.809 -0.0597  1.3519 -0.5835
 5133SOL    HW227033   1.902   3.764   1.747  0.4233 -1.4467 -2.7628
 5134SOL     OW27034   3.411   1.835   5.823 -0.0327  0.3027  0.0731
 5134SOL    HW127035   3.382   1.755   5.779  0.5297 -0.6375  1.4421
 5134SOL    HW227036   3.480   1.867   5.764 -0.1099  0.2559 -0.0427
 5135SOL     OW27037   0.349   4.489   3.640 -0.1888 -0.2848 -0.0052
 5135SOL    HW127038   0.397   4.495   3.558  1.2635 -1.4298  0.7524
 5135SOL    HW227039   0.382   4.407   3.676  0.2068 -0.3491 -0.5180
 5136SOL     OW27040   1.818   0.912   4.255  0.7525  0.4885 -0.1533
 5136SOL    HW127041   1.814   1.007   4.249  0.9761  0.2616 -3.7478
 5136SOL    HW227042   1.886   0.909   4.322 -0.2948  0.2720  0.9084
 5137SOL     OW27043   1.197   1.830  17.732 -0.2358  0.3612  0.2828
 5137SOL    HW127044   1.207   1.735  17.726 -1.3602  0.3010 -0.5889
 5137SOL    HW227045   1.236   1.855  17.649 -2.8143  0.2947 -0.9446
 5138SOL     OW27046   1.055   2.123   8.018  0.5489 -0.0028 -0.1230
 5138SOL    HW127047   0.960   2.120   8.005  0.4977  1.1025 -0.0087
 5138SOL    HW227048   1.056   2.169   8.102 -1.8504 -0.4409  0.1417
 5139SOL     OW27049   1.931   3.902   7.747 -0.2328 -0.4931 -0.4940
 5139SOL    HW127050   1.874   3.925   7.674 -0.1855  1.9872  0.2537
 5139SOL    HW227051   2.019   3.918   7.714  0.4438 -0.0277  1.5898
 5140SOL     OW27052   3.085   1.985  11.745  0.1977  0.4110 -0.2313
 5140SOL    HW127053   3.180   1.994  11.753  0.3936 -1.7008 -0.1663
 5140SOL    HW227054   3.062   2.078  11.738  2.3098  0.9166 -0.3223
 5141SOL     OW27055   1.517   4.222   8.523  0.2849 -0.2770  0.1772
 5141SOL    HW127056   1.568   4.146   8.496 -1.1695 -1.3552  0.4339
 5141SOL    HW227057   1.440   4.178   8.559  0.2983 -1.3595 -1.1091
 5142SOL     OW27058   2.006   3.673   3.490 -0.0759  0.1971 -0.0056
 5142SOL    HW127059   1.926   3.633   3.458 -0.5916  0.9104  0.4008
 5142SOL    HW227060   2.071   3.623   3.440  1.0404  1.2982  0.3438
 5143SOL     OW27061   4.280   2.452  11.941 -0.4557  0.0058  0.3864
 5143SOL    HW127062   4.285   2.359  11.961 -0.0908 -0.0533  0.0203
 5143SOL    HW227063   4.355   2.465  11.883 -0.8477 -0.9923 -0.3429
 5144SOL     OW27064   2.419   4.105  16.289 -0.4213  0.3134  0.4753
 5144SOL    HW127065   2.457   4.153  16.215 -2.2230  0.8663 -0.1105
 5144SOL    HW227066   2.352   4.170  16.311 -2.2500 -0.9761 -1.2414
 5145SOL     OW27067   1.184   4.508  10.749 -0.5441  0.2957 -0.3439
 5145SOL    HW127068   1.247   4.555  10.695 -0.2231  1.1789  0.8097
 5145SOL    HW227069   1.216   4.420  10.730  0.0272  0.0719  1.6534
 5146SOL     OW27070   4.585   0.547   1.855 -0.4330 -0.7525 -0.2038
 5146SOL    HW127071   4.540   0.602   1.920  2.2907 -2.4114  3.0889
 5146SOL    HW227072   4.540   0.463   1.852 -0.3812 -0.8160  0.8394
 5147SOL     OW27073   3.616   3.666   7.717  0.0656  0.1288 -0.2664
 5147SOL    HW127074   3.621   3.758   7.742 -2.8557  0.6697 -1.7594
 5147SOL    HW227075   3.647   3.611   7.789  0.1851  0.2823 -0.2008
 5148SOL     OW27076   0.882   1.896   2.123 -0.4670  0.4908  0.4972
 5148SOL    HW127077   0.866   1.982   2.084 -0.9624  0.6185  0.9773
 5148SOL    HW227078   0.848   1.829   2.064  1.8468  0.2046 -0.4945
 5149SOL     OW27079   2.432   4.342  13.632  0.2256 -0.1739  0.1804
 5149SOL    HW127080   2.501   4.336  13.699  0.3200 -1.2093  0.0015
 5149SOL    HW227081   2.359   4.298  13.677 -0.9042  1.5103 -0.0345
 5150SOL     OW27082   1.628   0.129   2.503 -0.0090 -0.5507  0.4997
 5150SOL    HW127083   1.549   0.075   2.505 -0.4729  0.0494 -2.1082
 5150SOL    HW227084   1.601   0.220   2.490  3.0981  0.4214  0.8216
 5151SOL     OW27085   3.942   1.311   5.412  0.3579  0.7922 -0.4671
 5151SOL    HW127086   3.907   1.386   5.460  1.8895  1.3506 -0.2044
 5151SOL    HW227087   3.863   1.269   5.379 -0.8877  1.9782  1.0428
 5152SOL     OW27088   1.321   3.174   5.019 -0.1273 -0.3785 -0.0133
 5152SOL    HW127089   1.277   3.184   5.103 -1.4828 -0.2889 -0.7270
 5152SOL    HW227090   1.393   3.119   5.049  0.3844  0.2358 -0.1281
 5153SOL     OW27091   2.950   3.010   9.634  0.4918 -0.2937 -0.0699
 5153SOL    HW127092   2.922   2.989   9.723  1.3764  1.5275  0.6392
 5153SOL    HW227093   2.870   3.011   9.581  0.8721 -1.7820 -0.6701
 5154SOL     OW27094   0.044   4.586   7.591 -0.4382  0.0206 -0.3163
 5154SOL    HW127095   0.117   4.643   7.570 -1.3373  0.6122 -1.8268
 5154SOL    HW227096   0.033   4.608   7.684 -0.9862 -0.8810 -0.1639
 5155SOL     OW27097   1.330   4.277   6.393 -0.4292  0.2804 -0.2280
 5155SOL    HW127098   1.277   4.354   6.376  1.6935  1.5152 -1.2962
 5155SOL    HW227099   1.417   4.314   6.408 -0.2384 -1.0780  2.0306
 5156SOL     OW27100   0.637   2.782  16.083 -0.0226 -0.2665  0.2745
 5156SOL    HW127101   0.703   2.849  16.069  0.5726 -1.4186 -2.3767
 5156SOL    HW227102   0.586   2.811  16.159  1.8778  0.5159  1.2323
 5157SOL     OW27103   2.351   3.701   9.907 -0.2883 -0.5435  0.1887
 5157SOL    HW127104   2.259   3.709   9.932 -0.7267  1.6241 -2.1476
 5157SOL    HW227105   2.371   3.793   9.887 -0.5748 -0.8909 -1.6637
 5158SOL     OW27106   3.616   3.572   7.097  0.5159  0.3016  0.2391
 5158SOL    HW127107   3.552   3.503   7.117 -0.0363  0.9779  0.7726
 5158SOL    HW227108   3.654   3.584   7.184  0.8083 -0.9580  0.2953
 5159SOL     OW27109   3.541   3.174   0.458 -0.0032  0.2287 -0.0223
 5159SOL    HW127110   3.601   3.099   0.462 -0.2509 -0.0854 -1.8963
 5159SOL    HW227111   3.546   3.194   0.364 -2.2811  0.1730 -0.1603
 5160SOL     OW27112   1.232   3.267   5.843 -0.0598  0.4625 -0.7444
 5160SOL    HW127113   1.184   3.232   5.918 -2.3435  2.8742 -1.0928
 5160SOL    HW227114   1.178   3.254   5.765  2.5974 -0.1120 -2.4915
 5161SOL     OW27115   2.343   2.709   7.172  0.2444  0.0955  0.0002
 5161SOL    HW127116   2.355   2.729   7.265  0.2382  2.6069 -0.5451
 5161SOL    HW227117   2.357   2.614   7.171 -2.4202 -0.2742 -0.7548
 5162SOL     OW27118   2.575   1.262   8.098 -0.3606 -0.1659  0.4649
 5162SOL    HW127119   2.542   1.177   8.069  2.7752 -0.4029 -2.4311
 5162SOL    HW227120   2.634   1.233   8.168 -1.1020  1.7257  1.8690
 5163SOL     OW27121   0.736   2.987  12.048 -0.3902  0.6333  0.1538
 5163SOL    HW127122   0.640   2.988  12.038 -0.3544  0.8631 -0.1769
 5163SOL    HW227123   0.758   3.059  11.988 -1.5608 -1.3118 -2.6145
 5164SOL     OW27124   3.272   1.072   9.902  0.2030 -1.1725  0.3745
 5164SOL    HW127125   3.343   1.127   9.868  1.3864 -2.2763  1.0295
 5164SOL    HW227126   3.290   1.064   9.996  0.4777 -0.6519  0.3703
 5165SOL     OW27127   2.577   0.051   5.355  0.0831  0.8853  0.4990
 5165SOL    HW127128   2.632   0.129   5.363 -1.3811  1.9595  0.1784
 5165SOL    HW227129   2.594   0.008   5.439  0.8046  1.3196  0.5748
 5166SOL     OW27130   1.584   2.380   1.878 -0.0687  0.3832 -0.2908
 5166SOL    HW127131   1.650   2.433   1.833  0.1679 -0.2655 -0.7130
 5166SOL    HW227132   1.505   2.399   1.827  0.7188  0.1467 -1.6033
 5167SOL     OW27133   4.491   1.888  11.817  0.9907 -0.4777  0.0207
 5167SOL    HW127134   4.530   1.940  11.886 -2.3904  1.1017  0.7464
 5167SOL    HW227135   4.504   1.953  11.747  3.0509 -1.0249 -0.0899
 5168SOL     OW27136   0.076   2.595   0.749  0.6579 -0.0731 -1.0106
 5168SOL    HW127137   0.028   2.667   0.790  0.4237 -1.3803  0.9858
 5168SOL    HW227138   0.154   2.589   0.804 -0.0218 -2.2803 -0.3306
 5169SOL     OW27139   0.510   1.585  15.199  0.0650  0.8213 -0.1211
 5169SOL    HW127140   0.508   1.502  15.151 -0.4590  0.5131  0.4289
 5169SOL    HW227141   0.593   1.579  15.246  0.5807 -0.4879 -1.2045
 5170SOL     OW27142   3.426   4.375   2.775  0.4286 -0.0095 -0.5219
 5170SOL    HW127143   3.513   4.383   2.815 -0.3300  0.2008  1.0937
 5170SOL    HW227144   3.373   4.334   2.844 -1.4090  1.1351 -1.2857
 5171SOL     OW27145   3.866   4.580  15.427 -0.1323 -0.4710  0.3062
 5171SOL    HW127146   3.851   4.517  15.356 -2.3611  0.2433  0.1331
 5171SOL    HW227147   3.854   4.664  15.383 -0.3540 -1.1920 -0.9886
 5172SOL     OW27148   3.102   1.601   0.021 -0.4235 -0.4706  0.4552
 5172SOL    HW127149   3.071   1.514   0.045  1.3586 -0.9442  0.9831
 5172SOL    HW227150   3.160   1.615   0.095  1.3669  0.3257 -1.0957
 5173SOL     OW27151   3.660   1.972   7.046 -0.1588  0.0827 -0.3598
 5173SOL    HW127152   3.667   1.887   7.090  0.1225  1.2456  1.8739
 5173SOL    HW227153   3.754   1.990   7.057  0.1742 -2.1137  0.2732
 5174SOL     OW27154   0.929   2.682   5.797  0.0197  0.2135 -0.3278
 5174SOL    HW127155   0.874   2.750   5.759 -0.5134 -0.5999 -1.0179
 5174SOL    HW227156   0.863   2.635   5.848 -0.4355  1.6781  0.4193
 5175SOL     OW27157   1.073   3.763   8.469  0.3520  0.1613  0.1595
 5175SOL    HW127158   1.143   3.782   8.532  0.7439 -1.5225  0.2291
 5175SOL    HW227159   1.118   3.766   8.385 -1.2108 -1.0277 -0.7141
 5176SOL     OW27160   3.004   2.322   2.849 -0.0256 -0.1670  0.6257
 5176SOL    HW127161   2.927   2.328   2.905 -0.4824  0.0783 -0.0269
 5176SOL    HW227162   2.965   2.287   2.769  0.0977  2.3090 -0.5453
 5177SOL     OW27163   2.002   4.098   2.185  0.5328  0.3051  0.2658
 5177SOL    HW127164   2.020   4.172   2.127 -1.6503  1.0561  0.5385
 5177SOL    HW227165   2.021   4.146   2.265  2.1501  0.0135  0.0487
 5178SOL     OW27166   1.253   1.550  12.582 -0.1263  0.3810  0.7239
 5178SOL    HW127167   1.315   1.570  12.653  1.0864 -0.5028 -0.0901
 5178SOL    HW227168   1.219   1.638  12.568 -2.0901 -0.9281 -2.7275
 5179SOL     OW27169   0.220   0.361   2.644  0.3066 -0.6611 -0.6349
 5179SOL    HW127170   0.260   0.352   2.731  0.5983  0.1517 -0.6846
 5179SOL    HW227171   0.188   0.272   2.627  0.7407 -0.6649 -1.4167
 5180SOL     OW27172   3.675   0.637   0.469  0.2057 -0.2730 -0.1481
 5180SOL    HW127173   3.646   0.721   0.433  2.0278  0.6013  0.3644
 5180SOL    HW227174   3.771   0.644   0.465  0.1519  0.9002  0.4692
 5181SOL     OW27175   2.811   0.320   8.092 -0.0493 -0.0404  0.1707
 5181SOL    HW127176   2.833   0.413   8.085 -0.5379  0.1095  0.6182
 5181SOL    HW227177   2.755   0.326   8.170  0.3406  0.9943  0.3796
 5182SOL     OW27178   4.614   4.246  17.378  0.2925 -0.1133  0.8506
 5182SOL    HW127179   4.632   4.179  17.312  2.0115  2.1655 -0.9991
 5182SOL    HW227180   4.652   4.325  17.340  1.6009 -1.7339 -1.1785
 5183SOL     OW27181   0.467   2.492   4.436 -0.5468  0.0724 -0.0152
 5183SOL    HW127182   0.478   2.419   4.497  0.3002  0.6416  0.5122
 5183SOL    HW227183   0.374   2.487   4.417 -0.6837  2.4487 -0.0671
 5184SOL     OW27184   3.323   3.749   7.804  0.1766  0.5907 -0.0038
 5184SOL    HW127185   3.274   3.769   7.724 -0.0514  0.0128 -0.0071
 5184SOL    HW227186   3.376   3.673   7.782  0.8771  0.8885  0.6459
 5185SOL     OW27187   1.670   0.877   6.678  0.1124  0.7476  0.1462
 5185SOL    HW127188   1.720   0.930   6.740  0.1761 -0.8700  1.4695
 5185SOL    HW227189   1.615   0.941   6.633  1.2088  1.6614  0.0955
 5186SOL     OW27190   4.702   2.023  16.295  0.0158  0.2369  0.0431
 5186SOL    HW127191   4.681   1.942  16.342  1.2028  1.7646  3.2003
 5186SOL    HW227192   4.663   2.009  16.209 -0.5180  0.9393  0.1695
 5187SOL     OW27193   2.208   3.147   4.613  0.4145  0.0923 -0.2087
 5187SOL    HW127194   2.122   3.171   4.579  0.4647 -1.2042 -1.2392
 5187SOL    HW227195   2.261   3.225   4.599  0.9203 -0.3452 -0.7367
 5188SOL     OW27196   2.094   1.944   3.362 -0.8643  0.2392  0.6093
 5188SOL    HW127197   2.034   1.945   3.287 -3.4468  1.3052  2.6722
 5188SOL    HW227198   2.056   2.017   3.411  1.2251  3.1130 -2.0187
 5189SOL     OW27199   1.645   4.234   3.820  0.1735 -0.2191 -0.1380
 5189SOL    HW127200   1.673   4.307   3.765  3.5566 -0.7832  0.8724
 5189SOL    HW227201   1.554   4.257   3.837 -0.0058 -0.6258 -0.5389
 5190SOL     OW27202   3.757   2.060   9.039  0.9580 -0.4005 -0.4098
 5190SOL    HW127203   3.783   2.063   8.947 -0.3479 -0.1413 -0.7661
 5190SOL    HW227204   3.818   2.118   9.086  1.1517 -0.7214 -0.2608
 5191SOL     OW27205   3.651   0.184  12.259 -0.3371  0.0240  0.5597
 5191SOL    HW127206   3.622   0.113  12.316 -0.4188 -1.2262 -1.0209
 5191SOL    HW227207   3.567   0.221  12.232 -0.0091  2.6687  3.1843
 5192SOL     OW27208   1.805   3.283   4.758  0.1065 -0.3460 -0.0555
 5192SOL    HW127209   1.769   3.350   4.816 -0.3557  1.6255 -2.6289
 5192SOL    HW227210   1.883   3.256   4.807  2.0983  0.5720 -2.6940
 5193SOL     OW27211   0.472   3.314   1.893  0.0891 -0.4232 -0.1011
 5193SOL    HW127212   0.414   3.239   1.879 -0.6135  0.0686  0.1955
 5193SOL    HW227213   0.543   3.288   1.833  0.0041 -1.5999  0.3054
 5194SOL     OW27214   0.146   0.828  17.472  0.0818 -0.1543  0.1692
 5194SOL    HW127215   0.208   0.756  17.482  1.4032  1.1364  1.3882
 5194SOL    HW227216   0.201   0.896  17.512  0.8549 -0.1119 -0.9533
 5195SOL     OW27217   1.765   1.932   0.498 -0.4442 -0.3558  0.1111
 5195SOL    HW127218   1.766   2.028   0.503  0.3062 -0.3192 -0.8280
 5195SOL    HW227219   1.677   1.923   0.461 -0.0618 -3.8951  0.1193
 5196SOL     OW27220   0.705   2.318  14.188 -0.1831  0.6184 -0.5742
 5196SOL    HW127221   0.798   2.332  14.207 -0.3200  1.4234 -0.5115
 5196SOL    HW227222   0.669   2.323  14.277 -4.0281 -0.9434 -2.0720
 5197SOL     OW27223   3.878   3.127   8.129 -0.0660 -0.0959  0.5141
 5197SOL    HW127224   3.894   3.200   8.069 -0.9565  2.8624  3.8935
 5197SOL    HW227225   3.801   3.164   8.172 -0.5678 -1.5224  0.8408
 5198SOL     OW27226   0.583   2.675   8.470  0.8290 -0.0685 -0.1314
 5198SOL    HW127227   0.588   2.674   8.374  1.4550 -1.7522 -0.0872
 5198SOL    HW227228   0.521   2.602   8.466 -1.2175  1.7154 -0.2975
 5199SOL     OW27229   0.541   2.709   2.342  0.0413 -0.5951  0.1788
 5199SOL    HW127230   0.612   2.739   2.398 -0.1725 -1.0687  0.6964
 5199SOL    HW227231   0.465   2.698   2.399  0.3610  0.0582  0.7265
 5200SOL     OW27232   0.182   1.603   1.093 -0.0209  0.3083 -0.2147
 5200SOL    HW127233   0.256   1.543   1.103  0.0209  0.5754  1.0594
 5200SOL    HW227234   0.107   1.548   1.115  0.9664 -0.2954  1.7095
 5201SOL     OW27235   0.063   3.949   9.084 -0.5288  0.2668 -0.0212
 5201SOL    HW127236   0.148   3.916   9.115 -0.1673  1.7906  0.6194
 5201SOL    HW227237   4.738   3.888   9.120 -1.9649  2.0629  0.4035
 5202SOL     OW27238   1.106   4.013  10.669 -0.6302  0.3987 -0.2883
 5202SOL    HW127239   1.156   4.087  10.634  1.1082 -0.0016  1.3444
 5202SOL    HW227240   1.120   4.022  10.763 -0.1367  2.4489 -0.5543
 5203SOL     OW27241   4.545   3.595  12.079 -0.4624  0.4040 -0.5613
 5203SOL    HW127242   4.477   3.650  12.040 -2.4783 -1.5179  0.2426
 5203SOL    HW227243   4.531   3.607  12.173  2.5520 -0.6822  0.0033
 5204SOL     OW27244   0.842   3.090   2.178 -0.2181  0.5166 -0.3503
 5204SOL    HW127245   0.934   3.115   2.179 -0.0063 -0.2787  0.4168
 5204SOL    HW227246   0.796   3.166   2.142 -2.9978  0.0082  2.0926
 5205SOL     OW27247   3.888   3.858  11.348 -0.5117 -0.0272  0.1806
 5205SOL    HW127248   3.802   3.831  11.316 -0.1714  0.1014 -0.8191
 5205SOL    HW227249   3.892   3.953  11.335  1.7363  0.2298  2.8644
 5206SOL     OW27250   0.044   2.188   2.822  0.1491 -0.0289  0.1114
 5206SOL    HW127251   0.007   2.129   2.756  2.3523  0.8574 -1.9098
 5206SOL    HW227252   4.733   2.157   2.898 -0.3641 -0.1811 -0.2918
 5207SOL     OW27253   3.949   1.678   7.659  0.1224  0.1070  0.2993
 5207SOL    HW127254   4.043   1.692   7.660  0.2847 -1.0206  2.8775
 5207SOL    HW227255   3.948   1.615   7.588 -0.1516  1.6226 -1.0451
 5208SOL     OW27256   3.998   4.637  13.254 -0.1860  0.5624  0.1344
 5208SOL    HW127257   4.019   4.661  13.345 -1.9855 -0.5807  0.8528
 5208SOL    HW227258   4.069   4.579  13.227 -0.2396  1.0130 -0.9428
 5209SOL     OW27259   2.769   2.666   6.083  0.9232  0.0754 -0.2752
 5209SOL    HW127260   2.810   2.731   6.141 -0.0089  0.0701  0.3841
 5209SOL    HW227261   2.683   2.708   6.085  1.0495  0.2146  2.9025
 5210SOL     OW27262   3.474   0.655  12.057 -0.0427 -0.5891  0.0671
 5210SOL    HW127263   3.435   0.742  12.047 -0.6230 -0.7886  0.6345
 5210SOL    HW227264   3.476   0.625  11.966 -1.7881  0.9018 -0.4520
 5211SOL     OW27265   1.553   1.660   2.422 -0.1293 -0.0616  0.1878
 5211SOL    HW127266   1.620   1.668   2.354  0.9127  0.3220  1.2599
 5211SOL    HW227267   1.472   1.626   2.383 -0.5311  0.6706  0.3892
 5212SOL     OW27268   1.116   1.885  14.576 -0.6090  0.9200 -0.5256
 5212SOL    HW127269   1.141   1.854  14.663 -1.9426  3.1023  0.6195
 5212SOL    HW227270   1.191   1.882  14.517 -0.3924 -1.2790 -0.1511
 5213SOL     OW27271   2.133   2.576   5.185  0.0530  0.0616 -0.5838
 5213SOL    HW127272   2.047   2.603   5.216 -0.2109 -1.6024  0.1311
 5213SOL    HW227273   2.126   2.484   5.211  1.7543 -0.0346 -0.5125
 5214SOL     OW27274   1.804   4.066   0.651  0.0405 -0.1511  0.8638
 5214SOL    HW127275   1.747   4.074   0.727 -0.9824  0.9623 -0.0262
 5214SOL    HW227276   1.791   4.153   0.614 -0.2409 -0.1971  0.8555
 5215SOL     OW27277   0.731   2.608   5.976 -0.2852 -0.4680  0.3066
 5215SOL    HW127278   0.658   2.551   5.999 -1.7171  0.6733 -1.4242
 5215SOL    HW227279   0.783   2.612   6.057  1.6795 -1.5194 -0.9052
 5216SOL     OW27280   1.351   2.515   6.745 -0.0645 -0.1226  0.7913
 5216SOL    HW127281   1.422   2.521   6.682  0.0208  1.5616  1.0626
 5216SOL    HW227282   1.408   2.505   6.822  1.5799 -0.1223 -0.4328
 5217SOL     OW27283   3.266   3.932   1.887  0.8178  0.7924  0.0853
 5217SOL    HW127284   3.223   4.001   1.939 -0.3071  0.5461 -0.5220
 5217SOL    HW227285   3.207   3.913   1.814  0.5401  0.0154  0.5111
 5218SOL     OW27286   4.007   4.111   7.880  0.7686 -0.0146  0.5845
 5218SOL    HW127287   4.076   4.100   7.814  0.4772 -1.9430  0.6001
 5218SOL    HW227288   4.019   4.205   7.872 -1.2904  0.0735 -1.4598
 5219SOL     OW27289   0.611   0.027  10.902 -0.5631  0.5124 -0.4227
 5219SOL    HW127290   0.659   0.078  10.837 -2.1643 -0.9919 -2.7982
 5219SOL    HW227291   0.644   4.677  10.884  0.8669  0.9118  0.1900
 5220SOL     OW27292   1.421   1.349   2.846 -0.0565 -0.3067 -0.1970
 5220SOL    HW127293   1.373   1.407   2.905 -0.7019 -1.1699  0.1254
 5220SOL    HW227294   1.374   1.267   2.859  1.7039 -1.5107 -1.4982
 5221SOL     OW27295   1.470   4.251  11.055  0.3728  1.0027  0.1740
 5221SOL    HW127296   1.561   4.220  11.055 -0.1946 -0.6817  1.6055
 5221SOL    HW227297   1.442   4.196  10.981  0.7931  1.8669 -0.6305
 5222SOL     OW27298   0.152   4.122   2.034 -0.2285 -0.1670  0.0153
 5222SOL    HW127299   0.057   4.116   2.042 -0.2041  0.1100  0.5189
 5222SOL    HW227300   0.171   4.191   2.098 -1.0063 -0.0245  0.0890
 5223SOL     OW27301   0.566   3.454   3.830 -0.2907  0.4739  0.3516
 5223SOL    HW127302   0.615   3.455   3.912 -0.1021  0.2026  0.2436
 5223SOL    HW227303   0.576   3.361   3.808  3.6898  0.6299  1.3529
 5224SOL     OW27304   2.655   3.004   8.550  0.3735  0.1450 -0.0471
 5224SOL    HW127305   2.585   3.028   8.490  0.9955  1.9548 -0.0716
 5224SOL    HW227306   2.612   2.948   8.613  1.6385 -0.2642  0.4635
 5225SOL     OW27307   0.285   1.455   2.129 -0.1435  0.4441 -0.3552
 5225SOL    HW127308   0.234   1.442   2.209  1.0968 -1.5657  0.1016
 5225SOL    HW227309   0.240   1.534   2.098 -0.0152  0.7223  0.1708
 5226SOL     OW27310   4.285   3.762   7.642 -0.1024  0.0513 -0.0146
 5226SOL    HW127311   4.325   3.731   7.724  1.4834  1.8408 -0.1071
 5226SOL    HW227312   4.366   3.793   7.600 -0.0575 -1.2740 -0.8903
 5227SOL     OW27313   4.628   2.492   7.663 -0.4526  0.0211  0.1101
 5227SOL    HW127314   4.696   2.465   7.724 -1.5714  0.6976  1.6607
 5227SOL    HW227315   4.564   2.510   7.732  0.8993  0.4528  1.2537
 5228SOL     OW27316   1.549   2.967   7.240  0.1827 -0.1570  0.5170
 5228SOL    HW127317   1.470   2.937   7.195 -0.5275 -0.2353  1.8065
 5228SOL    HW227318   1.551   3.062   7.234  2.4507 -0.3612 -1.8462
 5229SOL     OW27319   0.914   2.789   6.864 -0.5382  0.1288  0.8219
 5229SOL    HW127320   0.971   2.714   6.852 -1.1989 -0.5012  1.6531
 5229SOL    HW227321   0.975   2.860   6.882  0.0899 -0.1754 -0.1499
 5230SOL     OW27322   1.575   3.730  11.399 -0.1631 -0.7867 -0.2126
 5230SOL    HW127323   1.661   3.692  11.381 -0.3998 -1.1809 -0.5242
 5230SOL    HW227324   1.591   3.824  11.389 -1.6181 -0.4579  0.4990
 5231SOL     OW27325   1.354   3.346   5.418 -0.3000  0.9450  0.1961
 5231SOL    HW127326   1.346   3.420   5.478 -0.2625 -0.3589  1.8091
 5231SOL    HW227327   1.265   3.341   5.384 -0.0353 -0.7558 -0.2908
 5232SOL     OW27328   3.792   0.158  14.058 -0.2434  0.0985 -0.2847
 5232SOL    HW127329   3.854   0.087  14.072 -0.4617  0.0249  0.2920
 5232SOL    HW227330   3.853   0.231  14.073  0.4957 -0.6255  0.2428
 5233SOL     OW27331   4.662   1.134   4.595  0.1364 -0.4015 -0.6184
 5233SOL    HW127332   4.645   1.040   4.596  1.4955 -0.6380  1.5715
 5233SOL    HW227333   4.684   1.148   4.687 -0.4927 -1.9565 -0.2398
 5234SOL     OW27334   0.902   3.515   5.763 -0.5037  0.7624 -0.2346
 5234SOL    HW127335   0.968   3.479   5.704  1.5581  3.4821  0.4019
 5234SOL    HW227336   0.950   3.504   5.845  0.4409  1.6315 -0.6730
 5235SOL     OW27337   0.573   0.298   3.258  0.1093  0.2285  0.9779
 5235SOL    HW127338   0.590   0.286   3.351 -0.7927 -1.6947  0.9097
 5235SOL    HW227339   0.600   0.389   3.261 -2.4949  1.0630 -0.5076
 5236SOL     OW27340   1.048   2.197  10.030  0.2709  0.0339 -0.0603
 5236SOL    HW127341   1.133   2.156  10.045 -0.4317 -1.2474  0.3871
 5236SOL    HW227342   1.002   2.188  10.113 -0.6947 -1.1738 -0.7180
 5237SOL     OW27343   1.033   1.283   5.921  0.3130  0.2364 -0.3454
 5237SOL    HW127344   1.085   1.335   5.982  2.1324  1.7957 -3.2465
 5237SOL    HW227345   1.060   1.324   5.839  2.6603  1.1877  0.8988
 5238SOL     OW27346   3.590   3.595   8.174  0.5182 -0.4735  0.3561
 5238SOL    HW127347   3.599   3.592   8.270  1.1289  1.3983  0.3590
 5238SOL    HW227348   3.498   3.570   8.168  0.1758  0.6402  0.8091
 5239SOL     OW27349   0.317   3.094   4.026  0.2891  0.3794 -0.3822
 5239SOL    HW127350   0.230   3.116   4.058  1.2484 -1.1269  3.2043
 5239SOL    HW227351   0.339   3.011   4.068  1.7143  0.0543 -1.7479
 5240SOL     OW27352   4.711   1.138  15.539  0.0043 -0.0196  0.3893
 5240SOL    HW127353   4.678   1.154  15.451  2.1069  2.6310  0.0879
 5240SOL    HW227354   4.715   1.043  15.531  0.5318  0.0603 -0.2884
 5241SOL     OW27355   1.675   4.057  11.485 -0.5970 -0.0126 -0.7762
 5241SOL    HW127356   1.759   4.019  11.510 -0.3861  0.6707 -0.4636
 5241SOL    HW227357   1.690   4.150  11.502 -1.2413  0.3123 -1.9041
 5242SOL     OW27358   3.213   1.938   7.554  0.3669 -0.4324  0.0449
 5242SOL    HW127359   3.305   1.961   7.560 -0.3564  2.7175 -1.1151
 5242SOL    HW227360   3.192   1.975   7.468  1.8006  0.5893  0.1432
 5243SOL     OW27361   1.202   4.211   2.493  0.7208 -0.0079  0.1782
 5243SOL    HW127362   1.186   4.223   2.400  1.3240 -1.6324 -0.1211
 5243SOL    HW227363   1.110   4.206   2.519  0.3939  0.0620 -0.9920
 5244SOL     OW27364   2.779   0.588   5.051 -0.3832  0.0824  0.4336
 5244SOL    HW127365   2.768   0.502   5.091 -1.6122 -0.6749 -1.5545
 5244SOL    HW227366   2.712   0.626   5.108 -2.7335 -0.6084 -1.9134
 5245SOL     OW27367   1.831   1.727   4.480  0.0720 -0.5017  0.4139
 5245SOL    HW127368   1.874   1.711   4.397 -0.7525  0.4652 -0.2008
 5245SOL    HW227369   1.762   1.785   4.446 -0.1760 -0.0413  1.6829
 5246SOL     OW27370   0.131   2.521   5.191 -0.1040 -0.1978  0.1401
 5246SOL    HW127371   0.222   2.547   5.205 -0.0406 -0.7386  0.7168
 5246SOL    HW227372   0.143   2.428   5.208 -3.2443 -0.9923 -1.9839
 5247SOL     OW27373   1.353   0.108  11.905 -0.1241 -0.2708  0.4797
 5247SOL    HW127374   1.350   0.195  11.867 -0.9013 -1.2026 -1.5929
 5247SOL    HW227375   1.351   0.051  11.828  0.1115  2.5625 -1.5911
 5248SOL     OW27376   1.343   3.222   0.172  0.8621  0.5492  0.1505
 5248SOL    HW127377   1.321   3.159   0.241  0.9953  0.7365  0.3597
 5248SOL    HW227378   1.275   3.287   0.191  0.5969  0.0810  0.8108
 5249SOL     OW27379   2.683   2.909   3.631 -0.3195  0.7221  0.1520
 5249SOL    HW127380   2.690   2.964   3.553 -1.2988  0.1018 -0.3735
 5249SOL    HW227381   2.757   2.938   3.685  0.8087  0.0751 -1.0228
 5250SOL     OW27382   3.335   0.252   5.250  0.0436 -0.0786 -0.3830
 5250SOL    HW127383   3.403   0.287   5.307  0.6947 -1.9578 -0.0196
 5250SOL    HW227384   3.262   0.313   5.257 -0.4326 -0.7792  0.6976
 5251SOL     OW27385   1.648   1.427  10.245  0.2734  0.5922 -0.4113
 5251SOL    HW127386   1.737   1.454  10.219 -0.0269 -0.3337 -2.4126
 5251SOL    HW227387   1.639   1.492  10.315 -0.5066  1.1506 -1.0335
 5252SOL     OW27388   4.524   0.871   7.754  0.5638  0.2399  0.1092
 5252SOL    HW127389   4.468   0.902   7.826  0.8599  1.1818 -0.0661
 5252SOL    HW227390   4.556   0.954   7.719 -1.3331  0.6779 -0.5990
 5253SOL     OW27391   3.889   4.461   8.603  0.6280  0.4324 -0.7527
 5253SOL    HW127392   3.971   4.510   8.610  0.1513  1.2562 -0.9659
 5253SOL    HW227393   3.926   4.375   8.588  0.1804  0.0229  0.4416
 5254SOL     OW27394   2.880   1.786   2.763  0.1799  0.5248  0.4366
 5254SOL    HW127395   2.854   1.785   2.855 -0.7782 -0.5979  0.1510
 5254SOL    HW227396   2.935   1.708   2.763  1.0394  1.1402  1.2275
 5255SOL     OW27397   4.665   2.631  10.383  0.0822  0.7257 -0.3076
 5255SOL    HW127398   4.591   2.655  10.328  0.4466 -1.9727 -1.9302
 5255SOL    HW227399   4.649   2.694  10.454  1.4704 -1.0852  1.6058
 5256SOL     OW27400   0.088   0.860  15.730  0.1320  0.1773 -0.2102
 5256SOL    HW127401   0.072   0.780  15.779  0.4268  1.4053  1.9043
 5256SOL    HW227402   0.025   0.849  15.659  0.1639 -1.3182 -0.0003
 5257SOL     OW27403   0.619   2.014   9.074 -0.4683 -0.4346  0.3552
 5257SOL    HW127404   0.532   2.054   9.069  0.2191  0.5401 -3.7819
 5257SOL    HW227405   0.625   2.010   9.169  0.0420 -0.4747  0.3232
 5258SOL     OW27406   4.636   3.879  13.783 -0.1144  0.4110  0.3984
 5258SOL    HW127407   4.639   3.815  13.853 -1.5403  1.2585  1.2333
 5258SOL    HW227408   4.604   3.824  13.711  0.2982  0.7073 -0.0124
 5259SOL     OW27409   0.358   3.945   4.968 -0.3943 -0.3263  0.0714
 5259SOL    HW127410   0.400   3.984   5.044  1.0864  0.0788 -0.9644
 5259SOL    HW227411   0.377   3.989   4.885 -0.7334  0.4179  0.3894
 5260SOL     OW27412   1.728   2.797   8.907  0.1551  0.3282  0.4534
 5260SOL    HW127413   1.731   2.798   8.811 -1.9485 -0.7962  0.3786
 5260SOL    HW227414   1.677   2.718   8.922  0.4360 -0.2202 -1.4684
 5261SOL     OW27415   0.290   3.677   8.435 -0.4036  0.0557  0.4741
 5261SOL    HW127416   0.314   3.723   8.354  1.1537 -0.2467  0.7585
 5261SOL    HW227417   0.310   3.586   8.411 -0.3968 -0.1976  1.4539
 5262SOL     OW27418   0.109   3.629  13.642 -0.7427 -0.1434  0.2242
 5262SOL    HW127419   0.202   3.642  13.655 -0.7756  0.9257 -0.6464
 5262SOL    HW227420   0.103   3.558  13.706 -0.3287 -1.8925 -1.6516
 5263SOL     OW27421   1.781   0.002   8.930  0.4885 -0.3967  0.0896
 5263SOL    HW127422   1.734   4.658   8.936  0.5682 -0.3341  1.7911
 5263SOL    HW227423   1.759   0.029   8.841  0.0811 -0.6032  0.1290
 5264SOL     OW27424   0.966   4.154   9.218 -0.5139 -0.1846 -0.3503
 5264SOL    HW127425   1.002   4.239   9.244 -0.8342  0.2768 -1.4217
 5264SOL    HW227426   1.050   4.109   9.211 -1.4004 -1.9548  0.4497
 5265SOL     OW27427   4.659   1.680   7.984  0.3756 -0.2353  0.1424
 5265SOL    HW127428   4.691   1.717   8.066  0.0520 -2.5669  1.3220
 5265SOL    HW227429   4.568   1.698   8.006 -0.1655 -0.3119 -1.9769
 5266SOL     OW27430   3.851   1.421   2.542  0.2826  0.2539 -0.3418
 5266SOL    HW127431   3.874   1.431   2.635  0.1214 -0.5469 -0.2175
 5266SOL    HW227432   3.768   1.373   2.540  1.2957 -1.6161  1.6326
 5267SOL     OW27433   0.258   1.751  13.162 -0.1173 -0.5519 -0.1766
 5267SOL    HW127434   0.336   1.806  13.155 -1.1230  1.1038  2.0314
 5267SOL    HW227435   0.249   1.734  13.068 -1.6823  0.1611 -0.1477
 5268SOL     OW27436   3.722   0.359  11.972 -0.0442  0.0312 -0.4020
 5268SOL    HW127437   3.639   0.361  12.021  0.1101  1.2293 -0.1771
 5268SOL    HW227438   3.709   0.270  11.940 -0.8393  0.3867 -1.0525
 5269SOL     OW27439   2.208   2.141   4.082  0.1753 -0.0786 -0.0834
 5269SOL    HW127440   2.124   2.143   4.128  0.2429 -1.2521  0.0920
 5269SOL    HW227441   2.224   2.047   4.073 -1.7130 -0.2329 -1.8887
 5270SOL     OW27442   0.224   3.588   2.699  0.0601  0.5424  0.7897
 5270SOL    HW127443   0.190   3.675   2.723  1.0864  0.7164  1.6238
 5270SOL    HW227444   0.314   3.607   2.725 -0.3086  1.4876  1.3932
 5271SOL     OW27445   0.587   3.385   9.349  0.2702  0.3731  0.1191
 5271SOL    HW127446   0.577   3.387   9.254  1.6160 -0.1263 -0.0401
 5271SOL    HW227447   0.539   3.465   9.369  0.7270  0.8055 -0.5191
 5272SOL     OW27448   4.212   2.768   1.044 -0.3498 -0.0900 -0.0226
 5272SOL    HW127449   4.207   2.780   1.139 -0.5134 -2.2806  0.2434
 5272SOL    HW227450   4.119   2.782   1.028  0.3945  4.4538 -0.3995
 5273SOL     OW27451   0.318   1.648   9.561 -0.0793 -0.1968 -0.0672
 5273SOL    HW127452   0.349   1.736   9.541  0.1959  0.3889  2.9968
 5273SOL    HW227453   0.233   1.664   9.602  0.0264  0.5264 -0.1437
 5274SOL     OW27454   4.599   2.585   0.576 -0.0003  0.1145  0.5995
 5274SOL    HW127455   4.658   2.552   0.509  0.6184  1.3254  0.5559
 5274SOL    HW227456   4.661   2.569   0.647 -1.3248  0.7910  1.9246
 5275SOL     OW27457   3.885   1.297   2.145  0.1663  0.4248 -0.4084
 5275SOL    HW127458   3.922   1.276   2.230 -1.6293 -3.4984 -0.6000
 5275SOL    HW227459   3.927   1.239   2.081  0.2529  0.0062  0.0234
 5276SOL     OW27460   2.559   3.064   9.660 -0.2946  0.2431 -0.0913
 5276SOL    HW127461   2.611   2.985   9.646 -1.3956 -0.5083  0.0292
 5276SOL    HW227462   2.495   3.038   9.726 -0.0802 -1.6103 -0.6216
 5277SOL     OW27463   2.032   0.758  15.711  0.0692  0.0231 -0.2195
 5277SOL    HW127464   2.065   0.824  15.650 -0.9401  1.8455  1.2162
 5277SOL    HW227465   2.062   0.674  15.675  1.1599 -0.3790  1.6730
 5278SOL     OW27466   2.583   3.348   3.723 -0.1375  0.3797 -0.2435
 5278SOL    HW127467   2.651   3.327   3.787  0.3410 -0.3724 -1.0049
 5278SOL    HW227468   2.629   3.365   3.641  2.1716  0.4452  1.0683
 5279SOL     OW27469   3.323   3.295   4.714  0.7283 -0.6688 -0.3403
 5279SOL    HW127470   3.302   3.216   4.664 -2.2815 -0.5850  0.7533
 5279SOL    HW227471   3.361   3.252   4.791  2.4513 -0.5857 -1.1604
 5280SOL     OW27472   2.740   4.297   6.052  0.2302  0.0377 -0.4998
 5280SOL    HW127473   2.768   4.211   6.019  0.6366  0.0750 -0.2621
 5280SOL    HW227474   2.812   4.355   6.029 -0.8812  2.3202  1.7496
 5281SOL     OW27475   1.376   3.031   4.145 -0.2096 -0.0742 -0.0798
 5281SOL    HW127476   1.424   3.089   4.204 -2.1352 -0.2544  1.6679
 5281SOL    HW227477   1.321   2.977   4.202 -0.9112  2.6652  1.8268
 5282SOL     OW27478   1.097   3.092  11.869 -0.4820  0.0718  0.1355
 5282SOL    HW127479   1.068   3.138  11.790 -3.2004 -1.9519 -0.0450
 5282SOL    HW227480   1.116   3.168  11.924  1.3993 -0.1829 -0.1387
 5283SOL     OW27481   1.044   3.735  10.119 -0.5564 -0.7073 -0.5288
 5283SOL    HW127482   1.030   3.717  10.212 -1.4941 -1.2569 -0.7729
 5283SOL    HW227483   1.139   3.739  10.129 -0.4285 -1.6021 -1.3415
 5284SOL     OW27484   0.180   0.437   4.756 -0.2371 -0.2644 -0.1201
 5284SOL    HW127485   0.213   0.428   4.667  0.9663  0.6189  0.2261
 5284SOL    HW227486   0.195   0.530   4.770  0.5982 -0.5331  0.7669
 5285SOL     OW27487   0.438   2.333   4.852 -0.4888  0.3519  0.4021
 5285SOL    HW127488   0.347   2.348   4.878  0.0616  0.7512  2.0710
 5285SOL    HW227489   0.431   2.288   4.768 -0.1275 -0.0644  0.5985
 5286SOL     OW27490   0.305   4.614   2.515  0.4040  0.8975  0.4846
 5286SOL    HW127491   0.365   4.540   2.516 -0.6755  0.0198 -1.1854
 5286SOL    HW227492   0.236   4.582   2.574  1.9518 -1.9098  0.7539
 5287SOL     OW27493   2.458   4.426   8.325 -0.0054 -0.3480 -0.2957
 5287SOL    HW127494   2.451   4.373   8.405 -3.2337  1.0184  0.3007
 5287SOL    HW227495   2.372   4.419   8.284 -0.6471  0.5269  0.9253
 5288SOL     OW27496   2.863   0.738  11.207  0.6707 -0.2892  0.7842
 5288SOL    HW127497   2.809   0.755  11.285  0.0644 -0.4114  0.3890
 5288SOL    HW227498   2.935   0.800  11.220 -0.9802  1.7776  0.0245
 5289SOL     OW27499   1.199   3.271  14.305 -0.3901  0.0263 -0.2511
 5289SOL    HW127500   1.210   3.176  14.309  1.2524  0.3072  1.9909
 5289SOL    HW227501   1.105   3.284  14.321 -0.3768 -1.2495  0.8172
 5290SOL     OW27502   3.135   1.167  10.528  0.5791  0.0889  0.9738
 5290SOL    HW127503   3.173   1.080  10.518  1.6984  0.7937 -0.7981
 5290SOL    HW227504   3.202   1.222  10.489  2.6431 -1.2969  2.5611
 5291SOL     OW27505   4.440   2.861  10.468  0.3524 -0.7112  0.1904
 5291SOL    HW127506   4.464   2.795  10.533  0.1882 -0.4608  0.5021
 5291SOL    HW227507   4.357   2.827  10.436 -0.2017  2.4883 -1.8126
 5292SOL     OW27508   3.025   0.974   1.475  0.7478 -1.5223  0.2137
 5292SOL    HW127509   2.976   0.944   1.552  3.2472  2.2608  3.2795
 5292SOL    HW227510   2.979   0.911   1.419 -1.2841  0.1690 -0.0046
 5293SOL     OW27511   0.132   0.145   7.850 -0.2913  0.2051 -0.0386
 5293SOL    HW127512   0.095   0.196   7.778 -1.6125 -1.4707 -0.5284
 5293SOL    HW227513   0.086   0.176   7.928 -2.3610 -0.4274 -1.0043
 5294SOL     OW27514   2.932   0.182  17.336  0.4380 -0.3113  0.0778
 5294SOL    HW127515   2.922   0.260  17.283 -0.1740 -0.7955 -0.5183
 5294SOL    HW227516   2.984   0.223  17.406  3.3866 -1.4477 -1.4425
 5295SOL     OW27517   0.270   1.193  15.860  0.3375 -0.5463 -0.1014
 5295SOL    HW127518   0.277   1.254  15.934 -0.4008 -1.9277  1.1016
 5295SOL    HW227519   0.187   1.145  15.863  0.2895 -0.3836  1.1670
 5296SOL     OW27520   2.682   3.824   8.671 -1.1598 -0.0893 -0.2626
 5296SOL    HW127521   2.587   3.836   8.678 -1.1429 -0.4469  0.5618
 5296SOL    HW227522   2.708   3.916   8.679  1.1753 -0.7521 -0.3491
 5297SOL     OW27523   0.059   2.151   8.139  0.4456  0.2521 -0.2567
 5297SOL    HW127524   0.113   2.113   8.209 -4.3529 -2.2222  2.1026
 5297SOL    HW227525   0.108   2.116   8.064 -0.9031  0.4161 -1.2043
 5298SOL     OW27526   4.149   0.137  12.210 -0.2006  0.2273 -0.1796
 5298SOL    HW127527   4.239   0.163  12.231 -0.0930 -1.0115  0.8427
 5298SOL    HW227528   4.092   0.178  12.275  0.4802 -0.3082  0.7389
 5299SOL     OW27529   1.783   0.310   0.702  0.5387 -0.4035  0.1215
 5299SOL    HW127530   1.726   0.295   0.626  0.4166 -1.3996  0.4002
 5299SOL    HW227531   1.753   0.396   0.733 -0.0959 -0.4765 -0.2986
 5300SOL     OW27532   1.978   0.260   3.144  0.1076  0.2681 -0.5380
 5300SOL    HW127533   1.956   0.348   3.176 -1.4110 -0.2135 -0.2790
 5300SOL    HW227534   2.056   0.274   3.090  0.9938  0.8420  0.8932
 5301SOL     OW27535   2.881   4.331   8.835 -0.0164  0.2464  0.4237
 5301SOL    HW127536   2.901   4.389   8.908  1.2055  2.0386 -1.3366
 5301SOL    HW227537   2.852   4.386   8.763  2.4117 -1.4566 -1.8551
 5302SOL     OW27538   0.400   2.037   7.600 -0.0996  0.7840 -1.0628
 5302SOL    HW127539   0.319   2.067   7.642 -0.3242 -0.1808 -0.7855
 5302SOL    HW227540   0.403   1.950   7.641  0.4493  0.6121 -1.4675
 5303SOL     OW27541   2.626   2.668   2.716 -0.3276  0.3270 -0.0756
 5303SOL    HW127542   2.573   2.748   2.723  1.1337  1.3341 -0.5549
 5303SOL    HW227543   2.673   2.669   2.799  1.2364 -0.5258 -0.9628
 5304SOL     OW27544   4.029   1.714   6.944 -0.2259 -0.2689  0.3225
 5304SOL    HW127545   4.048   1.622   6.928 -1.4153 -0.3218 -0.8143
 5304SOL    HW227546   3.972   1.714   7.021  1.1974 -2.2490  1.3866
 5305SOL     OW27547   0.442   4.263   6.660 -0.7997 -0.1257  0.0184
 5305SOL    HW127548   0.352   4.242   6.633 -1.3476  3.1159 -0.6885
 5305SOL    HW227549   0.459   4.344   6.612 -1.2674  0.5100  0.9126
 5306SOL     OW27550   4.125   0.219   3.161 -0.1091  0.2275 -0.0791
 5306SOL    HW127551   4.106   0.288   3.225  0.7857 -0.9482  1.4510
 5306SOL    HW227552   4.061   0.242   3.094  0.8357  1.4904 -0.5589
 5307SOL     OW27553   3.157   3.463   0.048 -0.3982 -0.1469 -0.2680
 5307SOL    HW127554   3.231   3.403   0.050 -0.8925 -0.7560 -0.2650
 5307SOL    HW227555   3.127   3.446  17.712 -0.3478 -1.5622 -0.0097
 5308SOL     OW27556   1.384   3.357   9.767  0.1531  0.2407 -0.1763
 5308SOL    HW127557   1.371   3.338   9.674  2.0407 -4.6751  0.6052
 5308SOL    HW227558   1.296   3.340   9.799 -0.4279 -0.4478 -2.1422
 5309SOL     OW27559   4.245   3.231   3.416  0.2287 -0.0553 -0.1663
 5309SOL    HW127560   4.248   3.231   3.512  1.3852 -2.7605 -0.2042
 5309SOL    HW227561   4.199   3.314   3.406  0.0939  0.0035  0.8872
 5310SOL     OW27562   3.298   3.061   4.601  0.3624 -0.2833  0.5875
 5310SOL    HW127563   3.220   3.048   4.547  0.7549 -0.4876  0.0695
 5310SOL    HW227564   3.356   2.989   4.578  0.6018 -0.6493  2.3365
 5311SOL     OW27565   2.205   0.621   7.054  0.1206 -0.0961  0.4584
 5311SOL    HW127566   2.117   0.610   7.090  0.2056  0.5507  0.8721
 5311SOL    HW227567   2.196   0.586   6.966 -0.8334 -0.4342  0.6881
 5312SOL     OW27568   1.468   3.646   5.735 -0.0451 -0.7214  0.3060
 5312SOL    HW127569   1.562   3.635   5.747 -0.0392  1.6634  2.5278
 5312SOL    HW227570   1.432   3.605   5.814 -0.5514  2.1110  1.5244
 5313SOL     OW27571   3.747   4.355   4.860  0.2623 -0.0267 -0.2094
 5313SOL    HW127572   3.673   4.294   4.867  0.7528 -0.7635 -1.3755
 5313SOL    HW227573   3.711   4.443   4.857 -1.3305 -0.7022 -0.6573
 5314SOL     OW27574   0.295   1.396   4.095  0.1112  0.4710  0.2195
 5314SOL    HW127575   0.233   1.323   4.099 -0.7261  1.2346  1.0389
 5314SOL    HW227576   0.251   1.457   4.036  1.9139  0.6132 -0.9668
 5315SOL     OW27577   2.914   2.555  15.259  0.4639  0.0497 -0.0618
 5315SOL    HW127578   2.953   2.498  15.192 -0.4825  0.3149 -0.8252
 5315SOL    HW227579   2.920   2.641  15.218  0.2534  1.3258  2.6050
 5316SOL     OW27580   3.557   4.132   8.628 -0.2831  0.3841  0.0786
 5316SOL    HW127581   3.644   4.095   8.607 -0.9145 -1.3480  0.4803
 5316SOL    HW227582   3.578   4.221   8.654 -0.8380  0.8042 -0.9292
 5317SOL     OW27583   3.745   3.994  12.066  0.1534  0.4297  0.0826
 5317SOL    HW127584   3.748   4.000  12.162 -0.2438 -0.6474  0.1564
 5317SOL    HW227585   3.833   4.021  12.041  0.2627 -0.4799 -0.4941
 5318SOL     OW27586   0.869   3.691   4.417  0.1439 -0.5411 -0.1331
 5318SOL    HW127587   0.790   3.663   4.371 -0.4157  2.6023 -1.1144
 5318SOL    HW227588   0.925   3.698   4.340  0.8180 -1.1766  0.3030
 5319SOL     OW27589   2.955   1.161   4.394  0.3955 -0.3651 -0.3936
 5319SOL    HW127590   2.897   1.149   4.469  1.4280 -0.9222  0.3099
 5319SOL    HW227591   2.908   1.222   4.336  0.0884  0.0323  0.2754
 5320SOL     OW27592   1.055   3.640  17.064  0.2182 -0.0560  0.1523
 5320SOL    HW127593   1.035   3.585  17.140  3.0672 -1.3622 -0.0575
 5320SOL    HW227594   1.150   3.647  17.070  0.2535 -1.5264  1.2203
 5321SOL     OW27595   4.220   0.561   0.911 -0.1222 -0.0355  0.2561
 5321SOL    HW127596   4.169   0.480   0.915 -2.8692  1.6730 -0.0289
 5321SOL    HW227597   4.285   0.532   0.975 -0.3249 -1.8554 -0.3632
 5322SOL     OW27598   1.383   1.480   6.607 -0.3654  0.7739  0.1573
 5322SOL    HW127599   1.340   1.412   6.556  1.1578 -0.0332 -0.0430
 5322SOL    HW227600   1.313   1.545   6.608 -0.5799  0.5278  0.9632
 5323SOL     OW27601   2.840   0.247   1.691 -0.1225  0.2289  0.1761
 5323SOL    HW127602   2.911   0.263   1.753  1.3213  1.0059 -1.6724
 5323SOL    HW227603   2.869   0.170   1.642 -1.6753  1.7044 -3.0987
 5324SOL     OW27604   2.035   2.405   4.843 -0.0088 -0.3996 -0.1917
 5324SOL    HW127605   2.031   2.457   4.762 -0.6321 -1.4231 -0.8286
 5324SOL    HW227606   2.125   2.421   4.868  0.1298 -1.1208 -0.2537
 5325SOL     OW27607   2.977   1.982   1.135 -1.0038 -0.2563  0.2370
 5325SOL    HW127608   2.897   1.971   1.083 -2.5644  0.6627  2.4703
 5325SOL    HW227609   3.012   1.893   1.127  0.2782  0.3157 -0.5366
 5326SOL     OW27610   2.311   3.772   2.309  0.0444  0.0134  0.1782
 5326SOL    HW127611   2.222   3.736   2.307  0.1201 -0.0389 -2.2715
 5326SOL    HW227612   2.358   3.693   2.335 -0.2819  0.5837  2.5086
 5327SOL     OW27613   0.185   3.261  11.364  0.3474  0.0396 -0.2870
 5327SOL    HW127614   0.238   3.311  11.301  2.4135  0.1918  1.5881
 5327SOL    HW227615   0.253   3.237  11.426  1.4022 -2.0161 -2.2476
 5328SOL     OW27616   0.237   1.991   7.179  0.0827  0.2285 -0.3668
 5328SOL    HW127617   0.172   2.030   7.120 -0.3141 -0.5164 -0.4154
 5328SOL    HW227618   0.215   2.047   7.253  0.1967  0.3316 -0.4096
 5329SOL     OW27619   0.363   2.712   4.688  0.5103 -0.0895  0.0217
 5329SOL    HW127620   0.320   2.640   4.642  0.0999 -3.0779  5.1666
 5329SOL    HW227621   0.437   2.660   4.720  2.4707  2.2391 -0.7481
 5330SOL     OW27622   0.893   2.256   3.094  0.1112  0.2202  0.3040
 5330SOL    HW127623   0.946   2.275   3.016  3.4120 -3.4895  1.6872
 5330SOL    HW227624   0.956   2.273   3.163 -1.3617  2.0753  1.2092
 5331SOL     OW27625   0.623   3.752   8.515 -0.7213  0.0415 -0.0932
 5331SOL    HW127626   0.660   3.695   8.448  0.3382 -1.2766  1.6236
 5331SOL    HW227627   0.531   3.726   8.514 -0.6908 -0.0502 -0.3138
 5332SOL     OW27628   2.147   2.753   9.649  0.4027  0.3212 -0.4877
 5332SOL    HW127629   2.231   2.716   9.621  0.3164  0.9830 -1.5872
 5332SOL    HW227630   2.125   2.689   9.717  2.0023  2.5720  2.1650
 5333SOL     OW27631   4.131   4.620   5.514  0.2380 -0.2779 -0.1465
 5333SOL    HW127632   4.087   4.674   5.580  0.8249  0.4821 -0.3792
 5333SOL    HW227633   4.078   4.626   5.435  0.2796 -0.1321 -0.1645
 5334SOL     OW27634   1.452   0.171   3.278  0.3159 -0.8210  0.0570
 5334SOL    HW127635   1.544   0.195   3.264  0.0565  0.6567  0.9079
 5334SOL    HW227636   1.452   0.075   3.276 -1.9294 -0.8297  0.5114
 5335SOL     OW27637   1.985   1.777  16.751 -0.2676  0.1187  0.5096
 5335SOL    HW127638   1.956   1.815  16.668 -1.7285  1.6266  1.7071
 5335SOL    HW227639   1.922   1.819  16.810  0.3677 -0.9907  1.9814
 5336SOL     OW27640   4.448   2.183   4.738  0.0536 -0.2500  0.1418
 5336SOL    HW127641   4.360   2.176   4.775 -0.1888 -0.5864 -0.4899
 5336SOL    HW227642   4.444   2.274   4.708 -2.3815 -0.1841  0.7023
 5337SOL     OW27643   0.834   1.564   2.569  0.1314  0.4284  0.0189
 5337SOL    HW127644   0.741   1.583   2.556  0.7012  2.3040 -1.3629
 5337SOL    HW227645   0.837   1.468   2.566 -1.5444  0.3083  2.7316
 5338SOL     OW27646   0.812   0.060   7.820  0.2365  0.8725 -0.2840
 5338SOL    HW127647   0.881   0.077   7.756  0.8588  1.1024  0.4458
 5338SOL    HW227648   0.739   0.057   7.758 -0.3581  1.7841  0.3834
 5339SOL     OW27649   3.759   3.368  12.392 -0.2636  0.3709 -0.0071
 5339SOL    HW127650   3.745   3.275  12.374 -0.7921 -0.1520  3.1594
 5339SOL    HW227651   3.809   3.367  12.474  1.7127 -0.4755 -1.2249
 5340SOL     OW27652   1.492   2.074   0.668 -0.1138  0.6847 -0.1090
 5340SOL    HW127653   1.411   2.025   0.654  0.9011 -0.6943 -1.0994
 5340SOL    HW227654   1.553   2.036   0.605 -0.3833  2.5854 -1.5260
 5341SOL     OW27655   3.821   4.261   7.084  0.5296  0.0872  0.1218
 5341SOL    HW127656   3.870   4.325   7.135  1.3636  0.8379 -1.5946
 5341SOL    HW227657   3.757   4.229   7.148  0.6682  0.1375  0.2848
 5342SOL     OW27658   4.715   4.169   4.534 -0.4302 -0.3993 -0.0557
 5342SOL    HW127659   4.645   4.127   4.484  1.0553  0.3265 -2.7729
 5342SOL    HW227660   0.012   4.091   4.576 -0.4225 -0.3669 -0.0026
 5343SOL     OW27661   4.537   3.334  13.447  0.3253 -0.2539  0.1500
 5343SOL    HW127662   4.483   3.382  13.383 -0.0409 -1.7514 -0.6664
 5343SOL    HW227663   4.624   3.344  13.410 -0.4923  0.3599 -1.6319
 5344SOL     OW27664   2.331   2.295   6.844  0.2990 -0.1954 -0.3859
 5344SOL    HW127665   2.286   2.228   6.895 -0.3993  1.1851  0.8236
 5344SOL    HW227666   2.373   2.247   6.773  2.2559  1.4826 -0.3490
 5345SOL     OW27667   2.764   0.651   9.263  0.1791 -0.9807  0.0368
 5345SOL    HW127668   2.776   0.572   9.210  1.2149 -1.5950  1.2075
 5345SOL    HW227669   2.722   0.709   9.199  0.0503 -1.7326 -0.5762
 5346SOL     OW27670   3.310   3.014   8.752 -0.0175  0.0235 -0.2892
 5346SOL    HW127671   3.279   3.086   8.808 -0.9185 -0.8929  0.3779
 5346SOL    HW227672   3.240   2.950   8.766 -1.1625  0.7366 -2.7041
 5347SOL     OW27673   3.047   3.394  15.510 -0.2550 -0.1754 -0.7691
 5347SOL    HW127674   3.130   3.347  15.517  0.4901  1.4727  1.1936
 5347SOL    HW227675   3.040   3.405  15.605  0.6123  2.4406 -1.0242
 5348SOL     OW27676   3.790   0.619   3.482  0.3419 -0.9534 -0.0936
 5348SOL    HW127677   3.705   0.646   3.447  1.0539 -0.2440 -1.2518
 5348SOL    HW227678   3.841   0.698   3.465  0.0627 -0.7385  0.0634
 5349SOL     OW27679   3.050   1.288   2.206 -0.4605  0.2061  0.0802
 5349SOL    HW127680   3.106   1.354   2.163  0.4693 -1.5816 -1.4333
 5349SOL    HW227681   2.980   1.352   2.219 -1.3686 -0.9333  0.7452
 5350SOL     OW27682   1.903   2.396   2.839  0.2259  0.0747  0.0377
 5350SOL    HW127683   1.979   2.436   2.882 -0.2628 -0.3093  1.2860
 5350SOL    HW227684   1.830   2.446   2.874 -3.0293 -4.2467 -0.5610
 5351SOL     OW27685   0.437   4.672   3.179  0.1174  0.0719  0.1557
 5351SOL    HW127686   0.382   4.693   3.254  1.3928  0.8015  0.8909
 5351SOL    HW227687   0.525   4.697   3.208 -0.1123  0.7654  0.2677
 5352SOL     OW27688   4.112   2.530   2.131  0.4153  0.0383 -0.5731
 5352SOL    HW127689   4.070   2.537   2.045  0.7914  0.9277 -0.6885
 5352SOL    HW227690   4.088   2.442   2.160 -0.5559  0.7060  0.6982
 5353SOL     OW27691   0.179   1.276   6.355 -0.1242 -0.2217 -0.3950
 5353SOL    HW127692   0.215   1.335   6.421  2.1729 -1.2576 -0.7246
 5353SOL    HW227693   0.169   1.334   6.280  1.6833  2.3404  1.3437
 5354SOL     OW27694   3.374   4.505   8.763  0.0735 -0.0560 -0.4503
 5354SOL    HW127695   3.445   4.504   8.827  0.1178 -2.6767 -0.5194
 5354SOL    HW227696   3.416   4.465   8.687  0.3384 -1.1507  0.2585
 5355SOL     OW27697   3.290   1.437   6.349  0.2639 -0.3392  0.4120
 5355SOL    HW127698   3.212   1.486   6.324 -0.4614 -1.7953 -0.1761
 5355SOL    HW227699   3.345   1.471   6.278  0.2570 -1.0242  0.0746
 5356SOL     OW27700   1.001   1.979   3.995 -0.4005 -0.1195  0.2306
 5356SOL    HW127701   0.948   1.900   4.003 -0.3919  0.0380  1.8398
 5356SOL    HW227702   0.964   2.039   4.059 -0.5400  0.5934 -0.5215
 5357SOL     OW27703   0.621   2.320   2.129 -0.6151  0.3546 -0.2258
 5357SOL    HW127704   0.680   2.393   2.151  2.5006 -1.7585 -1.5320
 5357SOL    HW227705   0.547   2.368   2.091 -1.0479  1.9654  2.6481
 5358SOL     OW27706   0.397   0.146  10.839  0.1159 -0.0490  0.1162
 5358SOL    HW127707   0.480   0.104  10.859 -0.3427 -1.6525 -1.4243
 5358SOL    HW227708   0.352   0.142  10.924 -0.3367 -0.0145 -0.1228
 5359SOL     OW27709   2.786   1.995   2.341 -0.7148  0.0868  0.1811
 5359SOL    HW127710   2.698   2.020   2.313 -0.5426 -0.3993 -0.8082
 5359SOL    HW227711   2.760   1.956   2.424  0.3458  0.1309  0.5424
 5360SOL     OW27712   2.785   0.238   2.596  0.3511 -0.2994 -0.0213
 5360SOL    HW127713   2.754   0.148   2.611  0.0429  0.2948  2.9834
 5360SOL    HW227714   2.725   0.271   2.529  2.1820  3.4846  0.2323
 5361SOL     OW27715   3.301   0.768  16.631 -0.2675  0.7615 -0.0705
 5361SOL    HW127716   3.300   0.814  16.547  1.0979  1.0342  0.0698
 5361SOL    HW227717   3.241   0.819  16.685 -3.1602 -0.1955 -2.3347
 5362SOL     OW27718   4.086   0.172   6.506 -0.0423  0.0742  0.4964
 5362SOL    HW127719   4.131   0.124   6.576  0.0601 -1.1278 -0.3827
 5362SOL    HW227720   4.054   0.243   6.562 -2.7822 -0.8932  0.1404
 5363SOL     OW27721   4.366   0.208   3.052  0.1283 -0.0199  0.7644
 5363SOL    HW127722   4.329   0.247   2.973  0.4344 -1.0612  0.1046
 5363SOL    HW227723   4.282   0.176   3.085 -0.5955  0.8833 -0.2470
 5364SOL     OW27724   4.419   1.491   4.216  0.2577  0.4096  0.5117
 5364SOL    HW127725   4.427   1.546   4.294 -1.0890  1.7711 -0.2896
 5364SOL    HW227726   4.355   1.430   4.253 -1.7387  1.9313 -0.4304
 5365SOL     OW27727   2.553   2.394   1.099 -0.5831  0.0108  0.2804
 5365SOL    HW127728   2.629   2.372   1.045 -1.2956  1.2001 -1.1859
 5365SOL    HW227729   2.535   2.311   1.143  1.5025 -0.8176 -0.4241
 5366SOL     OW27730   0.865   1.946   1.806  0.3089  0.1572 -0.1467
 5366SOL    HW127731   0.935   1.931   1.743 -0.7205  1.3115 -1.5437
 5366SOL    HW227732   0.816   2.012   1.758 -0.7956 -1.4512 -1.2161
 5367SOL     OW27733   3.318   0.959  10.501 -0.0578 -0.3334 -0.4761
 5367SOL    HW127734   3.265   0.884  10.527 -1.2192  1.0358  1.0538
 5367SOL    HW227735   3.407   0.923  10.507  0.7720  1.7075 -0.4187
 5368SOL     OW27736   1.606   3.674   3.431 -0.3815 -0.1467 -0.4097
 5368SOL    HW127737   1.654   3.757   3.425  0.6874 -0.8274 -1.1462
 5368SOL    HW227738   1.522   3.683   3.386  0.4781  1.5930 -1.6620
 5369SOL     OW27739   0.248   2.559   8.112 -0.5183 -0.2779  0.5084
 5369SOL    HW127740   0.308   2.497   8.155 -2.9599 -0.1770  4.0407
 5369SOL    HW227741   0.179   2.570   8.177 -1.0527  0.9485 -0.2730
 5370SOL     OW27742   0.902   3.412   4.657  0.2055  0.0523 -0.5318
 5370SOL    HW127743   0.829   3.414   4.719  0.0021 -2.4738 -0.6948
 5370SOL    HW227744   0.868   3.357   4.586 -0.6262  0.0760 -0.1513
 5371SOL     OW27745   4.342   4.280  17.397 -0.2195  0.0077  0.0516
 5371SOL    HW127746   4.436   4.277  17.418 -0.9259 -1.7366  3.0583
 5371SOL    HW227747   4.339   4.206  17.337 -2.8666  0.4098 -0.2966
 5372SOL     OW27748   0.963   0.323  11.425 -0.3205 -0.4344 -0.3399
 5372SOL    HW127749   0.951   0.264  11.351 -0.5944  0.9911 -1.4325
 5372SOL    HW227750   1.034   0.378  11.393  0.5303 -0.0080  2.2688
 5373SOL     OW27751   1.533   0.556   6.155 -0.0269  0.0994 -0.1660
 5373SOL    HW127752   1.568   0.608   6.083 -1.7645 -1.9135 -2.4744
 5373SOL    HW227753   1.530   0.618   6.228 -2.4862 -0.6693  0.4071
 5374SOL     OW27754   2.432   1.404  17.661 -0.0093 -0.8839  0.3118
 5374SOL    HW127755   2.483   1.379  17.583  0.5829  0.5328  0.2430
 5374SOL    HW227756   2.399   1.319  17.688 -1.1164  0.2280  2.4090
 5375SOL     OW27757   4.424   2.301   1.084 -0.4197 -0.1142  0.1405
 5375SOL    HW127758   4.426   2.205   1.085 -0.4324 -0.1099  0.6961
 5375SOL    HW227759   4.330   2.317   1.077 -0.4241 -1.3079 -2.5610
 5376SOL     OW27760   2.810   1.279   1.871 -0.3468 -0.6659 -0.3405
 5376SOL    HW127761   2.854   1.343   1.815 -0.4815 -1.7071 -1.6320
 5376SOL    HW227762   2.764   1.339   1.930  0.6081 -0.5739  0.3188
 5377SOL     OW27763   3.001   0.875  13.530 -0.0920 -0.2124  0.2764
 5377SOL    HW127764   2.966   0.964  13.538  1.2592  0.5504 -2.4303
 5377SOL    HW227765   3.095   0.887  13.521 -0.4181  2.4181  0.3708
 5378SOL     OW27766   1.909   2.302   6.018  0.5726 -0.2668 -0.8245
 5378SOL    HW127767   1.869   2.247   6.085  0.7898 -0.5589 -0.9324
 5378SOL    HW227768   1.991   2.323   6.063  0.4129 -0.3317 -0.5067
 5379SOL     OW27769   2.490   3.884  16.398  0.1414  0.1682 -0.3979
 5379SOL    HW127770   2.470   3.971  16.362  0.4732  0.5296  0.2807
 5379SOL    HW227771   2.419   3.882  16.462  0.0557 -0.9242 -0.5304
 5380SOL     OW27772   3.636   2.818   3.648  0.4520 -0.1453  0.5840
 5380SOL    HW127773   3.681   2.902   3.656  1.5714 -0.6069 -0.8145
 5380SOL    HW227774   3.625   2.800   3.741  1.1261 -0.3658  0.6205
 5381SOL     OW27775   0.394   2.281   0.943 -0.7673  0.0666  0.0260
 5381SOL    HW127776   0.424   2.289   0.852  0.9237 -0.9547  0.4968
 5381SOL    HW227777   0.390   2.186   0.947 -1.7291  0.0987 -0.2475
 5382SOL     OW27778   0.226   2.088   8.324 -0.0479 -0.3095  0.1142
 5382SOL    HW127779   0.295   2.096   8.259  1.4012  0.4633  1.7481
 5382SOL    HW227780   0.272   2.098   8.408 -0.5933 -0.3476  0.4193
 5383SOL     OW27781   4.418   0.461   5.704  0.6075  0.2485  0.0817
 5383SOL    HW127782   4.434   0.553   5.725 -0.1118  0.7292 -1.4556
 5383SOL    HW227783   4.501   0.417   5.717  0.8221  0.7961  0.5541
 5384SOL     OW27784   2.008   1.104   0.780  0.0081 -0.1848 -0.9889
 5384SOL    HW127785   1.990   1.023   0.827 -1.9515  1.6090  1.3406
 5384SOL    HW227786   1.998   1.173   0.845 -1.9490  0.5946 -2.1008
 5385SOL     OW27787   3.724   3.715   7.303  0.2714  0.1750  0.4831
 5385SOL    HW127788   3.735   3.797   7.255 -0.6725  0.4727  0.7829
 5385SOL    HW227789   3.679   3.757   7.377 -1.5022 -1.0222  0.0635
 5386SOL     OW27790   0.538   2.496  17.419 -0.3993  0.5573  0.1389
 5386SOL    HW127791   0.480   2.473  17.347 -0.9891  1.1677  0.4246
 5386SOL    HW227792   0.546   2.590  17.408  1.1578  0.4200  0.0146
 5387SOL     OW27793   3.981   2.590   8.866  0.6146 -0.1931 -0.1146
 5387SOL    HW127794   3.988   2.562   8.958  1.0669  3.6633  1.0173
 5387SOL    HW227795   3.909   2.542   8.826  0.0780  2.7732 -2.6684
 5388SOL     OW27796   1.400   1.382   8.452  0.4144 -0.0679 -0.2765
 5388SOL    HW127797   1.304   1.388   8.457  0.5176 -0.3524  2.3128
 5388SOL    HW227798   1.421   1.475   8.459 -0.0823  0.0237  0.0508
 5389SOL     OW27799   3.994   0.133  10.311  0.0721 -0.0751 -0.3010
 5389SOL    HW127800   4.059   0.113  10.244  0.1355 -0.6491 -0.0715
 5389SOL    HW227801   4.018   0.224  10.327 -0.3409 -0.0527  0.1884
 5390SOL     OW27802   0.453   1.906   3.751  0.2528 -0.1700 -0.0011
 5390SOL    HW127803   0.475   1.864   3.669 -0.5849  4.1015 -2.4291
 5390SOL    HW227804   0.431   1.992   3.714  0.9368  0.8487  1.9178
 5391SOL     OW27805   3.986   1.092  11.655 -0.6380  0.2737  0.0211
 5391SOL    HW127806   4.081   1.102  11.652 -0.4713 -1.2726 -0.2415
 5391SOL    HW227807   3.971   1.059  11.744 -1.3507 -0.6605 -0.4410
 5392SOL     OW27808   1.448   3.084  17.549  0.0006 -0.2484 -0.1737
 5392SOL    HW127809   1.494   3.029  17.486  1.0366 -1.8891  2.0010
 5392SOL    HW227810   1.387   3.018  17.583 -0.6618 -0.2971 -1.4639
 5393SOL     OW27811   2.367   0.995   4.297 -0.8835 -0.2628  0.3312
 5393SOL    HW127812   2.452   1.031   4.273 -0.3182 -2.4557 -0.9620
 5393SOL    HW227813   2.382   0.902   4.281  2.4398  0.1490  0.9832
 5394SOL     OW27814   4.191   3.581   4.352  0.4460  0.1454 -0.4618
 5394SOL    HW127815   4.172   3.534   4.271 -1.7905  1.1763 -0.5194
 5394SOL    HW227816   4.236   3.658   4.319 -0.1411 -0.3501 -2.3892
 5395SOL     OW27817   0.911   4.519   8.339 -0.0172 -0.4969 -0.4049
 5395SOL    HW127818   0.898   4.455   8.270 -1.3157 -0.8406  0.1650
 5395SOL    HW227819   0.996   4.557   8.316 -0.7868  0.9940 -0.7697
 5396SOL     OW27820   3.848   0.804   6.232 -0.3077  0.2171  0.0968
 5396SOL    HW127821   3.850   0.899   6.246 -1.8292  0.0189  1.5907
 5396SOL    HW227822   3.858   0.809   6.137  0.6888  1.4244  0.2613
 5397SOL     OW27823   2.762   2.249   8.654  0.8988 -0.1033  0.0669
 5397SOL    HW127824   2.756   2.338   8.619 -1.8252  0.1633  1.1299
 5397SOL    HW227825   2.806   2.260   8.738 -0.4960 -0.5492  0.8711
 5398SOL     OW27826   4.276   3.905   8.981 -1.0358  0.2924  0.3289
 5398SOL    HW127827   4.308   3.906   9.071  0.3872  3.0196 -0.2171
 5398SOL    HW227828   4.282   3.998   8.958  2.4028 -0.2137 -0.7151
 5399SOL     OW27829   2.054   2.321   5.260 -0.3713 -0.0792  0.2248
 5399SOL    HW127830   2.114   2.273   5.318  0.2256  0.7339  0.2801
 5399SOL    HW227831   2.054   2.255   5.190 -3.9747 -0.3086  0.4609
 5400SOL     OW27832   3.733   4.437   0.512  0.0144  0.5867 -0.1344
 5400SOL    HW127833   3.769   4.478   0.433  2.6813  0.4787  1.0221
 5400SOL    HW227834   3.764   4.507   0.571 -0.0342 -0.1159  0.7296
 5401SOL     OW27835   4.647   4.178   3.639  1.1931  0.2894  0.0900
 5401SOL    HW127836   4.588   4.123   3.587  0.1961 -1.6978  3.3350
 5401SOL    HW227837   4.729   4.183   3.591  1.3774  0.6222  0.4393
 5402SOL     OW27838   3.809   2.021   2.143  0.4742  0.7585 -0.1427
 5402SOL    HW127839   3.900   1.996   2.159  0.2720  0.2941  0.2909
 5402SOL    HW227840   3.773   1.933   2.141  0.1650  0.8524  1.0217
 5403SOL     OW27841   0.984   0.494   9.097 -0.2001  0.4465  0.4029
 5403SOL    HW127842   1.002   0.573   9.149  1.6420  0.6440 -0.5163
 5403SOL    HW227843   1.047   0.429   9.130 -0.9140 -0.6929 -0.4898
 5404SOL     OW27844   2.626   3.618   5.916  0.0870  0.1722 -0.0497
 5404SOL    HW127845   2.552   3.619   5.977 -0.0972  0.0032 -0.2698
 5404SOL    HW227846   2.621   3.527   5.886  0.4697 -0.1197  0.7734
 5405SOL     OW27847   3.247   4.709  14.263 -0.4290 -0.2490 -0.4230
 5405SOL    HW127848   3.336   4.737  14.240  0.4592 -0.7075  2.4224
 5405SOL    HW227849   3.196   0.022  14.202 -2.4298 -1.0955  0.5378
 5406SOL     OW27850   0.263   4.277   8.129  0.5531 -0.0162 -0.5529
 5406SOL    HW127851   0.304   4.217   8.067  0.9495 -1.2696  0.9357
 5406SOL    HW227852   0.337   4.301   8.185 -1.9531  0.3810  2.5690
 5407SOL     OW27853   4.465   3.244   3.795  0.7055 -0.1868  0.0535
 5407SOL    HW127854   4.451   3.214   3.884 -0.9910 -1.7295 -0.7416
 5407SOL    HW227855   4.378   3.234   3.757  0.2981 -0.8538  1.1690
 5408SOL     OW27856   4.335   1.274   6.504 -0.2832 -0.7412 -0.3859
 5408SOL    HW127857   4.306   1.226   6.582 -0.0356 -0.9437 -0.4153
 5408SOL    HW227858   4.431   1.272   6.504 -0.2694  0.0641  0.0999
 5409SOL     OW27859   2.802   3.488   7.037  0.1644  0.2200  0.4160
 5409SOL    HW127860   2.882   3.538   7.021  1.9758 -2.0498  2.4278
 5409SOL    HW227861   2.764   3.481   6.950  1.8714  0.7511 -0.3814
 5410SOL     OW27862   0.044   0.991   5.027  0.4507 -0.4852 -0.2524
 5410SOL    HW127863   0.043   1.067   5.085 -2.3985 -0.6200 -0.1500
 5410SOL    HW227864   0.126   0.947   5.051  0.5897 -1.5450 -2.6572
 5411SOL     OW27865   0.344   0.259   3.528 -0.0131  0.2320  0.3255
 5411SOL    HW127866   0.437   0.282   3.529  0.2065 -0.5942 -1.4820
 5411SOL    HW227867   0.312   0.305   3.606  0.9553  2.2015 -0.4641
 5412SOL     OW27868   3.003   3.998   9.096  0.3657  0.1036  0.2123
 5412SOL    HW127869   2.922   3.960   9.130  0.0339  1.0193  0.4352
 5412SOL    HW227870   3.039   4.063   9.157 -0.3893 -1.5526  2.4092
 5413SOL     OW27871   3.619   2.923   1.802 -0.7653 -0.0283  0.1544
 5413SOL    HW127872   3.592   2.988   1.737  0.3008 -0.2776 -0.5372
 5413SOL    HW227873   3.652   2.849   1.751  1.3308  1.4324 -0.6304
 5414SOL     OW27874   1.316   2.823   3.297 -0.2398  0.7222  0.8881
 5414SOL    HW127875   1.239   2.796   3.247  1.2173  1.7276 -1.8847
 5414SOL    HW227876   1.384   2.837   3.230 -2.5304 -0.8342 -1.7730
 5415SOL     OW27877   4.196   1.295   3.777  0.3681 -0.9201  0.3931
 5415SOL    HW127878   4.195   1.199   3.776 -1.0518 -0.9083  1.0541
 5415SOL    HW227879   4.143   1.312   3.855  0.6436  1.1135  0.1364
 5416SOL     OW27880   3.949   3.318  12.576 -0.0752 -0.7033 -0.0780
 5416SOL    HW127881   3.949   3.238  12.630  0.1659  0.0394  1.0150
 5416SOL    HW227882   4.024   3.309  12.517  0.7583  0.2901  0.8354
 5417SOL     OW27883   1.166   2.608   4.426  0.0497  0.2355  0.1738
 5417SOL    HW127884   1.225   2.642   4.493  2.0245  0.2561 -1.5720
 5417SOL    HW227885   1.172   2.680   4.364  0.0928  1.2769  1.3890
 5418SOL     OW27886   0.305   0.550   5.973 -0.3174 -0.1435  0.6317
 5418SOL    HW127887   0.375   0.538   5.908 -0.7924  1.3496 -0.1606
 5418SOL    HW227888   0.299   0.646   5.973  1.2576 -0.0264 -1.9136
 5419SOL     OW27889   2.224   1.256   3.688  0.0645 -0.2475  0.1117
 5419SOL    HW127890   2.141   1.266   3.735  2.1507 -0.7908  3.8808
 5419SOL    HW227891   2.208   1.179   3.633  0.7717  0.1773 -0.6964
 5420SOL     OW27892   2.886   1.989   8.547 -0.3424 -0.0774  0.4946
 5420SOL    HW127893   2.836   2.055   8.594 -0.1613  1.6004 -1.6785
 5420SOL    HW227894   2.939   2.047   8.492  1.3485 -0.4989  1.6677
 5421SOL     OW27895   3.519   1.600   6.455  0.0015 -0.0775 -0.3564
 5421SOL    HW127896   3.466   1.573   6.381 -0.1089 -1.0927  0.0930
 5421SOL    HW227897   3.460   1.602   6.530 -1.7882  0.1880 -1.7887
 5422SOL     OW27898   1.683   1.332   9.316  0.4672 -0.1780  0.6090
 5422SOL    HW127899   1.600   1.284   9.312 -0.0418  0.9197 -1.9967
 5422SOL    HW227900   1.727   1.292   9.242  1.2081 -0.1131  1.0112
 5423SOL     OW27901   4.083   1.639   4.333  0.0141  0.1715 -0.4036
 5423SOL    HW127902   4.065   1.545   4.334  0.7997  0.0245 -0.1303
 5423SOL    HW227903   4.007   1.661   4.280  0.4023  0.6055 -0.7851
 5424SOL     OW27904   2.526   1.131  13.088 -0.3187 -0.5977  0.6172
 5424SOL    HW127905   2.596   1.192  13.066 -2.6741  2.0319  0.3241
 5424SOL    HW227906   2.441   1.174  13.079 -0.7496 -2.0095 -1.9231
 5425SOL     OW27907   2.486   0.369   5.242  0.2263 -0.0968  0.2997
 5425SOL    HW127908   2.460   0.338   5.155 -2.1176 -1.2481  1.4103
 5425SOL    HW227909   2.576   0.401   5.236 -0.4733  1.8603  0.1019
 5426SOL     OW27910   0.132   0.272   6.808  0.0255  0.4432 -0.0576
 5426SOL    HW127911   0.216   0.227   6.814  0.1609  0.8552  1.1542
 5426SOL    HW227912   0.164   0.346   6.756 -1.7154 -0.3129 -2.1977
 5427SOL     OW27913   0.146   1.106  14.707 -0.6120  0.6743 -0.3147
 5427SOL    HW127914   0.075   1.082  14.648 -1.1537  1.7193 -0.0925
 5427SOL    HW227915   0.175   1.032  14.760 -1.1043  0.6686 -0.0429
 5428SOL     OW27916   1.423   1.248   5.595  0.4261  0.5713 -0.1330
 5428SOL    HW127917   1.391   1.257   5.685 -1.2571  0.8783 -0.7759
 5428SOL    HW227918   1.514   1.269   5.616  0.7118  1.1556 -1.9579
 5429SOL     OW27919   1.733   1.993  16.685  0.3084  0.1896  0.8373
 5429SOL    HW127920   1.706   2.080  16.715 -1.6429 -0.4171  0.8294
 5429SOL    HW227921   1.697   1.942  16.757 -1.4984  2.4764  1.5598
 5430SOL     OW27922   4.153   1.549   4.602  0.1233  0.2403 -0.4031
 5430SOL    HW127923   4.198   1.604   4.666 -1.0061  1.1060 -0.3501
 5430SOL    HW227924   4.065   1.550   4.639 -0.2351 -0.6305 -1.2427
 5431SOL     OW27925   3.232   0.747   4.979  0.3463 -0.2620  0.3068
 5431SOL    HW127926   3.253   0.820   5.037 -0.1493 -0.8779  1.2714
 5431SOL    HW227927   3.164   0.787   4.925  0.3830 -2.0792 -1.0931
 5432SOL     OW27928   1.873   2.487   7.641  0.2362 -0.8979  0.0899
 5432SOL    HW127929   1.904   2.526   7.722 -1.9114 -0.7143  0.8054
 5432SOL    HW227930   1.924   2.541   7.579  1.4867 -1.7921  0.3320
 5433SOL     OW27931   0.949   0.431   6.659 -0.2839 -0.4355  0.5698
 5433SOL    HW127932   0.884   0.424   6.729 -1.9670 -0.4681 -0.9996
 5433SOL    HW227933   1.024   0.460   6.711  0.1501  1.7300 -1.2678
 5434SOL     OW27934   2.058   1.583   5.948 -0.0160 -0.6221  0.2045
 5434SOL    HW127935   1.996   1.604   5.879  0.3984  3.0156  0.9616
 5434SOL    HW227936   2.048   1.647   6.018 -0.4373 -1.9685  1.3840
 5435SOL     OW27937   3.454   0.716  13.375  0.0256  0.3340 -0.2081
 5435SOL    HW127938   3.378   0.703  13.318 -1.0560  1.4062  0.9731
 5435SOL    HW227939   3.491   0.628  13.371 -0.5058  0.0984  0.0255
 5436SOL     OW27940   3.556   0.634   3.819 -0.1356  0.6131 -0.0740
 5436SOL    HW127941   3.540   0.545   3.788  2.3404  0.0555  0.3047
 5436SOL    HW227942   3.509   0.627   3.902  2.8136  0.0154  1.5406
 5437SOL     OW27943   1.005   0.552  15.284 -0.1235 -0.5420  0.7884
 5437SOL    HW127944   0.983   0.591  15.200 -1.0847  2.8001  2.5748
 5437SOL    HW227945   0.980   0.462  15.264 -2.0515 -0.0235  0.9010
 5438SOL     OW27946   2.016   1.454  12.618 -0.0090  0.5372  0.0739
 5438SOL    HW127947   2.007   1.502  12.700 -0.7142  1.6944 -0.6627
 5438SOL    HW227948   1.967   1.377  12.643 -0.8442  1.7245  2.0288
 5439SOL     OW27949   1.963   1.336   9.754  0.1234 -0.3451  0.5477
 5439SOL    HW127950   1.905   1.267   9.787 -0.3671  1.1299  2.6985
 5439SOL    HW227951   1.914   1.369   9.679  2.5858  0.8043 -0.5524
 5440SOL     OW27952   0.329   2.871   4.162  0.1531  0.6917 -0.0617
 5440SOL    HW127953   0.275   2.842   4.235  0.0124  0.7057 -0.1606
 5440SOL    HW227954   0.401   2.808   4.170 -1.4273 -0.9610  1.1074
 5441SOL     OW27955   2.890   1.251  10.574 -0.1634 -0.1558  0.4198
 5441SOL    HW127956   2.893   1.345  10.559  0.2223 -0.4167 -1.1529
 5441SOL    HW227957   2.983   1.234  10.581  0.3815  1.8274 -1.7626
 5442SOL     OW27958   4.202   1.764   3.984 -0.7796  0.4228 -0.4215
 5442SOL    HW127959   4.285   1.807   3.960 -1.5963  2.7888  0.9746
 5442SOL    HW227960   4.178   1.750   3.892  0.2525  0.2464 -0.6692
 5443SOL     OW27961   4.065   3.795  17.674  0.4704  0.2771  0.4929
 5443SOL    HW127962   4.121   3.828  17.745  1.1729  0.4700 -0.1508
 5443SOL    HW227963   3.992   3.856  17.683 -0.4492 -0.6289 -0.9761
 5444SOL     OW27964   2.481   1.618   9.478  0.6129 -0.7754  0.2893
 5444SOL    HW127965   2.549   1.559   9.508 -0.7956 -0.9382  3.1841
 5444SOL    HW227966   2.518   1.672   9.408  2.7206  0.1616  2.1615
 5445SOL     OW27967   4.616   0.855   6.938  0.1758  0.0312  0.3723
 5445SOL    HW127968   4.575   0.940   6.921  1.0529  0.6576  1.4007
 5445SOL    HW227969   4.609   0.852   7.034 -2.2776  2.4274  0.2880
 5446SOL     OW27970   3.772   3.905   7.632  0.3914 -0.4864 -0.0296
 5446SOL    HW127971   3.770   3.968   7.561  0.3032  0.3485  0.7170
 5446SOL    HW227972   3.857   3.861   7.622 -0.0722 -0.9617 -1.8489
 5447SOL     OW27973   3.977   2.187   9.174  0.1261 -0.1667 -0.5033
 5447SOL    HW127974   3.974   2.121   9.244 -2.9975  0.1832 -0.3395
 5447SOL    HW227975   4.056   2.165   9.124  1.5013  2.3482  0.5641
 5448SOL     OW27976   2.196   1.182  17.534 -0.6605  0.7464  0.2268
 5448SOL    HW127977   2.268   1.120  17.524 -0.5605  0.9601 -0.4216
 5448SOL    HW227978   2.214   1.247  17.466  2.0355  0.2577  0.4889
 5449SOL     OW27979   0.112   1.862   5.345  0.2591 -0.1017  0.0505
 5449SOL    HW127980   0.181   1.900   5.399 -2.2479  1.2703  2.2778
 5449SOL    HW227981   0.173   1.797   5.311  0.4362  0.1710 -0.1524
 5450SOL     OW27982   2.972   0.198   1.047 -0.0421 -0.3332  0.1127
 5450SOL    HW127983   2.914   0.133   1.009 -0.8126  1.9336 -2.5964
 5450SOL    HW227984   2.993   0.149   1.127 -0.5332 -0.6172  0.0690
 5451SOL     OW27985   1.185   3.927   1.114  0.0247  0.2998 -0.4827
 5451SOL    HW127986   1.231   3.984   1.052  1.4983 -0.0191  0.3023
 5451SOL    HW227987   1.156   3.857   1.056  0.1013 -0.2943  0.2037
 5452SOL     OW27988   1.857   1.859   6.871 -0.2518  0.2310 -0.0133
 5452SOL    HW127989   1.768   1.874   6.903  0.8067  0.9930  2.6135
 5452SOL    HW227990   1.883   1.778   6.915  0.0533  0.0941 -0.4462
 5453SOL     OW27991   2.928   0.524  13.076  0.0712 -0.1177 -0.0399
 5453SOL    HW127992   2.897   0.439  13.045 -0.5483 -0.4418  1.4629
 5453SOL    HW227993   2.842   0.566  13.073  0.3952  0.5478  0.0301
 5454SOL     OW27994   1.099   2.519  10.980  0.3915 -0.5798  0.0603
 5454SOL    HW127995   1.069   2.591  10.925 -1.4234 -0.4085  1.2556
 5454SOL    HW227996   1.193   2.533  10.989  0.0902  0.7686  1.1660
 5455SOL     OW27997   0.055   2.643  13.526 -0.0651 -0.4366 -0.4536
 5455SOL    HW127998   4.704   2.620  13.503  0.2135 -1.0905 -0.8851
 5455SOL    HW227999   0.092   2.557  13.547 -1.8130 -1.2958 -0.9178
 5456SOL     OW28000   1.525   2.091  11.150 -0.0489 -0.0276 -0.4118
 5456SOL    HW128001   1.578   2.152  11.202 -0.1447 -0.0986 -0.2292
 5456SOL    HW228002   1.509   2.147  11.075  2.5432  0.9441 -0.2644
 5457SOL     OW28003   0.196   2.473   4.485 -0.5525 -0.1632  0.1787
 5457SOL    HW128004   0.162   2.415   4.553 -0.6896  0.0369  0.2788
 5457SOL    HW228005   0.139   2.549   4.491 -0.7355 -0.2148 -0.8196
 5458SOL     OW28006   1.020   1.132   3.730 -0.0484  0.8407  0.2449
 5458SOL    HW128007   0.933   1.095   3.745  1.0209 -1.3474  1.0447
 5458SOL    HW228008   1.063   1.056   3.691 -0.1076  1.2280 -0.5924
 5459SOL     OW28009   3.159   4.223   1.943  0.1528  0.3889  0.5248
 5459SOL    HW128010   3.147   4.240   1.850  0.8302 -3.3700 -0.2353
 5459SOL    HW228011   3.067   4.205   1.965 -0.3205 -0.8097 -2.4310
 5460SOL     OW28012   1.826   0.794   7.202 -0.2184 -0.4932  0.3416
 5460SOL    HW128013   1.748   0.769   7.152 -1.1754 -0.0882  1.6382
 5460SOL    HW228014   1.873   0.856   7.146  0.8096 -0.4488  1.2622
 5461SOL     OW28015   0.069   3.518   2.239 -0.1853 -0.3221  0.2843
 5461SOL    HW128016   0.027   3.568   2.169  0.5117 -1.9428 -1.2886
 5461SOL    HW228017   0.125   3.589   2.270  0.0820 -0.3084 -0.2188
 5462SOL     OW28018   1.551   3.952   8.392  0.0113 -0.0685 -0.1977
 5462SOL    HW128019   1.645   3.961   8.376 -0.0038 -1.5887 -1.1377
 5462SOL    HW228020   1.502   3.972   8.312  1.0241 -0.1295 -0.8354
 5463SOL     OW28021   2.812   3.321  15.433  0.2160  0.5258 -0.4451
 5463SOL    HW128022   2.804   3.394  15.371  0.6443  0.2015 -0.8824
 5463SOL    HW228023   2.906   3.334  15.447 -0.0828  2.4987 -0.3067
 5464SOL     OW28024   1.521   0.152   4.780  0.1580  0.5358  0.6497
 5464SOL    HW128025   1.540   0.146   4.874 -1.1863 -1.0112  0.8167
 5464SOL    HW228026   1.446   0.211   4.787 -0.7218 -0.5051 -0.1131
 5465SOL     OW28027   4.574   2.791  15.026  0.7172  0.6033  0.2604
 5465SOL    HW128028   4.544   2.700  15.035 -3.5704  1.8213 -1.5065
 5465SOL    HW228029   4.616   2.804  15.111 -1.1854  0.6724  1.1974
 5466SOL     OW28030   0.339   1.238   8.778  0.3824  0.1348  0.4937
 5466SOL    HW128031   0.305   1.155   8.813  1.3094 -0.0066  1.0564
 5466SOL    HW228032   0.431   1.222   8.798  0.0235 -0.9385  1.3312
 5467SOL     OW28033   2.822   3.435   3.013 -0.3739 -0.4755 -0.4541
 5467SOL    HW128034   2.787   3.523   3.000 -0.6187 -0.5407 -0.2347
 5467SOL    HW228035   2.893   3.453   3.075 -1.5517 -0.7201  0.9937
 5468SOL     OW28036   1.142   4.660   8.222  0.4217  0.0027  0.0090
 5468SOL    HW128037   1.143   4.737   8.279 -2.0984 -0.3475  0.5384
 5468SOL    HW228038   1.164   4.597   8.290  0.1507  0.6080  0.6548
 5469SOL     OW28039   3.999   1.738  10.822  0.1745 -0.7000  0.3807
 5469SOL    HW128040   3.991   1.643  10.808  0.0747 -0.9008  1.7494
 5469SOL    HW228041   3.973   1.741  10.915 -1.4023 -1.3642 -0.0260
 5470SOL     OW28042   2.014   4.438  16.290 -0.2097  0.2196 -0.7734
 5470SOL    HW128043   1.962   4.489  16.228  0.5942  0.3397 -1.3530
 5470SOL    HW228044   1.944   4.408  16.349  0.0873 -0.1736 -0.6212
 5471SOL     OW28045   1.772   3.032  12.866  0.2835  0.3561 -0.2871
 5471SOL    HW128046   1.746   3.113  12.908  0.7733  0.5064 -0.2698
 5471SOL    HW228047   1.709   3.015  12.796 -0.3070  0.2492  0.2735
 5472SOL     OW28048   2.002   4.580   2.266 -0.6405 -0.7305  0.2733
 5472SOL    HW128049   1.960   4.666   2.262 -2.5352 -1.6476  0.7359
 5472SOL    HW228050   2.077   4.583   2.205 -2.2644 -1.4865 -1.7489
 5473SOL     OW28051   1.993   4.482  17.650  0.5397 -0.1970 -0.4776
 5473SOL    HW128052   2.050   4.449  17.581  0.8106  1.0524 -0.8608
 5473SOL    HW228053   1.958   4.557  17.603 -0.9007  0.5455  1.7720
 5474SOL     OW28054   4.131   1.455   2.892  0.0424 -0.1258  0.0458
 5474SOL    HW128055   4.193   1.487   2.827  2.1438 -1.9420  1.1877
 5474SOL    HW228056   4.158   1.513   2.964 -1.6369  0.5265  0.1714
 5475SOL     OW28057   3.802   0.653   7.075  0.2266  0.4291  0.1852
 5475SOL    HW128058   3.844   0.683   6.995 -0.4692 -0.6016 -0.5667
 5475SOL    HW228059   3.747   0.727   7.100 -0.2427  0.4461 -0.9054
 5476SOL     OW28060   0.278   4.344  17.198 -0.4486 -0.1189 -0.0092
 5476SOL    HW128061   0.373   4.353  17.197 -0.6234  1.8463  1.9978
 5476SOL    HW228062   0.253   4.406  17.267  0.1700 -0.0638  0.1621
 5477SOL     OW28063   0.377   1.281   7.798 -0.2932  0.1676  0.3804
 5477SOL    HW128064   0.320   1.339   7.748 -0.4250  0.5534  0.9774
 5477SOL    HW228065   0.452   1.338   7.810  0.2354 -0.3806 -0.2750
 5478SOL     OW28066   0.435   4.033   2.289 -0.4571  0.2814  0.4075
 5478SOL    HW128067   0.454   4.056   2.380  1.3381  0.6284 -0.0586
 5478SOL    HW228068   0.361   3.972   2.294 -0.1593 -0.2981 -2.3357
 5479SOL     OW28069   0.673   0.981   9.354  0.6192  0.2987 -0.5147
 5479SOL    HW128070   0.659   0.948   9.265  1.3736 -1.7773  0.1297
 5479SOL    HW228071   0.615   1.057   9.348  1.6333  1.2047  1.2188
 5480SOL     OW28072   1.006   4.246   8.088  0.0769 -0.0836 -0.3030
 5480SOL    HW128073   1.029   4.176   8.150 -1.1740  0.0023  0.2588
 5480SOL    HW228074   1.077   4.310   8.082 -0.7189  0.9166  0.9761
 5481SOL     OW28075   2.073   2.141   3.566 -0.0037 -0.1281  0.3683
 5481SOL    HW128076   2.010   2.165   3.633 -1.0926 -0.5021 -0.5272
 5481SOL    HW228077   2.080   2.213   3.503 -0.1011 -0.8124 -0.4390
 5482SOL     OW28078   3.177   1.422   5.998 -0.1651 -0.0480  0.0159
 5482SOL    HW128079   3.144   1.473   6.072  1.4667 -0.7749  1.2446
 5482SOL    HW228080   3.142   1.334   6.012 -0.6091  0.1418  0.0973
 5483SOL     OW28081   0.478   0.437  16.784 -0.2918 -0.4501  0.0219
 5483SOL    HW128082   0.387   0.414  16.801 -0.0778 -0.2570  1.4199
 5483SOL    HW228083   0.522   0.414  16.865  2.9912  1.3955 -1.2450
 5484SOL     OW28084   3.076   4.181   1.674 -0.0708 -0.0444 -0.5648
 5484SOL    HW128085   3.095   4.088   1.661  0.8163 -0.0579  0.7882
 5484SOL    HW228086   3.035   4.191   1.588 -0.8816  0.6159 -0.1012
 5485SOL     OW28087   0.908   1.289   2.577 -0.1298 -0.1862 -0.0113
 5485SOL    HW128088   0.996   1.326   2.565 -0.0141 -0.1297  1.0322
 5485SOL    HW228089   0.936   1.200   2.601  4.4379  1.9082  2.4261
 5486SOL     OW28090   0.116   0.585   3.403  0.7423 -0.3211  0.5050
 5486SOL    HW128091   0.031   0.551   3.376  0.6204 -1.0773  1.8134
 5486SOL    HW228092   0.173   0.528   3.352 -0.1382  0.8508 -1.8145
 5487SOL     OW28093   2.491   2.320   3.678 -0.2149 -0.2642  0.0938
 5487SOL    HW128094   2.432   2.304   3.752 -0.4122  0.2072  0.0392
 5487SOL    HW228095   2.517   2.412   3.682 -1.8543  0.3373 -3.1339
 5488SOL     OW28096   1.499   2.500   6.157 -0.4136 -0.1162  0.7020
 5488SOL    HW128097   1.582   2.523   6.198  0.7133 -2.4999 -0.2417
 5488SOL    HW228098   1.493   2.406   6.171 -0.7252  0.0550  1.7382
 5489SOL     OW28099   1.250   0.350  14.330 -0.0137  0.1459 -0.2046
 5489SOL    HW128100   1.188   0.278  14.334  1.4318 -1.0075  1.6274
 5489SOL    HW228101   1.332   0.300  14.324  0.2762  0.3132  2.1188
 5490SOL     OW28102   3.087   2.557   5.062  0.1968 -0.5314 -0.1313
 5490SOL    HW128103   3.174   2.558   5.022 -0.0006 -2.7094 -0.6296
 5490SOL    HW228104   3.037   2.607   4.997  0.3006  2.1531  1.8644
 5491SOL     OW28105   0.630   3.652   6.987  0.4138 -0.1228 -0.1071
 5491SOL    HW128106   0.646   3.590   7.057 -0.3454  0.0076  0.1791
 5491SOL    HW228107   0.581   3.719   7.035  0.5342 -2.1746  2.8036
 5492SOL     OW28108   3.183   3.550  16.385 -0.2245 -0.0792  0.6529
 5492SOL    HW128109   3.160   3.459  16.365  1.3402 -0.3617  0.1568
 5492SOL    HW228110   3.131   3.548  16.465 -2.6494 -1.3263 -0.9695
 5493SOL     OW28111   2.624   1.177   3.919  0.4266 -0.3102 -0.0040
 5493SOL    HW128112   2.545   1.216   3.957 -0.1406 -0.5681 -0.9157
 5493SOL    HW228113   2.652   1.247   3.861 -0.0834 -1.2048 -1.3288
 5494SOL     OW28114   3.326   2.229  13.266  0.1073  1.1944 -0.3705
 5494SOL    HW128115   3.271   2.303  13.290 -0.5980  0.5367  0.0561
 5494SOL    HW228116   3.416   2.260  13.265  0.4330  0.2568  1.4145
 5495SOL     OW28117   2.362   2.788   8.416  0.6094  0.7637 -0.3353
 5495SOL    HW128118   2.388   2.784   8.508 -0.1431 -0.7674 -0.1849
 5495SOL    HW228119   2.296   2.719   8.409  2.5992 -1.1582 -0.3229
 5496SOL     OW28120   2.622   0.701   5.845 -0.0617  0.0876 -0.1207
 5496SOL    HW128121   2.702   0.752   5.837  1.0272 -1.8252 -1.5742
 5496SOL    HW228122   2.560   0.759   5.890 -0.7499  1.0279 -2.2747
 5497SOL     OW28123   3.663   3.337   7.676 -0.4708  0.4469 -0.5926
 5497SOL    HW128124   3.693   3.248   7.695  2.1233  0.9925 -2.0854
 5497SOL    HW228125   3.729   3.393   7.717 -1.3690  1.5699 -0.6837
 5498SOL     OW28126   1.396   2.184  13.122  0.0105  0.0370 -0.1448
 5498SOL    HW128127   1.400   2.258  13.062  3.5327 -0.3420 -0.4201
 5498SOL    HW228128   1.354   2.122  13.063  0.8328 -0.0710 -0.6110
 5499SOL     OW28129   2.685   0.527   7.776 -0.5114  0.4455  0.4490
 5499SOL    HW128130   2.602   0.507   7.820 -1.2338 -0.5583 -1.4029
 5499SOL    HW228131   2.653   0.546   7.688 -1.4237  2.9307  1.3145
 5500SOL     OW28132   4.288   0.743   4.846  0.7043 -0.0083  0.5354
 5500SOL    HW128133   4.276   0.667   4.903  1.9010 -0.2555  0.4626
 5500SOL    HW228134   4.203   0.753   4.803  0.8266  1.3728  0.6114
 5501SOL     OW28135   0.727   2.375  10.942  0.2707 -0.2300 -0.8303
 5501SOL    HW128136   0.795   2.421  10.893  2.1598  0.9383  2.8487
 5501SOL    HW228137   0.709   2.300  10.885  0.1027  1.3204 -2.7738
 5502SOL     OW28138   0.279   4.082  13.243 -0.2876  0.2193 -0.6927
 5502SOL    HW128139   0.315   4.019  13.181  1.1418 -0.2505  0.6157
 5502SOL    HW228140   0.350   4.146  13.250 -0.0792 -0.1219  0.3621
 5503SOL     OW28141   1.550   4.509  10.335  0.4232 -0.0346 -0.1883
 5503SOL    HW128142   1.596   4.560  10.268  0.2709  0.0218 -0.2503
 5503SOL    HW228143   1.602   4.506  10.415  2.4948  0.0905 -1.5181
 5504SOL     OW28144   4.190   2.175   9.856 -0.2799  0.1447  0.2421
 5504SOL    HW128145   4.167   2.120   9.930 -0.1496 -1.0247 -0.5813
 5504SOL    HW228146   4.109   2.225   9.851 -1.6885 -2.5463 -4.3571
 5505SOL     OW28147   3.482   2.043   6.522 -0.3587 -0.1494 -0.3505
 5505SOL    HW128148   3.572   2.014   6.536 -1.3406 -1.6350  2.9602
 5505SOL    HW228149   3.436   2.005   6.597 -2.0021  0.3959 -1.0860
 5506SOL     OW28150   0.004   0.634   7.188  0.1443 -0.8494  0.9246
 5506SOL    HW128151   0.083   0.684   7.207  0.8936 -0.7307 -2.6066
 5506SOL    HW228152   4.682   0.707   7.195  4.6707  3.0869 -1.2444
 5507SOL     OW28153   1.225   4.674  17.522 -0.0357 -0.1614  0.3045
 5507SOL    HW128154   1.313   4.707  17.506 -0.0634  0.7853  2.1547
 5507SOL    HW228155   1.235   4.652  17.615  3.5626  1.0804  0.2205
 5508SOL     OW28156   3.792   0.478  10.301  1.5161 -0.0819 -0.1285
 5508SOL    HW128157   3.772   0.418  10.373  0.2446  0.6875  0.1478
 5508SOL    HW228158   3.875   0.439  10.274  2.0582 -0.0629  1.5479
 5509SOL     OW28159   4.531   4.657  11.776  0.4206 -0.1308  0.2956
 5509SOL    HW128160   4.497   4.643  11.687 -1.6537  0.2521  1.0307
 5509SOL    HW228161   4.614   4.609  11.780 -0.4656 -1.5057  1.9939
 5510SOL     OW28162   0.027   1.985   9.493  0.4096 -0.0061  0.2419
 5510SOL    HW128163   0.038   1.905   9.545 -0.1625 -0.3292 -0.1338
 5510SOL    HW228164   4.705   2.028   9.553  0.7247  0.0382  0.5330
 5511SOL     OW28165   1.596   0.105  16.183  0.1040 -0.2023 -0.3987
 5511SOL    HW128166   1.552   0.164  16.122 -0.3000  0.5111  0.5837
 5511SOL    HW228167   1.688   0.131  16.181 -0.2839  1.3448  1.9200
 5512SOL     OW28168   1.129   1.372   8.402  0.0135 -0.0108  0.4371
 5512SOL    HW128169   1.073   1.440   8.366 -0.4103 -0.9358 -0.6328
 5512SOL    HW228170   1.071   1.344   8.473 -0.5355 -0.9161 -0.3641
 5513SOL     OW28171   3.689   1.378   6.045 -0.0595  0.0790 -0.5955
 5513SOL    HW128172   3.699   1.459   5.995 -0.5462  0.7922  0.4663
 5513SOL    HW228173   3.623   1.412   6.105 -1.3323 -0.5853 -1.6448
 5514SOL     OW28174   2.159   1.645   3.279  0.3452 -0.0174 -0.1239
 5514SOL    HW128175   2.182   1.733   3.311 -2.6736  1.7236 -2.8098
 5514SOL    HW228176   2.097   1.614   3.345  0.7537  0.2666  0.4022
 5515SOL     OW28177   1.650   3.279  16.995  0.3091 -0.2910  0.1750
 5515SOL    HW128178   1.588   3.263  17.066  1.2833 -0.7027  0.9199
 5515SOL    HW228179   1.608   3.241  16.917 -0.8858  3.6451 -1.1528
 5516SOL     OW28180   0.936   1.874   0.842  0.0565  0.0518 -0.2194
 5516SOL    HW128181   0.934   1.783   0.871  1.2578  0.2586  0.5097
 5516SOL    HW228182   1.027   1.893   0.866 -0.0376 -2.4444  2.1867
 5517SOL     OW28183   0.818   3.726   7.598 -0.8737  0.0628  0.1620
 5517SOL    HW128184   0.776   3.647   7.634 -2.2366  0.7814  0.1452
 5517SOL    HW228185   0.852   3.767   7.678  1.0329 -2.5516  0.6867
 5518SOL     OW28186   3.327   3.550   4.647 -0.0343 -0.3331 -0.1031
 5518SOL    HW128187   3.323   3.459   4.675  0.5850 -0.3252  0.0016
 5518SOL    HW228188   3.402   3.545   4.587  0.1072  1.9724 -0.1163
 5519SOL     OW28189   4.076   0.494   9.213 -0.3200  0.3395 -0.2879
 5519SOL    HW128190   4.114   0.448   9.138  1.8694  1.5509  0.0735
 5519SOL    HW228191   3.993   0.529   9.181 -1.7198 -0.7577  2.1938
 5520SOL     OW28192   0.987   2.520   6.444 -0.3567  0.1157 -0.2511
 5520SOL    HW128193   0.905   2.521   6.494  0.1156  0.4585  0.5196
 5520SOL    HW228194   1.047   2.564   6.504 -0.7626 -0.8983  0.9023
 5521SOL     OW28195   3.096   4.493   1.241 -0.0571  0.0569  0.2487
 5521SOL    HW128196   3.099   4.410   1.289  0.5614  0.4275  0.8535
 5521SOL    HW228197   3.024   4.540   1.282  1.5280  1.9551  0.8529
 5522SOL     OW28198   2.368   1.505  13.882 -0.4664  0.0541  0.0356
 5522SOL    HW128199   2.347   1.598  13.893  1.3978  0.5874 -0.9449
 5522SOL    HW228200   2.287   1.454  13.886 -0.4446  0.1553  1.7410
 5523SOL     OW28201   0.737   2.175  13.295 -0.1433  0.3593  0.4919
 5523SOL    HW128202   0.656   2.184  13.245 -0.1699 -2.8857 -0.0338
 5523SOL    HW228203   0.712   2.170  13.387 -1.3254 -1.1652  0.0763
 5524SOL     OW28204   2.379   1.907   9.842 -0.0925  0.6033  0.3092
 5524SOL    HW128205   2.384   1.813   9.823 -2.6138 -0.0885  3.0801
 5524SOL    HW228206   2.352   1.945   9.758 -1.1702 -1.7661 -0.4177
 5525SOL     OW28207   4.058   0.363  16.000 -0.0152  0.0986 -0.2336
 5525SOL    HW128208   4.029   0.360  16.091  1.8300 -1.4015  0.2818
 5525SOL    HW228209   4.056   0.268  15.988  0.9482  0.1411 -0.7037
 5526SOL     OW28210   3.148   3.183   5.192  0.1620 -0.4885 -0.8255
 5526SOL    HW128211   3.180   3.112   5.248 -1.5338  1.0010  1.9779
 5526SOL    HW228212   3.148   3.265   5.241  1.8811 -2.3669  2.3549
 5527SOL     OW28213   0.971   3.488   9.164  0.3005  0.7490 -0.1882
 5527SOL    HW128214   0.980   3.570   9.116 -0.0900  1.1911  0.4982
 5527SOL    HW228215   0.897   3.450   9.117  1.8591 -1.8898 -0.5243
 5528SOL     OW28216   2.395   3.982  12.470 -0.5785 -0.1081 -0.1383
 5528SOL    HW128217   2.300   3.977  12.479 -0.5257 -0.8282  0.0064
 5528SOL    HW228218   2.434   3.957  12.554  1.0717  2.8811 -0.0267
 5529SOL     OW28219   1.253   2.845  15.336 -0.3064 -0.2296  0.4447
 5529SOL    HW128220   1.237   2.917  15.397  2.1790  0.6996  0.0144
 5529SOL    HW228221   1.219   2.766  15.377 -1.1998 -0.2434 -0.3274
 5530SOL     OW28222   4.051   0.749  14.008  0.3985 -0.0701 -0.5677
 5530SOL    HW128223   4.024   0.769  13.918  2.3241 -1.1587 -1.3706
 5530SOL    HW228224   3.971   0.709  14.042  1.2532  0.0255  1.5435
 5531SOL     OW28225   0.394   2.151   8.538 -0.1352  0.0330  0.1123
 5531SOL    HW128226   0.483   2.181   8.520  0.5471 -1.0159  1.6974
 5531SOL    HW228227   0.363   2.203   8.613 -3.5168  1.0894 -2.0046
 5532SOL     OW28228   0.842   4.160  15.593 -0.2731 -0.5342  0.2393
 5532SOL    HW128229   0.889   4.164  15.677  0.0740 -0.3675  0.0351
 5532SOL    HW228230   0.757   4.135  15.630 -0.0351  0.5799  1.5662
 5533SOL     OW28231   3.199   3.252  12.227 -0.6682 -0.3563  0.2972
 5533SOL    HW128232   3.197   3.324  12.164  1.9028 -1.2199 -0.7747
 5533SOL    HW228233   3.284   3.217  12.200  1.6623  4.1353  1.9636
 5534SOL     OW28234   1.211   2.448   9.277  0.1991  0.1616 -0.1983
 5534SOL    HW128235   1.118   2.469   9.261 -0.1418  1.6819  3.9239
 5534SOL    HW228236   1.250   2.535   9.281  0.5507 -0.0341  0.4964
 5535SOL     OW28237   2.025   2.166  10.077 -0.2613  0.1302  0.3289
 5535SOL    HW128238   1.995   2.243  10.029  0.2172 -1.6404 -2.8448
 5535SOL    HW228239   2.117   2.166  10.051 -0.3019 -1.8233  0.1907
 5536SOL     OW28240   1.431   3.004  15.609  0.1882 -0.1522  0.0666
 5536SOL    HW128241   1.445   2.954  15.690  2.1303 -1.1486 -0.8776
 5536SOL    HW228242   1.517   3.047  15.610  0.1781 -0.1267 -0.2806
 5537SOL     OW28243   2.189   0.420   2.405  0.3696 -0.1466  0.7496
 5537SOL    HW128244   2.255   0.455   2.465  0.2667  0.1198  0.7044
 5537SOL    HW228245   2.214   0.328   2.410 -0.9217 -0.5437 -0.1084
 5538SOL     OW28246   1.721   3.790   2.719  0.0815  0.2789  0.1573
 5538SOL    HW128247   1.686   3.878   2.706 -1.2875 -0.4256 -0.8615
 5538SOL    HW228248   1.704   3.767   2.810  3.3648 -0.4353  0.5971
 5539SOL     OW28249   1.542   2.767   8.567 -0.2655  0.2366 -0.1977
 5539SOL    HW128250   1.628   2.781   8.607 -0.7101  1.7867  0.2528
 5539SOL    HW228251   1.553   2.683   8.523 -2.1667 -2.0030  3.5822
 5540SOL     OW28252   4.444   1.089  14.608  0.2128  0.7526  0.0846
 5540SOL    HW128253   4.476   1.066  14.695  4.0519  1.5718 -1.1442
 5540SOL    HW228254   4.526   1.107  14.563  0.2109 -1.9427 -1.0336
 5541SOL     OW28255   4.480   3.691  12.639 -0.2517 -0.5856  0.7636
 5541SOL    HW128256   4.417   3.619  12.637 -2.1507  1.0675 -0.1563
 5541SOL    HW228257   4.463   3.740  12.719  1.8923  1.6990 -0.1839
 5542SOL     OW28258   0.583   2.754  11.000  0.8024 -0.2382  0.6172
 5542SOL    HW128259   0.489   2.756  10.987  0.8008  1.7322  1.0232
 5542SOL    HW228260   0.620   2.817  10.939 -2.1753  0.8527 -0.0343
 5543SOL     OW28261   0.228   1.822   6.481  0.0227  0.4346 -0.5455
 5543SOL    HW128262   0.321   1.839   6.493  0.0007  0.4531 -0.3880
 5543SOL    HW228263   0.205   1.830   6.574  0.4834 -0.8625 -0.3149
 5544SOL     OW28264   3.571   2.300  17.019 -0.0338 -0.3120 -0.0748
 5544SOL    HW128265   3.593   2.380  17.067  0.9753  0.0462 -1.1206
 5544SOL    HW228266   3.520   2.331  16.944  1.4351  2.0089 -0.1205
 5545SOL     OW28267   3.615   0.088   3.520  0.0753  0.1772  0.2702
 5545SOL    HW128268   3.580   0.167   3.480  1.6444 -0.3616 -2.1724
 5545SOL    HW228269   3.668   0.101   3.598  1.1132  2.1322 -0.7630
 5546SOL     OW28270   2.352   1.379   4.298  0.3168  0.3040  0.1841
 5546SOL    HW128271   2.405   1.451   4.262 -1.2156  0.3416 -2.0534
 5546SOL    HW228272   2.272   1.385   4.245  0.1904  1.0446  0.4542
 5547SOL     OW28273   4.663   1.721   0.098 -0.9827  0.2100 -0.1541
 5547SOL    HW128274   4.590   1.676   0.141 -2.5910  2.0275 -1.0042
 5547SOL    HW228275   4.739   1.689   0.147 -0.0648  0.1444 -1.6391
 5548SOL     OW28276   1.041   4.150   4.945 -0.1873 -0.0607  0.4570
 5548SOL    HW128277   1.053   4.090   4.871 -1.2901 -0.8894  0.9451
 5548SOL    HW228278   1.064   4.233   4.906 -0.6713 -0.1652 -0.0525
 5549SOL     OW28279   3.173   3.529   1.407 -0.4693  0.3407  0.1180
 5549SOL    HW128280   3.219   3.445   1.399  2.8842  1.9565  2.2377
 5549SOL    HW228281   3.089   3.485   1.422 -1.1318  2.1416  1.6759
 5550SOL     OW28282   2.005   3.895   2.007 -0.0975  0.3577  0.5118
 5550SOL    HW128283   2.013   3.964   2.073 -0.6296 -0.2225  1.1874
 5550SOL    HW228284   2.001   3.825   2.072  0.0989 -1.1413 -1.0898
 5551SOL     OW28285   4.089   3.979   8.263 -0.0477  0.5636 -0.6813
 5551SOL    HW128286   4.147   3.910   8.296  0.7402  1.8010  0.5388
 5551SOL    HW228287   4.140   4.058   8.282 -1.2977  0.8996  1.2367
 5552SOL     OW28288   2.557   0.587  15.963 -0.0625  0.3938  0.6407
 5552SOL    HW128289   2.498   0.551  16.030  1.5713 -0.0895  1.8257
 5552SOL    HW228290   2.496   0.653  15.930  1.3465  2.0672  1.3956
 5553SOL     OW28291   3.314   4.543   3.353 -0.2113  0.1152 -0.0666
 5553SOL    HW128292   3.330   4.495   3.272  1.5720 -0.1072  0.4193
 5553SOL    HW228293   3.349   4.485   3.421 -0.2959  0.3459  0.1734
 5554SOL     OW28294   3.549   3.076   8.049  0.1265 -0.5085 -0.3194
 5554SOL    HW128295   3.622   3.043   8.102  0.6334  0.7607 -0.2236
 5554SOL    HW228296   3.527   3.162   8.084  1.8399 -0.7128  1.2376
 5555SOL     OW28297   2.538   0.036   4.839  0.4514  0.4520  0.0963
 5555SOL    HW128298   2.510   4.683   4.841 -0.9664  0.8264 -3.6013
 5555SOL    HW228299   2.632   0.023   4.850  0.6662  1.4468 -0.6702
 5556SOL     OW28300   1.456   2.060   4.975 -0.4680  0.4498 -0.1683
 5556SOL    HW128301   1.424   2.034   4.888 -0.0611 -1.5277  0.2744
 5556SOL    HW228302   1.379   2.099   5.016 -0.7333  0.1850 -0.4093
 5557SOL     OW28303   1.372   2.788  16.858 -0.1002  0.3327 -0.4382
 5557SOL    HW128304   1.427   2.760  16.785  1.0241  0.7021  0.2666
 5557SOL    HW228305   1.285   2.759  16.830  0.7035 -0.1248 -2.5012
 5558SOL     OW28306   0.703   1.627   6.075  0.1697 -0.1283 -0.5409
 5558SOL    HW128307   0.632   1.572   6.041  0.4678  0.7177 -2.5114
 5558SOL    HW228308   0.655   1.703   6.110 -0.5820 -0.6896 -0.3573
 5559SOL     OW28309   1.521   0.541   9.059 -0.5257 -0.7691  0.1968
 5559SOL    HW128310   1.548   0.480   8.990  3.8053  0.1732  1.0510
 5559SOL    HW228311   1.603   0.589   9.069 -0.5046 -1.0380  1.3245
 5560SOL     OW28312   2.076   4.693   3.168  0.0058  0.1980  0.0814
 5560SOL    HW128313   2.157   4.710   3.119  0.9619  1.7431  2.1612
 5560SOL    HW228314   2.018   0.030   3.157 -1.2116 -0.9671 -1.6026
 5561SOL     OW28315   4.313   0.587   4.367 -0.3369 -0.3585  0.2193
 5561SOL    HW128316   4.353   0.667   4.403  1.0424 -1.0020  0.1273
 5561SOL    HW228317   4.285   0.532   4.440 -2.3779 -0.1119 -0.3886
 5562SOL     OW28318   0.023   1.453   7.890  0.1182  0.0237 -0.8715
 5562SOL    HW128319   0.047   1.425   7.978 -1.8345 -0.4712 -0.4864
 5562SOL    HW228320   4.716   1.531   7.919  2.2314  1.3494 -1.0777
 5563SOL     OW28321   2.854   0.765   1.357  0.3604 -0.1860  0.5827
 5563SOL    HW128322   2.780   0.808   1.313  0.2330 -0.7476  0.2434
 5563SOL    HW228323   2.829   0.674   1.340 -1.4241  0.5517 -0.7920
 5564SOL     OW28324   1.322   4.662  12.605 -0.3588  0.1273 -0.3595
 5564SOL    HW128325   1.309   4.580  12.556  3.2475 -1.6186  1.6019
 5564SOL    HW228326   1.364   4.635  12.687 -1.6628 -1.6222 -0.2692
 5565SOL     OW28327   3.833   2.576   7.571 -0.5962 -0.1826 -0.3263
 5565SOL    HW128328   3.756   2.566   7.515 -1.0575  1.0153  0.0988
 5565SOL    HW228329   3.790   2.562   7.655  1.0007 -3.1185 -0.0218
 5566SOL     OW28330   1.948   1.717   4.217  0.2064 -0.2114  0.2850
 5566SOL    HW128331   1.955   1.749   4.127  2.4821 -0.1451  0.5074
 5566SOL    HW228332   1.909   1.629   4.218 -0.9452  0.3030  0.8025
 5567SOL     OW28333   4.236   2.029   8.665 -0.2597  0.1465 -0.3875
 5567SOL    HW128334   4.247   1.947   8.713 -3.4174  1.1165  2.0201
 5567SOL    HW228335   4.286   2.016   8.585  0.1831 -2.1211  0.2588
 5568SOL     OW28336   4.216   4.068  12.940  0.1458 -0.3044  0.5018
 5568SOL    HW128337   4.226   4.147  12.886  1.3136 -0.1670  0.9102
 5568SOL    HW228338   4.133   4.035  12.905  0.9768 -2.0290  0.1809
 5569SOL     OW28339   2.674   1.070   1.811 -0.4746  0.2864  0.2845
 5569SOL    HW128340   2.597   1.116   1.775 -1.0231  1.3031  2.7831
 5569SOL    HW228341   2.725   1.149   1.830  0.8886 -0.5421  0.0116
 5570SOL     OW28342   0.118   0.969   1.094 -0.2434  0.0991  0.3621
 5570SOL    HW128343   0.155   0.922   1.019  1.1794  1.1487  0.4158
 5570SOL    HW228344   0.119   0.900   1.161  0.1844  1.7504  2.0415
 5571SOL     OW28345   0.770   1.525   2.113 -0.1820 -0.5302  0.1565
 5571SOL    HW128346   0.772   1.572   2.030 -2.0362 -0.5122  0.1201
 5571SOL    HW228347   0.745   1.592   2.176  1.3147  2.0777 -2.0561
 5572SOL     OW28348   3.814   2.901   1.511 -0.2243 -0.5031 -0.1321
 5572SOL    HW128349   3.848   2.962   1.576 -1.0571  2.7966 -2.8013
 5572SOL    HW228350   3.789   2.831   1.571  0.6144  1.4355  2.4572
 5573SOL     OW28351   0.974   0.607  11.585 -0.3025 -0.4430  0.0414
 5573SOL    HW128352   0.913   0.644  11.649  0.0355  1.0853 -0.5080
 5573SOL    HW228353   0.957   0.513  11.596  0.2249 -0.6894 -1.2274
 5574SOL     OW28354   4.232   0.888   4.222  0.4935  0.0591 -0.2041
 5574SOL    HW128355   4.218   0.846   4.307  2.4116 -0.2503 -0.0603
 5574SOL    HW228356   4.324   0.911   4.220  0.2984  0.6967 -1.8996
 5575SOL     OW28357   3.759   0.808   5.377  0.4138  0.2045 -0.3348
 5575SOL    HW128358   3.706   0.820   5.298 -0.0213 -0.1330 -0.0948
 5575SOL    HW228359   3.764   0.892   5.422 -1.5748 -1.1172  2.3716
 5576SOL     OW28360   1.259   1.704   3.230 -0.0113  0.3221  0.0637
 5576SOL    HW128361   1.164   1.710   3.234  0.0786  0.7430  1.5737
 5576SOL    HW228362   1.280   1.623   3.183  2.3178  0.1261  1.4044
 5577SOL     OW28363   0.049   1.337  10.109  0.4108 -0.2718  0.6650
 5577SOL    HW128364   0.064   1.391  10.186 -2.5729  1.7174 -0.1668
 5577SOL    HW228365   4.693   1.337  10.103  0.5845  0.8585 -2.0853
 5578SOL     OW28366   2.208   3.530   8.376 -0.3963 -0.3844  0.7006
 5578SOL    HW128367   2.145   3.493   8.437 -0.9687  0.6795  0.7526
 5578SOL    HW228368   2.289   3.542   8.426 -0.2100  0.0674  0.2863
 5579SOL     OW28369   0.558   1.076   5.712  0.2308  0.3988 -0.4233
 5579SOL    HW128370   0.631   1.015   5.705  0.4048  0.6299 -0.6094
 5579SOL    HW228371   0.490   1.009   5.703  1.0604 -0.6153  0.7976
 5580SOL     OW28372   0.973   0.860   8.437 -0.1705  0.0358 -0.6589
 5580SOL    HW128373   0.921   0.899   8.508  1.8544 -0.2730  0.9634
 5580SOL    HW228374   0.999   0.782   8.485 -0.8236  0.0224 -0.3187
 5581SOL     OW28375   1.855   3.185  13.265 -0.1670  0.4749  0.1250
 5581SOL    HW128376   1.821   3.096  13.255  0.3770  0.2325  0.4280
 5581SOL    HW228377   1.950   3.179  13.265 -0.1671  0.5186  1.3714
 5582SOL     OW28378   1.615   2.419   7.480 -0.1673 -0.3179 -0.5675
 5582SOL    HW128379   1.557   2.495   7.485 -0.0132 -0.0253 -3.1950
 5582SOL    HW228380   1.692   2.461   7.441 -1.0902 -0.7196 -2.8535
 5583SOL     OW28381   4.094   1.419   6.860 -0.3732  0.1175 -0.4425
 5583SOL    HW128382   4.113   1.448   6.771  0.8291 -0.7055 -0.4600
 5583SOL    HW228383   4.058   1.332   6.842 -1.0367  0.5563 -1.2297
 5584SOL     OW28384   0.070   3.774   7.727 -0.4025  0.1188 -0.2157
 5584SOL    HW128385   0.096   3.864   7.745 -1.8447  0.0650  2.1751
 5584SOL    HW228386   0.113   3.750   7.645  1.9113 -0.6721  1.2429
 5585SOL     OW28387   2.963   2.949  10.875  0.2463  0.0443  0.3221
 5585SOL    HW128388   2.967   3.013  10.946 -0.2965 -0.5922  0.9209
 5585SOL    HW228389   3.052   2.943  10.838 -0.2394 -0.2246 -0.8034
 5586SOL     OW28390   4.084   4.253   5.956  0.3129  0.1839 -0.6235
 5586SOL    HW128391   4.083   4.168   5.999 -0.8848  0.2189 -0.5900
 5586SOL    HW228392   4.159   4.296   5.999 -1.1472  1.6938  0.4169
 5587SOL     OW28393   0.935   3.848   4.818  0.1594  0.4300  0.3934
 5587SOL    HW128394   0.898   3.778   4.765 -1.4800  1.2336  0.4686
 5587SOL    HW228395   1.023   3.864   4.784  1.4663 -1.9244  2.7495
 5588SOL     OW28396   4.700   1.387   9.557  0.7274  0.6618  0.0143
 5588SOL    HW128397   4.679   1.298   9.587 -2.0643  1.7359  1.2426
 5588SOL    HW228398   0.031   1.408   9.618  0.2593  0.3823  0.6457
 5589SOL     OW28399   3.125   0.126   7.921  0.1925  0.5663 -0.1443
 5589SOL    HW128400   3.031   0.145   7.929  0.5168  2.4783 -0.9027
 5589SOL    HW228401   3.156   0.188   7.987  0.2052  1.1335 -0.6877
 5590SOL     OW28402   3.322   0.723   5.453 -0.1402  0.1310  0.2364
 5590SOL    HW128403   3.320   0.636   5.493 -0.8853 -0.2824 -0.7047
 5590SOL    HW228404   3.238   0.722   5.407 -0.2536 -0.5674  0.4585
 5591SOL     OW28405   0.953   3.050   5.950  0.1683  0.5493 -0.1422
 5591SOL    HW128406   1.011   3.115   5.990 -0.5217  0.7909  0.4817
 5591SOL    HW228407   1.017   2.987   5.917 -0.1992 -0.3769  0.8975
 5592SOL     OW28408   1.929   2.384   1.479 -0.2961 -0.4027 -0.2697
 5592SOL    HW128409   1.992   2.343   1.419  0.4792  1.0969 -0.4788
 5592SOL    HW228410   1.852   2.381   1.422 -0.3992  0.0520 -0.1542
 5593SOL     OW28411   4.559   3.095  15.000 -0.1860  0.5886 -0.3836
 5593SOL    HW128412   4.553   3.001  14.985 -1.7435  0.4880  0.9577
 5593SOL    HW228413   4.493   3.134  14.943 -1.6563 -1.6446 -0.1869
 5594SOL     OW28414   4.727   2.245   7.619 -0.3354  0.0165  0.8015
 5594SOL    HW128415   4.638   2.211   7.610  0.2631 -1.1631 -0.5346
 5594SOL    HW228416   4.713   2.340   7.610  1.1349  0.1217 -0.3426
 5595SOL     OW28417   2.273   3.633  15.355  0.4349  0.6853  0.4785
 5595SOL    HW128418   2.291   3.716  15.313  0.1552  0.6248  0.2388
 5595SOL    HW228419   2.297   3.662  15.443 -0.3467 -1.1830  1.3081
 5596SOL     OW28420   1.943   2.272   9.583 -0.4719 -0.0668 -0.0514
 5596SOL    HW128421   2.023   2.235   9.546  0.5785 -0.3044  2.4310
 5596SOL    HW228422   1.947   2.361   9.549 -0.7043 -0.0882 -0.1344
 5597SOL     OW28423   0.861   3.258   1.548  0.6445 -0.5478  1.0306
 5597SOL    HW128424   0.889   3.198   1.479  1.0466 -1.7407  2.2365
 5597SOL    HW228425   0.945   3.304   1.553  0.1714  0.5966 -1.9870
 5598SOL     OW28426   4.062   0.147   3.632 -0.1640  0.1565 -0.3881
 5598SOL    HW128427   4.027   0.078   3.688 -2.2497  1.9356  0.5125
 5598SOL    HW228428   3.990   0.202   3.600 -2.7080 -2.0282  1.5427
 5599SOL     OW28429   0.133   2.515  12.674  0.0691 -0.4319 -0.2435
 5599SOL    HW128430   0.071   2.442  12.673  1.6731 -1.7969 -0.4177
 5599SOL    HW228431   0.215   2.467  12.657  1.1020  1.5013 -0.7135
 5600SOL     OW28432   4.353   4.163   5.502  0.1993 -0.3661  1.1776
 5600SOL    HW128433   4.263   4.178   5.475  1.0520  0.1188 -1.3884
 5600SOL    HW228434   4.374   4.124   5.417 -1.9741 -0.9176  0.9077
 5601SOL     OW28435   1.237   3.785   8.732  0.3688 -0.0571  0.7496
 5601SOL    HW128436   1.228   3.866   8.783 -1.6907  0.1027  0.1247
 5601SOL    HW228437   1.311   3.802   8.673  1.1486  1.0191  2.0248
 5602SOL     OW28438   3.820   2.024   2.505  0.5585  0.6080 -0.2373
 5602SOL    HW128439   3.868   2.104   2.527 -2.5292  2.3624  0.0196
 5602SOL    HW228440   3.876   1.970   2.450 -1.2900 -0.6991 -0.8049
 5603SOL     OW28441   3.428   3.112  13.458 -0.5856  0.0943  0.2937
 5603SOL    HW128442   3.499   3.052  13.436 -2.4935 -2.1311  0.3181
 5603SOL    HW228443   3.480   3.193  13.459 -1.5643  0.7120  1.3912
 5604SOL     OW28444   2.855   2.412  11.679 -0.3514 -0.3479 -0.0289
 5604SOL    HW128445   2.879   2.474  11.610  0.5880 -1.0269 -0.3129
 5604SOL    HW228446   2.769   2.448  11.700 -1.3225 -2.1900 -0.8497
 5605SOL     OW28447   1.273   2.175   1.621  0.2268  0.5607  0.3730
 5605SOL    HW128448   1.317   2.110   1.676 -2.5576 -0.9824  0.7628
 5605SOL    HW228449   1.200   2.120   1.594  1.0392 -0.6250  0.5570
 5606SOL     OW28450   4.046   1.771   9.615  0.1018  0.0833  0.6904
 5606SOL    HW128451   3.979   1.704   9.614  0.0716  0.1040  1.1317
 5606SOL    HW228452   4.058   1.798   9.706  0.9381 -3.0293  1.4963
 5607SOL     OW28453   0.893   3.537   2.969  0.2237  0.5105  0.2398
 5607SOL    HW128454   0.838   3.584   2.906  0.1075 -0.4461 -0.3675
 5607SOL    HW228455   0.835   3.537   3.045  2.3289  1.4932  1.8628
 5608SOL     OW28456   2.116   0.350   4.111 -0.1134 -0.1123  0.4713
 5608SOL    HW128457   2.170   0.368   4.189 -1.8466  0.1199  1.6239
 5608SOL    HW228458   2.180   0.370   4.043  0.0165 -0.7147  0.4183
 5609SOL     OW28459   4.571   4.531   4.445  0.4059  0.5377  0.1404
 5609SOL    HW128460   4.615   4.615   4.458  3.6901 -0.7019 -2.8350
 5609SOL    HW228461   4.502   4.545   4.381 -0.6554 -0.6277  1.0313
 5610SOL     OW28462   4.384   3.620  16.126  0.1348 -0.4611  0.8265
 5610SOL    HW128463   4.339   3.701  16.103  1.3009 -0.1447 -0.3592
 5610SOL    HW228464   4.444   3.662  16.188 -2.0322  0.6230  2.1619
 5611SOL     OW28465   3.344   2.341  15.323 -0.0549 -0.0805 -0.6399
 5611SOL    HW128466   3.344   2.361  15.229  0.4352 -1.7901 -1.0038
 5611SOL    HW228467   3.289   2.406  15.366  1.7085 -0.4988  2.2596
 5612SOL     OW28468   3.053   0.111   6.679 -0.1930 -0.2582  0.8977
 5612SOL    HW128469   3.102   0.079   6.754  0.7094  0.4583  0.6216
 5612SOL    HW228470   3.115   0.148   6.616 -0.8102  0.6947  0.8529
 5613SOL     OW28471   2.243   1.221  10.545 -0.2428  0.1525 -0.3955
 5613SOL    HW128472   2.308   1.189  10.608  0.7472  2.9823  0.0229
 5613SOL    HW228473   2.265   1.156  10.479 -0.3549 -1.4887  1.1734
 5614SOL     OW28474   4.587   2.119   0.774 -0.2486  0.4954  0.2547
 5614SOL    HW128475   4.649   2.076   0.716 -2.5592 -1.7240 -0.5584
 5614SOL    HW228476   4.567   2.059   0.846 -1.2255 -1.0460 -1.3241
 5615SOL     OW28477   3.282   2.060  14.639 -0.3378  0.4683 -0.0393
 5615SOL    HW128478   3.200   2.085  14.682 -0.0458 -0.7582  1.2495
 5615SOL    HW228479   3.277   2.108  14.557 -0.5044  1.6252  0.6461
 5616SOL     OW28480   4.663   4.580  11.359 -0.4826  0.0790 -0.2006
 5616SOL    HW128481   4.596   4.553  11.422  1.7467 -4.4416  0.2270
 5616SOL    HW228482   4.716   4.502  11.343 -0.6400  0.2588 -1.6104
 5617SOL     OW28483   3.031   1.048   2.388  0.5458  0.7640 -0.2909
 5617SOL    HW128484   3.083   0.979   2.347 -0.2429  0.9010 -1.5194
 5617SOL    HW228485   3.034   1.120   2.325 -1.4914  0.5257 -0.6863
 5618SOL     OW28486   0.919   1.697   5.738  0.3173 -0.1018 -0.5361
 5618SOL    HW128487   0.994   1.699   5.679  1.1639  1.8653  0.5980
 5618SOL    HW228488   0.961   1.678   5.822  0.3334 -3.6466 -1.3489
 5619SOL     OW28489   4.378   2.986   6.319 -0.7608 -0.1842  0.3145
 5619SOL    HW128490   4.386   3.066   6.267 -1.9688 -0.8720 -0.9461
 5619SOL    HW228491   4.366   3.030   6.404  3.4804  1.8270 -0.1295
 5620SOL     OW28492   3.783   0.865  17.517  0.2057  0.4040 -0.3953
 5620SOL    HW128493   3.746   0.920  17.448 -1.7643  0.4391  0.6902
 5620SOL    HW228494   3.829   0.935  17.564 -0.5893  0.1003  0.8426
 5621SOL     OW28495   3.468   4.290   5.446  0.2906  0.6424  0.5099
 5621SOL    HW128496   3.562   4.297   5.459  0.0948  0.8095  1.8151
 5621SOL    HW228497   3.441   4.225   5.512 -0.4228  0.5001  0.0808
 5622SOL     OW28498   2.780   0.523   0.180  0.2869  0.5420  0.3926
 5622SOL    HW128499   2.694   0.561   0.160  0.4658  0.3508 -0.7005
 5622SOL    HW228500   2.786   0.540   0.274 -0.3865  2.3890  0.0940
 5623SOL     OW28501   2.189   2.257  15.127  0.0909 -0.3520  0.0725
 5623SOL    HW128502   2.113   2.274  15.183  1.1583  4.1639  0.1456
 5623SOL    HW228503   2.261   2.290  15.180  0.5193 -0.5094 -0.4130
 5624SOL     OW28504   1.225   4.005   5.370  1.0268  0.0304  0.3571
 5624SOL    HW128505   1.243   4.068   5.301 -0.8782 -0.0143 -0.1605
 5624SOL    HW228506   1.298   3.943   5.360  1.0733  0.2708 -0.7908
 5625SOL     OW28507   1.343   0.918   9.225 -0.4089 -0.0241 -0.5199
 5625SOL    HW128508   1.273   0.942   9.286 -2.0286 -3.0429 -1.1902
 5625SOL    HW228509   1.287   0.886   9.154  0.3288  0.8200 -1.4676
 5626SOL     OW28510   3.690   3.875   2.611  0.2036 -0.0792  0.1854
 5626SOL    HW128511   3.748   3.919   2.674  2.3001 -0.1446 -1.6741
 5626SOL    HW228512   3.700   3.786   2.645  2.3935  0.1982  0.3172
 5627SOL     OW28513   2.774   4.709  14.285  0.7746 -0.5871 -0.4878
 5627SOL    HW128514   2.711   0.030  14.245  0.6390 -0.2998  0.1662
 5627SOL    HW228515   2.722   4.629  14.292 -0.0489 -0.0322 -0.3009
 5628SOL     OW28516   0.999   0.796   3.962 -0.3169  0.1725  0.2471
 5628SOL    HW128517   1.008   0.739   3.885 -0.2079  0.6618 -0.1019
 5628SOL    HW228518   1.086   0.776   3.996  0.1904  3.0947  0.6632
 5629SOL     OW28519   0.369   3.632   6.092 -0.6210  0.7922 -0.4758
 5629SOL    HW128520   0.447   3.591   6.127 -0.3931  2.2066  0.6392
 5629SOL    HW228521   0.391   3.641   5.999 -2.6741 -0.1897 -1.0518
 5630SOL     OW28522   2.854   1.353  13.434 -0.0178  0.0546 -0.7307
 5630SOL    HW128523   2.915   1.419  13.402  1.4840 -0.2982  1.3786
 5630SOL    HW228524   2.791   1.400  13.488  0.6261 -1.6657  1.5238
 5631SOL     OW28525   3.562   2.178   5.892  0.0018 -0.5703  0.4834
 5631SOL    HW128526   3.470   2.184   5.866  0.0881 -0.0308  0.3061
 5631SOL    HW228527   3.597   2.138   5.813  3.3188  0.4926  1.4504
 5632SOL     OW28528   2.874   1.015   8.898  0.0636 -0.1011 -0.4573
 5632SOL    HW128529   2.906   0.929   8.924 -0.8952 -1.2349 -3.0618
 5632SOL    HW228530   2.863   1.050   8.987  2.5374  1.7534 -0.8704
 5633SOL     OW28531   2.135   3.487  14.682  0.0806 -1.1673 -0.1929
 5633SOL    HW128532   2.207   3.457  14.626  0.3542 -0.5919 -0.1487
 5633SOL    HW228533   2.177   3.523  14.760  0.0258  1.2059 -1.2800
 5634SOL     OW28534   2.905   4.381  15.405  0.0553 -0.2525  0.5492
 5634SOL    HW128535   2.833   4.322  15.429 -0.5358  0.0453 -0.4897
 5634SOL    HW228536   2.925   4.424  15.488 -0.5160  1.9460 -0.4517
 5635SOL     OW28537   2.537   3.952   6.893 -0.2354 -0.1774 -0.8008
 5635SOL    HW128538   2.499   3.920   6.975 -1.2971  1.4735 -0.6538
 5635SOL    HW228539   2.627   3.922   6.887 -0.1361 -0.2008  0.9150
 5636SOL     OW28540   1.927   0.757   8.668  0.2681 -0.5817  0.4543
 5636SOL    HW128541   2.010   0.730   8.708  1.2046 -0.5191 -1.4713
 5636SOL    HW228542   1.945   0.849   8.652  1.5586 -0.5946  1.8257
 5637SOL     OW28543   1.713   3.940   9.340 -0.1553  0.8499  0.5660
 5637SOL    HW128544   1.705   3.845   9.339  2.0023  0.6693  0.0864
 5637SOL    HW228545   1.727   3.949   9.434  1.0691 -0.4283  0.5007
 5638SOL     OW28546   1.803   2.696   7.044  0.3817  0.0759  0.3717
 5638SOL    HW128547   1.774   2.743   6.966  1.5327  1.5907  0.8504
 5638SOL    HW228548   1.804   2.609   7.005  2.2790 -0.2985  1.2629
 5639SOL     OW28549   1.808   2.010  10.043  0.5013 -0.4801  0.8139
 5639SOL    HW128550   1.850   1.925  10.058 -0.6155 -1.0365  0.7721
 5639SOL    HW228551   1.881   2.068  10.067 -0.5455  1.1193  0.1269
 5640SOL     OW28552   3.694   0.934   7.170  0.0446  0.6702  0.2956
 5640SOL    HW128553   3.772   0.988   7.163  0.6990 -0.0957  1.5925
 5640SOL    HW228554   3.622   0.985   7.133 -0.6121  0.4194  1.1992
 5641SOL     OW28555   4.130   4.410   1.509  0.4491 -0.3936 -0.0805
 5641SOL    HW128556   4.110   4.443   1.421  0.5280 -0.3990 -0.1007
 5641SOL    HW228557   4.204   4.354   1.483  0.6202  0.1558 -0.7911
 5642SOL     OW28558   4.626   0.176   6.807  0.0968  0.0500 -0.0633
 5642SOL    HW128559   4.717   0.207   6.816 -0.4521  1.4310  0.7015
 5642SOL    HW228560   4.610   0.193   6.714  4.6352  2.0409 -0.5138
 5643SOL     OW28561   2.302   0.366   2.005  0.4682 -1.3079 -0.4588
 5643SOL    HW128562   2.346   0.430   1.950  0.4413  0.3614  1.4823
 5643SOL    HW228563   2.381   0.335   2.050  1.3152 -0.0797 -1.0867
 5644SOL     OW28564   1.127   3.123   8.375 -0.5646 -0.0408  0.3790
 5644SOL    HW128565   1.168   3.037   8.361  1.5910  1.1747 -0.8228
 5644SOL    HW228566   1.124   3.136   8.470  0.9695  1.5984  0.2129
 5645SOL     OW28567   2.313   1.492   8.049  0.2606 -0.1330 -0.2819
 5645SOL    HW128568   2.290   1.415   8.102 -1.2687 -0.0147 -0.7603
 5645SOL    HW228569   2.263   1.561   8.092  1.8468  1.3577 -0.8146
 5646SOL     OW28570   0.199   4.047  12.878 -0.1539 -0.0290 -0.1910
 5646SOL    HW128571   0.249   3.996  12.942 -1.2482  1.5368  1.9058
 5646SOL    HW228572   0.266   4.115  12.867 -1.0418  1.0511  0.9908
 5647SOL     OW28573   3.119   0.827  11.143  0.0829 -0.3486  0.8512
 5647SOL    HW128574   3.155   0.832  11.054 -0.3862  3.9933  0.8726
 5647SOL    HW228575   3.149   0.743  11.176  0.1172 -1.4520 -1.9990
 5648SOL     OW28576   3.436   3.353   7.108 -0.1456  0.3576 -0.1205
 5648SOL    HW128577   3.351   3.312   7.124  0.2716 -0.6390 -0.4613
 5648SOL    HW228578   3.499   3.292   7.147 -0.4426  1.1349  1.6032
 5649SOL     OW28579   1.165   0.354   4.253  0.2939 -0.1417  0.3888
 5649SOL    HW128580   1.147   0.262   4.237  1.4742 -0.4440  0.7808
 5649SOL    HW228581   1.244   0.352   4.308  1.3026 -1.3076 -1.1179
 5650SOL     OW28582   0.534   3.387   4.642  0.1923 -0.0096 -0.6017
 5650SOL    HW128583   0.549   3.428   4.726 -1.1592 -0.3368 -0.2007
 5650SOL    HW228584   0.614   3.335   4.636 -0.2072 -0.5639 -1.1675
 5651SOL     OW28585   3.546   0.092   4.707  0.2239 -0.6651  0.3635
 5651SOL    HW128586   3.453   0.115   4.710  1.1084  2.7272  0.8209
 5651SOL    HW228587   3.575   0.175   4.671  0.0981 -0.2148  1.2904
 5652SOL     OW28588   1.749   2.829   6.032  0.2682  0.3798 -0.0110
 5652SOL    HW128589   1.756   2.734   6.041 -2.8212  0.0096 -1.3275
 5652SOL    HW228590   1.785   2.842   5.944  1.2833 -0.3358  0.3040
 5653SOL     OW28591   0.136   3.695   6.794  0.3156  0.6227  0.2537
 5653SOL    HW128592   0.044   3.704   6.820 -0.1620 -0.9627 -0.8488
 5653SOL    HW228593   0.159   3.786   6.811  0.3542  0.8199 -0.8691
 5654SOL     OW28594   4.475   1.247   8.582  0.1956 -0.4914 -0.5831
 5654SOL    HW128595   4.474   1.191   8.659  0.9218  1.5095  0.8829
 5654SOL    HW228596   4.555   1.216   8.539  2.1284  0.3924  2.4112
 5655SOL     OW28597   0.520   0.542   2.163 -0.1601 -0.8164  0.2464
 5655SOL    HW128598   0.479   0.589   2.090  0.2388  0.8346  1.0878
 5655SOL    HW228599   0.460   0.572   2.231  2.8713  1.1361  2.0860
 5656SOL     OW28600   2.607   4.049   3.721  0.1157  0.0048 -0.6758
 5656SOL    HW128601   2.597   4.108   3.796  1.9681 -0.1160 -0.3285
 5656SOL    HW228602   2.636   4.106   3.650 -2.3918  0.8605 -1.0096
 5657SOL     OW28603   1.765   1.884   6.318 -0.2623 -0.3976 -0.0503
 5657SOL    HW128604   1.852   1.907   6.352  0.0505 -3.2810  1.1232
 5657SOL    HW228605   1.711   1.894   6.396 -0.0076  1.1675 -0.0768
 5658SOL     OW28606   2.433   0.327   8.131  0.4235  0.2552  0.1772
 5658SOL    HW128607   2.468   0.244   8.099 -0.0755  0.3801 -0.6935
 5658SOL    HW228608   2.406   0.376   8.053 -2.5843 -1.9440 -0.1355
 5659SOL     OW28609   1.269   4.001   0.860  0.0234 -0.1163  0.2968
 5659SOL    HW128610   1.286   4.094   0.876 -0.5734  0.1793 -0.7871
 5659SOL    HW228611   1.356   3.969   0.833  0.3134 -1.3101  2.6234
 5660SOL     OW28612   4.250   4.739  13.798 -0.1507  0.3065  0.3098
 5660SOL    HW128613   4.261   0.007  13.893 -4.7217  0.8725  0.8138
 5660SOL    HW228614   4.223   0.090  13.780  0.1337  0.4315  0.5128
 5661SOL     OW28615   4.078   2.377   6.387 -0.4769  0.5335  0.2854
 5661SOL    HW128616   4.006   2.334   6.433  0.3578 -2.0253 -0.7865
 5661SOL    HW228617   4.032   2.454   6.354 -1.0684  0.7889  1.7347
 5662SOL     OW28618   3.181   0.560   2.804  0.1159 -0.3548  0.1757
 5662SOL    HW128619   3.108   0.511   2.840 -2.4748  2.2575 -1.5669
 5662SOL    HW228620   3.203   0.520   2.720 -1.7586  2.5502 -1.7086
 5663SOL     OW28621   1.655   4.604  11.243 -0.1081 -0.0932 -0.0213
 5663SOL    HW128622   1.599   4.681  11.247  1.3100  0.8246  2.3684
 5663SOL    HW228623   1.633   4.547  11.169  1.9956 -2.1973  0.9880
 5664SOL     OW28624   2.304   0.913   3.005 -0.0806  0.2228  0.2368
 5664SOL    HW128625   2.272   0.892   2.917  0.1329 -0.2877  0.2856
 5664SOL    HW228626   2.286   1.006   3.023  1.2590  0.2072  1.6278
 5665SOL     OW28627   3.768   0.132   5.525  0.4751  0.0066 -0.3279
 5665SOL    HW128628   3.820   0.131   5.605 -0.4940  0.7184  0.3053
 5665SOL    HW228629   3.832   0.159   5.459  1.1376 -0.1640  0.2396
 5666SOL     OW28630   4.675   4.058   8.121 -0.0606 -0.2363 -0.5101
 5666SOL    HW128631   4.730   4.116   8.173 -0.1065  0.1811 -0.9263
 5666SOL    HW228632   4.685   4.086   8.030 -0.9251 -0.0944 -0.5603
 5667SOL     OW28633   0.319   3.682  13.960 -0.2018 -0.6490  0.7128
 5667SOL    HW128634   0.321   3.640  13.874  0.7288  0.3970  0.2297
 5667SOL    HW228635   0.342   3.612  14.020  1.7619  0.7645  1.6049
 5668SOL     OW28636   3.239   0.660  11.349 -0.3011  0.3290  0.0069
 5668SOL    HW128637   3.210   0.661  11.440  1.4128 -0.8010  0.5452
 5668SOL    HW228638   3.314   0.718  11.360  0.6544 -1.1525  1.3091
 5669SOL     OW28639   1.429   1.349   3.670 -0.0350 -0.5333  0.3482
 5669SOL    HW128640   1.359   1.286   3.685 -0.8023  0.3202  0.3547
 5669SOL    HW228641   1.399   1.377   3.583  0.6183  3.2414  1.3444
 5670SOL     OW28642   0.386   2.172   6.490  0.0826 -0.0623  0.0072
 5670SOL    HW128643   0.384   2.267   6.506 -0.7584 -0.0663 -0.0722
 5670SOL    HW228644   0.293   2.168   6.512 -0.0525 -0.3517 -0.6297
 5671SOL     OW28645   4.282   1.180   4.241  0.4815 -0.0397  0.4908
 5671SOL    HW128646   4.190   1.178   4.212  0.2069  1.3475  1.2652
 5671SOL    HW228647   4.276   1.234   4.319 -0.2060 -2.1373  1.8788
 5672SOL     OW28648   2.175   2.104   7.604  0.2174  0.4044  0.2055
 5672SOL    HW128649   2.268   2.116   7.622  0.0127  1.9039  0.3269
 5672SOL    HW228650   2.159   2.191   7.566  0.4961  1.1548  1.7762
 5673SOL     OW28651   1.633   2.619   9.214 -0.1650  0.2225 -0.2511
 5673SOL    HW128652   1.612   2.707   9.246 -1.7978  0.1510 -1.1495
 5673SOL    HW228653   1.602   2.566   9.288 -0.8027 -0.0039 -0.6805
 5674SOL     OW28654   2.280   4.574   5.821  0.1850  1.1542  0.3897
 5674SOL    HW128655   2.285   4.495   5.768  0.3353  0.7580  0.9985
 5674SOL    HW228656   2.320   4.637   5.762 -1.9456  1.5288 -0.6505
 5675SOL     OW28657   2.104   3.539  17.039 -0.3529  0.3194 -0.2325
 5675SOL    HW128658   2.082   3.614  17.094 -1.0412 -1.2212  1.5552
 5675SOL    HW228659   2.102   3.577  16.950  1.3843 -1.9852 -1.2445
 5676SOL     OW28660   2.849   3.784   8.425  0.2249 -0.3583 -0.5534
 5676SOL    HW128661   2.915   3.779   8.494 -0.3010  0.1836 -0.0095
 5676SOL    HW228662   2.778   3.806   8.486  0.5968  0.0384 -0.2619
 5677SOL     OW28663   4.503   3.197  17.657  0.3226 -0.4220  0.1506
 5677SOL    HW128664   4.500   3.249  17.737  0.0181  3.9204 -2.6598
 5677SOL    HW228665   4.434   3.133  17.678  1.3080 -1.7423 -0.6598
 5678SOL     OW28666   1.293   3.876   7.206  0.3300 -0.1175  0.0406
 5678SOL    HW128667   1.387   3.862   7.193 -0.0858 -1.5004 -1.5061
 5678SOL    HW228668   1.292   3.893   7.300 -0.8028  3.0054 -0.5564
 5679SOL     OW28669   2.690   4.592  17.072  0.3110  0.6175  0.1170
 5679SOL    HW128670   2.745   4.514  17.069 -1.9544 -0.9548 -0.7835
 5679SOL    HW228671   2.704   4.632  17.158  0.9852 -0.5647  0.5545
 5680SOL     OW28672   2.165   3.813  10.142 -0.0850  0.0475  0.5311
 5680SOL    HW128673   2.217   3.854  10.211  1.1809  0.8976 -0.9190
 5680SOL    HW228674   2.159   3.884  10.078 -1.3567 -1.4743 -1.0584
 5681SOL     OW28675   3.774   0.570   2.600  0.3582 -0.0273  0.1585
 5681SOL    HW128676   3.720   0.559   2.522  0.2083 -1.3264  0.4437
 5681SOL    HW228677   3.711   0.587   2.670  1.4885 -1.8633  1.6221
 5682SOL     OW28678   0.412   4.501   7.889 -0.3931 -0.1953 -0.1137
 5682SOL    HW128679   0.444   4.579   7.933  0.4868 -0.1936 -0.7643
 5682SOL    HW228680   0.359   4.461   7.958 -1.1949 -2.3169 -1.9189
 5683SOL     OW28681   2.857   0.171   7.368  0.4534  0.1721  0.3900
 5683SOL    HW128682   2.813   0.154   7.451 -0.2300 -1.9846 -0.4324
 5683SOL    HW228683   2.787   0.160   7.304  0.8117 -2.5668  0.5081
 5684SOL     OW28684   4.565   1.959   2.765  0.4865 -0.6029  0.1046
 5684SOL    HW128685   4.500   2.012   2.721  2.2746  2.1242  0.7719
 5684SOL    HW228686   4.563   1.880   2.711 -1.8238 -1.0966  0.9233
 5685SOL     OW28687   1.096   1.071  12.162 -0.1561  0.3756 -0.0780
 5685SOL    HW128688   1.019   1.124  12.181 -0.1986 -0.0302  0.9102
 5685SOL    HW228689   1.153   1.138  12.125 -0.3999  0.4335 -0.3463
 5686SOL     OW28690   1.358   2.103  15.480 -0.3029  0.3513  0.3571
 5686SOL    HW128691   1.434   2.142  15.523  0.5865 -1.6247  0.6060
 5686SOL    HW228692   1.377   2.009  15.471 -1.7417  0.2882 -2.0363
 5687SOL     OW28693   1.486   0.638  11.396  0.3963  0.2180 -0.1023
 5687SOL    HW128694   1.514   0.560  11.443 -0.5022  0.0051  0.0941
 5687SOL    HW228695   1.397   0.657  11.428  1.4096 -2.1991  4.1073
 5688SOL     OW28696   1.477   3.969   9.734  0.0044  0.1948 -0.2459
 5688SOL    HW128697   1.535   4.025   9.682 -1.5822  1.2129 -0.8907
 5688SOL    HW228698   1.483   3.890   9.680 -1.0428 -0.7482  1.0263
 5689SOL     OW28699   3.304   1.608   6.673 -0.3420  0.6859 -0.0407
 5689SOL    HW128700   3.249   1.648   6.605 -0.3042  0.7978 -0.0049
 5689SOL    HW228701   3.263   1.656   6.745 -2.5122  0.2034 -0.9462
 5690SOL     OW28702   1.314   2.928   3.562  0.0577 -0.6073  0.5899
 5690SOL    HW128703   1.282   2.867   3.629 -0.1651 -0.0142  1.0241
 5690SOL    HW228704   1.330   2.873   3.486  0.0218 -0.0713  0.1975
 5691SOL     OW28705   1.692   0.928   7.658  0.3462  0.0651  0.5993
 5691SOL    HW128706   1.676   0.994   7.591  0.5709 -0.5644 -0.0827
 5691SOL    HW228707   1.774   0.893   7.622 -0.3174 -1.4366  0.5661
 5692SOL     OW28708   1.880   3.270   8.787 -0.1397  0.1657 -0.5499
 5692SOL    HW128709   1.889   3.227   8.871 -0.2023  0.5335 -0.3543
 5692SOL    HW228710   1.926   3.207   8.731 -1.4174 -1.1915 -0.0537
 5693SOL     OW28711   2.695   1.859   2.562  0.3485 -0.2536 -1.0263
 5693SOL    HW128712   2.730   1.841   2.650  0.5726 -0.6214 -1.1882
 5693SOL    HW228713   2.608   1.885   2.591  1.4847  0.4789  1.7087
 5694SOL     OW28714   1.260   2.213   5.130 -0.7060 -0.2048  0.2150
 5694SOL    HW128715   1.244   2.174   5.216  0.3419 -0.4067  0.3283
 5694SOL    HW228716   1.173   2.210   5.090  0.2487 -1.2454 -1.8303
 5695SOL     OW28717   2.602   2.952  15.002  0.2429 -0.2121 -0.1193
 5695SOL    HW128718   2.540   2.915  14.940 -1.4905  3.0207 -0.3253
 5695SOL    HW228719   2.588   3.044  14.977 -1.1958 -1.0156 -2.1992
 5696SOL     OW28720   4.619   4.565  11.086 -0.3524 -0.1469  0.7486
 5696SOL    HW128721   4.631   4.586  11.179 -0.0185 -2.5489  1.2464
 5696SOL    HW228722   4.536   4.517  11.084 -0.0025 -0.7464  0.3867
 5697SOL     OW28723   3.955   2.472   9.105  0.3653 -0.2912  0.0462
 5697SOL    HW128724   3.935   2.381   9.129 -2.7687 -0.3045 -2.5252
 5697SOL    HW228725   3.866   2.508   9.106 -0.9099 -3.3991  0.7404
 5698SOL     OW28726   2.629   3.539   6.343  0.3110 -0.0277  0.3634
 5698SOL    HW128727   2.559   3.533   6.408  0.5661 -0.1733  0.6268
 5698SOL    HW228728   2.591   3.478   6.280  1.6289 -1.2358  0.7429
 5699SOL     OW28729   4.622   4.680   1.899 -0.0189 -0.3470  0.3472
 5699SOL    HW128730   4.665   0.008   1.952  1.0657 -0.4516 -0.3911
 5699SOL    HW228731   4.626   4.723   1.813 -1.3990  1.8568  1.4080
 5700SOL     OW28732   3.656   1.575   8.892 -0.2908  0.0925 -0.0016
 5700SOL    HW128733   3.741   1.572   8.936 -1.2461 -0.3409  1.8246
 5700SOL    HW228734   3.604   1.589   8.972 -1.5426 -0.4357 -0.7192
 5701SOL     OW28735   2.531   2.023   2.272 -0.4284  0.1483  0.3931
 5701SOL    HW128736   2.526   2.088   2.202 -0.0750 -0.1558  0.0866
 5701SOL    HW228737   2.437   2.011   2.285 -0.7789  2.9686  0.3433
 5702SOL     OW28738   1.621   0.088  15.904 -0.3216  0.2495 -0.4207
 5702SOL    HW128739   1.697   0.087  15.962  0.2122 -0.8221 -1.1399
 5702SOL    HW228740   1.644   0.016  15.846 -0.6283 -1.6049  1.7784
 5703SOL     OW28741   2.155   2.651  11.216  0.1362  0.0204  0.1251
 5703SOL    HW128742   2.221   2.706  11.258 -0.1801  0.8637 -0.4661
 5703SOL    HW228743   2.072   2.698  11.209  0.6482  0.9719  0.4266
 5704SOL     OW28744   1.693   1.214   5.205 -0.5125  0.3066  0.2273
 5704SOL    HW128745   1.689   1.122   5.176  1.2606  0.3184 -0.0794
 5704SOL    HW228746   1.764   1.252   5.153  0.2441  0.0208  1.0459
 5705SOL     OW28747   3.713   2.517  17.677  0.6023  0.3070  0.1454
 5705SOL    HW128748   3.782   2.459  17.709 -0.2191 -1.3720 -1.1472
 5705SOL    HW228749   3.745   2.536  17.589 -0.6838 -2.3900 -0.8966
 5706SOL     OW28750   4.328   0.312  12.833 -0.0097  0.0580 -0.3666
 5706SOL    HW128751   4.340   0.306  12.928 -1.5375 -2.1995 -0.3430
 5706SOL    HW228752   4.418   0.313  12.800  0.3342  0.5734  0.5708
 5707SOL     OW28753   4.193   2.868   3.536 -0.0742 -0.3420  0.2932
 5707SOL    HW128754   4.199   2.879   3.441  0.3222 -2.3880  0.0788
 5707SOL    HW228755   4.285   2.854   3.557  0.0722  0.1438 -0.0315
 5708SOL     OW28756   1.596   2.157   4.528 -0.3003 -0.4566  0.2499
 5708SOL    HW128757   1.624   2.234   4.478 -1.5587  0.2199  0.5757
 5708SOL    HW228758   1.648   2.156   4.608 -0.0661 -0.6355  0.0952
 5709SOL     OW28759   3.708   0.199   5.143 -0.0473  0.2139 -0.1186
 5709SOL    HW128760   3.719   0.276   5.199  0.2863 -1.1139  1.6316
 5709SOL    HW228761   3.618   0.192   5.173 -0.7592  1.0551 -2.0157
 5710SOL     OW28762   4.555   2.045   9.676  0.7046  0.8037  0.1878
 5710SOL    HW128763   4.581   2.072   9.764 -0.5495  2.8349 -0.0583
 5710SOL    HW228764   4.464   2.019   9.689 -0.0015  3.4159  0.5023
 5711SOL     OW28765   4.727   1.547   6.340 -0.1702 -0.2007 -0.6257
 5711SOL    HW128766   4.673   1.596   6.278 -0.1436 -0.8696 -1.1860
 5711SOL    HW228767   0.077   1.567   6.310  0.0060 -0.7054 -0.4465
 5712SOL     OW28768   0.831   0.060   0.554 -0.4099  0.1354 -0.1136
 5712SOL    HW128769   0.759   0.013   0.511  1.3139  0.7516 -3.7316
 5712SOL    HW228770   0.866   0.107   0.478 -1.4144  0.3764 -0.4368
 5713SOL     OW28771   2.459   0.577   1.880 -0.7135  0.2498  0.5473
 5713SOL    HW128772   2.425   0.666   1.884 -3.2137 -0.7065  0.7218
 5713SOL    HW228773   2.548   0.590   1.847 -0.5836  0.9610  1.1897
 5714SOL     OW28774   4.007   2.041  14.164 -0.1051  0.1419  0.2395
 5714SOL    HW128775   4.014   2.079  14.252 -0.5260 -2.3351  1.3626
 5714SOL    HW228776   3.932   1.984  14.182  1.3139 -2.2248 -1.3499
 5715SOL     OW28777   0.233   4.313   4.820 -0.5974  0.4348 -0.4012
 5715SOL    HW128778   0.217   4.332   4.912  1.1993  2.3028 -0.4722
 5715SOL    HW228779   0.215   4.219   4.815 -0.9085  0.3383  2.7020
 5716SOL     OW28780   4.280   4.337  12.289 -0.8302 -0.5883  0.3692
 5716SOL    HW128781   4.298   4.416  12.239 -0.9402 -0.0339  1.2057
 5716SOL    HW228782   4.360   4.327  12.340  0.5385  0.5031 -1.5975
 5717SOL     OW28783   1.326   3.022   4.791 -0.3192  0.4098  0.3943
 5717SOL    HW128784   1.323   3.093   4.856  2.0121 -0.9970  1.9995
 5717SOL    HW228785   1.415   2.989   4.797 -0.5760 -0.5804 -1.0750
 5718SOL     OW28786   3.970   3.924   0.547  0.2839  0.0646  0.8677
 5718SOL    HW128787   3.993   3.904   0.457 -0.4716  0.8859  0.4986
 5718SOL    HW228788   3.880   3.948   0.529  0.3549  0.7623  1.4439
 5719SOL     OW28789   2.364   4.467  13.195 -0.6307  0.4157  0.2410
 5719SOL    HW128790   2.357   4.489  13.288  2.4168  1.0958  0.3163
 5719SOL    HW228791   2.330   4.378  13.203 -1.5203  0.6916 -0.5080
 5720SOL     OW28792   0.535   4.614  16.800 -0.1900  1.0255  0.3280
 5720SOL    HW128793   0.486   4.594  16.720  0.9200 -1.5602  0.2897
 5720SOL    HW228794   0.614   4.631  16.750 -2.0230  4.5623 -1.3472
 5721SOL     OW28795   0.940   1.678   7.948  0.4484  0.0650  1.2956
 5721SOL    HW128796   0.977   1.677   7.860  1.1873  2.0430  1.5820
 5721SOL    HW228797   0.892   1.595   7.956 -1.1514  0.8054 -0.7166
 5722SOL     OW28798   2.467   2.287  15.223 -0.0539  0.1868  0.1590
 5722SOL    HW128799   2.540   2.253  15.274  0.9919 -1.0598 -2.1686
 5722SOL    HW228800   2.496   2.375  15.199  0.2646  0.0986  0.2183
 5723SOL     OW28801   2.643   3.638   1.270 -0.0330 -1.3133  0.0165
 5723SOL    HW128802   2.696   3.714   1.293  0.6883 -2.0590  0.8220
 5723SOL    HW228803   2.671   3.564   1.323  0.6181 -0.6589  0.5842
 5724SOL     OW28804   0.880   2.335   2.446  0.2575 -0.2107 -0.3498
 5724SOL    HW128805   0.961   2.285   2.433  0.4650  0.4858 -1.7455
 5724SOL    HW228806   0.897   2.420   2.406  1.4798 -0.3950 -0.2413
 5725SOL     OW28807   2.224   1.313   8.242 -0.7171  0.5660 -0.4752
 5725SOL    HW128808   2.136   1.325   8.277 -0.2068  1.8822  0.3584
 5725SOL    HW228809   2.274   1.294   8.321  0.7775  2.2093 -1.0095
 5726SOL     OW28810   1.646   3.905   8.940  0.0427  0.0984  0.2037
 5726SOL    HW128811   1.732   3.863   8.932  0.1711  0.2410  0.9157
 5726SOL    HW228812   1.675   3.991   8.909 -2.4211 -0.1361 -2.8522
 5727SOL     OW28813   0.748   0.776   7.997 -0.3486 -0.3042  0.3959
 5727SOL    HW128814   0.793   0.711   8.051 -0.8479 -1.4141 -0.5276
 5727SOL    HW228815   0.664   0.786   8.041 -0.2845  1.4705  0.1343
 5728SOL     OW28816   4.715   0.356  12.126  0.1647 -0.1011  0.1332
 5728SOL    HW128817   4.661   0.335  12.203 -1.2259 -0.5758 -0.9814
 5728SOL    HW228818   4.704   0.449  12.107  0.4996 -0.8088 -3.4081
 5729SOL     OW28819   1.223   3.147  12.646  0.1106 -0.1644  0.2815
 5729SOL    HW128820   1.307   3.112  12.675 -0.5823 -1.7957  0.3186
 5729SOL    HW228821   1.217   3.228  12.697  2.7498  0.4240 -0.3754
 5730SOL     OW28822   4.579   3.464   2.852  0.4665  0.6683  0.6016
 5730SOL    HW128823   4.573   3.492   2.761  1.5650 -1.3944 -0.1175
 5730SOL    HW228824   4.672   3.454   2.873  0.0771 -0.7296  1.6217
 5731SOL     OW28825   4.008   1.701  14.478 -0.1696  0.2070  0.2501
 5731SOL    HW128826   4.045   1.638  14.540 -0.1073 -0.6948 -0.7050
 5731SOL    HW228827   4.082   1.762  14.485 -0.4519  0.3367  2.0853
 5732SOL     OW28828   2.968   2.420   5.250  0.2103  0.6875 -0.0473
 5732SOL    HW128829   2.900   2.426   5.183 -1.0060 -1.0360  1.0264
 5732SOL    HW228830   3.034   2.462   5.196  1.8668 -0.1872  1.2995
 5733SOL     OW28831   3.599   0.544  14.133  0.2375  0.0513  0.1781
 5733SOL    HW128832   3.555   0.611  14.185 -0.8486  0.3291 -1.0869
 5733SOL    HW228833   3.555   0.460  14.141  1.4014 -0.4505  1.2668
 5734SOL     OW28834   2.748   3.160   6.894 -0.1074  0.1811  0.3872
 5734SOL    HW128835   2.719   3.098   6.828  1.2548  0.2156 -0.2352
 5734SOL    HW228836   2.725   3.246   6.859  2.4953  0.7915  0.1432
 5735SOL     OW28837   0.081   3.548   5.838  0.1073 -0.6814  0.1091
 5735SOL    HW128838   0.043   3.555   5.925 -0.4106 -1.9030 -0.0247
 5735SOL    HW228839   0.011   3.576   5.779 -0.4683 -1.7803  0.2740
 5736SOL     OW28840   2.297   2.600   8.757  0.4250  0.1400 -0.4220
 5736SOL    HW128841   2.375   2.555   8.788  0.6244  0.4593 -0.4642
 5736SOL    HW228842   2.291   2.562   8.669  0.9739 -0.6468 -0.1148
 5737SOL     OW28843   1.085   4.436  14.507 -0.0691 -0.5773  0.0065
 5737SOL    HW128844   1.118   4.508  14.453  1.3055  0.2782  1.9689
 5737SOL    HW228845   1.164   4.420  14.560 -0.5003  1.2936  1.2166
 5738SOL     OW28846   0.178   3.654   3.404 -0.0260  0.4780  0.2146
 5738SOL    HW128847   0.149   3.660   3.313 -2.4338 -1.6346  0.8561
 5738SOL    HW228848   0.183   3.561   3.423 -2.4949  0.3211 -0.0071
 5739SOL     OW28849   1.968   3.501   1.573 -0.1857  0.1191  0.4559
 5739SOL    HW128850   1.906   3.442   1.617 -0.9249 -0.1572 -0.9556
 5739SOL    HW228851   2.046   3.446   1.573 -0.2140  0.0785  0.5284
 5740SOL     OW28852   1.063   3.483   9.632 -0.3488 -0.2652  0.1366
 5740SOL    HW128853   1.075   3.394   9.666  1.3518 -0.5035 -1.0755
 5740SOL    HW228854   1.042   3.464   9.540  0.9414 -2.7623  0.3397
 5741SOL     OW28855   4.424   2.721   6.629 -0.5021  0.2216 -0.0549
 5741SOL    HW128856   4.366   2.667   6.575  0.1696 -0.3378 -0.2136
 5741SOL    HW228857   4.396   2.810   6.610  0.4180 -0.2182 -3.5179
 5742SOL     OW28858   3.098   0.180  17.589 -0.0526 -0.3821 -0.0812
 5742SOL    HW128859   3.124   0.272  17.590 -1.2874 -0.0384  0.4208
 5742SOL    HW228860   3.031   0.194  17.656  0.1861 -0.7459  0.2293
 5743SOL     OW28861   4.252   3.074   2.757  0.2663  0.0874 -0.1482
 5743SOL    HW128862   4.210   3.079   2.672 -0.4728  0.2081  0.2289
 5743SOL    HW228863   4.329   3.021   2.737  1.3258  1.1748  0.9971
 5744SOL     OW28864   3.248   1.574   2.920  0.1444  0.1218 -0.1376
 5744SOL    HW128865   3.232   1.484   2.947  0.1759  0.1620  0.0136
 5744SOL    HW228866   3.182   1.574   2.851  2.9069  0.7954 -2.7552
 5745SOL     OW28867   0.213   3.936   8.207 -0.4176 -0.3072 -0.1461
 5745SOL    HW128868   0.122   3.932   8.236 -1.0827 -1.1886 -2.3901
 5745SOL    HW228869   0.250   3.998   8.270 -0.7150 -0.5544  0.2675
 5746SOL     OW28870   4.666   4.370   7.754  0.5117  0.1480 -0.7070
 5746SOL    HW128871   4.717   4.428   7.697 -1.3818  1.3240 -1.1800
 5746SOL    HW228872   4.717   4.367   7.835  1.4221 -1.8804 -1.3486
 5747SOL     OW28873   4.494   0.339   8.752 -0.2796  0.7159 -0.2205
 5747SOL    HW128874   4.488   0.434   8.741 -1.6137  0.7450  0.7369
 5747SOL    HW228875   4.495   0.334   8.847 -1.8397  0.7933 -0.1972
 5748SOL     OW28876   1.572   1.251   4.390  0.1947 -0.9020  0.0794
 5748SOL    HW128877   1.594   1.180   4.451  0.0156 -2.2623 -1.4414
 5748SOL    HW228878   1.644   1.232   4.331  0.9732  1.7192  0.1601
 5749SOL     OW28879   4.292   0.071   3.325  0.3212 -0.7535  0.9011
 5749SOL    HW128880   4.282   4.715   3.317 -1.5003 -0.2802 -2.2223
 5749SOL    HW228881   4.229   0.093   3.257 -1.7477 -1.1323  2.7122
 5750SOL     OW28882   0.815   4.055   6.807  0.6919 -0.0899 -0.4722
 5750SOL    HW128883   0.815   4.090   6.896  0.3911 -1.1985 -0.0291
 5750SOL    HW228884   0.906   4.039   6.782 -0.3857 -3.7106 -2.0898
 5751SOL     OW28885   0.623   1.689   9.316  0.5739 -0.5880 -0.1939
 5751SOL    HW128886   0.712   1.724   9.313  0.4243 -0.0936  0.9756
 5751SOL    HW228887   0.577   1.748   9.256  0.6968  1.2280  1.4808
 5752SOL     OW28888   0.401   1.727  11.610  0.1755  0.0727  0.3382
 5752SOL    HW128889   0.331   1.678  11.654  0.9677  0.4932  2.0710
 5752SOL    HW228890   0.354   1.809  11.594  0.0604 -0.0620 -0.0125
 5753SOL     OW28891   2.619   2.025  14.502 -0.3539 -0.2692  0.5057
 5753SOL    HW128892   2.675   1.953  14.472 -1.9308 -0.7145 -1.4002
 5753SOL    HW228893   2.633   2.079  14.424  1.1096 -1.1821  0.1318
 5754SOL     OW28894   0.498   3.451   2.143 -0.0805 -0.5488 -0.4045
 5754SOL    HW128895   0.514   3.397   2.066 -1.5118  0.1832 -1.2019
 5754SOL    HW228896   0.478   3.378   2.202  0.0960 -0.0538  0.2674
 5755SOL     OW28897   1.595   1.023   0.298 -0.3391 -0.5260  0.2457
 5755SOL    HW128898   1.621   1.113   0.315 -1.0274 -0.1125 -0.8942
 5755SOL    HW228899   1.642   1.008   0.216 -1.7503  1.2624 -0.9053
 5756SOL     OW28900   1.230   3.432  11.041 -0.0181 -0.2058 -0.4184
 5756SOL    HW128901   1.259   3.481  11.119  3.6126  0.1275 -2.0212
 5756SOL    HW228902   1.314   3.398  11.012  0.4166  0.5846 -0.0868
 5757SOL     OW28903   3.476   0.379   3.796  0.0491  0.3665  0.2433
 5757SOL    HW128904   3.470   0.371   3.891  4.3426 -0.2039  0.4854
 5757SOL    HW228905   3.452   0.295   3.756 -0.6313  0.4762  0.4158
 5758SOL     OW28906   1.034   3.717   4.230  0.2100  0.4967 -0.2538
 5758SOL    HW128907   1.017   3.719   4.136 -1.0239  0.6369 -0.0331
 5758SOL    HW228908   1.126   3.691   4.226 -0.0295 -0.3325 -0.4519
 5759SOL     OW28909   0.507   3.085   5.211 -0.6789 -0.3519 -0.3271
 5759SOL    HW128910   0.444   3.153   5.234 -2.5890 -2.9826  2.2425
 5759SOL    HW228911   0.525   3.056   5.300 -0.1425  0.0526 -0.3056
 5760SOL     OW28912   0.960   4.152  12.823  0.4042 -0.0223  0.4500
 5760SOL    HW128913   0.949   4.244  12.846  0.7845  0.6131 -1.8534
 5760SOL    HW228914   0.962   4.159  12.727 -0.4827  0.0538  0.4362
 5761SOL     OW28915   0.560   2.948   8.448  0.0191 -0.2450  0.0872
 5761SOL    HW128916   0.519   2.919   8.366 -1.3481 -0.8819  0.9833
 5761SOL    HW228917   0.588   2.871   8.498 -1.2048 -0.4291  0.4866
 5762SOL     OW28918   3.841   4.102   0.347 -0.1239 -0.3190 -0.3483
 5762SOL    HW128919   3.797   4.084   0.430  0.9896 -3.3541 -0.4181
 5762SOL    HW228920   3.826   4.028   0.289  1.0655 -1.5858  0.9493
 5763SOL     OW28921   4.725   2.453   9.503 -0.4430  0.8918  0.3158
 5763SOL    HW128922   4.636   2.482   9.484 -1.1924 -0.9319  1.0206
 5763SOL    HW228923   0.024   2.528   9.550 -0.3883  2.3829 -2.1116
 5764SOL     OW28924   2.089   3.256   3.458  0.0641 -0.0604 -0.1282
 5764SOL    HW128925   2.045   3.172   3.473 -0.3674  0.4623  1.5309
 5764SOL    HW228926   2.067   3.289   3.545  0.3064 -1.2704  0.3794
 5765SOL     OW28927   0.497   2.416  11.344 -0.8677 -0.0252 -0.0283
 5765SOL    HW128928   0.549   2.336  11.355 -1.4324 -0.5501 -1.0629
 5765SOL    HW228929   0.508   2.442  11.252  0.2710 -0.5254 -0.0354
 5766SOL     OW28930   3.447   1.217   8.771  0.2692  0.6052 -0.3106
 5766SOL    HW128931   3.398   1.148   8.817  0.2404 -0.6443 -2.2241
 5766SOL    HW228932   3.416   1.211   8.681 -0.1348 -1.6319 -0.0260
 5767SOL     OW28933   2.704   0.471   6.439  0.1913  0.1445 -0.3056
 5767SOL    HW128934   2.649   0.392   6.439 -0.0815  0.3359 -0.5506
 5767SOL    HW228935   2.785   0.427   6.414  0.3072  1.6381 -2.5348
 5768SOL     OW28936   0.488   0.342   5.682 -0.4239  0.4291 -0.0689
 5768SOL    HW128937   0.518   0.339   5.592  1.8338  1.8274  0.6455
 5768SOL    HW228938   0.424   0.271   5.676  1.4730 -1.2738 -0.3775
 5769SOL     OW28939   4.253   2.449   9.296  0.3791  0.6377  0.0576
 5769SOL    HW128940   4.260   2.354   9.311 -0.8425  0.7196  1.1929
 5769SOL    HW228941   4.277   2.455   9.204 -1.2928 -1.0751 -0.4911
 5770SOL     OW28942   3.514   4.513  14.357 -0.4061 -0.1027  0.0463
 5770SOL    HW128943   3.578   4.502  14.427 -0.1479  0.2873 -0.1306
 5770SOL    HW228944   3.565   4.571  14.300 -1.4200 -0.5811 -1.3528
 5771SOL     OW28945   3.608   0.906   4.628  0.1481 -0.0319 -0.1212
 5771SOL    HW128946   3.649   0.953   4.701 -1.0664  2.0484 -0.7667
 5771SOL    HW228947   3.603   0.816   4.659  1.4104  0.2336  0.8183
 5772SOL     OW28948   4.030   2.847   7.619  0.2173  0.2768 -0.0448
 5772SOL    HW128949   4.038   2.777   7.684  1.2274 -0.9872 -1.5364
 5772SOL    HW228950   4.029   2.924   7.677 -0.3616  1.4310 -1.5707
 5773SOL     OW28951   2.234   3.145  14.619 -0.2866  0.2147  0.1417
 5773SOL    HW128952   2.153   3.145  14.567 -0.0999  1.8448 -0.1409
 5773SOL    HW228953   2.276   3.226  14.591  0.8444 -0.3106  0.3477
 5774SOL     OW28954   2.708   4.532  11.122 -0.0593 -0.1089  0.2123
 5774SOL    HW128955   2.723   4.622  11.093 -0.7598 -0.2075 -0.4271
 5774SOL    HW228956   2.742   4.503  11.037  0.5717  2.0705 -0.2946
 5775SOL     OW28957   0.634   3.078   0.780 -0.0733  0.9221 -0.4529
 5775SOL    HW128958   0.675   2.995   0.805 -0.2111  1.2336  0.8254
 5775SOL    HW228959   0.696   3.144   0.750  1.5551 -0.4303 -0.0176
 5776SOL     OW28960   4.625   3.384   5.431 -0.1966  0.8036 -0.2346
 5776SOL    HW128961   4.692   3.427   5.379  0.8588 -0.5349  0.0109
 5776SOL    HW228962   4.670   3.319   5.485 -2.7551  1.5701  2.8466
 5777SOL     OW28963   4.209   0.116  10.858 -0.4202  0.8326 -0.3500
 5777SOL    HW128964   4.226   0.025  10.834  1.6362  1.5395 -1.5432
 5777SOL    HW228965   4.208   0.152  10.769  1.6115 -1.4834 -1.3384
 5778SOL     OW28966   3.436   4.399   3.568 -0.9808 -0.1157 -0.4626
 5778SOL    HW128967   3.506   4.464   3.560  0.3376 -1.3702  0.8519
 5778SOL    HW228968   3.490   4.321   3.580  1.2863  1.1650 -2.2756
 5779SOL     OW28969   0.565   0.350  13.879  0.1203  0.3400 -0.0408
 5779SOL    HW128970   0.512   0.425  13.850 -0.8750 -0.4110 -0.1403
 5779SOL    HW228971   0.554   0.353  13.974 -0.4834 -1.9007 -0.0389
 5780SOL     OW28972   0.821   1.496   7.231 -0.0416 -0.1524 -0.1957
 5780SOL    HW128973   0.748   1.546   7.196 -1.0989 -0.7775  1.1120
 5780SOL    HW228974   0.772   1.432   7.284  1.3208  0.4907  1.8354
 5781SOL     OW28975   3.991   4.441   8.081  0.1568  0.1572 -0.7084
 5781SOL    HW128976   3.902   4.460   8.052 -0.4883 -0.1969  1.0848
 5781SOL    HW228977   4.038   4.441   7.997  1.3638  0.0210 -0.0372
 5782SOL     OW28978   0.229   2.025   4.933  0.0000  0.0076 -0.2356
 5782SOL    HW128979   0.190   2.065   4.855 -0.1790  1.0933  0.4192
 5782SOL    HW228980   0.172   1.949   4.949 -1.0677  1.2344  1.7420
 5783SOL     OW28981   1.650   2.389   5.717 -0.7361  0.2178 -0.6913
 5783SOL    HW128982   1.705   2.446   5.771 -1.1828  0.6114 -0.6533
 5783SOL    HW228983   1.569   2.429   5.746  0.6771  3.7762 -1.6388
 5784SOL     OW28984   3.962   3.937  17.094 -0.1024 -0.2995 -0.2011
 5784SOL    HW128985   3.938   4.008  17.154 -0.2254 -0.6618  0.1819
 5784SOL    HW228986   3.975   3.982  17.011  0.0998  0.5238  0.2729
 5785SOL     OW28987   4.333   4.448  14.085  0.3350  0.4674 -0.6521
 5785SOL    HW128988   4.394   4.399  14.030 -0.7317 -0.4922 -0.9918
 5785SOL    HW228989   4.283   4.373  14.118  1.7957  0.2366  0.9743
 5786SOL     OW28990   4.077   2.298   2.742 -0.1457 -0.1793  0.2490
 5786SOL    HW128991   4.161   2.270   2.778 -0.0712 -1.4490 -0.9138
 5786SOL    HW228992   4.062   2.374   2.798  1.1634  0.7165 -0.6239
 5787SOL     OW28993   3.765   0.278   4.256  0.2837 -0.8320  0.0222
 5787SOL    HW128994   3.733   0.360   4.219 -0.9337 -1.3421 -0.0623
 5787SOL    HW228995   3.854   0.284   4.220  0.5428  2.2989  1.1559
 5788SOL     OW28996   0.676   3.636   4.231 -0.3966  0.2425 -0.4296
 5788SOL    HW128997   0.615   3.704   4.201  1.1234  0.4696 -3.0764
 5788SOL    HW228998   0.709   3.593   4.152  0.0489 -2.1878  1.0952
 5789SOL     OW28999   3.855   0.428   8.151  0.3286  0.6106  0.1812
 5789SOL    HW129000   3.913   0.460   8.082  0.7161 -2.0555 -0.7338
 5789SOL    HW229001   3.773   0.426   8.101 -0.1988 -1.5460  1.0976
 5790SOL     OW29002   2.724   3.130   2.863  0.2165  0.5651 -0.3610
 5790SOL    HW129003   2.719   3.153   2.770  0.2336 -1.7941 -0.9499
 5790SOL    HW229004   2.676   3.202   2.905 -0.5282  0.0439 -0.3138
 5791SOL     OW29005   0.725   2.996   4.535  0.2583  0.9281 -0.2181
 5791SOL    HW129006   0.766   2.982   4.450  0.8754 -0.5268  0.3215
 5791SOL    HW229007   0.685   2.909   4.544  0.5088  1.1848  3.4634
 5792SOL     OW29008   0.769   3.441   2.268  0.6950 -0.5060  0.1148
 5792SOL    HW129009   0.828   3.480   2.203 -1.1552  1.5343 -0.3305
 5792SOL    HW229010   0.689   3.443   2.215  0.4001 -1.4938  0.5183
 5793SOL     OW29011   2.082   2.280   6.542  0.1786  0.0558 -0.3112
 5793SOL    HW129012   2.120   2.265   6.456 -0.3774 -2.2923 -0.1408
 5793SOL    HW229013   2.113   2.367   6.568  1.5098 -0.8228  1.0133
 5794SOL     OW29014   1.417   2.593   5.838  0.2978  0.2549 -0.2514
 5794SOL    HW129015   1.367   2.541   5.776  1.3111 -0.6183 -0.3419
 5794SOL    HW229016   1.410   2.553   5.925 -0.3138  0.9007 -0.0021
 5795SOL     OW29017   3.245   4.636  12.554 -0.4242 -0.2179 -0.1954
 5795SOL    HW129018   3.161   4.649  12.599 -0.3071 -1.2761  0.3330
 5795SOL    HW229019   3.299   4.579  12.608  1.4417  1.0674 -0.7300
 5796SOL     OW29020   3.706   2.121  17.527  0.5218  0.5161 -0.1028
 5796SOL    HW129021   3.711   2.101  17.434 -0.0124 -1.1408  0.2187
 5796SOL    HW229022   3.616   2.151  17.541  0.1397 -0.2572 -0.8879
 5797SOL     OW29023   3.649   2.353   7.713  0.2522  0.4963  0.4967
 5797SOL    HW129024   3.685   2.341   7.801 -3.3986 -1.0907  1.7636
 5797SOL    HW229025   3.623   2.445   7.711 -0.1863  0.4240  2.8309
 5798SOL     OW29026   3.618   0.378   8.017 -0.0276 -0.1409 -0.0477
 5798SOL    HW129027   3.610   0.308   8.082  1.8212 -0.8625 -0.5961
 5798SOL    HW229028   3.525   0.401   8.012  0.0214 -0.1412 -0.9891
 5799SOL     OW29029   2.565   2.833   6.159  0.3960 -0.2824 -0.2520
 5799SOL    HW129030   2.588   2.925   6.163  2.1375 -0.7357 -0.0551
 5799SOL    HW229031   2.487   2.818   6.214  1.2365 -1.0683  0.7186
 5800SOL     OW29032   3.113   0.561   1.818 -0.0723  0.0337  0.2806
 5800SOL    HW129033   3.083   0.650   1.840 -1.2779 -0.5510  1.0029
 5800SOL    HW229034   3.206   0.586   1.817  0.0105 -0.2062  2.5049
 5801SOL     OW29035   0.699   0.548   3.313  0.1008 -0.4632 -0.1171
 5801SOL    HW129036   0.633   0.597   3.361  0.5504 -0.6854  0.7318
 5801SOL    HW229037   0.745   0.621   3.271 -2.3750  0.9201 -0.4043
 5802SOL     OW29038   0.193   3.457   6.201 -0.0658  0.3654 -0.1794
 5802SOL    HW129039   0.271   3.479   6.151  0.4600 -1.7084 -0.2531
 5802SOL    HW229040   0.203   3.514   6.277 -2.1747  0.7870 -0.2072
 5803SOL     OW29041   3.523   4.160   2.627  0.0823  0.2841  0.4906
 5803SOL    HW129042   3.476   4.235   2.663  1.3929  1.0205  0.6534
 5803SOL    HW229043   3.584   4.204   2.568 -0.0280 -0.7650 -0.4071
 5804SOL     OW29044   1.916   0.748   5.455  0.0746 -0.2536  0.0773
 5804SOL    HW129045   1.969   0.742   5.376 -0.3603  0.6223 -0.2697
 5804SOL    HW229046   1.972   0.695   5.513 -2.4940 -0.7508  2.0956
 5805SOL     OW29047   3.802   0.206   2.154  0.5777 -0.1390  0.1079
 5805SOL    HW129048   3.755   0.288   2.137  0.0428 -0.5310 -0.3453
 5805SOL    HW229049   3.892   0.236   2.154  0.8054 -0.7982  4.7983
 5806SOL     OW29050   3.825   2.687   4.297 -0.4573  0.4360  0.4736
 5806SOL    HW129051   3.859   2.598   4.289  0.2951  0.4754  3.2713
 5806SOL    HW229052   3.733   2.672   4.277 -0.8913  1.3966  1.7522
 5807SOL     OW29053   3.948   4.118  11.385  0.2045  0.5555 -0.4553
 5807SOL    HW129054   3.932   4.202  11.342 -1.9735  0.1501 -0.4187
 5807SOL    HW229055   3.907   4.126  11.472  0.1204  2.7168 -0.6832
 5808SOL     OW29056   2.008   3.300  14.919 -0.1601  0.3205 -0.1916
 5808SOL    HW129057   1.936   3.350  14.881  0.2740  0.8625 -0.3006
 5808SOL    HW229058   2.064   3.303  14.841  1.2865  0.6162  0.8540
 5809SOL     OW29059   2.349   4.501  17.559 -0.1027  0.2993 -0.0337
 5809SOL    HW129060   2.287   4.452  17.506  1.4096 -0.3337 -1.2165
 5809SOL    HW229061   2.424   4.513  17.499 -0.5641 -2.1257 -1.0887
 5810SOL     OW29062   2.467   1.918   6.659 -0.1995 -0.1719 -0.0599
 5810SOL    HW129063   2.403   1.988   6.649  0.3903  0.3408 -0.2369
 5810SOL    HW229064   2.472   1.916   6.754  0.4885  1.4593 -0.0669
 5811SOL     OW29065   2.826   0.141   0.627 -0.9751 -0.3037 -0.1227
 5811SOL    HW129066   2.896   0.094   0.673  2.1285  3.1020 -1.3334
 5811SOL    HW229067   2.758   0.074   0.629 -0.8156 -0.5104 -1.3488
 5812SOL     OW29068   2.033   4.571   3.553 -0.2435 -0.2351 -0.5612
 5812SOL    HW129069   2.055   4.572   3.647  2.3774  2.6328 -1.2343
 5812SOL    HW229070   1.941   4.593   3.563 -0.5786 -0.6016 -2.8636
 5813SOL     OW29071   0.287   3.676   8.700  0.2722 -1.0722 -0.6193
 5813SOL    HW129072   0.230   3.746   8.732  1.9679  0.5079 -1.0373
 5813SOL    HW229073   0.272   3.688   8.606  1.9129  0.3444 -0.7072
 5814SOL     OW29074   1.030   1.193   4.235 -0.6136 -0.3829  0.1361
 5814SOL    HW129075   1.042   1.098   4.229  1.6066 -0.1025  0.0409
 5814SOL    HW229076   1.097   1.218   4.298 -1.2324  1.6675 -0.0405
 5815SOL     OW29077   4.076   3.390  17.374  0.0206  0.0730 -0.1743
 5815SOL    HW129078   4.100   3.463  17.316  1.2043 -1.8763 -2.1226
 5815SOL    HW229079   4.043   3.444  17.446 -1.3491  1.4554 -1.8144
 5816SOL     OW29080   0.543   2.819   5.944 -0.2272 -0.4491 -0.0235
 5816SOL    HW129081   0.571   2.865   6.023  0.8441  0.7558 -1.1141
 5816SOL    HW229082   0.622   2.766   5.938 -0.2222 -0.2919 -1.3318
 5817SOL     OW29083   2.408   3.295   4.293  0.4807  0.0739  0.5368
 5817SOL    HW129084   2.378   3.380   4.327 -0.9982 -1.0217  1.9808
 5817SOL    HW229085   2.426   3.325   4.204 -1.7406  0.2973  0.1580
 5818SOL     OW29086   1.329   0.704   8.624  0.4035  0.0256 -0.2274
 5818SOL    HW129087   1.357   0.739   8.709  2.2539 -3.6957  0.6791
 5818SOL    HW229088   1.408   0.664   8.588  1.2978  0.6522  1.0348
 5819SOL     OW29089   2.373   1.659   9.735  0.6571  0.3917  0.1707
 5819SOL    HW129090   2.381   1.567   9.760  0.4149 -0.0844 -1.5646
 5819SOL    HW229091   2.398   1.664   9.643  2.0255  0.0230  0.5297
 5820SOL     OW29092   0.691   3.680   6.295 -0.2859 -0.3968 -0.1254
 5820SOL    HW129093   0.611   3.645   6.333  0.8858 -2.2216  0.6647
 5820SOL    HW229094   0.664   3.769   6.272 -0.6598 -0.2934  0.7458
 5821SOL     OW29095   0.630   2.729   4.489 -0.6479  0.5112  0.0891
 5821SOL    HW129096   0.558   2.667   4.503 -0.8894  0.9087  0.5968
 5821SOL    HW229097   0.683   2.677   4.429 -1.2560  0.0539 -0.0520
 5822SOL     OW29098   2.496   0.327   0.651  0.3776  0.0084  0.2563
 5822SOL    HW129099   2.408   0.365   0.643  1.5339  2.4732 -0.4596
 5822SOL    HW229100   2.504   0.253   0.591 -0.1178  2.4262 -2.7643
 5823SOL     OW29101   3.101   2.387   9.163  0.3951  0.2114 -0.7303
 5823SOL    HW129102   3.086   2.418   9.074 -1.6698  0.5019 -0.2602
 5823SOL    HW229103   3.012   2.362   9.187 -0.0581  0.0766 -2.5691
 5824SOL     OW29104   4.033   3.311   5.401  0.0904 -0.9802 -0.3245
 5824SOL    HW129105   4.081   3.247   5.453  0.3457 -0.5199  0.0039
 5824SOL    HW229106   4.054   3.394   5.444  1.2843 -1.2790 -0.3532
 5825SOL     OW29107   2.799   2.883   7.541 -0.1250 -0.7048 -0.2486
 5825SOL    HW129108   2.749   2.931   7.607 -1.0025 -3.0460  0.7778
 5825SOL    HW229109   2.815   2.946   7.470  0.3836 -0.3513  0.1852
 5826SOL     OW29110   0.292   0.869  16.474 -0.4441 -0.6112 -0.6002
 5826SOL    HW129111   0.198   0.874  16.488 -0.6475 -0.8648 -1.8388
 5826SOL    HW229112   0.328   0.900  16.558 -1.3741 -0.5908 -0.2170
 5827SOL     OW29113   1.496   0.019   0.014 -0.2230  0.2272 -0.7146
 5827SOL    HW129114   1.519   0.036  17.677  1.3499 -2.0354 -0.7213
 5827SOL    HW229115   1.540   4.676   0.035 -0.1656  0.8702  1.7462
 5828SOL     OW29116   2.425   0.101   4.458 -0.5055 -0.4100 -0.0345
 5828SOL    HW129117   2.352   0.047   4.427 -0.7437  0.0138 -0.2096
 5828SOL    HW229118   2.397   0.106   4.549  0.3757 -1.7092  0.3225
 5829SOL     OW29119   1.332   4.490   3.390 -0.2270 -0.2871 -0.8073
 5829SOL    HW129120   1.403   4.536   3.345 -0.8690  1.9490  0.4520
 5829SOL    HW229121   1.304   4.428   3.323 -0.2195 -3.3092  2.0159
 5830SOL     OW29122   3.719   3.991   0.601 -0.1328 -0.3263 -0.2319
 5830SOL    HW129123   3.643   3.935   0.614  1.3104 -2.2020  0.2642
 5830SOL    HW229124   3.710   4.043   0.680 -0.4397 -2.3577  1.0666
 5831SOL     OW29125   3.141   1.041   5.489 -0.7652 -0.0876  0.1196
 5831SOL    HW129126   3.085   1.050   5.412 -0.7933  1.2250  0.3089
 5831SOL    HW229127   3.148   0.945   5.489 -0.8557 -0.0942 -0.2210
 5832SOL     OW29128   2.055   4.436   8.784 -0.2064  0.1550 -0.0304
 5832SOL    HW129129   2.018   4.448   8.697  0.5819 -1.5114 -0.5930
 5832SOL    HW229130   1.991   4.377   8.824  1.5062 -1.7731 -0.0963
 5833SOL     OW29131   1.301   2.836   7.179  0.0645  0.1835  0.1703
 5833SOL    HW129132   1.268   2.809   7.093  0.9892  1.1546 -0.4858
 5833SOL    HW229133   1.288   2.754   7.227  1.2945  0.3249  0.7458
 5834SOL     OW29134   3.714   3.226   1.873 -0.6659 -0.1109  0.4773
 5834SOL    HW129135   3.766   3.291   1.919  0.0223 -0.2642 -0.0868
 5834SOL    HW229136   3.689   3.175   1.950 -0.6366 -0.2788  0.3771
 5835SOL     OW29137   4.592   2.625   3.384  0.7734 -0.1097  0.4957
 5835SOL    HW129138   4.664   2.688   3.389  0.5376  0.3767 -2.6786
 5835SOL    HW229139   4.522   2.674   3.341  0.5124 -1.8533 -1.0693
 5836SOL     OW29140   0.783   4.589   1.207  0.2333 -0.3521  0.0452
 5836SOL    HW129141   0.852   4.528   1.179 -0.1339 -0.5719 -0.3892
 5836SOL    HW229142   0.753   4.549   1.288  0.8084  0.2299  0.5380
 5837SOL     OW29143   0.947   2.847  11.965  0.1073  0.2026 -0.3193
 5837SOL    HW129144   0.889   2.912  12.004  2.0629 -0.0618  3.0671
 5837SOL    HW229145   1.002   2.913  11.922 -1.7136  0.9278 -1.5221
 5838SOL     OW29146   4.136   0.374   7.215  0.6633  0.2806  0.1889
 5838SOL    HW129147   4.133   0.289   7.259  2.0348 -0.6229 -1.4762
 5838SOL    HW229148   4.144   0.349   7.123 -1.0873 -0.7929  0.3221
 5839SOL     OW29149   4.038   2.082  14.442 -0.2955 -0.0571  0.5373
 5839SOL    HW129150   4.018   2.146  14.511  0.8837 -0.3792  1.1769
 5839SOL    HW229151   4.034   1.999  14.490 -1.1872 -0.4898 -0.2883
 5840SOL     OW29152   2.106   1.529  15.321  0.5148  0.1272  0.4840
 5840SOL    HW129153   2.130   1.508  15.231  0.4563 -0.7513  0.6749
 5840SOL    HW229154   2.182   1.488  15.363  0.7389 -1.7580 -1.7612
 5841SOL     OW29155   1.603   1.062   3.567 -0.0894  0.1964  0.0835
 5841SOL    HW129156   1.508   1.065   3.562 -0.1256 -1.5170 -0.1889
 5841SOL    HW229157   1.619   1.079   3.660 -1.0633  0.5966  0.1776
 5842SOL     OW29158   0.715   0.319   5.863  0.2377 -0.0743  0.8122
 5842SOL    HW129159   0.665   0.347   5.786  0.3927 -0.8029  0.4467
 5842SOL    HW229160   0.806   0.334   5.838  0.2967 -2.5617 -0.5347
 5843SOL     OW29161   2.167   4.288   0.023  0.2158  0.0674 -0.0514
 5843SOL    HW129162   2.135   4.199   0.028  1.4670 -0.4168 -0.5455
 5843SOL    HW229163   2.097   4.323  17.722  0.9117 -2.0154 -2.2487
 5844SOL     OW29164   0.698   2.262   3.758  0.0256  0.6610  0.3209
 5844SOL    HW129165   0.790   2.236   3.768  0.5765  3.5381  2.6613
 5844SOL    HW229166   0.693   2.261   3.663  1.3297 -1.8833  0.2498
 5845SOL     OW29167   2.331   2.784   6.315  0.2424 -0.2037 -0.5959
 5845SOL    HW129168   2.355   2.747   6.400  1.8256 -0.3807 -1.1189
 5845SOL    HW229169   2.261   2.723   6.291 -1.0972  1.1894 -0.2648
 5846SOL     OW29170   1.644   1.028  16.180  0.1428 -0.1000  0.2142
 5846SOL    HW129171   1.591   0.965  16.131  0.3383  1.0983 -1.5284
 5846SOL    HW229172   1.730   0.997  16.153  0.0975 -0.6235  0.6631
 5847SOL     OW29173   2.054   3.767   1.461 -0.3576 -0.5002  0.3435
 5847SOL    HW129174   2.025   3.796   1.548 -2.0780  0.1158 -0.4282
 5847SOL    HW229175   2.050   3.673   1.475  1.7672 -0.2432  2.5972
 5848SOL     OW29176   3.415   3.288   2.581 -0.1042  0.2504  0.5730
 5848SOL    HW129177   3.503   3.271   2.614  1.0982 -0.2717 -2.8347
 5848SOL    HW229178   3.368   3.208   2.604 -2.2496  0.6501 -2.3562
 5849SOL     OW29179   3.051   3.885   8.861  0.4057  0.3255  0.2189
 5849SOL    HW129180   3.025   3.916   8.948  0.5758 -0.6134  0.5979
 5849SOL    HW229181   3.048   3.971   8.820  3.6413  0.3751  0.1490
 5850SOL     OW29182   2.195   1.776   8.033 -0.1600  0.1170  0.2261
 5850SOL    HW129183   2.127   1.826   8.079 -1.1962  0.2646 -1.5009
 5850SOL    HW229184   2.232   1.854   7.992  0.1476 -1.0023 -1.6319
 5851SOL     OW29185   3.831   0.503   7.551 -0.1637  0.0246 -0.0959
 5851SOL    HW129186   3.907   0.478   7.603  0.6865 -1.2358 -1.9320
 5851SOL    HW229187   3.872   0.542   7.474  0.4268 -1.0791 -0.3443
 5852SOL     OW29188   1.901   0.886   2.744  0.3710 -0.0708 -0.9233
 5852SOL    HW129189   1.910   0.945   2.669 -2.7696  1.3591 -0.1822
 5852SOL    HW229190   1.994   0.866   2.751  0.3766  0.5856  0.9860
 5853SOL     OW29191   1.814   3.872   1.370 -0.6173 -0.4919  0.2499
 5853SOL    HW129192   1.781   3.950   1.414  1.5362 -0.1102  1.2067
 5853SOL    HW229193   1.866   3.833   1.441  0.5256 -0.5564 -0.6322
 5854SOL     OW29194   4.623   3.287  14.669  0.5345 -0.7051  0.4248
 5854SOL    HW129195   4.657   3.372  14.641 -3.2500  0.2496 -1.2776
 5854SOL    HW229196   4.590   3.313  14.755 -1.0477 -0.0647 -0.3690
 5855SOL     OW29197   3.493   2.125   7.823 -0.0379  0.5413 -0.1253
 5855SOL    HW129198   3.455   2.071   7.754 -1.1608 -2.0164  2.4989
 5855SOL    HW229199   3.537   2.195   7.774 -0.0432  1.5986  1.3900
 5856SOL     OW29200   4.405   0.700   0.366 -0.2245 -0.6022  0.1017
 5856SOL    HW129201   4.358   0.756   0.303 -0.4422 -0.2925  0.5408
 5856SOL    HW229202   4.437   0.633   0.306  2.2312 -0.5770  1.3670
 5857SOL     OW29203   2.466   0.746   2.750  0.5114  0.1285  0.0557
 5857SOL    HW129204   2.496   0.691   2.679  1.2220  0.3490  0.1837
 5857SOL    HW229205   2.469   0.687   2.825  1.3842  2.5705  1.9432
 5858SOL     OW29206   4.223   2.566   5.009 -0.0184 -0.3304  0.0678
 5858SOL    HW129207   4.252   2.655   4.989  1.2934 -0.5565  0.9471
 5858SOL    HW229208   4.308   2.528   5.029  0.3537 -0.0536 -0.9839
 5859SOL     OW29209   0.021   4.430   3.148  0.3311  0.1204 -0.7515
 5859SOL    HW129210   0.037   4.426   3.242 -3.6835  0.7955 -0.0497
 5859SOL    HW229211   0.099   4.391   3.108  0.7579 -1.5314  1.6951
 5860SOL     OW29212   1.304   4.151   5.597 -0.7762 -0.2837  0.4792
 5860SOL    HW129213   1.244   4.144   5.523  0.3947  0.3406 -0.5438
 5860SOL    HW229214   1.336   4.064   5.622 -0.6513  0.2983  2.3573
 5861SOL     OW29215   4.241   3.830  16.817  0.1936 -0.4111 -0.4665
 5861SOL    HW129216   4.174   3.875  16.868  0.2247  0.8744 -1.5704
 5861SOL    HW229217   4.233   3.879  16.735  0.7785  0.5918  0.0774
 5862SOL     OW29218   4.244   2.487   7.761  0.0613 -0.0748 -0.2887
 5862SOL    HW129219   4.279   2.569   7.723  2.3142  0.0901  2.1910
 5862SOL    HW229220   4.316   2.471   7.822  1.1951  1.7615 -1.1310
 5863SOL     OW29221   1.084   2.485   5.627  0.1118 -0.0863  0.1922
 5863SOL    HW129222   1.048   2.551   5.687  2.4491  0.5697  0.8760
 5863SOL    HW229223   1.155   2.534   5.586  1.1648 -0.7134  1.2509
 5864SOL     OW29224   2.596   1.010   1.466  0.5466  0.0091 -0.2542
 5864SOL    HW129225   2.640   1.094   1.455  0.8845  0.1771  2.2221
 5864SOL    HW229226   2.597   0.982   1.375 -1.8440  0.9246 -0.5693
 5865SOL     OW29227   0.335   1.730   7.178  0.1007 -0.6581 -0.7883
 5865SOL    HW129228   0.317   1.823   7.183  1.9279 -0.4489  2.1718
 5865SOL    HW229229   0.274   1.687   7.238 -0.9776 -1.9567 -2.8007
 5866SOL     OW29230   0.992   2.182   5.001  0.4350  0.1214  0.4128
 5866SOL    HW129231   0.915   2.162   5.055 -0.8321 -0.5415 -1.6469
 5866SOL    HW229232   0.969   2.256   4.945  0.9810  0.6220  0.8469
 5867SOL     OW29233   2.463   1.549   0.128  0.1010 -0.0689 -0.2511
 5867SOL    HW129234   2.441   1.501   0.048 -0.1140  0.8851 -0.7557
 5867SOL    HW229235   2.374   1.538   0.163  1.1892 -1.0046  2.2530
 5868SOL     OW29236   0.394   3.357   6.812  0.1587 -0.3518  0.0238
 5868SOL    HW129237   0.352   3.313   6.886  1.2922 -1.4754 -0.0141
 5868SOL    HW229238   0.320   3.405   6.775  0.1464 -1.0711 -0.8915
 5869SOL     OW29239   3.935   0.236  12.328  0.5763 -0.2319  0.3505
 5869SOL    HW129240   3.940   0.262  12.420 -1.6264  0.2183  0.3502
 5869SOL    HW229241   3.840   0.225  12.321  0.7943 -0.6527 -2.0588
 5870SOL     OW29242   2.907   2.216   2.600 -0.1688 -0.2339 -0.8543
 5870SOL    HW129243   2.820   2.231   2.564 -1.4209 -2.7988  1.0832
 5870SOL    HW229244   2.926   2.124   2.583  1.0592  0.3503 -2.7395
 5871SOL     OW29245   2.680   1.893  16.019  0.5649 -0.1331 -0.1445
 5871SOL    HW129246   2.589   1.922  16.006  1.3148  2.1749 -0.1898
 5871SOL    HW229247   2.726   1.964  16.064 -0.6858 -1.0176  2.5594
 5872SOL     OW29248   3.642   2.441   1.962 -0.2150 -0.0463 -0.0745
 5872SOL    HW129249   3.683   2.355   1.976 -1.3634 -0.7625 -1.1740
 5872SOL    HW229250   3.718   2.491   1.991  0.1254 -1.5749  1.7487
 5873SOL     OW29251   4.266   1.997  16.214  0.0139 -0.2686 -0.3511
 5873SOL    HW129252   4.279   1.998  16.309  2.9464  0.6212 -0.7737
 5873SOL    HW229253   4.329   2.066  16.192  1.4160 -0.9150  1.6633
 5874SOL     OW29254   1.802   1.706   1.973  0.3267 -0.3858  0.0069
 5874SOL    HW129255   1.722   1.656   1.955  0.0694  0.1010 -0.1929
 5874SOL    HW229256   1.764   1.792   1.988  0.4880 -0.3574  0.2413
 5875SOL     OW29257   4.585   3.996   3.441  0.0155 -0.0392 -0.0182
 5875SOL    HW129258   4.651   4.023   3.377  0.4096 -0.7368  0.0948
 5875SOL    HW229259   4.637   3.942   3.501 -0.8571  1.2522  1.8880
 5876SOL     OW29260   2.355   3.139   7.304 -0.3818  0.3605 -0.7278
 5876SOL    HW129261   2.403   3.058   7.289  0.4815  0.6360  0.4894
 5876SOL    HW229262   2.403   3.211   7.263 -1.8069  1.5535 -0.3083
 5877SOL     OW29263   3.562   4.359  13.711 -0.7036  0.3402 -0.4795
 5877SOL    HW129264   3.492   4.425  13.713  0.3228  1.4249 -0.2677
 5877SOL    HW229265   3.622   4.418  13.665  2.3595 -2.6159 -0.1944
 5878SOL     OW29266   4.417   2.064   1.927 -0.6081 -0.1713 -0.3565
 5878SOL    HW129267   4.355   1.996   1.901  0.4674 -1.2599 -0.0675
 5878SOL    HW229268   4.440   2.100   1.841  1.2493 -0.2631  0.0961
 5879SOL     OW29269   3.706   0.248  15.431  0.0424 -0.0249 -0.3575
 5879SOL    HW129270   3.683   0.186  15.501  0.4594  2.3204  1.8814
 5879SOL    HW229271   3.702   0.333  15.474 -1.4029  0.2275 -1.0016
 5880SOL     OW29272   2.608   0.119   5.787 -0.1495  0.6259 -0.6542
 5880SOL    HW129273   2.591   0.210   5.812  0.1469  0.0645  1.6425
 5880SOL    HW229274   2.578   0.076   5.867 -0.5367  1.4524 -0.3530
 5881SOL     OW29275   1.950   1.285   8.292  0.7420  0.1257  0.0327
 5881SOL    HW129276   1.878   1.223   8.284  0.7447  0.3621 -1.7923
 5881SOL    HW229277   1.939   1.342   8.216  1.3544  0.8845  0.5240
 5882SOL     OW29278   0.908   0.633   0.312  0.2342 -0.7010 -0.1565
 5882SOL    HW129279   0.929   0.725   0.324  1.8204 -1.2276  1.0804
 5882SOL    HW229280   0.994   0.593   0.329 -0.2258 -1.1973  0.9933
 5883SOL     OW29281   2.876   1.414  14.646 -1.0214 -0.1752 -0.8483
 5883SOL    HW129282   2.826   1.333  14.646  2.2406 -2.1900  2.0726
 5883SOL    HW229283   2.881   1.416  14.550 -0.8392  1.0068 -0.8145
 5884SOL     OW29284   0.227   4.665   1.306  0.1591  0.3747  0.5427
 5884SOL    HW129285   0.192   4.682   1.219  2.1845 -0.9600 -0.5424
 5884SOL    HW229286   0.154   4.676   1.366 -1.8825 -1.6510 -1.6238
 5885SOL     OW29287   2.520   0.701   6.865 -0.1784  0.0155  0.2932
 5885SOL    HW129288   2.551   0.711   6.775  0.3712  1.4509  0.6313
 5885SOL    HW229289   2.455   0.634   6.846 -0.6842  0.3336  0.8964
 5886SOL     OW29290   0.153   1.367   3.360  0.4235 -0.2856 -0.0717
 5886SOL    HW129291   0.236   1.321   3.349 -1.4199 -2.8343 -3.1585
 5886SOL    HW229292   0.094   1.309   3.312 -0.6264  0.5249  0.2320
 5887SOL     OW29293   3.424   1.436   0.609 -0.2280 -0.1647  0.4761
 5887SOL    HW129294   3.511   1.452   0.647  0.6724 -0.2837 -1.4973
 5887SOL    HW229295   3.385   1.384   0.679  1.1152 -1.7812  0.0319
 5888SOL     OW29296   3.373   2.863   5.475  0.0382 -0.2720 -0.4050
 5888SOL    HW129297   3.420   2.838   5.396  0.5814 -1.4246  0.2734
 5888SOL    HW229298   3.426   2.812   5.536  1.8420  2.0168 -0.0814
 5889SOL     OW29299   3.022   4.258   4.273 -0.3405  0.1878  0.3013
 5889SOL    HW129300   2.956   4.325   4.290 -0.8524 -0.4297  0.7476
 5889SOL    HW229301   3.016   4.200   4.349 -3.8000  1.7905  1.2467
 5890SOL     OW29302   1.202   2.840   5.955 -0.1464  0.6674  0.2830
 5890SOL    HW129303   1.170   2.753   5.977  0.2792  0.6485  0.8310
 5890SOL    HW229304   1.247   2.860   6.038  1.8720  0.0760 -0.6631
 5891SOL     OW29305   0.519   0.227   6.513 -0.4879 -0.4165  0.0348
 5891SOL    HW129306   0.481   0.198   6.430 -1.7333  1.5818 -0.1051
 5891SOL    HW229307   0.511   0.322   6.526  2.6496 -0.5246  2.5518
 5892SOL     OW29308   3.353   0.115   4.178 -0.4315 -0.1583  0.0439
 5892SOL    HW129309   3.329   0.071   4.097 -0.6019 -1.3142  0.7288
 5892SOL    HW229310   3.336   0.036   4.228 -1.3684  0.0418  0.0340
 5893SOL     OW29311   4.153   2.319   4.351  0.3810  0.5758 -0.0861
 5893SOL    HW129312   4.242   2.336   4.381 -0.6082  0.7831  2.6823
 5893SOL    HW229313   4.166   2.278   4.265 -3.8236 -1.5655  0.3271
 5894SOL     OW29314   2.238   3.268   4.034 -0.1783  0.1322 -0.3872
 5894SOL    HW129315   2.201   3.337   4.090 -1.2002 -0.3119 -0.5077
 5894SOL    HW229316   2.325   3.307   4.027  0.1199 -0.2872  1.0448
 5895SOL     OW29317   2.505   0.448   4.305  0.3051  0.0935  0.4261
 5895SOL    HW129318   2.416   0.432   4.337 -1.1336  2.4455 -2.4394
 5895SOL    HW229319   2.561   0.442   4.382 -0.1029  2.0957  0.8552
 5896SOL     OW29320   2.668   0.682   2.582 -0.0952  0.4272  0.2480
 5896SOL    HW129321   2.739   0.619   2.565 -0.7616 -0.1412 -0.4084
 5896SOL    HW229322   2.706   0.731   2.655 -2.4084  1.0278  1.0477
 5897SOL     OW29323   1.968   1.764   3.942 -0.3708  0.0924 -0.1393
 5897SOL    HW129324   1.927   1.713   3.872  2.2592  1.4119 -2.6301
 5897SOL    HW229325   1.911   1.841   3.942 -0.9823 -0.3593  0.2980
 5898SOL     OW29326   2.001   2.169   7.810  0.2389  0.1135  0.2273
 5898SOL    HW129327   2.059   2.245   7.818  1.2694 -0.5421 -0.9698
 5898SOL    HW229328   2.035   2.135   7.727 -2.4709  0.3689 -0.9973
 5899SOL     OW29329   3.979   0.383   1.862  0.1354  0.1818 -0.2406
 5899SOL    HW129330   3.994   0.310   1.803 -0.6221 -0.2685  0.1254
 5899SOL    HW229331   3.888   0.399   1.839  0.2234  0.7085 -0.2359
 5900SOL     OW29332   1.497   1.127   9.549  0.2275  0.4337 -0.4737
 5900SOL    HW129333   1.475   1.220   9.547 -2.0315 -0.1181 -1.4045
 5900SOL    HW229334   1.453   1.096   9.470 -0.2215 -0.7676  0.2476
 5901SOL     OW29335   1.961   2.341   2.362 -0.2296 -0.2118 -0.8164
 5901SOL    HW129336   1.942   2.424   2.407  1.0934 -0.6325  0.5270
 5901SOL    HW229337   2.053   2.361   2.341  0.0606  1.3632  1.9308
 5902SOL     OW29338   4.206   2.121   4.985  0.3345 -0.5918  0.0422
 5902SOL    HW129339   4.249   2.037   5.003 -0.3805 -0.4685  2.2255
 5902SOL    HW229340   4.154   2.090   4.910  0.9587  0.2626 -0.7408
 5903SOL     OW29341   0.374   3.226   7.741  0.7143 -0.1920 -0.1938
 5903SOL    HW129342   0.424   3.218   7.660 -0.0252 -1.6904 -0.5068
 5903SOL    HW229343   0.424   3.291   7.791 -3.1302  1.4522  1.5169
 5904SOL     OW29344   1.879   1.695  12.471 -0.0610 -0.2000  0.1246
 5904SOL    HW129345   1.862   1.635  12.398  1.7769 -0.3243 -0.2079
 5904SOL    HW229346   1.880   1.631  12.542  1.3507 -0.2501  0.0640
 5905SOL     OW29347   3.901   2.463   3.376 -0.0935 -0.6057 -0.3336
 5905SOL    HW129348   3.841   2.395   3.346  0.2215 -0.2840 -1.7023
 5905SOL    HW229349   3.856   2.545   3.354  1.3165 -0.5493 -3.0165
 5906SOL     OW29350   0.932   4.706   8.068 -0.4292 -0.1449 -0.0987
 5906SOL    HW129351   0.953   4.732   7.978  1.7613  0.0301  0.4565
 5906SOL    HW229352   1.022   4.703   8.103 -0.9929 -0.1908  1.3387
 5907SOL     OW29353   0.358   1.369   4.529  0.1351 -0.0874 -0.3011
 5907SOL    HW129354   0.382   1.430   4.598 -4.2587 -0.5942  1.6904
 5907SOL    HW229355   0.317   1.434   4.473  1.2910  1.0328  0.1696
 5908SOL     OW29356   2.577   1.849   4.359  0.5394  0.4478  0.0109
 5908SOL    HW129357   2.524   1.770   4.361 -0.7292  1.2993  0.0069
 5908SOL    HW229358   2.609   1.835   4.270  1.4755  0.4029  0.3469
 5909SOL     OW29359   1.753   0.150  17.390 -0.0063 -0.2866  0.0493
 5909SOL    HW129360   1.830   0.205  17.400  1.3724 -2.0112 -1.0839
 5909SOL    HW229361   1.699   0.198  17.328 -0.9722  0.7449  1.6952
 5910SOL     OW29362   3.156   2.393   4.251  0.5935 -0.2132 -0.6884
 5910SOL    HW129363   3.214   2.409   4.326  0.9724 -0.1581 -0.9922
 5910SOL    HW229364   3.100   2.327   4.291  1.4883  0.4301  1.6848
 5911SOL     OW29365   3.378   0.340  16.388 -0.5112  0.4528  0.3526
 5911SOL    HW129366   3.316   0.293  16.334  0.4951 -0.2526 -0.1905
 5911SOL    HW229367   3.341   0.330  16.476  0.8545 -1.4664  0.7200
 5912SOL     OW29368   1.602   1.836   3.810  0.1175  0.2741 -0.4764
 5912SOL    HW129369   1.678   1.866   3.760  1.4544 -0.2289  1.2639
 5912SOL    HW229370   1.557   1.776   3.751 -0.5293 -0.2455  0.5461
 5913SOL     OW29371   3.279   4.026   5.431 -0.2923 -0.0511  0.1470
 5913SOL    HW129372   3.226   3.959   5.475  1.2395 -1.2928  0.0892
 5913SOL    HW229373   3.272   3.996   5.340 -0.0622  0.8776 -0.1743
 5914SOL     OW29374   2.222   3.865   4.567 -0.5099 -0.4635 -0.2190
 5914SOL    HW129375   2.230   3.921   4.490  0.4006  0.5061  0.5981
 5914SOL    HW229376   2.140   3.817   4.552  0.5097 -2.8333  1.8775
 5915SOL     OW29377   3.686   4.192  14.814 -0.1576  0.1646  0.0232
 5915SOL    HW129378   3.764   4.136  14.817 -1.3458 -1.4905 -0.1287
 5915SOL    HW229379   3.727   4.268  14.771 -1.6239 -0.6407 -2.7997
 5916SOL     OW29380   2.286   4.570   7.103 -0.1475  0.5522  0.2482
 5916SOL    HW129381   2.297   4.510   7.177 -2.0504  0.2289  0.2700
 5916SOL    HW229382   2.290   4.513   7.026 -1.3680  1.2220 -0.2953
 5917SOL     OW29383   3.716   1.140   7.790 -0.5044  0.2912 -0.1764
 5917SOL    HW129384   3.660   1.151   7.867 -0.3863 -2.0495  0.2705
 5917SOL    HW229385   3.769   1.069   7.829 -1.2899 -0.4043 -0.3697
 5918SOL     OW29386   3.647   3.799   4.538  0.0540  0.3542 -0.2687
 5918SOL    HW129387   3.556   3.813   4.509 -0.3806  1.2120  1.4904
 5918SOL    HW229388   3.683   3.778   4.452  2.6046  0.6249  0.7424
 5919SOL     OW29389   4.523   0.813   7.215  1.0063 -0.2738  0.1113
 5919SOL    HW129390   4.557   0.818   7.304  4.9986 -1.9422 -1.2963
 5919SOL    HW229391   4.463   0.739   7.224  1.1916 -0.6268 -1.4198
 5920SOL     OW29392   0.496   1.706   1.885  0.8382  0.0591  0.8507
 5920SOL    HW129393   0.484   1.781   1.943  0.3695  0.6475 -0.0086
 5920SOL    HW229394   0.416   1.654   1.898 -0.3186  0.7788 -3.4568
 5921SOL     OW29395   3.268   4.369   2.399  0.4652  0.4154  0.5314
 5921SOL    HW129396   3.268   4.326   2.314 -1.5274  2.9663 -0.7218
 5921SOL    HW229397   3.361   4.358   2.422 -0.1057 -0.7545  2.2901
 5922SOL     OW29398   0.919   2.860   3.684  0.4541  0.0584  0.1585
 5922SOL    HW129399   0.992   2.814   3.724  0.1588  0.8630  1.5998
 5922SOL    HW229400   0.947   2.859   3.592 -0.9014  1.7606 -0.2776
 5923SOL     OW29401   2.829   0.855   5.881 -0.1851 -0.7441 -0.4012
 5923SOL    HW129402   2.840   0.894   5.968  0.7736 -1.6425 -0.1173
 5923SOL    HW229403   2.840   0.935   5.830 -0.0166  0.3557  1.3734
 5924SOL     OW29404   3.474   1.902   8.769  0.2634 -0.1765  0.1440
 5924SOL    HW129405   3.447   1.975   8.825 -1.2095 -0.5997 -0.0181
 5924SOL    HW229406   3.421   1.907   8.690 -1.7283  3.0784  1.7005
 5925SOL     OW29407   2.125   1.898   8.833  0.1937 -0.0313 -0.1051
 5925SOL    HW129408   2.180   1.935   8.764 -1.5364 -1.8523 -2.4506
 5925SOL    HW229409   2.109   1.968   8.896 -0.7824 -1.2614  1.0201
 5926SOL     OW29410   4.345   4.383  15.368  0.2068  0.0623  0.0297
 5926SOL    HW129411   4.255   4.374  15.397  1.2098 -3.4883  1.9393
 5926SOL    HW229412   4.352   4.445  15.294  2.5015 -0.6922 -0.4031
 5927SOL     OW29413   4.470   2.085  15.794  0.1975  0.0175 -0.2760
 5927SOL    HW129414   4.548   2.098  15.739  1.4820  0.2681  1.5775
 5927SOL    HW229415   4.477   2.170  15.838  0.0226  0.1509 -0.5123
 5928SOL     OW29416   4.393   0.863  15.451  0.0237  0.1139 -0.1978
 5928SOL    HW129417   4.346   0.870  15.534  0.6771  0.0945  0.1702
 5928SOL    HW229418   4.343   0.793  15.408 -0.9782 -0.9532  2.6929
 5929SOL     OW29419   0.047   0.601   5.394 -0.2991  0.1441 -0.7378
 5929SOL    HW129420   0.030   0.582   5.302 -1.8833  2.2583 -0.8935
 5929SOL    HW229421   4.729   0.676   5.411 -0.0822  0.0471  0.4431
 5930SOL     OW29422   0.814   1.000   3.826 -0.1971  0.0126  0.7758
 5930SOL    HW129423   0.880   0.936   3.851 -1.2041 -1.0022  0.8321
 5930SOL    HW229424   0.754   0.961   3.762 -0.2919 -1.7109  1.9115
 5931SOL     OW29425   3.951   2.649   7.200 -0.5921  0.2890  0.0486
 5931SOL    HW129426   3.954   2.743   7.217  0.2483  0.5674 -1.6932
 5931SOL    HW229427   4.021   2.645   7.135  0.3725 -0.5030  1.1414
 5932SOL     OW29428   4.628   1.655   4.095  0.8762 -0.1173 -0.0952
 5932SOL    HW129429   4.593   1.652   4.005  1.0714 -1.8773 -0.1229
 5932SOL    HW229430   4.572   1.588   4.134  1.2821 -0.8735 -0.8118
 5933SOL     OW29431   2.254   4.497  10.578  0.1424  0.1738  0.0106
 5933SOL    HW129432   2.285   4.506  10.488  1.2513  0.0117  0.3825
 5933SOL    HW229433   2.295   4.567  10.628  2.7976 -0.7425 -0.8859
 5934SOL     OW29434   4.105   0.097   1.962  0.3642 -0.1880 -0.9042
 5934SOL    HW129435   4.074   0.007   1.969 -1.4053  0.7725  3.9127
 5934SOL    HW229436   4.042   0.142   1.906  0.9355  0.9222 -0.6598
 5935SOL     OW29437   2.218   2.986  11.106  0.1404  0.5396  0.2719
 5935SOL    HW129438   2.134   2.969  11.148 -0.7986  1.4357 -1.2474
 5935SOL    HW229439   2.279   2.929  11.153 -0.0157  0.6042  0.5497
 5936SOL     OW29440   4.463   2.460   8.303 -0.4305  0.5853 -0.0877
 5936SOL    HW129441   4.370   2.442   8.312 -0.3931 -0.4194 -1.7992
 5936SOL    HW229442   4.477   2.521   8.377 -0.3988  1.1473 -0.5555
 5937SOL     OW29443   2.413   1.446  13.612  0.2615 -0.8232  0.0710
 5937SOL    HW129444   2.402   1.352  13.618  1.2784 -1.1083 -2.5879
 5937SOL    HW229445   2.396   1.466  13.705 -1.1089 -2.6187  0.2025
 5938SOL     OW29446   4.229   2.149   6.368  0.1427  0.1955  0.2564
 5938SOL    HW129447   4.211   2.113   6.455 -0.7042 -0.3494 -0.1491
 5938SOL    HW229448   4.193   2.238   6.373  0.3205  0.3785 -1.8723
 5939SOL     OW29449   1.994   2.620   7.427 -0.8962 -0.1157  0.1198
 5939SOL    HW129450   1.974   2.635   7.335  0.8550  2.2541  0.1137
 5939SOL    HW229451   2.028   2.706   7.452  0.7375 -1.5507  2.8273
 5940SOL     OW29452   2.693   3.182   2.601 -0.2397  0.6292  0.6819
 5940SOL    HW129453   2.645   3.260   2.572  1.4157  1.8135  1.0980
 5940SOL    HW229454   2.761   3.183   2.535  1.0178 -1.2837  1.9402
 5941SOL     OW29455   4.375   1.521   6.867 -0.4669 -0.3278  0.2107
 5941SOL    HW129456   4.301   1.461   6.875 -2.9226  2.6940 -0.2465
 5941SOL    HW229457   4.348   1.572   6.791 -2.0102  0.1791  1.0948
 5942SOL     OW29458   2.402   2.695   9.572  0.4776  0.3377 -0.1343
 5942SOL    HW129459   2.483   2.746   9.578  0.7227 -0.1510  0.6712
 5942SOL    HW229460   2.417   2.625   9.509  0.6987  0.1415  0.1336
 5943SOL     OW29461   4.520   1.594   3.845  0.1126  0.3372  0.6217
 5943SOL    HW129462   4.579   1.525   3.875 -2.3169 -1.9780  0.0089
 5943SOL    HW229463   4.480   1.540   3.777 -2.2843  3.2737 -0.2716
 5944SOL     OW29464   1.808   0.371   7.149  0.0591  0.5353  0.0914
 5944SOL    HW129465   1.798   0.395   7.057 -2.1603  0.9505  0.4363
 5944SOL    HW229466   1.726   0.324   7.165  0.3135  0.6204  1.6794
 5945SOL     OW29467   4.421   2.258   4.400  0.2063 -0.3316 -0.3170
 5945SOL    HW129468   4.443   2.167   4.416 -0.5407 -0.9101 -2.6302
 5945SOL    HW229469   4.487   2.297   4.458 -0.1472  1.8431 -1.3772
 5946SOL     OW29470   4.294   3.714   6.511  0.0878 -0.4701 -1.5047
 5946SOL    HW129471   4.222   3.695   6.451  0.4718  0.6657 -2.3311
 5946SOL    HW229472   4.256   3.679   6.591  1.8052 -0.0254 -0.4868
 5947SOL     OW29473   1.717   3.777   1.145 -0.4818  0.4317 -0.4471
 5947SOL    HW129474   1.650   3.845   1.154 -0.0654  0.7765  0.0546
 5947SOL    HW229475   1.782   3.810   1.207  0.4986  0.4551 -1.4937
 5948SOL     OW29476   4.520   2.952  10.195 -0.0407 -0.3048 -0.1752
 5948SOL    HW129477   4.498   3.045  10.196  1.5790  0.0765 -0.0594
 5948SOL    HW229478   4.496   2.925  10.284  1.2977 -0.4525  0.1401
 5949SOL     OW29479   1.661   1.092  13.179  0.2546  0.0925 -0.0460
 5949SOL    HW129480   1.681   1.185  13.174  1.4890 -0.1705  0.0447
 5949SOL    HW229481   1.626   1.089  13.268 -0.0424 -0.0361 -0.1677
 5950SOL     OW29482   1.332   2.874   5.734  0.2202  0.3612 -0.6463
 5950SOL    HW129483   1.288   2.886   5.819  0.5988  0.2613 -0.4365
 5950SOL    HW229484   1.320   2.780   5.719  0.8656  0.2583 -0.5231
 5951SOL     OW29485   0.989   3.742   3.203  0.6733  0.3493 -0.2675
 5951SOL    HW129486   1.001   3.724   3.296 -0.2110 -0.9368 -0.3936
 5951SOL    HW229487   0.927   3.814   3.213  0.9865  0.6767 -0.6654
 5952SOL     OW29488   2.336   3.934   5.308 -0.3923  0.5655  0.0370
 5952SOL    HW129489   2.300   3.856   5.266  1.0871 -0.4082  0.5941
 5952SOL    HW229490   2.417   3.941   5.258  0.2623  1.1098  1.1874
 5953SOL     OW29491   2.452   2.240  16.797 -0.0059 -0.1500  0.0704
 5953SOL    HW129492   2.485   2.321  16.835 -0.2593  0.2039 -0.4586
 5953SOL    HW229493   2.424   2.275  16.713 -3.1176  0.9852  1.5711
 5954SOL     OW29494   2.164   3.347   7.408  0.0423 -0.4959 -0.0457
 5954SOL    HW129495   2.231   3.415   7.407  1.0115 -1.4498 -0.3344
 5954SOL    HW229496   2.209   3.270   7.374 -0.3007 -1.1817  1.0245
 5955SOL     OW29497   4.638   3.424   3.419 -0.8649  0.0364  0.1522
 5955SOL    HW129498   4.727   3.403   3.392 -0.3683  1.3632  0.7863
 5955SOL    HW229499   4.584   3.354   3.381 -1.2254 -0.3882  1.4311
 5956SOL     OW29500   3.574   4.114   8.083 -0.1006 -0.2098  0.2709
 5956SOL    HW129501   3.578   4.197   8.131 -1.7375  0.5335 -0.8680
 5956SOL    HW229502   3.667   4.092   8.093 -0.4012 -1.7631 -0.4836
 5957SOL     OW29503   2.663   0.496   3.903 -0.1571 -0.3612  0.1233
 5957SOL    HW129504   2.581   0.525   3.862 -1.3433 -0.0097  2.7478
 5957SOL    HW229505   2.731   0.551   3.864  0.2305 -0.1421  1.1179
 5958SOL     OW29506   0.586   3.043   6.098 -0.1322 -0.1008  0.0884
 5958SOL    HW129507   0.561   3.127   6.060 -0.7848 -0.2189  0.2420
 5958SOL    HW229508   0.667   3.064   6.143  0.0126 -0.1900 -0.1313
 5959SOL     OW29509   4.463   2.679   5.505  0.0522  0.2899  0.2971
 5959SOL    HW129510   4.465   2.697   5.411 -0.7173  0.0007  0.2213
 5959SOL    HW229511   4.555   2.657   5.513  0.0021  0.0740  0.2824
 5960SOL     OW29512   4.334   4.051   7.287 -0.3524 -0.5035  0.2945
 5960SOL    HW129513   4.385   4.026   7.364 -2.4375 -4.6273  0.3467
 5960SOL    HW229514   4.388   4.112   7.237  0.4416 -0.0018  1.7521
 5961SOL     OW29515   0.858   2.277   2.720 -0.1598 -0.5517  0.6845
 5961SOL    HW129516   0.845   2.369   2.741  0.8805 -0.4166  0.7420
 5961SOL    HW229517   0.868   2.285   2.626 -1.3220  2.1391  0.8067
 5962SOL     OW29518   4.417   2.305   3.728  0.3469  0.5946 -0.1009
 5962SOL    HW129519   4.493   2.330   3.779  0.1080 -0.6615  0.8570
 5962SOL    HW229520   4.402   2.391   3.687  0.6786  0.5582 -0.3004
 5963SOL     OW29521   4.514   2.812   4.073 -0.0716 -0.0348  0.1391
 5963SOL    HW129522   4.488   2.875   4.140  1.8498  1.4663 -0.5125
 5963SOL    HW229523   4.452   2.742   4.092 -0.6571  0.4825  0.1552
 5964SOL     OW29524   1.919   2.864   5.684 -0.1066  0.3490  0.3889
 5964SOL    HW129525   1.970   2.785   5.702 -2.4723 -1.3715 -0.5105
 5964SOL    HW229526   1.832   2.835   5.657  0.9246 -2.6980  0.3637
 5965SOL     OW29527   1.143   4.015   7.908  0.1384 -0.3533  0.0038
 5965SOL    HW129528   1.170   3.933   7.950  1.5381 -0.5687 -1.3338
 5965SOL    HW229529   1.227   4.054   7.882  0.6695 -0.7858  1.0431
 5966SOL     OW29530   1.590   4.665  13.182  0.0827 -0.3751  0.2057
 5966SOL    HW129531   1.537   4.739  13.211  0.2287  0.6486 -2.1038
 5966SOL    HW229532   1.667   4.716  13.156  0.7667 -0.8483  1.3182
 5967SOL     OW29533   4.397   3.109   4.027  0.2950 -0.7427  0.0798
 5967SOL    HW129534   4.351   3.036   3.986  1.0894 -1.6850  0.8542
 5967SOL    HW229535   4.442   3.066   4.100 -1.6498  0.8711  2.2323
 5968SOL     OW29536   1.516   1.598   5.254 -0.0322  0.4599 -0.2659
 5968SOL    HW129537   1.559   1.546   5.323  1.5726  0.3874 -1.3187
 5968SOL    HW229538   1.535   1.557   5.170 -1.5119 -2.2872  0.7212
 5969SOL     OW29539   4.218   2.331   8.380  0.3836  0.3690 -0.3792
 5969SOL    HW129540   4.163   2.398   8.422 -2.1242 -1.4092 -0.8170
 5969SOL    HW229541   4.195   2.260   8.440  0.8367  0.2017 -0.4104
 5970SOL     OW29542   2.780   1.295   6.119  0.0117  0.6534  0.3391
 5970SOL    HW129543   2.854   1.240   6.145 -0.7794  0.6018  2.4487
 5970SOL    HW229544   2.702   1.248   6.151 -0.5340  0.4618 -1.2625
 5971SOL     OW29545   2.223   0.848   2.674 -0.0863  0.8744 -0.3196
 5971SOL    HW129546   2.312   0.836   2.709 -0.0101 -1.3648 -1.2673
 5971SOL    HW229547   2.234   0.926   2.619  1.2884  2.4361  2.1588
 5972SOL     OW29548   4.259   2.257   5.481  0.0772  0.4171 -0.6242
 5972SOL    HW129549   4.251   2.352   5.473 -0.8729  0.0717 -3.4723
 5972SOL    HW229550   4.219   2.227   5.400 -0.2433  0.8537 -0.6295
 5973SOL     OW29551   1.552   2.491   9.451  0.3337  0.3168 -0.2481
 5973SOL    HW129552   1.464   2.528   9.456  0.4055  0.8068 -2.6752
 5973SOL    HW229553   1.543   2.402   9.417 -3.3004  1.1826 -1.5805
 5974SOL     OW29554   4.337   2.832   8.636 -0.0750 -0.1367  0.2596
 5974SOL    HW129555   4.303   2.853   8.549 -1.4357  1.0930  1.1015
 5974SOL    HW229556   4.378   2.917   8.651 -1.5463  0.4059  1.0916
 5975SOL     OW29557   2.139   2.409  16.629 -0.4817  0.5554  0.1709
 5975SOL    HW129558   2.224   2.400  16.584 -0.0875 -0.0552  1.0391
 5975SOL    HW229559   2.140   2.499  16.663 -0.7937  0.5253  0.2523
 5976SOL     OW29560   0.988   4.430  17.498  0.1483  0.1818  0.0173
 5976SOL    HW129561   1.059   4.445  17.436  0.4609  1.6254  0.7440
 5976SOL    HW229562   0.967   4.339  17.475  0.3205 -0.0446  0.7515
 5977SOL     OW29563   3.546   4.172   1.934  0.8586 -0.1719 -0.9898
 5977SOL    HW129564   3.596   4.215   1.865  1.8717 -0.2736 -0.3199
 5977SOL    HW229565   3.511   4.099   1.883  0.7328 -1.3955  0.8235
 5978SOL     OW29566   1.612   0.222   2.953 -0.1202 -0.0247 -0.7058
 5978SOL    HW129567   1.524   0.189   2.938 -0.5154  1.4040 -1.5274
 5978SOL    HW229568   1.629   0.230   3.047 -1.2421  1.8408 -0.6576
 5979SOL     OW29569   0.947   1.379   6.868  0.3467 -0.0492  0.2127
 5979SOL    HW129570   0.986   1.308   6.817 -1.3329 -0.0254 -1.0917
 5979SOL    HW229571   0.857   1.381   6.837 -1.1483  0.6661  4.6122
 5980SOL     OW29572   3.762   4.439  12.626  0.2102  0.1006  0.1333
 5980SOL    HW129573   3.698   4.463  12.558  0.7874  0.3847 -0.3096
 5980SOL    HW229574   3.764   4.524  12.670 -3.0368  0.2754 -0.0330
 5981SOL     OW29575   1.422   0.371   8.263  0.1359 -0.3521 -0.2313
 5981SOL    HW129576   1.344   0.407   8.221 -1.0820 -1.7263  0.8616
 5981SOL    HW229577   1.458   0.326   8.187  1.6505  1.6775 -0.7149
 5982SOL     OW29578   1.983   4.586   5.822 -0.5949 -0.2528  0.0707
 5982SOL    HW129579   1.975   4.560   5.914  0.5087 -1.2004 -0.1042
 5982SOL    HW229580   2.078   4.596   5.813 -0.2391 -0.7492  3.4828
 5983SOL     OW29581   2.780   2.243   6.449  0.0925  0.2433  0.8746
 5983SOL    HW129582   2.847   2.200   6.395  0.2811  1.5050  0.0915
 5983SOL    HW229583   2.756   2.173   6.510  0.4400  0.6691  1.5025
 5984SOL     OW29584   0.234   0.253   7.360 -0.1325 -0.2908  0.0292
 5984SOL    HW129585   0.309   0.312   7.351 -0.1053 -0.4414 -0.7318
 5984SOL    HW229586   0.228   0.208   7.276  1.8179  0.6057 -0.5751
 5985SOL     OW29587   1.614   2.840   8.246  0.3818 -0.1539  0.1217
 5985SOL    HW129588   1.692   2.871   8.292  1.9383 -1.3553 -1.6678
 5985SOL    HW229589   1.616   2.747   8.269 -2.1695  0.0321  1.0864
 5986SOL     OW29590   0.901   4.099   7.384 -0.3021  0.5331  0.4493
 5986SOL    HW129591   0.890   4.134   7.473 -1.2059  0.3591  0.4117
 5986SOL    HW229592   0.942   4.176   7.347 -0.6541  1.6261  2.2973
 5987SOL     OW29593   2.557   0.067   7.828 -0.1035  0.2920  0.1269
 5987SOL    HW129594   2.514   4.722   7.841  0.5486  0.0445  0.7170
 5987SOL    HW229595   2.573   0.098   7.918 -1.5589  1.1647  0.0798
 5988SOL     OW29596   2.639   0.891   1.186 -0.4261 -0.7501 -0.0157
 5988SOL    HW129597   2.554   0.848   1.190  0.2173 -1.7044  3.2089
 5988SOL    HW229598   2.649   0.899   1.091  0.0836  0.1775  0.1169
 5989SOL     OW29599   3.339   0.003   6.036  0.1213  0.1247 -0.2543
 5989SOL    HW129600   3.371   4.692   5.961 -1.7725 -0.7247 -0.5064
 5989SOL    HW229601   3.250   0.028   6.011 -0.4059 -0.9845  0.5480
 5990SOL     OW29602   1.435   0.166  13.610 -0.0670 -0.8939  0.2741
 5990SOL    HW129603   1.411   0.164  13.703 -0.8471 -1.9684  0.0527
 5990SOL    HW229604   1.490   0.244  13.604 -1.1057 -0.2927 -1.4006
 5991SOL     OW29605   2.526   1.850   3.866  0.7770  0.1532  0.3335
 5991SOL    HW129606   2.444   1.896   3.883  1.9760  2.3144  0.3323
 5991SOL    HW229607   2.559   1.913   3.802  2.3991 -2.0833 -1.0367
 5992SOL     OW29608   2.622   1.886   0.824  0.7443  0.1431 -0.0511
 5992SOL    HW129609   2.665   1.971   0.827 -0.9642  0.9314  2.1585
 5992SOL    HW229610   2.701   1.835   0.843 -0.1368 -0.7212  1.3164
 5993SOL     OW29611   2.113   2.938   6.944 -0.0822 -0.5744 -0.7020
 5993SOL    HW129612   2.193   2.911   6.898 -0.7175 -1.5834 -1.2255
 5993SOL    HW229613   2.127   3.030   6.921  1.3285 -0.8260 -0.8828
 5994SOL     OW29614   0.415   2.206  13.192 -0.1049 -0.4237  0.7810
 5994SOL    HW129615   0.320   2.207  13.189  0.0301  3.6532 -1.5493
 5994SOL    HW229616   0.430   2.264  13.267 -0.2908  1.6671 -0.8229
 5995SOL     OW29617   0.199   0.105   6.470  0.0412 -0.0492  0.4292
 5995SOL    HW129618   0.273   0.115   6.410 -0.3075  0.6924  0.1215
 5995SOL    HW229619   0.142   0.049   6.417 -0.5043  0.6559  0.2642
 5996SOL     OW29620   3.043   3.365   4.753  0.2346  1.0741  0.4246
 5996SOL    HW129621   3.018   3.310   4.828  0.1877  0.2485 -0.1875
 5996SOL    HW229622   3.106   3.321   4.696 -1.0095 -1.6972  1.1452
 5997SOL     OW29623   0.988   4.049  11.546  0.1050  0.1480 -0.5292
 5997SOL    HW129624   0.905   4.003  11.540  0.3613 -0.5122  0.8686
 5997SOL    HW229625   0.954   4.135  11.572  1.9192  0.4630  0.8254
 5998SOL     OW29626   1.477   2.925  12.958 -0.0576 -0.1550 -0.0251
 5998SOL    HW129627   1.406   2.876  13.001 -0.9766  0.4324 -0.8697
 5998SOL    HW229628   1.475   3.009  13.004  0.4290 -1.3342  2.1582
 5999SOL     OW29629   0.263   3.933   6.840 -0.0031  0.1995 -0.2207
 5999SOL    HW129630   0.226   4.019   6.820 -0.2004  0.3272  0.6717
 5999SOL    HW229631   0.347   3.926   6.795 -1.7108  1.0593 -3.5601
 6000SOL     OW29632   2.752   1.595   0.482  0.0365 -0.4859 -0.2257
 6000SOL    HW129633   2.824   1.653   0.506 -1.0094  0.2082  1.2460
 6000SOL    HW229634   2.749   1.595   0.386  2.8186 -1.7205 -0.2825
 6001SOL     OW29635   4.316   2.942   5.630 -0.1489  0.0269 -0.1255
 6001SOL    HW129636   4.347   2.990   5.707 -1.4721 -1.4047  1.3128
 6001SOL    HW229637   4.327   2.857   5.672  0.8996 -0.0490 -0.5509
 6002SOL     OW29638   3.348   1.083  13.155  0.1214 -0.3064  0.4506
 6002SOL    HW129639   3.294   1.106  13.231  1.0765 -0.1803  1.0902
 6002SOL    HW229640   3.284   1.113  13.090  2.7517  0.9432 -1.5411
 6003SOL     OW29641   3.336   4.536   4.795  0.0029  0.0460 -0.3864
 6003SOL    HW129642   3.322   4.472   4.865  0.1828 -0.1810 -0.5605
 6003SOL    HW229643   3.431   4.543   4.788  0.2381 -1.6490  1.1415
 6004SOL     OW29644   3.142   1.476   3.964 -0.5753 -0.0016 -0.1618
 6004SOL    HW129645   3.092   1.397   3.947  2.8772 -1.9549 -1.0810
 6004SOL    HW229646   3.141   1.513   3.876  1.5613 -1.3579 -0.7539
 6005SOL     OW29647   0.372   4.005   4.532 -0.1151 -0.0338 -0.3942
 6005SOL    HW129648   0.361   3.920   4.491  0.4146 -0.5432  0.5262
 6005SOL    HW229649   0.432   3.983   4.604  0.2689  0.2075 -0.6362
 6006SOL     OW29650   0.548   2.626   1.589 -0.0902  0.5564  0.1144
 6006SOL    HW129651   0.502   2.654   1.668  0.1151  0.7722  0.1563
 6006SOL    HW229652   0.602   2.552   1.619 -0.8237  0.5597  1.4487
 6007SOL     OW29653   0.530   0.638   7.075 -0.2567  0.6390 -0.2151
 6007SOL    HW129654   0.597   0.638   7.144  0.8368 -0.2350 -1.2805
 6007SOL    HW229655   0.502   0.729   7.083 -0.2057  0.6941 -0.6753
 6008SOL     OW29656   3.784   3.543   8.412  0.2463 -0.7417  0.1032
 6008SOL    HW129657   3.825   3.472   8.460 -1.0809 -2.9767 -2.0691
 6008SOL    HW229658   3.853   3.586   8.362  1.1315 -1.9963  0.2523
 6009SOL     OW29659   4.195   2.838   0.765  0.7448 -0.0541 -0.1465
 6009SOL    HW129660   4.197   2.814   0.858  0.8927  1.1620  0.1672
 6009SOL    HW229661   4.281   2.803   0.742  1.1366 -0.4174  1.8684
 6010SOL     OW29662   1.308   2.696   5.031 -0.3478 -0.0124 -0.0844
 6010SOL    HW129663   1.360   2.615   5.032  1.1365  0.9629  1.0230
 6010SOL    HW229664   1.359   2.757   5.084  2.3460 -4.0977  2.0772
 6011SOL     OW29665   3.221   3.303   4.015  0.1747  0.0011 -0.0396
 6011SOL    HW129666   3.227   3.373   4.080  0.7564  0.9109 -1.0714
 6011SOL    HW229667   3.280   3.238   4.052  1.0492  0.7732 -0.0829
 6012SOL     OW29668   1.593   2.035  17.181  0.2308 -0.0849 -0.2830
 6012SOL    HW129669   1.650   2.093  17.130 -1.3472  1.3037 -0.4788
 6012SOL    HW229670   1.508   2.068  17.153  0.9694  0.7637 -1.5437
 6013SOL     OW29671   2.679   0.666   6.628  0.1027 -0.4077 -0.3085
 6013SOL    HW129672   2.735   0.604   6.676  2.4771  0.7356 -1.5767
 6013SOL    HW229673   2.669   0.630   6.539 -1.8186 -0.2244 -0.1510
 6014SOL     OW29674   0.119   3.733   4.183 -0.3882  0.1400  0.2345
 6014SOL    HW129675   0.069   3.682   4.120 -0.5321  2.0743 -1.2181
 6014SOL    HW229676   0.070   3.814   4.167  0.4933  0.6526  0.1472
 6015SOL     OW29677   2.403   0.786   4.072 -0.5723 -0.2317 -0.0517
 6015SOL    HW129678   2.405   0.839   3.991  1.6323  0.1839  0.2677
 6015SOL    HW229679   2.308   0.775   4.077 -0.2629 -1.8634  2.0498
 6016SOL     OW29680   3.890   2.043   6.837 -0.6055  0.2213 -0.8300
 6016SOL    HW129681   3.894   1.997   6.920 -0.0796  0.2038 -0.8642
 6016SOL    HW229682   3.936   2.122   6.863  1.9916 -1.3203 -0.7666
 6017SOL     OW29683   2.743   4.286   6.329  0.1178  0.0691  0.3857
 6017SOL    HW129684   2.830   4.325   6.338  0.8806 -0.9973 -2.3771
 6017SOL    HW229685   2.732   4.288   6.234  0.7262  2.6411  0.3503
 6018SOL     OW29686   0.670   2.099   7.100  0.9976  0.2421  0.5957
 6018SOL    HW129687   0.663   2.007   7.126 -0.4011 -0.4161 -2.1380
 6018SOL    HW229688   0.585   2.119   7.059  1.3023  0.8835  0.2712
 6019SOL     OW29689   1.916   3.407   9.656  0.2395 -0.5134  0.1438
 6019SOL    HW129690   1.866   3.481   9.688  1.7529  0.8830 -0.6935
 6019SOL    HW229691   1.904   3.343   9.726 -0.5210 -0.7658 -0.2174
 6020SOL     OW29692   0.549   4.257   7.822  0.3764  0.3367 -0.1379
 6020SOL    HW129693   0.511   4.344   7.816 -0.1040  0.0701 -1.0310
 6020SOL    HW229694   0.625   4.279   7.875  0.7904 -2.5992  0.5210
 6021SOL     OW29695   3.317   4.092   6.180 -0.0989 -0.7274  0.1264
 6021SOL    HW129696   3.272   4.065   6.100 -1.6726 -0.0112  0.7667
 6021SOL    HW229697   3.298   4.185   6.184  1.4693 -0.4155  0.4637
 6022SOL     OW29698   4.210   1.599   3.514 -0.1056  0.2335  0.0194
 6022SOL    HW129699   4.251   1.662   3.573 -1.7235 -0.7975  2.2382
 6022SOL    HW229700   4.229   1.515   3.555  2.2007  0.3307 -0.8160
 6023SOL     OW29701   0.842   4.540   4.947 -0.1792 -0.0953 -0.2000
 6023SOL    HW129702   0.754   4.572   4.968 -0.0489 -0.3272  0.7425
 6023SOL    HW229703   0.879   4.610   5.001 -0.9963 -0.9090  1.4280
 6024SOL     OW29704   2.596   0.936  15.903 -0.1927 -0.0486 -0.3677
 6024SOL    HW129705   2.622   0.954  15.812  1.4593 -1.0166 -0.0895
 6024SOL    HW229706   2.653   0.995  15.951 -1.3059  0.2823  0.5503
 6025SOL     OW29707   3.993   1.052  12.325  0.2848 -0.6820 -0.0507
 6025SOL    HW129708   3.960   1.128  12.373  0.1102 -0.2739 -0.8253
 6025SOL    HW229709   3.980   0.978  12.385 -0.6706  0.7207  1.4675
 6026SOL     OW29710   0.165   4.550   8.141 -0.5087 -0.1675 -0.0814
 6026SOL    HW129711   0.129   4.563   8.229 -0.7748 -3.0623  0.2185
 6026SOL    HW229712   0.212   4.469   8.161 -0.9206 -0.1836  0.8120
 6027SOL     OW29713   2.554   0.234   6.742 -0.1552  0.2177  0.0758
 6027SOL    HW129714   2.645   0.208   6.753 -0.8401 -1.4859  1.7157
 6027SOL    HW229715   2.537   0.238   6.647 -0.0555 -3.0095 -0.0789
 6028SOL     OW29716   3.867   4.024  17.738  0.8042  0.0841 -0.1133
 6028SOL    HW129717   3.793   4.059  17.688  0.7956  1.4814  0.8753
 6028SOL    HW229718   3.820   3.996   0.063 -0.0069  0.4264 -0.4761
 6029SOL     OW29719   1.873   2.099  13.427  0.3526  0.1705  0.0742
 6029SOL    HW129720   1.923   2.170  13.467  1.4759 -1.6152  1.8613
 6029SOL    HW229721   1.936   2.026  13.427 -1.2560 -1.2059 -2.0051
 6030SOL     OW29722   2.027   4.218   6.007 -0.0421  0.3798  0.2597
 6030SOL    HW129723   2.112   4.205   5.967  0.4214  1.7312  0.8054
 6030SOL    HW229724   1.989   4.132   5.989 -1.5888  1.1202 -0.0869
 6031SOL     OW29725   1.262   2.119   2.627 -0.2313  0.3156 -0.2200
 6031SOL    HW129726   1.357   2.127   2.624 -0.2497  0.8228  0.7247
 6031SOL    HW229727   1.252   2.024   2.622  1.6435  0.0421  1.6190
 6032SOL     OW29728   1.899   3.465   8.306  0.1537  0.5848  0.0642
 6032SOL    HW129729   1.952   3.385   8.299  1.4488  1.3297  1.2867
 6032SOL    HW229730   1.914   3.496   8.217 -1.2349 -0.2564 -0.4522
 6033SOL     OW29731   1.933   4.454   8.534 -0.3455  0.3541  0.1328
 6033SOL    HW129732   1.941   4.391   8.463  1.4886 -0.8842  1.4557
 6033SOL    HW229733   1.845   4.491   8.526 -1.2889 -1.0239  3.9070
 6034SOL     OW29734   0.452   2.751  17.739  0.0541  0.4007 -0.0829
 6034SOL    HW129735   0.546   2.767  17.735 -0.4727  3.8274  0.7188
 6034SOL    HW229736   0.441   2.754   0.081  0.5200 -2.3849  0.0491
 6035SOL     OW29737   3.290   3.788   3.349  0.3484  0.3459  0.1383
 6035SOL    HW129738   3.259   3.814   3.263 -0.0709 -0.9142 -0.0943
 6035SOL    HW229739   3.345   3.712   3.329  1.4947  0.9520  0.9521
 6036SOL     OW29740   2.784   0.313  13.023 -0.5209 -0.4038  0.2755
 6036SOL    HW129741   2.748   0.252  12.959 -2.5836 -0.9062  1.9231
 6036SOL    HW229742   2.703   0.348  13.060  1.1678  1.7992  1.8829
 6037SOL     OW29743   0.062   2.473   3.493 -0.4358 -0.3049  0.1347
 6037SOL    HW129744   4.721   2.505   3.451 -0.2416 -1.9379 -1.4803
 6037SOL    HW229745   0.072   2.547   3.554  0.1738 -0.6746  0.4796
 6038SOL     OW29746   4.571   0.503   0.500  0.1962 -0.3151 -0.0205
 6038SOL    HW129747   4.552   0.555   0.422 -0.4220  0.7226  0.8169
 6038SOL    HW229748   4.520   0.553   0.564  1.2004  1.6341 -0.7506
 6039SOL     OW29749   3.077   4.599   3.146  0.0935 -0.1812 -0.5795
 6039SOL    HW129750   3.041   4.563   3.227  1.5425  0.5700  0.3931
 6039SOL    HW229751   3.169   4.573   3.140  0.3251  0.9682 -2.0238
 6040SOL     OW29752   2.059   3.606   5.619  0.0190  0.3416  0.3582
 6040SOL    HW129753   2.049   3.513   5.597  1.3415  0.4256 -0.5581
 6040SOL    HW229754   1.999   3.642   5.553 -2.3741 -0.1620  2.2775
 6041SOL     OW29755   3.897   1.523   9.656  0.3916  0.0259  0.2712
 6041SOL    HW129756   3.912   1.497   9.565 -1.6193  0.4448 -0.1866
 6041SOL    HW229757   3.882   1.434   9.688  0.0858 -0.1291 -0.3013
 6042SOL     OW29758   1.884   0.295  11.691 -0.2866 -0.1194  0.0973
 6042SOL    HW129759   1.939   0.356  11.741 -3.0654  1.2456  1.5019
 6042SOL    HW229760   1.852   0.349  11.620  0.0778  0.6008  0.4831
 6043SOL     OW29761   3.939   4.397  14.951  0.2354  0.1919  0.0558
 6043SOL    HW129762   3.994   4.469  14.981  0.2563  0.3546 -0.3817
 6043SOL    HW229763   3.855   4.443  14.960 -0.4971 -0.9942 -0.6369
 6044SOL     OW29764   3.253   0.678  10.613 -0.4039  0.5973  0.7756
 6044SOL    HW129765   3.212   0.616  10.554 -2.0519  0.8867  1.6284
 6044SOL    HW229766   3.177   0.702  10.666 -0.7092  0.0865  0.5630
 6045SOL     OW29767   1.672   2.215   9.102 -0.0765 -0.2490  0.0307
 6045SOL    HW129768   1.668   2.120   9.089  2.0859 -0.4632  0.9366
 6045SOL    HW229769   1.764   2.237   9.109 -0.9254  3.8181 -1.4697
 6046SOL     OW29770   1.701   4.420   9.786  0.1830  0.1307 -0.8808
 6046SOL    HW129771   1.690   4.511   9.758 -1.0857 -0.3145 -1.8063
 6046SOL    HW229772   1.672   4.383   9.703 -0.5345 -1.5447  0.1235
 6047SOL     OW29773   3.621   2.498   6.358 -0.3488  0.2485 -0.3923
 6047SOL    HW129774   3.685   2.489   6.428 -0.5635  0.6010 -0.1515
 6047SOL    HW229775   3.659   2.575   6.316 -0.6220  1.3412  1.3795
 6048SOL     OW29776   0.140   1.170   4.105  0.1083  0.2151 -0.1923
 6048SOL    HW129777   0.129   1.161   4.200 -1.1748  1.3034 -0.2438
 6048SOL    HW229778   0.083   1.103   4.068  1.8339  0.0658 -2.6235
 6049SOL     OW29779   4.064   4.460   4.037 -0.0449 -0.1641 -0.0651
 6049SOL    HW129780   4.090   4.552   4.035 -2.3969  0.4191 -3.2761
 6049SOL    HW229781   4.063   4.457   4.133 -0.2215  0.4210 -0.0472
 6050SOL     OW29782   3.246   4.724  15.156  0.3300 -0.5060  0.7339
 6050SOL    HW129783   3.243   0.007  15.249  0.8129 -2.7290  1.2850
 6050SOL    HW229784   3.205   4.639  15.172  1.0988 -0.4684  2.9732
 6051SOL     OW29785   4.682   0.573   5.943  0.0285 -0.6276 -0.8633
 6051SOL    HW129786   4.721   0.486   5.954  1.2239  0.3572  2.6004
 6051SOL    HW229787   0.008   0.613   5.887  0.9818 -1.2139 -0.1709
 6052SOL     OW29788   0.016   2.204   4.265 -0.1576  0.2457  0.1407
 6052SOL    HW129789   0.025   2.136   4.198 -0.4630 -0.0381  0.3815
 6052SOL    HW229790   4.689   2.159   4.318  1.6276  0.6375  2.6901
 6053SOL     OW29791   4.016   2.948   8.277 -0.4319 -0.0880  0.1091
 6053SOL    HW129792   3.972   2.931   8.193 -0.2876  2.5092 -0.4743
 6053SOL    HW229793   3.960   3.017   8.312 -0.3861  0.7441 -1.4664
 6054SOL     OW29794   4.705   3.881   8.338  0.5201  0.1221 -0.2016
 6054SOL    HW129795   4.688   3.850   8.427  0.5600  1.7170  0.3500
 6054SOL    HW229796   4.645   3.955   8.333 -0.3359 -0.3963  2.0935
 6055SOL     OW29797   4.562   2.997   3.487  0.5021  0.3210 -0.2153
 6055SOL    HW129798   4.636   3.033   3.537  1.4204 -3.1676  0.9389
 6055SOL    HW229799   4.534   3.074   3.438  1.0095  0.1521 -0.7630
 6056SOL     OW29800   0.909   1.013   3.404 -0.6133  0.0727  0.1711
 6056SOL    HW129801   0.959   1.087   3.369  0.4817  0.3074  2.1965
 6056SOL    HW229802   0.983   0.951   3.406 -0.4557  0.2329 -0.8874
 6057SOL     OW29803   3.708   3.509   4.800 -0.3050  0.0007 -0.5003
 6057SOL    HW129804   3.766   3.504   4.723  0.1829  2.2109 -0.2766
 6057SOL    HW229805   3.725   3.422   4.835  1.8364  1.8788  3.0899
 6058SOL     OW29806   3.337   0.851   3.424 -0.1146  0.4728 -0.1213
 6058SOL    HW129807   3.341   0.932   3.475  1.7013  1.3268 -1.6128
 6058SOL    HW229808   3.300   0.874   3.339  0.3425 -0.0465 -0.4594
 6059SOL     OW29809   0.123   1.620   3.651  0.6240 -0.5398  0.0623
 6059SOL    HW129810   0.139   1.561   3.578 -1.1772 -1.6896  0.6016
 6059SOL    HW229811   0.028   1.606   3.653  0.7825 -1.5376  0.8278
 6060SOL     OW29812   4.437   0.448   3.484  0.5722  0.0744 -0.5513
 6060SOL    HW129813   4.344   0.450   3.507  0.6499 -0.8562 -0.1563
 6060SOL    HW229814   4.458   0.357   3.465 -0.3318  0.0349 -1.3681
 6061SOL     OW29815   0.850   0.381   5.217 -0.2018 -0.9354  0.0953
 6061SOL    HW129816   0.902   0.462   5.210 -1.2192 -0.3903 -1.1111
 6061SOL    HW229817   0.762   0.419   5.225  0.3961  0.1865  1.4190
 6062SOL     OW29818   4.096   0.079   6.255 -0.8553 -0.6295  0.3248
 6062SOL    HW129819   4.087   0.137   6.331 -0.9944  0.3058 -0.4098
 6062SOL    HW229820   4.007   0.064   6.224 -1.0985  1.0936  0.2170
 6063SOL     OW29821   0.296   2.510   3.316 -0.3535  0.1878  0.2675
 6063SOL    HW129822   0.267   2.484   3.229  1.9579 -0.4718 -0.3055
 6063SOL    HW229823   0.213   2.498   3.363  0.2007 -1.2351  0.9019
 6064SOL     OW29824   2.773   3.431   3.548  0.2839 -0.6654 -0.4707
 6064SOL    HW129825   2.831   3.387   3.610  0.7056  0.2654 -0.2110
 6064SOL    HW229826   2.802   3.522   3.554 -2.8291  0.3514 -0.7851
 6065SOL     OW29827   0.735   1.268   6.636  0.1540  0.4054  1.1689
 6065SOL    HW129828   0.684   1.242   6.559  0.9452 -2.4378  1.6119
 6065SOL    HW229829   0.682   1.246   6.713  0.0663 -2.0720  0.3834
 6066SOL     OW29830   3.858   3.571   9.246 -0.9299  0.3044 -0.1455
 6066SOL    HW129831   3.836   3.564   9.153  0.4035 -1.7047 -0.2951
 6066SOL    HW229832   3.931   3.510   9.251 -1.0035  0.3844  1.8126
 6067SOL     OW29833   3.940   1.114   2.569  0.5085 -0.1386  0.4371
 6067SOL    HW129834   3.926   1.067   2.651 -0.0073  0.0090  0.4294
 6067SOL    HW229835   3.874   1.073   2.514  2.4376 -2.6745  0.0138
 6068SOL     OW29836   1.291   0.014   9.845 -0.2179 -0.2306  0.2811
 6068SOL    HW129837   1.317   0.032   9.935  0.3548  0.9315 -0.1311
 6068SOL    HW229838   1.293   4.658   9.833  1.6433 -0.0299 -1.0099
 6069SOL     OW29839   2.815   1.581   7.898  0.1595 -0.2002  0.4161
 6069SOL    HW129840   2.723   1.557   7.894  0.2022 -0.1258 -0.8599
 6069SOL    HW229841   2.806   1.640   7.973 -0.1628 -0.1161  0.3066
 6070SOL     OW29842   1.285   0.302   5.322 -0.3706  0.1145  0.0248
 6070SOL    HW129843   1.272   0.329   5.231  1.4096  2.7489  0.5563
 6070SOL    HW229844   1.326   0.382   5.355 -0.8070 -0.0424  0.9397
 6071SOL     OW29845   3.299   1.371  10.439 -0.3161 -0.0822 -0.0079
 6071SOL    HW129846   3.378   1.404  10.480 -1.5348  2.8102  0.0060
 6071SOL    HW229847   3.260   1.456  10.418  0.6605  0.4675  0.4639
 6072SOL     OW29848   1.264   2.007  12.757 -0.1117  0.0016  0.6906
 6072SOL    HW129849   1.339   1.969  12.802 -1.7057 -2.4723  1.2606
 6072SOL    HW229850   1.281   2.030  12.665 -0.8903  0.5503  0.6784
 6073SOL     OW29851   4.440   1.312   9.242  0.6093 -0.8491  0.3452
 6073SOL    HW129852   4.426   1.368   9.317 -2.4460 -0.1559 -0.7637
 6073SOL    HW229853   4.409   1.365   9.169  2.4019 -2.3744 -1.5471
 6074SOL     OW29854   1.109   3.488  13.504 -0.0013 -0.4105  0.1429
 6074SOL    HW129855   1.190   3.510  13.458  0.2083  0.8625  1.1422
 6074SOL    HW229856   1.114   3.539  13.585 -2.1272 -0.5076  0.3262
 6075SOL     OW29857   3.742   3.934   6.690  0.1787 -0.4573  0.1318
 6075SOL    HW129858   3.746   4.006   6.752 -0.1050 -2.1820  2.1563
 6075SOL    HW229859   3.681   3.944   6.617  0.3172 -2.1106 -0.2228
 6076SOL     OW29860   2.444   1.015   2.115 -0.3421  0.4199 -0.0659
 6076SOL    HW129861   2.391   0.980   2.187 -1.2748 -3.0305 -2.4280
 6076SOL    HW229862   2.398   1.094   2.086 -0.1832  0.0292 -1.4043
 6077SOL     OW29863   2.604   3.338   5.174  0.2013  0.7737  0.3237
 6077SOL    HW129864   2.695   3.354   5.149 -0.4668  0.6884 -2.1662
 6077SOL    HW229865   2.612   3.275   5.245 -1.1009 -1.7990 -1.8126
 6078SOL     OW29866   0.506   2.156   2.530  0.3132  0.1846 -0.3710
 6078SOL    HW129867   0.497   2.225   2.465  1.5986 -0.7743 -1.5657
 6078SOL    HW229868   0.545   2.088   2.475 -1.0950 -0.8966 -0.0476
 6079SOL     OW29869   1.097   4.688   5.466 -0.3205  0.2614 -0.3594
 6079SOL    HW129870   1.072   4.596   5.469  2.4015 -0.4158  1.7879
 6079SOL    HW229871   1.097   4.719   5.375  0.9762  0.0844 -0.4230
 6080SOL     OW29872   1.895   0.939  12.611 -0.3626 -0.4423  0.0552
 6080SOL    HW129873   1.875   0.942  12.704 -0.6179  0.8861 -0.0384
 6080SOL    HW229874   1.986   0.912  12.602 -0.3996 -0.0736 -1.4479
 6081SOL     OW29875   1.122   3.751   8.027 -0.7261 -0.6169  0.0370
 6081SOL    HW129876   1.086   3.662   8.022  1.3114 -1.4394 -0.0739
 6081SOL    HW229877   1.041   3.798   8.045  0.5979  1.7653 -0.1618
 6082SOL     OW29878   1.491   1.613   5.628  0.7182 -0.7028  0.4662
 6082SOL    HW129879   1.464   1.643   5.541  0.5930 -2.3410 -0.0595
 6082SOL    HW229880   1.468   1.682   5.690  1.5033 -0.5750  0.6124
 6083SOL     OW29881   3.167   1.723   2.493  0.4982 -0.1726 -0.2798
 6083SOL    HW129882   3.127   1.647   2.535  0.2618 -0.1018 -0.3717
 6083SOL    HW229883   3.218   1.693   2.418  1.3227 -0.7078  0.4950
 6084SOL     OW29884   3.224   0.790   2.698  0.1157 -0.2758  0.7680
 6084SOL    HW129885   3.132   0.812   2.681  1.2849  1.9585 -2.8189
 6084SOL    HW229886   3.208   0.708   2.744  2.5170 -0.9680  0.3534
 6085SOL     OW29887   0.239   2.730   3.922  0.4923  0.0464 -0.7440
 6085SOL    HW129888   0.268   2.766   4.005  0.4933 -2.4833  0.3379
 6085SOL    HW229889   0.316   2.722   3.866  0.7431  0.8768 -0.5181
 6086SOL     OW29890   2.327   1.795   2.761  0.5322 -0.6623  0.4543
 6086SOL    HW129891   2.239   1.795   2.725 -0.8497 -0.4389  3.8254
 6086SOL    HW229892   2.309   1.814   2.853 -0.7168 -0.9617  0.2682
 6087SOL     OW29893   2.132   1.375   4.139  0.2225  0.6191  0.1066
 6087SOL    HW129894   2.088   1.379   4.224 -4.4064 -4.0108 -2.0642
 6087SOL    HW229895   2.083   1.299   4.107  3.3493 -0.4896 -2.0444
 6088SOL     OW29896   0.201   3.502   6.606 -0.1028 -0.4261 -0.0614
 6088SOL    HW129897   0.229   3.567   6.541 -0.6162 -0.3606 -0.2188
 6088SOL    HW229898   0.186   3.562   6.679  0.6654 -1.0835  0.6432
 6089SOL     OW29899   2.567   3.735   8.308 -0.9948  0.3236 -0.6374
 6089SOL    HW129900   2.633   3.673   8.276  1.6611  1.5881  2.4117
 6089SOL    HW229901   2.590   3.824   8.284  0.7318  0.1514  0.3675
 6090SOL     OW29902   1.879   4.180  17.157  0.0771  0.0180  0.4818
 6090SOL    HW129903   1.926   4.261  17.181 -1.7771  1.1120  0.3979
 6090SOL    HW229904   1.859   4.188  17.063  1.7906 -0.6501  0.0624
 6091SOL     OW29905   2.309   0.755   5.674 -0.0635  0.1103 -0.1146
 6091SOL    HW129906   2.302   0.843   5.635 -0.6026  0.1039 -0.0416
 6091SOL    HW229907   2.227   0.755   5.724 -1.9877 -0.7754 -3.2252
 6092SOL     OW29908   3.491   3.580   4.222  0.0187  0.8893  0.3714
 6092SOL    HW129909   3.489   3.568   4.317 -0.7698  1.9453  0.4896
 6092SOL    HW229910   3.569   3.634   4.216  0.1674  0.9344  2.4846
 6093SOL     OW29911   4.286   1.022   5.892 -0.2060  0.2605  0.2735
 6093SOL    HW129912   4.334   1.008   5.974  1.4945  1.3910 -0.5525
 6093SOL    HW229913   4.254   1.112   5.904  1.0251  0.3846  2.5669
 6094SOL     OW29914   0.876   0.824   1.918  0.0913 -0.5954  0.2994
 6094SOL    HW129915   0.956   0.869   1.890 -1.1320  1.8586  0.7358
 6094SOL    HW229916   0.876   0.761   1.846  1.8974 -0.3859  0.0910
 6095SOL     OW29917   3.764   1.581   5.867 -0.0624  0.1208  0.4050
 6095SOL    HW129918   3.781   1.672   5.844 -1.6307  0.0636 -1.0050
 6095SOL    HW229919   3.681   1.569   5.821  1.1140 -2.6494 -1.0381
 6096SOL     OW29920   2.050   2.306  12.576 -0.7056 -0.4251 -0.1238
 6096SOL    HW129921   2.010   2.376  12.525  0.5287  0.4182  0.0550
 6096SOL    HW229922   1.997   2.234  12.543  0.1837 -1.2966  0.3307
 6097SOL     OW29923   0.220   1.932   0.205 -0.2818 -0.5028  0.3062
 6097SOL    HW129924   0.169   1.852   0.219 -2.2630  1.2673  3.1846
 6097SOL    HW229925   0.285   1.902   0.141  0.5478  1.4762  0.2317
 6098SOL     OW29926   4.655   0.743   9.519 -0.2019  0.8236  0.0432
 6098SOL    HW129927   4.588   0.790   9.568 -1.1471  1.0810 -1.4941
 6098SOL    HW229928   4.699   0.815   9.472  0.6367  0.5652  0.4370
 6099SOL     OW29929   4.223   3.967   5.091 -0.3732 -0.3795  0.4432
 6099SOL    HW129930   4.138   3.935   5.062  0.4739 -0.8271 -1.4823
 6099SOL    HW229931   4.245   4.011   5.009 -1.9199  2.3429  1.5014
 6100SOL     OW29932   4.722   2.272   6.285 -0.2239  0.0551  0.3274
 6100SOL    HW129933   4.713   2.264   6.190  0.0144 -1.7568  0.4452
 6100SOL    HW229934   4.638   2.313   6.304 -0.0377  0.8589 -0.5896
 6101SOL     OW29935   0.815   4.632   1.775  0.7568 -0.0794  0.3064
 6101SOL    HW129936   0.807   4.726   1.762  0.6026  0.1123  1.8338
 6101SOL    HW229937   0.726   4.607   1.798  0.4511  1.2507  0.5628
 6102SOL     OW29938   2.883   2.616   5.544 -0.2153  0.2402  0.0049
 6102SOL    HW129939   2.961   2.566   5.568 -2.0269 -2.7133 -0.2002
 6102SOL    HW229940   2.898   2.624   5.450  0.8802 -3.7256 -0.1791
 6103SOL     OW29941   4.240   0.535  13.958 -0.4615  0.0925 -0.7750
 6103SOL    HW129942   4.189   0.615  13.974  0.4601  0.9370 -2.0857
 6103SOL    HW229943   4.199   0.513  13.875  0.3053 -1.6374 -0.6976
 6104SOL     OW29944   3.586   1.125   0.469 -0.6243 -0.4240 -0.0928
 6104SOL    HW129945   3.605   1.121   0.563 -0.5631  1.9239 -0.0030
 6104SOL    HW229946   3.526   1.052   0.453 -1.3186 -0.0569  0.9088
 6105SOL     OW29947   3.229   1.650   0.286  0.3511  0.5768  0.1984
 6105SOL    HW129948   3.273   1.722   0.332 -1.8931  1.1344  1.4501
 6105SOL    HW229949   3.197   1.595   0.357 -0.4930 -2.0029 -2.1997
 6106SOL     OW29950   3.128   1.059   7.226  0.1041  0.3596  0.1070
 6106SOL    HW129951   3.048   1.112   7.216 -0.1087  0.3771  1.8490
 6106SOL    HW229952   3.097   0.970   7.246  1.3882 -0.4309 -1.4637
 6107SOL     OW29953   2.184   3.886   5.540  0.5862 -0.0494 -0.7250
 6107SOL    HW129954   2.232   3.876   5.458 -0.1460  1.6824 -1.3684
 6107SOL    HW229955   2.195   3.799   5.579  0.2430  0.3275  0.2283
 6108SOL     OW29956   0.422   2.360   3.506  0.1107 -0.5127  0.0530
 6108SOL    HW129957   0.383   2.420   3.442  1.9509 -0.0108 -0.5993
 6108SOL    HW229958   0.400   2.406   3.587  0.1929 -0.8271  0.2527
 6109SOL     OW29959   3.993   4.522  17.708  0.2283 -1.1052  0.2972
 6109SOL    HW129960   4.070   4.466  17.700  0.7690 -0.3925  0.5536
 6109SOL    HW229961   4.013   4.570   0.035  3.9910 -1.1982 -0.5970
 6110SOL     OW29962   3.812   2.625   5.991  0.5458  0.0376 -0.2090
 6110SOL    HW129963   3.801   2.677   6.071 -5.4010 -1.1815 -0.2085
 6110SOL    HW229964   3.727   2.588   5.967 -0.5613  2.8348 -0.6175
 6111SOL     OW29965   2.939   4.022  15.301 -0.3313 -0.5102 -0.1115
 6111SOL    HW129966   3.017   4.037  15.354 -0.2629 -0.8963 -0.1021
 6111SOL    HW229967   2.978   4.050  15.219 -0.1235 -2.1249 -0.5682
 6112SOL     OW29968   2.582   3.710  12.934  0.0142  0.2606 -0.2853
 6112SOL    HW129969   2.661   3.738  12.889 -0.4833 -0.1792 -1.4170
 6112SOL    HW229970   2.548   3.648  12.869 -1.5955  2.1826 -1.2737
 6113SOL     OW29971   3.716   3.538   8.726  0.1677 -0.0681  0.1916
 6113SOL    HW129972   3.690   3.590   8.650  0.8574  0.0289  0.0154
 6113SOL    HW229973   3.774   3.472   8.688  0.0047  0.0673 -0.2940
 6114SOL     OW29974   2.341   4.164   1.099 -0.3295 -0.1474  0.7643
 6114SOL    HW129975   2.313   4.082   1.059  2.2901  0.5673 -2.5647
 6114SOL    HW229976   2.407   4.192   1.035 -2.2487  3.3996  0.3019
 6115SOL     OW29977   3.940   2.930   8.751  0.1688  0.1973 -0.3441
 6115SOL    HW129978   3.913   2.905   8.839  0.8282  1.8634  0.3408
 6115SOL    HW229979   3.999   3.005   8.762 -0.0099  0.1973  0.6271
 6116SOL     OW29980   0.281   2.655   2.429  0.6913  0.1096  0.5635
 6116SOL    HW129981   0.212   2.612   2.378  2.9898 -1.2420 -1.3805
 6116SOL    HW229982   0.230   2.715   2.484  3.7445  2.1070  1.2130
 6117SOL     OW29983   3.102   0.474   7.647 -0.0150  0.7175 -0.2965
 6117SOL    HW129984   3.020   0.510   7.614  0.1175  0.2380 -1.1558
 6117SOL    HW229985   3.069   0.445   7.732  0.7920  0.5237 -0.0535
 6118SOL     OW29986   3.376   2.492   6.494 -0.0070  0.0627  0.3490
 6118SOL    HW129987   3.457   2.527   6.458 -0.4085  0.7624  0.1407
 6118SOL    HW229988   3.381   2.536   6.579 -1.1649 -1.8751  1.4450
 6119SOL     OW29989   0.434   4.589   0.856 -0.2524  0.0495  0.3090
 6119SOL    HW129990   0.479   4.639   0.788  1.1383 -2.0542 -0.3485
 6119SOL    HW229991   0.349   4.581   0.814 -0.4367 -2.4754  1.1413
 6120SOL     OW29992   3.899   2.620   9.570 -0.6763  0.4923  0.2083
 6120SOL    HW129993   3.892   2.673   9.491  2.0888 -2.0805 -1.7989
 6120SOL    HW229994   3.904   2.674   9.649  0.3084  2.0875 -0.9451
 6121SOL     OW29995   1.159   0.867   6.196 -0.0725 -0.2290 -0.7531
 6121SOL    HW129996   1.082   0.810   6.198 -1.7120  1.9727 -0.4566
 6121SOL    HW229997   1.165   0.911   6.111  1.7296  0.1168 -0.4481
 6122SOL     OW29998   3.799   3.198   7.449 -0.1648  0.3102  0.7302
 6122SOL    HW129999   3.830   3.288   7.433 -1.8183  0.7236 -0.1189
 6122SOL    HW230000   3.879   3.152   7.476 -1.1510 -1.1641  1.1241
 6123SOL     OW30001   0.251   2.496   7.333  0.0297  0.1027 -0.5182
 6123SOL    HW130002   0.346   2.499   7.316  0.2583  0.4286  0.8055
 6123SOL    HW230003   0.253   2.537   7.419 -0.0510  2.1869 -1.5038
 6124SOL     OW30004   1.179   1.071   8.902  0.4470 -0.4290 -0.2455
 6124SOL    HW130005   1.152   1.152   8.945  4.1541 -0.3119  1.8595
 6124SOL    HW230006   1.175   1.093   8.809  1.6293  0.9599  0.0177
 6125SOL     OW30007   0.084   0.738   6.661  0.4877 -0.0367  0.3590
 6125SOL    HW130008   0.043   0.658   6.628  0.7553 -0.5751  1.3541
 6125SOL    HW230009   0.025   0.748   6.735  0.7581 -1.1640  0.7256
 6126SOL     OW30010   1.904   4.489   4.051 -0.1662  0.3418 -0.2548
 6126SOL    HW130011   1.997   4.488   4.027  0.1610 -1.9790  1.1027
 6126SOL    HW230012   1.921   4.479   4.145  1.9103 -0.2684 -0.6801
 6127SOL     OW30013   1.249   2.470   6.344  0.2449  0.2314  0.3213
 6127SOL    HW130014   1.166   2.423   6.351  0.3918  0.0753  1.0011
 6127SOL    HW230015   1.285   2.420   6.271  0.5990  0.4466  0.3456
 6128SOL     OW30016   3.481   0.226   6.318 -0.5939  0.4563 -0.3007
 6128SOL    HW130017   3.568   0.267   6.308 -0.3551  0.3111  1.1745
 6128SOL    HW230018   3.467   0.168   6.244  0.1005  1.9951 -1.6588
 6129SOL     OW30019   3.376   1.301   2.420  0.0281  0.2835 -0.3296
 6129SOL    HW130020   3.372   1.378   2.364  1.0832  0.1914 -0.5337
 6129SOL    HW230021   3.362   1.231   2.357 -0.0690  0.5351 -0.5843
 6130SOL     OW30022   3.493   2.504   1.761  0.3135 -0.0327 -0.1948
 6130SOL    HW130023   3.537   2.473   1.840  1.5895 -1.4742 -1.4494
 6130SOL    HW230024   3.452   2.583   1.796 -0.2447 -0.2838 -0.2960
 6131SOL     OW30025   0.963   1.693   6.000 -0.1779  0.4156 -0.5418
 6131SOL    HW130026   0.877   1.662   6.029  0.5230 -0.3187  0.7736
 6131SOL    HW230027   0.959   1.789   6.003  4.2541  0.5895 -0.7976
 6132SOL     OW30028   1.421   2.446   8.587 -0.1935 -0.0290 -0.5427
 6132SOL    HW130029   1.509   2.480   8.601 -0.0148 -0.8507  0.3314
 6132SOL    HW230030   1.366   2.488   8.653  0.2521  1.0210 -0.8528
 6133SOL     OW30031   1.929   1.544   1.795  0.5912 -0.0138  0.0250
 6133SOL    HW130032   1.883   1.594   1.863 -0.8304 -0.8728 -0.2987
 6133SOL    HW230033   1.928   1.601   1.717  1.3768  1.7120  1.2726
 6134SOL     OW30034   2.576   1.823   5.386 -0.1961  0.2258 -0.2217
 6134SOL    HW130035   2.488   1.855   5.363  0.0348  1.7188  1.0081
 6134SOL    HW230036   2.610   1.900   5.432 -0.0852 -0.0112  0.0869
 6135SOL     OW30037   0.933   1.641   4.843  0.1715  0.2783  0.5502
 6135SOL    HW130038   0.848   1.607   4.873  1.3195 -0.6794  2.6902
 6135SOL    HW230039   0.932   1.611   4.752 -0.7851 -0.6978  0.8731
 6136SOL     OW30040   2.352   0.890  15.648 -0.6973  0.0158  0.1875
 6136SOL    HW130041   2.280   0.947  15.621 -0.2169  0.6351  0.2087
 6136SOL    HW230042   2.334   0.813  15.596 -0.4441 -0.3800  0.6844
 6137SOL     OW30043   2.220   0.292   3.777  0.3277  0.2886  0.4811
 6137SOL    HW130044   2.292   0.234   3.753 -2.5553 -2.7709 -0.8263
 6137SOL    HW230045   2.271   0.359   3.823  1.3590  0.6176 -1.1666
 6138SOL     OW30046   4.103   1.836  10.577 -0.1918 -0.6070  0.4636
 6138SOL    HW130047   4.066   1.806  10.660  1.5854  0.8008  1.7773
 6138SOL    HW230048   4.144   1.919  10.603 -0.0468 -0.9172  1.2344
 6139SOL     OW30049   0.024   1.167   4.344  0.2595 -0.3370  0.0757
 6139SOL    HW130050   0.014   1.175   4.439  0.1114  0.5833 -0.0175
 6139SOL    HW230051   4.679   1.125   4.322  1.2551 -1.1961 -2.0802
 6140SOL     OW30052   1.404   4.630  11.678 -0.1631 -0.6559 -0.2863
 6140SOL    HW130053   1.319   4.616  11.720  0.4951 -2.2314  0.5125
 6140SOL    HW230054   1.380   4.607  11.589 -0.9084 -1.8003  0.2012
 6141SOL     OW30055   0.879   0.345  15.158 -0.1809 -0.7085 -0.4961
 6141SOL    HW130056   0.833   0.279  15.106  0.3272 -2.3369  1.1530
 6141SOL    HW230057   0.970   0.332  15.134 -1.0286 -2.0475 -3.0391
 6142SOL     OW30058   1.506   1.473   4.549  0.3649 -0.2176 -0.5287
 6142SOL    HW130059   1.557   1.527   4.489  0.8778 -0.7394 -0.5568
 6142SOL    HW230060   1.535   1.389   4.515  0.6693 -0.1968 -0.3125
 6143SOL     OW30061   0.276   2.266   0.024  0.5083 -0.2634 -0.2790
 6143SOL    HW130062   0.189   2.289  17.747  0.1958  1.4289  1.8372
 6143SOL    HW230063   0.324   2.342  17.746 -0.5152  0.5947  0.2193
 6144SOL     OW30064   4.399   1.624   2.281 -0.2659  0.5536 -0.0752
 6144SOL    HW130065   4.399   1.615   2.186  0.0281 -2.3095  0.1910
 6144SOL    HW230066   4.314   1.583   2.295  1.5225 -2.6632  1.4893
 6145SOL     OW30067   2.751   3.755   4.113 -0.2601  0.5395  0.0763
 6145SOL    HW130068   2.774   3.800   4.031  0.7230  1.2076  0.7283
 6145SOL    HW230069   2.656   3.764   4.114 -0.3252 -0.1836  0.4299
 6146SOL     OW30070   1.882   3.008   2.027  0.1748  0.1994  0.1149
 6146SOL    HW130071   1.884   3.083   2.087 -2.2209 -0.7324  1.3399
 6146SOL    HW230072   1.798   2.965   2.042  2.4729 -3.3318  2.7620
 6147SOL     OW30073   4.640   3.332   8.019  0.6494  0.0961 -0.0315
 6147SOL    HW130074   4.653   3.385   7.941 -0.5297  0.5002  0.0441
 6147SOL    HW230075   4.592   3.388   8.080 -0.0725 -0.2734 -0.2659
 6148SOL     OW30076   4.622   4.043   6.828 -0.6558 -0.2811 -0.1762
 6148SOL    HW130077   4.573   4.092   6.894 -0.1097  0.9254 -0.6602
 6148SOL    HW230078   4.701   4.098   6.822  1.7493 -3.6448  0.6215
 6149SOL     OW30079   1.594   1.777   4.998  0.3982  0.1830  0.3728
 6149SOL    HW130080   1.638   1.768   4.913 -0.4145  2.2256 -0.2563
 6149SOL    HW230081   1.505   1.748   4.977  0.2189  1.6957 -0.8904
 6150SOL     OW30082   2.931   1.278   3.951  0.4393  0.4958 -0.6032
 6150SOL    HW130083   2.854   1.328   3.978  0.1216 -1.4288  2.0959
 6150SOL    HW230084   2.904   1.192   3.983  3.2413  0.1168  0.7545
 6151SOL     OW30085   1.988   0.291  10.846  0.7778 -0.3180 -0.0725
 6151SOL    HW130086   2.025   0.376  10.823 -1.7870  1.0470  0.8515
 6151SOL    HW230087   1.922   0.318  10.910  2.6869 -1.0887  2.2044
 6152SOL     OW30088   1.347   4.627  11.401 -1.2473 -0.0453  0.4816
 6152SOL    HW130089   1.355   4.571  11.323  0.3234  0.8652 -0.0129
 6152SOL    HW230090   1.424   4.681  11.385 -0.8854 -0.4608  0.8433
 6153SOL     OW30091   0.058   2.828   7.841 -0.0964  0.3018  0.1883
 6153SOL    HW130092   0.129   2.764   7.849 -1.3326 -1.0627  0.3267
 6153SOL    HW230093   0.109   2.907   7.861  1.0015 -0.9543  2.3453
 6154SOL     OW30094   3.898   3.650   5.407 -0.0670 -0.1852  0.1745
 6154SOL    HW130095   3.989   3.669   5.426 -0.4480  0.2584  1.6276
 6154SOL    HW230096   3.884   3.572   5.462  0.2448  0.0712  0.6240
 6155SOL     OW30097   1.541   0.406   2.501 -0.1759 -0.3834  0.1923
 6155SOL    HW130098   1.583   0.489   2.523 -2.3854  0.1167  2.5927
 6155SOL    HW230099   1.497   0.432   2.419  1.2518  0.2079 -0.3888
 6156SOL     OW30100   0.610   4.482   5.521 -0.5038 -0.2119  0.0399
 6156SOL    HW130101   0.622   4.441   5.607 -0.4338  1.3391  0.7596
 6156SOL    HW230102   0.591   4.567   5.559 -0.7444  0.4820 -1.6218
 6157SOL     OW30103   1.901   3.738   0.369 -0.4179  0.0590 -0.5441
 6157SOL    HW130104   1.909   3.662   0.312 -1.6004 -0.0623 -0.5382
 6157SOL    HW230105   1.818   3.711   0.408  0.9041  0.0963  2.3166
 6158SOL     OW30106   1.532   1.249   8.641 -0.5196 -0.0954 -0.1981
 6158SOL    HW130107   1.587   1.187   8.593 -0.6755 -0.2068 -0.2317
 6158SOL    HW230108   1.482   1.292   8.571 -1.5205 -0.0711  0.5376
 6159SOL     OW30109   2.481   1.301   5.460  0.0314 -0.1851 -0.1532
 6159SOL    HW130110   2.503   1.394   5.451  0.9408 -0.3665  0.1412
 6159SOL    HW230111   2.406   1.305   5.519  1.5115 -1.4498  1.8410
 6160SOL     OW30112   1.200   4.391   5.322  0.2678  0.3169  0.0212
 6160SOL    HW130113   1.247   4.326   5.270 -0.5185  0.2734 -0.6349
 6160SOL    HW230114   1.116   4.373   5.280  1.1779  0.0861 -1.6880
 6161SOL     OW30115   1.743   0.274   4.708  0.6357  0.1067 -0.4253
 6161SOL    HW130116   1.657   0.232   4.697  0.6271 -0.0294  0.1390
 6161SOL    HW230117   1.730   0.349   4.767  1.7457  0.2097 -0.3170
 6162SOL     OW30118   0.883   3.473   6.242  0.4765 -0.1237  0.2737
 6162SOL    HW130119   0.900   3.536   6.311  1.0311  0.1713 -0.1401
 6162SOL    HW230120   0.787   3.475   6.234  0.3197  1.5956  2.8216
 6163SOL     OW30121   3.726   1.058   4.822 -0.5522  0.3123  0.0145
 6163SOL    HW130122   3.708   1.089   4.911 -0.4793  0.8633 -0.1652
 6163SOL    HW230123   3.741   1.137   4.772 -1.7097  2.2314  2.6818
 6164SOL     OW30124   2.030   3.153  12.908 -0.2738  0.5179  0.0296
 6164SOL    HW130125   2.052   3.183  12.820 -0.0144  1.1572  0.3097
 6164SOL    HW230126   1.957   3.095  12.887  1.9815 -1.5280 -2.1233
 6165SOL     OW30127   2.567   0.357   5.919  0.2149 -0.1606 -0.1051
 6165SOL    HW130128   2.611   0.418   5.860  1.4182 -2.4512 -1.5963
 6165SOL    HW230129   2.490   0.410   5.937 -0.2282 -0.5991 -0.7373
 6166SOL     OW30130   2.294   0.860  17.399  0.1358 -0.1575 -0.4821
 6166SOL    HW130131   2.272   0.816  17.481  1.6130 -0.8811 -0.4753
 6166SOL    HW230132   2.203   0.855  17.368 -0.2188  0.9369  0.3858
 6167SOL     OW30133   3.325   2.752   7.753 -0.5780 -0.4994 -0.0612
 6167SOL    HW130134   3.272   2.685   7.710  1.2943 -0.4445 -2.4853
 6167SOL    HW230135   3.279   2.834   7.733  0.8796 -0.3993 -3.0598
 6168SOL     OW30136   3.466   2.615  10.875 -0.1117 -0.2738  0.0211
 6168SOL    HW130137   3.486   2.535  10.826 -2.9375 -1.2545  0.4774
 6168SOL    HW230138   3.541   2.674  10.872  1.1676 -1.9846 -1.9220
 6169SOL     OW30139   0.523   2.780   9.371 -0.1515  0.0388  0.6229
 6169SOL    HW130140   0.505   2.842   9.301  0.4502 -0.9501 -0.4230
 6169SOL    HW230141   0.616   2.759   9.360 -0.5172 -1.1293 -0.2641
 6170SOL     OW30142   2.232   3.273   5.135 -0.0009  0.4202  0.5785
 6170SOL    HW130143   2.149   3.303   5.173 -0.6711  0.7219 -1.0868
 6170SOL    HW230144   2.224   3.178   5.136  2.1149  0.2497  0.0490
 6171SOL     OW30145   1.825   3.163   5.931 -0.2153  0.7659 -0.3529
 6171SOL    HW130146   1.807   3.229   5.997 -2.1390 -0.0919 -0.0028
 6171SOL    HW230147   1.736   3.137   5.907 -0.9224  1.7077  1.2580
 6172SOL     OW30148   1.434   2.193   1.388  0.2638 -0.0566 -0.1136
 6172SOL    HW130149   1.405   2.277   1.353  1.5806  0.6125  0.3610
 6172SOL    HW230150   1.418   2.202   1.482 -3.7334  0.6148 -0.8866
 6173SOL     OW30151   3.923   1.808   5.560  0.3936 -0.0247 -0.0843
 6173SOL    HW130152   3.972   1.889   5.549  3.4301 -2.0100 -0.9952
 6173SOL    HW230153   3.853   1.827   5.497 -0.3992  2.1617  1.4413
 6174SOL     OW30154   3.969   2.459   3.990 -0.2851 -0.6273 -0.0415
 6174SOL    HW130155   3.954   2.373   4.030 -1.0408  0.1470  1.3275
 6174SOL    HW230156   4.023   2.432   3.915 -2.5759 -0.2973 -1.8180
 6175SOL     OW30157   2.791   3.311  15.723  0.9703  0.5456  0.0701
 6175SOL    HW130158   2.824   3.395  15.754  1.9467 -0.1284  0.8685
 6175SOL    HW230159   2.798   3.316  15.628  0.7715 -0.2606  0.0137
 6176SOL     OW30160   4.053   0.564   2.312 -0.0851  0.2536 -0.3115
 6176SOL    HW130161   3.997   0.636   2.340 -0.4166 -1.1214  2.6133
 6176SOL    HW230162   4.019   0.534   2.228 -2.0931 -0.7655  0.8722
 6177SOL     OW30163   2.706   2.967   4.982  0.1099  0.5910  0.2427
 6177SOL    HW130164   2.655   3.020   4.920 -1.2570 -0.1364  0.7402
 6177SOL    HW230165   2.632   2.937   5.034  0.2300  3.1004  1.8930
 6178SOL     OW30166   2.838   1.928   6.871  0.1689 -0.1666  0.1094
 6178SOL    HW130167   2.873   2.005   6.914 -1.0805 -0.3109  1.3993
 6178SOL    HW230168   2.783   1.881   6.933  0.8357 -1.1845 -0.0629
 6179SOL     OW30169   1.420   0.738  15.561 -0.0940 -0.0701  0.4321
 6179SOL    HW130170   1.338   0.786  15.576 -2.3619 -4.2117  1.2584
 6179SOL    HW230171   1.400   0.696  15.477 -1.2209 -3.1634  2.2579
 6180SOL     OW30172   0.923   3.207   6.473  0.0224  0.2554 -0.2348
 6180SOL    HW130173   0.874   3.140   6.424 -1.0502  0.1640  0.9603
 6180SOL    HW230174   0.873   3.210   6.554 -1.6256 -1.1536 -1.1913
 6181SOL     OW30175   0.438   1.343   2.689  0.1711 -0.3314 -0.2402
 6181SOL    HW130176   0.430   1.357   2.595  0.8622 -2.0576 -0.5603
 6181SOL    HW230177   0.451   1.434   2.716  1.4317 -0.1572 -1.4199
 6182SOL     OW30178   0.568   2.359   4.195 -0.1522  0.1451 -0.1931
 6182SOL    HW130179   0.588   2.270   4.168 -1.1470  0.2988 -1.4528
 6182SOL    HW230180   0.487   2.359   4.246 -0.4775 -0.7312 -0.7069
 6183SOL     OW30181   4.385   3.325  12.063 -0.1643 -0.3498 -0.1159
 6183SOL    HW130182   4.428   3.394  12.013 -0.9326  0.2218  0.0223
 6183SOL    HW230183   4.462   3.286  12.106  1.0246  1.1627 -0.8683
 6184SOL     OW30184   3.662   2.737   5.583 -0.4467 -0.2087 -0.3124
 6184SOL    HW130185   3.635   2.815   5.631 -0.1862  1.1553 -2.4050
 6184SOL    HW230186   3.751   2.729   5.617  0.1189  0.8502 -1.5589
 6185SOL     OW30187   2.711   0.709  12.186  0.3822  0.1945 -0.1501
 6185SOL    HW130188   2.791   0.662  12.162 -1.6425 -1.3587 -3.9478
 6185SOL    HW230189   2.720   0.702  12.281 -0.8141  0.0480 -0.0462
 6186SOL     OW30190   2.163   3.801   6.012 -0.4974 -0.4054 -0.6234
 6186SOL    HW130191   2.230   3.828   6.075  0.2684 -2.0778 -0.7042
 6186SOL    HW230192   2.206   3.812   5.927 -1.0584  2.9439 -0.4812
 6187SOL     OW30193   3.766   3.263   5.758 -0.4771  0.4976  0.0620
 6187SOL    HW130194   3.851   3.289   5.794 -0.3504 -0.7299  0.6337
 6187SOL    HW230195   3.791   3.208   5.684  2.2584 -0.2231  1.5189
 6188SOL     OW30196   3.672   4.096  10.025  0.4645 -0.0067 -0.4866
 6188SOL    HW130197   3.736   4.025  10.014  1.2574  0.8587 -1.4330
 6188SOL    HW230198   3.645   4.087  10.116 -1.3091  0.0046 -1.0040
 6189SOL     OW30199   2.691   0.801   4.045 -0.4174  0.2014  0.5539
 6189SOL    HW130200   2.753   0.729   4.038 -2.0734 -1.1919  0.3500
 6189SOL    HW230201   2.613   0.750   4.025 -0.4738 -0.0825  1.5049
 6190SOL     OW30202   1.404   0.264  15.773 -0.2902 -0.1000 -0.2192
 6190SOL    HW130203   1.475   0.298  15.718  0.1256  0.9563  0.9570
 6190SOL    HW230204   1.442   0.195  15.828  1.4325  1.2057  0.2178
 6191SOL     OW30205   3.929   2.190   5.715 -0.3839 -0.9728  0.2086
 6191SOL    HW130206   3.883   2.273   5.703  1.0594 -0.2506 -0.3917
 6191SOL    HW230207   3.932   2.193   5.810  1.2292  0.1043  0.1296
 6192SOL     OW30208   1.681   3.903   6.124 -0.0099 -0.3888 -0.2925
 6192SOL    HW130209   1.614   3.971   6.118 -0.2944 -0.3773  2.8603
 6192SOL    HW230210   1.693   3.883   6.217 -1.5154 -1.2095 -0.2759
 6193SOL     OW30211   4.112   4.037   7.432 -0.2127 -0.0394 -0.3773
 6193SOL    HW130212   4.164   4.059   7.509 -0.2236  0.1764 -0.4303
 6193SOL    HW230213   4.181   4.023   7.366  1.7791 -1.7686  2.0610
 6194SOL     OW30214   4.394   4.009   5.290  0.4603  0.0704 -0.1054
 6194SOL    HW130215   4.321   3.975   5.239 -0.6329  2.6877 -0.2465
 6194SOL    HW230216   4.454   4.022   5.217  1.5566 -1.0885  0.5800
 6195SOL     OW30217   4.313   3.145   8.939  0.0004  0.0450 -0.3673
 6195SOL    HW130218   4.285   3.053   8.944  2.1083 -0.6423 -1.1452
 6195SOL    HW230219   4.358   3.157   9.022 -0.9061 -1.1868  0.3050
 6196SOL     OW30220   1.392   3.917   5.688 -0.0875  0.1926 -0.3047
 6196SOL    HW130221   1.415   3.833   5.729  3.0018  1.1546 -0.0937
 6196SOL    HW230222   1.406   3.888   5.598  1.9024 -0.2744  0.1717
 6197SOL     OW30223   2.925   2.936   3.754  0.1330  0.1056 -0.1492
 6197SOL    HW130224   2.925   2.869   3.822 -0.5573 -1.3234 -1.5501
 6197SOL    HW230225   2.949   3.006   3.814 -0.6613 -0.3212  0.6592
 6198SOL     OW30226   0.278   4.321   5.608 -0.1600 -0.3153 -0.0544
 6198SOL    HW130227   0.315   4.375   5.678 -1.4735  0.7471 -0.1859
 6198SOL    HW230228   0.205   4.381   5.590  1.1003  1.7857  1.9138
 6199SOL     OW30229   4.319   1.874   5.050  0.1220  0.1873  0.6678
 6199SOL    HW130230   4.392   1.824   5.089 -0.4174 -0.5468  0.7431
 6199SOL    HW230231   4.253   1.860   5.118 -0.0234 -1.6847  0.1436
 6200SOL     OW30232   1.815   1.328  11.730 -0.3093  0.6293  0.0042
 6200SOL    HW130233   1.847   1.308  11.818 -2.3949 -0.0927  0.6080
 6200SOL    HW230234   1.821   1.244  11.685 -0.1417  1.2298 -1.0930
 6201SOL     OW30235   1.455   3.374   2.709  0.2057  0.1946 -0.1562
 6201SOL    HW130236   1.516   3.429   2.660  0.2257 -1.2049 -1.7236
 6201SOL    HW230237   1.372   3.404   2.673 -0.6890 -2.4618 -0.3294
 6202SOL     OW30238   1.819   0.649   2.215 -0.2409 -0.1605 -0.4168
 6202SOL    HW130239   1.907   0.687   2.206 -0.4099  0.2916 -0.1338
 6202SOL    HW230240   1.846   0.557   2.210  2.3735  0.6291 -0.8113
 6203SOL     OW30241   3.075   3.840   4.455 -0.1958  0.1056 -0.3390
 6203SOL    HW130242   3.094   3.752   4.420  0.0228 -0.3659  0.9889
 6203SOL    HW230243   2.987   3.849   4.420  0.1266  1.5952 -0.7510
 6204SOL     OW30244   4.536   2.709  14.755 -0.0438  0.5625  0.4889
 6204SOL    HW130245   4.561   2.722  14.847  2.1797 -1.7914  0.2174
 6204SOL    HW230246   4.612   2.742  14.706  0.4121  0.2770  0.9962
 6205SOL     OW30247   3.631   1.173  17.559 -0.9277 -0.5634 -0.0710
 6205SOL    HW130248   3.584   1.108  17.507 -2.0652  0.2718 -0.0809
 6205SOL    HW230249   3.713   1.126  17.572 -0.3772  0.0220 -1.3527
 6206SOL     OW30250   0.378   1.103  11.171 -0.1485 -0.4958  0.1625
 6206SOL    HW130251   0.365   1.015  11.134 -1.4770 -0.0076 -0.5474
 6206SOL    HW230252   0.447   1.087  11.235 -2.0308  0.0003  2.3152
 6207SOL     OW30253   4.118   1.190  13.833  0.3703 -0.0901 -0.0557
 6207SOL    HW130254   4.160   1.222  13.753 -0.4885  0.0784 -0.4463
 6207SOL    HW230255   4.076   1.271  13.864  0.1996  0.3183 -1.3662
 6208SOL     OW30256   3.687   1.294   5.147 -0.3627  0.3437  0.1099
 6208SOL    HW130257   3.628   1.285   5.073 -0.5770  0.4299  0.2695
 6208SOL    HW230258   3.772   1.285   5.104 -0.3574 -0.1678  0.2285
 6209SOL     OW30259   4.407   3.932   2.360 -0.4608 -0.5061 -0.5031
 6209SOL    HW130260   4.451   3.868   2.416 -0.1372 -0.0310 -0.2186
 6209SOL    HW230261   4.322   3.938   2.404 -0.0757 -0.0383  0.1690
 6210SOL     OW30262   1.140   2.194   0.901  0.3906  0.1881  0.7045
 6210SOL    HW130263   1.180   2.254   0.965 -3.5699  0.4151  2.9877
 6210SOL    HW230264   1.098   2.258   0.843 -0.5413 -0.2181  0.9265
 6211SOL     OW30265   1.167   1.490  10.743  0.5000 -0.3577  0.0453
 6211SOL    HW130266   1.252   1.498  10.700  0.0852 -0.1686 -0.7256
 6211SOL    HW230267   1.150   1.584  10.755  1.7948 -0.2086  0.7490
 6212SOL     OW30268   0.433   4.516  12.307 -0.0815 -0.7428 -0.4634
 6212SOL    HW130269   0.528   4.524  12.314 -0.3559  1.9277  0.1986
 6212SOL    HW230270   0.409   4.573  12.234  0.1312  0.3355  0.3133
 6213SOL     OW30271   3.321   4.199   7.289 -0.1265 -0.8591  0.3471
 6213SOL    HW130272   3.245   4.250   7.262  1.2283 -0.8472 -3.3812
 6213SOL    HW230273   3.316   4.232   7.379  0.7870 -1.7868  0.7331
 6214SOL     OW30274   2.591   0.438  12.795  0.6272 -0.5504  0.0911
 6214SOL    HW130275   2.565   0.435  12.887  0.2346 -1.5772 -0.0505
 6214SOL    HW230276   2.599   0.343  12.780  1.1267 -0.2549 -1.5008
 6215SOL     OW30277   0.663   0.578  17.502  0.4734 -0.5070 -0.0728
 6215SOL    HW130278   0.705   0.513  17.558 -2.2432 -1.1288  1.2487
 6215SOL    HW230279   0.720   0.654  17.513  1.2450 -1.3641  1.7046
 6216SOL     OW30280   1.354   1.825   5.502 -0.3502 -0.0868 -0.6415
 6216SOL    HW130281   1.365   1.844   5.409  4.2132 -1.6758 -0.4028
 6216SOL    HW230282   1.354   1.917   5.530  1.1530 -0.0734 -0.7184
 6217SOL     OW30283   2.273   4.542   4.750 -0.5704 -0.0180  0.1119
 6217SOL    HW130284   2.328   4.467   4.729 -1.1130 -0.1697 -0.7522
 6217SOL    HW230285   2.223   4.501   4.820  2.1233  0.0169  2.0509
 6218SOL     OW30286   1.376   0.434   3.316 -0.1238 -0.2787  0.8028
 6218SOL    HW130287   1.401   0.342   3.321  1.3096  0.1785  2.0260
 6218SOL    HW230288   1.380   0.440   3.220 -2.7896 -1.5824  0.6314
 6219SOL     OW30289   0.150   0.737   4.795  0.3085  0.0374 -0.0834
 6219SOL    HW130290   0.183   0.796   4.728  0.9398 -2.0725 -1.6439
 6219SOL    HW230291   0.055   0.738   4.782 -0.3091 -1.0083  4.2137
 6220SOL     OW30292   4.008   3.842  11.733 -0.2456  0.2410 -0.6269
 6220SOL    HW130293   3.939   3.778  11.753 -1.5568  1.5407 -1.0300
 6220SOL    HW230294   4.004   3.902  11.807 -1.2161 -0.2410 -0.2757
 6221SOL     OW30295   4.168   2.734   9.648 -0.2353 -0.2890  0.0412
 6221SOL    HW130296   4.105   2.806   9.650 -0.0807 -0.1605  0.3629
 6221SOL    HW230297   4.242   2.783   9.613  0.1059 -0.2463  0.8244
 6222SOL     OW30298   1.496   4.643   3.196 -0.0316 -0.3332  0.5022
 6222SOL    HW130299   1.563   4.590   3.153  1.0669  1.2935  0.2225
 6222SOL    HW230300   1.415   4.599   3.167 -0.2639  0.3658  0.1082
 6223SOL     OW30301   4.189   3.070   7.779 -0.2268 -0.1769 -0.2314
 6223SOL    HW130302   4.166   3.160   7.756 -0.1082 -0.2436 -0.6111
 6223SOL    HW230303   4.279   3.059   7.750  0.2921  0.2522  1.1907
 6224SOL     OW30304   3.761   0.162   8.793  0.1786 -0.4270  0.0583
 6224SOL    HW130305   3.813   0.219   8.850 -3.2082  2.3696  0.3546
 6224SOL    HW230306   3.823   0.148   8.722  0.5573  1.4945 -0.0061
 6225SOL     OW30307   3.399   3.120  15.696 -0.1764  0.3273  0.1536
 6225SOL    HW130308   3.480   3.112  15.646 -0.0995  0.3439  0.2758
 6225SOL    HW230309   3.365   3.030  15.692  0.1222  0.1223  1.9876
 6226SOL     OW30310   1.738   1.066   6.941  0.1423 -0.2118  0.2773
 6226SOL    HW130311   1.806   1.000   6.936  0.0954 -0.4282  2.8333
 6226SOL    HW230312   1.791   1.142   6.967 -0.0639 -0.3295  1.0391
 6227SOL     OW30313   0.789   3.160  11.864 -0.1739 -0.2739 -0.3724
 6227SOL    HW130314   0.749   3.162  11.777 -1.0209 -0.9904  0.0134
 6227SOL    HW230315   0.873   3.206  11.858  0.1975 -0.7914  1.0086
 6228SOL     OW30316   0.315   0.906   6.737  0.0212  0.4202 -0.3282
 6228SOL    HW130317   0.382   0.839   6.751  2.0239  2.6927  0.9958
 6228SOL    HW230318   0.239   0.850   6.717  0.1381  0.1151  0.0855
 6229SOL     OW30319   1.799   1.298   1.851  0.3221 -0.1161 -0.0674
 6229SOL    HW130320   1.858   1.373   1.843 -1.1167  1.3491  3.1811
 6229SOL    HW230321   1.856   1.252   1.913  0.0115 -1.1392 -0.5454
 6230SOL     OW30322   0.040   0.766   2.674 -0.1251 -0.0164  0.0728
 6230SOL    HW130323   4.730   0.785   2.753 -0.1963  0.5471 -0.1061
 6230SOL    HW230324   0.128   0.782   2.709  0.2369  1.0981 -1.3467
 6231SOL     OW30325   1.739   0.926   5.135 -0.2210 -0.4980 -0.2069
 6231SOL    HW130326   1.715   0.924   5.228  0.0167 -0.1994 -0.1394
 6231SOL    HW230327   1.806   0.994   5.131 -1.3443  0.6109 -0.1238
 6232SOL     OW30328   4.143   2.084   3.293 -0.0393 -0.6375  0.0517
 6232SOL    HW130329   4.073   2.112   3.235 -0.4090  0.8571  1.2220
 6232SOL    HW230330   4.166   2.164   3.340  0.3144 -0.0784 -1.0906
 6233SOL     OW30331   0.438   4.731  16.001 -0.4666  0.7933  0.1547
 6233SOL    HW130332   0.465   4.695  15.917  1.6569 -1.4325  1.7956
 6233SOL    HW230333   0.342   4.725  15.996 -0.3240  1.3690 -3.0860
 6234SOL     OW30334   0.181   2.912   4.822 -0.0340 -0.2733  0.1004
 6234SOL    HW130335   0.092   2.913   4.787 -0.5054  0.2840  1.2970
 6234SOL    HW230336   0.228   2.860   4.757  2.9537  0.3914  1.7395
 6235SOL     OW30337   3.057   3.610   5.673 -0.1598 -0.7000  0.1284
 6235SOL    HW130338   3.007   3.644   5.747 -1.7278 -2.2548 -0.2353
 6235SOL    HW230339   2.992   3.553   5.634  0.3755 -1.2966  0.1080
 6236SOL     OW30340   4.255   4.456  13.282  0.1188  0.4228 -0.2177
 6236SOL    HW130341   4.264   4.386  13.218 -1.6100 -0.5759  0.6324
 6236SOL    HW230342   4.340   4.497  13.273 -0.0596  1.1350  1.3427
 6237SOL     OW30343   1.725   4.024  14.624  0.1604  0.2018  0.0350
 6237SOL    HW130344   1.672   4.080  14.680  0.6566  1.1056 -0.3973
 6237SOL    HW230345   1.699   3.934  14.642  0.8592  0.0329  0.2046
 6238SOL     OW30346   1.377   2.920  15.097 -0.5385 -0.8701  0.0474
 6238SOL    HW130347   1.343   3.008  15.113 -1.0411 -1.3255  1.4469
 6238SOL    HW230348   1.363   2.894  15.188  0.8328  0.3990  0.6290
 6239SOL     OW30349   3.831   1.868   3.352  0.3637 -0.0635  0.6058
 6239SOL    HW130350   3.878   1.938   3.398  3.0307 -1.1587 -0.4963
 6239SOL    HW230351   3.739   1.889   3.369 -0.0105 -2.3693  1.4743
 6240SOL     OW30352   4.139   3.936   2.039  0.0162 -0.2017  0.0728
 6240SOL    HW130353   4.057   3.972   2.071 -0.3180 -1.2217  0.3472
 6240SOL    HW230354   4.120   3.845   2.017 -0.1779 -0.9320  3.3266
 6241SOL     OW30355   2.149   1.586   3.715 -0.2823 -0.4210 -0.2020
 6241SOL    HW130356   2.063   1.570   3.755 -1.0090 -0.3868 -1.7370
 6241SOL    HW230357   2.191   1.603   3.799 -2.1648 -1.6127  0.9988
 6242SOL     OW30358   0.850   3.162   3.252  0.0312  0.2523 -0.3899
 6242SOL    HW130359   0.793   3.150   3.329 -0.8066 -0.1293 -1.0684
 6242SOL    HW230360   0.788   3.140   3.182 -1.5734  1.5511  0.6077
 6243SOL     OW30361   2.371   0.315   8.375  0.2026  0.3405 -0.1694
 6243SOL    HW130362   2.397   0.402   8.405 -0.5019  1.0546 -1.6200
 6243SOL    HW230363   2.393   0.319   8.282  0.9585  1.5360  0.0690
 6244SOL     OW30364   4.503   2.654   8.488 -0.1051 -0.2288 -0.2077
 6244SOL    HW130365   4.465   2.714   8.552  1.5098  1.2185 -0.5793
 6244SOL    HW230366   4.560   2.597   8.540  0.0672 -0.3903 -0.5693
 6245SOL     OW30367   3.834   4.434  13.374 -0.0660  0.3759 -0.2794
 6245SOL    HW130368   3.810   4.386  13.295 -1.5093 -1.2270  1.1012
 6245SOL    HW230369   3.874   4.515  13.345 -0.4804  1.2855  1.6373
 6246SOL     OW30370   1.530   0.368   3.636 -0.4024  0.1976  0.1022
 6246SOL    HW130371   1.618   0.333   3.651 -0.4031 -0.6100 -1.7809
 6246SOL    HW230372   1.525   0.429   3.709  2.0631 -1.7882  1.9070
 6247SOL     OW30373   1.437   4.528  10.653  0.2714  0.1640 -0.4520
 6247SOL    HW130374   1.497   4.575  10.712  0.3566  1.0552 -1.2509
 6247SOL    HW230375   1.500   4.486  10.595  0.7443  0.4264 -0.1343
 6248SOL     OW30376   2.320   2.860  11.348  0.3613 -0.2262  0.0966
 6248SOL    HW130377   2.264   2.933  11.374  1.0044 -0.4495  2.1362
 6248SOL    HW230378   2.389   2.876  11.412  2.4945 -2.0377 -1.7631
 6249SOL     OW30379   4.526   0.881  11.316 -0.3095 -0.0986  0.1404
 6249SOL    HW130380   4.512   0.849  11.405  2.4600 -0.5563  0.4380
 6249SOL    HW230381   4.608   0.932  11.323 -0.1198 -0.2662 -0.8742
 6250SOL     OW30382   3.607   4.264   1.523  1.0830  0.1051 -0.2721
 6250SOL    HW130383   3.600   4.181   1.477 -2.3265  0.4275 -0.3210
 6250SOL    HW230384   3.516   4.289   1.514  0.3989 -1.6225  1.9243
 6251SOL     OW30385   4.476   0.732   2.948  0.0989 -0.0568  0.3482
 6251SOL    HW130386   4.507   0.821   2.936 -1.3405  0.5778  1.3539
 6251SOL    HW230387   4.546   0.703   3.006  0.9433  0.8088 -0.2400
 6252SOL     OW30388   2.054   3.623   4.690  0.5360 -0.1136 -0.4026
 6252SOL    HW130389   2.014   3.559   4.749 -0.9086  0.9220 -0.2583
 6252SOL    HW230390   2.019   3.606   4.603 -1.5062 -1.2831  0.6542
 6253SOL     OW30391   3.313   2.993   7.384 -0.6708  0.3843  0.1845
 6253SOL    HW130392   3.398   2.949   7.391 -1.7742 -1.4197  2.3872
 6253SOL    HW230393   3.335   3.083   7.362 -0.1948  0.7366  2.1227
 6254SOL     OW30394   1.799   4.476   5.635  0.4462 -0.1964  0.7682
 6254SOL    HW130395   1.853   4.529   5.694 -0.2393  2.2734 -0.8215
 6254SOL    HW230396   1.719   4.528   5.632 -0.7872 -2.0194  2.1283
 6255SOL     OW30397   3.773   0.220   4.537  0.0226 -0.5719 -0.1353
 6255SOL    HW130398   3.760   0.258   4.450  1.8547 -1.1112 -0.6511
 6255SOL    HW230399   3.794   0.298   4.587 -1.9772 -0.1897  0.0721
 6256SOL     OW30400   2.330   4.528  13.459 -0.0716  0.2921  0.1571
 6256SOL    HW130401   2.389   4.595  13.492 -0.4034  1.6173 -2.0087
 6256SOL    HW230402   2.351   4.461  13.524  1.3332  1.0444  0.4706
 6257SOL     OW30403   0.114   2.650   8.836  0.2110 -0.9656 -0.0188
 6257SOL    HW130404   0.134   2.628   8.745 -1.1377 -0.7000 -0.3835
 6257SOL    HW230405   0.018   2.651   8.829 -0.0534 -1.3663  3.6785
 6258SOL     OW30406   0.137   3.967  13.760 -0.3920 -0.1342 -0.0769
 6258SOL    HW130407   0.054   3.920  13.769 -0.4757  0.1203  0.5105
 6258SOL    HW230408   0.136   3.991  13.668  4.1345  0.1285 -0.0652
 6259SOL     OW30409   2.340   0.017   2.442 -0.9994 -0.4255 -0.8305
 6259SOL    HW130410   2.357   0.078   2.514 -2.1353  1.3063 -2.0216
 6259SOL    HW230411   2.255   0.047   2.410 -1.3806 -1.2876 -0.6274
 6260SOL     OW30412   2.350   3.845   4.113 -0.0878 -0.6002 -0.1334
 6260SOL    HW130413   2.335   3.830   4.019  0.8595 -0.4572 -0.3133
 6260SOL    HW230414   2.407   3.771   4.135  1.1876  0.4136  0.0021
 6261SOL     OW30415   0.327   4.352   0.967 -0.1694 -0.2951  0.0197
 6261SOL    HW130416   0.375   4.427   0.932 -0.7261  0.8087  1.6331
 6261SOL    HW230417   0.381   4.337   1.044 -0.1282  0.4283  0.1363
 6262SOL     OW30418   3.474   0.374  12.103  0.0015 -0.5240  0.6234
 6262SOL    HW130419   3.478   0.465  12.133 -1.0472 -0.1805 -0.3171
 6262SOL    HW230420   3.400   0.331  12.144  0.1347 -0.3153  1.0895
 6263SOL     OW30421   1.838   4.565  14.362  0.6580  0.1005  0.1696
 6263SOL    HW130422   1.862   4.658  14.361  0.7966  0.0549 -0.5985
 6263SOL    HW230423   1.805   4.561  14.452  0.7386  0.2060  0.2045
 6264SOL     OW30424   1.874   4.188   9.770  0.1766 -0.1317  0.2705
 6264SOL    HW130425   1.886   4.235   9.853  0.2314  1.8460 -0.8711
 6264SOL    HW230426   1.938   4.239   9.721 -0.6327 -0.3907 -1.0523
 6265SOL     OW30427   1.125   1.740   1.853 -0.0511 -0.0703  0.3323
 6265SOL    HW130428   1.221   1.739   1.859 -0.0537 -0.9938  0.3419
 6265SOL    HW230429   1.106   1.812   1.912  0.4613 -0.4916  1.0153
 6266SOL     OW30430   0.662   1.004  15.940  0.3216 -0.1565 -0.2173
 6266SOL    HW130431   0.645   1.096  15.917  0.3904  0.1946  1.1545
 6266SOL    HW230432   0.752   1.011  15.973  0.0239  0.7410  0.4238
 6267SOL     OW30433   1.741   1.557  13.797 -0.4095  0.1511 -0.0774
 6267SOL    HW130434   1.761   1.640  13.839 -0.4005  0.0106  0.1984
 6267SOL    HW230435   1.723   1.571  13.704 -1.0316 -1.9027 -0.2716
 6268SOL     OW30436   1.414   2.034   3.865  0.0104  0.2414 -0.1024
 6268SOL    HW130437   1.360   1.969   3.911  0.4933  0.2201  0.4354
 6268SOL    HW230438   1.491   1.983   3.838 -0.4323 -0.2297 -0.4672
 6269SOL     OW30439   0.626   4.467   2.373  0.0351  0.0863 -0.3038
 6269SOL    HW130440   0.665   4.553   2.355  1.0633 -0.4589 -0.7184
 6269SOL    HW230441   0.580   4.463   2.289 -0.4501  0.8197 -0.0709
 6270SOL     OW30442   4.277   3.785  10.227  0.5625 -0.4950 -0.6780
 6270SOL    HW130443   4.202   3.829  10.188  0.3008 -0.4435 -0.1221
 6270SOL    HW230444   4.237   3.768  10.313 -0.5604  2.5975 -0.5592
 6271SOL     OW30445   2.770   2.792   2.309 -0.4857  0.5218 -0.0669
 6271SOL    HW130446   2.795   2.747   2.390  0.9142  1.2701 -0.0777
 6271SOL    HW230447   2.742   2.874   2.351 -0.1157 -0.7943  2.7533
 6272SOL     OW30448   1.635   2.757   5.740  0.1794 -0.2939 -0.3665
 6272SOL    HW130449   1.602   2.837   5.780  2.2044 -0.5606  1.8673
 6272SOL    HW230450   1.577   2.693   5.782  0.8234 -0.9776 -0.5093
 6273SOL     OW30451   2.979   4.130  15.068  0.5353 -0.0867 -0.1221
 6273SOL    HW130452   3.003   4.098  14.981 -0.5918  0.8731 -0.7931
 6273SOL    HW230453   2.944   4.217  15.049  1.3425  0.0557 -0.9813
 6274SOL     OW30454   3.051   4.738   0.430 -0.0590  0.8317  0.1898
 6274SOL    HW130455   2.972   0.041   0.396 -0.9892  0.9198  2.4563
 6274SOL    HW230456   3.024   4.689   0.508  1.3748 -1.3349 -0.6636
 6275SOL     OW30457   4.192   4.732  10.486  0.0010 -0.1598 -0.5739
 6275SOL    HW130458   4.165   0.085  10.491 -1.3869 -0.6179  0.1594
 6275SOL    HW230459   4.259   0.006  10.419 -0.4582  1.6388 -0.7093
 6276SOL     OW30460   0.599   1.932   2.367 -0.0958 -0.2778 -0.0549
 6276SOL    HW130461   0.586   1.856   2.424 -0.1351 -0.4341 -0.2753
 6276SOL    HW230462   0.686   1.923   2.327 -0.8324 -0.9001 -1.4948
 6277SOL     OW30463   3.067   2.546   6.281 -1.2373  0.2052  0.6610
 6277SOL    HW130464   3.141   2.600   6.310 -0.0720 -0.1346 -1.6734
 6277SOL    HW230465   3.121   2.494   6.221 -1.6824 -2.1834  2.3615
 6278SOL     OW30466   3.857   2.539   8.442 -0.0260 -0.2791  0.9008
 6278SOL    HW130467   3.893   2.623   8.470  1.4330 -1.1453  1.6743
 6278SOL    HW230468   3.929   2.481   8.469  1.2110  0.7723 -0.1326
 6279SOL     OW30469   2.863   1.539  10.552  0.4375 -1.0156 -0.4527
 6279SOL    HW130470   2.863   1.612  10.490  0.5372 -0.9793 -0.4100
 6279SOL    HW230471   2.787   1.568  10.602  0.6083  0.8554 -1.2729
 6280SOL     OW30472   3.764   0.052  13.499 -0.4935  0.0641  0.5068
 6280SOL    HW130473   3.853   0.086  13.494 -0.4608  0.1855  1.9405
 6280SOL    HW230474   3.741   0.047  13.407  0.4335  1.0589  0.2213
 6281SOL     OW30475   2.426   3.338   4.961 -0.2205 -0.2122 -0.5211
 6281SOL    HW130476   2.486   3.357   5.033 -0.2236 -0.1811 -0.5266
 6281SOL    HW230477   2.344   3.323   5.007 -1.7159  2.9032 -2.1823
 6282SOL     OW30478   0.469   2.280   3.012  0.1823 -0.0148  0.1818
 6282SOL    HW130479   0.408   2.222   3.059 -1.3187  0.6126 -0.9933
 6282SOL    HW230480   0.490   2.223   2.938  0.2429 -0.0095  0.1949
 6283SOL     OW30481   2.108   1.948   5.965  0.2545  0.6148  0.2515
 6283SOL    HW130482   2.108   1.874   5.903  2.5661  1.3233 -0.5986
 6283SOL    HW230483   2.133   2.019   5.906  0.4382  0.1186 -0.2812
 6284SOL     OW30484   2.172   4.282   0.300  0.0916  0.1925 -0.0375
 6284SOL    HW130485   2.172   4.277   0.205  2.4150 -2.3809  0.1012
 6284SOL    HW230486   2.262   4.312   0.314  1.1995 -2.8141 -0.7513
 6285SOL     OW30487   0.653   4.627  14.560  0.1606  0.4780 -0.0003
 6285SOL    HW130488   0.709   4.593  14.490  0.8736  1.3796  0.1336
 6285SOL    HW230489   0.631   4.542  14.599 -0.5880  0.9836  0.6745
 6286SOL     OW30490   3.587   4.497   7.236  0.0852  0.5387 -0.0629
 6286SOL    HW130491   3.604   4.566   7.171  0.4738  1.4832  1.0539
 6286SOL    HW230492   3.653   4.501   7.304 -0.6906 -1.2600  0.7798
 6287SOL     OW30493   3.867   1.038   3.408 -0.0726  0.3119  0.0483
 6287SOL    HW130494   3.896   1.104   3.344  0.7466 -1.4273 -1.3636
 6287SOL    HW230495   3.872   0.955   3.361  0.3500  0.0853  0.4914
 6288SOL     OW30496   2.730   3.405   6.792 -0.3609  0.5517  0.5660
 6288SOL    HW130497   2.771   3.390   6.707 -1.8675 -1.2442  0.1601
 6288SOL    HW230498   2.637   3.413   6.770  0.7167  2.3138 -3.2587
 6289SOL     OW30499   1.753   1.988   7.666 -0.1314 -0.2679 -0.2113
 6289SOL    HW130500   1.837   1.942   7.659 -0.8021 -1.8548  2.1715
 6289SOL    HW230501   1.761   2.069   7.617  1.3985 -1.0949 -1.3429
 6290SOL     OW30502   2.412   3.877   4.951  0.5072  0.2933 -0.0578
 6290SOL    HW130503   2.403   3.934   4.875 -0.0521  1.7093  1.0711
 6290SOL    HW230504   2.461   3.935   5.010  0.4898  0.9148 -0.6611
 6291SOL     OW30505   1.035   3.317   5.619  0.5731  0.0292 -0.5084
 6291SOL    HW130506   1.067   3.347   5.534  0.6899 -1.4157 -0.9585
 6291SOL    HW230507   0.999   3.230   5.605 -0.4819  0.3004  0.4676
 6292SOL     OW30508   0.951   2.676   1.581 -0.7912 -0.7105  0.0068
 6292SOL    HW130509   0.979   2.743   1.644 -0.1834 -0.0625 -0.9492
 6292SOL    HW230510   0.880   2.714   1.530 -1.9155  0.6908  2.6193
 6293SOL     OW30511   4.388   3.467   3.033  0.3009 -0.2606 -0.2686
 6293SOL    HW130512   4.410   3.490   3.123  1.6999 -3.6114  0.2537
 6293SOL    HW230513   4.465   3.493   2.981 -0.3446  2.0407 -0.0348
 6294SOL     OW30514   2.498   1.623  15.194 -0.6274  0.2279 -0.0352
 6294SOL    HW130515   2.402   1.622  15.200 -0.8872 -0.9730 -4.7508
 6294SOL    HW230516   2.517   1.682  15.121  2.7186 -1.6429 -0.6731
 6295SOL     OW30517   4.620   4.519   2.132  0.0491 -0.2662 -0.0151
 6295SOL    HW130518   4.611   4.541   2.039 -0.2998 -0.8071 -0.1102
 6295SOL    HW230519   4.716   4.522   2.129 -0.0412  2.3987  0.6244
 6296SOL     OW30520   2.841   3.074   7.376  0.2869  0.2414 -0.5197
 6296SOL    HW130521   2.936   3.086   7.374  0.0747  1.8908 -0.7889
 6296SOL    HW230522   2.816   3.131   7.303 -2.6776 -0.6944 -0.2201
 6297SOL     OW30523   4.219   2.333   3.407 -0.1127 -0.0040 -0.0925
 6297SOL    HW130524   4.240   2.422   3.379 -3.2783  0.5755 -0.6211
 6297SOL    HW230525   4.152   2.346   3.473  0.3546  1.9031  0.0011
 6298SOL     OW30526   2.693   0.942  11.118 -0.2747 -0.0838  0.7821
 6298SOL    HW130527   2.754   0.869  11.136  0.1298  0.5663  2.0740
 6298SOL    HW230528   2.707   1.004  11.189  0.2464 -0.0390  0.6423
 6299SOL     OW30529   4.589   0.198   4.943 -0.0668 -0.3222  0.3007
 6299SOL    HW130530   4.531   0.177   4.871  0.9858  0.6912 -0.8391
 6299SOL    HW230531   4.573   0.293   4.944 -5.9326 -1.3175  1.6618
 6300SOL     OW30532   4.707   2.691   6.489 -0.7909 -0.2554  0.6736
 6300SOL    HW130533   4.623   2.725   6.458  0.1791  1.6089  0.0914
 6300SOL    HW230534   4.682   2.616   6.543 -0.6876 -0.4994  0.3830
 6301SOL     OW30535   0.307   2.259   8.777 -0.1776  0.3107  0.7152
 6301SOL    HW130536   0.212   2.244   8.774 -0.0495 -0.6752  1.5769
 6301SOL    HW230537   0.325   2.304   8.859 -0.9073  0.8866  0.5616
 6302SOL     OW30538   4.025   3.048   7.334  0.0178  0.4070 -0.3785
 6302SOL    HW130539   4.022   2.964   7.379  0.5951  0.2040 -0.7110
 6302SOL    HW230540   4.047   3.014   7.247  0.0825  1.9292 -0.9543
 6303SOL     OW30541   4.716   3.959   2.266 -0.3100  0.0545  0.6455
 6303SOL    HW130542   4.633   3.914   2.283 -0.2865  0.1425  0.9911
 6303SOL    HW230543   4.679   4.029   2.213 -0.8175  0.6498  1.7766
 6304SOL     OW30544   1.946   2.230   4.566  0.9381  0.0581  0.0838
 6304SOL    HW130545   1.963   2.149   4.517 -0.0283 -1.0643  1.6017
 6304SOL    HW230546   1.977   2.296   4.504  2.8760  0.1000  1.0893
 6305SOL     OW30547   0.112   4.694   6.705  0.2809 -0.3061 -0.6133
 6305SOL    HW130548   0.128   0.021   6.638  1.9439  0.2014  0.2839
 6305SOL    HW230549   0.145   4.738   6.784  2.3992 -1.3566 -0.8992
 6306SOL     OW30550   1.430   4.023   5.062 -0.4912 -0.5508 -0.0554
 6306SOL    HW130551   1.460   4.046   4.975 -0.4137 -0.4966 -0.0145
 6306SOL    HW230552   1.481   3.944   5.078 -2.5242 -1.7249  0.5737
 6307SOL     OW30553   1.581   2.358  10.010 -0.1449 -0.4804  0.0353
 6307SOL    HW130554   1.597   2.368  10.104 -1.8007  0.2381  0.2379
 6307SOL    HW230555   1.502   2.304  10.019 -1.0079  0.6596 -0.6406
 6308SOL     OW30556   4.308   2.623   4.125  0.4153 -0.6089 -0.0905
 6308SOL    HW130557   4.260   2.631   4.042  0.2002  2.0042  0.2931
 6308SOL    HW230558   4.350   2.538   4.111  0.7498 -0.1303 -1.9410
 6309SOL     OW30559   0.394   4.698  14.440  0.1960 -0.2839 -0.2350
 6309SOL    HW130560   0.469   4.639  14.447  1.2167  1.0913  0.2663
 6309SOL    HW230561   0.445   0.036  14.417 -0.9939  0.1485 -1.4387
 6310SOL     OW30562   1.950   1.837   9.728  0.4785 -0.2161  0.3862
 6310SOL    HW130563   2.018   1.773   9.708 -0.2520 -0.9687  0.2778
 6310SOL    HW230564   1.986   1.889   9.799  0.0691  0.1537  0.3284
 6311SOL     OW30565   3.703   1.428  13.640 -0.0564  0.6293 -0.0723
 6311SOL    HW130566   3.680   1.425  13.548 -0.2669 -1.1231  0.0369
 6311SOL    HW230567   3.768   1.358  13.649 -0.1404  0.6952  1.0426
 6312SOL     OW30568   3.084   0.915   5.734 -0.0997  0.1641 -0.3997
 6312SOL    HW130569   3.079   1.011   5.731  0.1075  0.1826 -0.2259
 6312SOL    HW230570   3.143   0.906   5.809 -2.5793  2.3835  1.8240
 6313SOL     OW30571   1.421   1.754   1.862 -0.2444  0.4978 -0.5322
 6313SOL    HW130572   1.433   1.696   1.938  0.7530  0.7228 -0.5297
 6313SOL    HW230573   1.494   1.718   1.813 -0.0199 -1.0683  0.9383
 6314SOL     OW30574   4.279   4.682  14.866  0.5634 -0.5028 -0.2322
 6314SOL    HW130575   4.323   0.028  14.865 -1.9339  0.7763  0.0355
 6314SOL    HW230576   4.196   4.696  14.910  1.7198 -0.1037  1.8124
 6315SOL     OW30577   4.627   0.089   0.057 -0.2160 -0.8851  0.9267
 6315SOL    HW130578   4.580   0.023   0.108 -2.1623 -0.7063 -0.6432
 6315SOL    HW230579   4.705   0.102   0.111  0.4581  0.7221 -0.4618
 6316SOL     OW30580   1.210   1.405   5.593 -0.4278  0.3462  0.1145
 6316SOL    HW130581   1.272   1.338   5.563 -0.0637  1.2069 -1.0701
 6316SOL    HW230582   1.252   1.445   5.669 -1.4039  1.9469 -0.1943
 6317SOL     OW30583   0.916   2.172   7.511 -0.4747  0.1721 -0.1997
 6317SOL    HW130584   0.882   2.083   7.503  1.9511 -0.8145  0.1216
 6317SOL    HW230585   0.851   2.216   7.565 -1.1914 -1.4468  0.2600
 6318SOL     OW30586   1.107   1.462   9.658 -0.0307 -0.4436  0.2481
 6318SOL    HW130587   1.170   1.394   9.683 -0.5128 -0.1753  2.1481
 6318SOL    HW230588   1.036   1.437   9.717  0.1526 -3.0893 -0.6376
 6319SOL     OW30589   1.036   0.360   7.167  0.0931 -0.1346  0.3506
 6319SOL    HW130590   0.961   0.345   7.225  0.7446 -1.0562  0.9481
 6319SOL    HW230591   1.090   0.287   7.197  0.7571 -0.0058 -0.5508
 6320SOL     OW30592   4.435   2.470   1.910 -0.3529  0.2996  0.3085
 6320SOL    HW130593   4.526   2.453   1.887 -0.2053  1.9074 -0.2998
 6320SOL    HW230594   4.387   2.457   1.829 -0.5992 -3.5571  1.0944
 6321SOL     OW30595   3.030   3.975   6.896  0.4039 -0.3140 -0.1503
 6321SOL    HW130596   3.075   3.942   6.974  0.8813 -0.4500 -0.4826
 6321SOL    HW230597   3.028   4.068   6.917  1.9488  0.1795 -2.1422
 6322SOL     OW30598   2.954   2.233   5.444 -0.1687 -0.3824  0.5287
 6322SOL    HW130599   3.039   2.257   5.481  0.1134  0.8508 -0.9187
 6322SOL    HW230600   2.946   2.304   5.381 -0.0809 -1.2504 -0.4705
 6323SOL     OW30601   1.549   2.627   4.316  0.3650  0.3066 -0.6049
 6323SOL    HW130602   1.621   2.576   4.352 -1.2717  0.2587  2.5699
 6323SOL    HW230603   1.506   2.562   4.261  2.4198 -1.1178 -0.5125
 6324SOL     OW30604   2.353   3.985   3.540 -0.2831  0.4212  0.0634
 6324SOL    HW130605   2.413   4.059   3.532 -0.1337  0.1399 -1.3557
 6324SOL    HW230606   2.305   4.000   3.458  0.0558 -1.1543 -0.4262
 6325SOL     OW30607   2.124   1.796   5.738  0.3732 -0.0191 -0.0091
 6325SOL    HW130608   2.065   1.720   5.729  0.0268 -0.0638  2.6591
 6325SOL    HW230609   2.071   1.859   5.690 -0.1292 -0.3374  0.1236
 6326SOL     OW30610   1.884   3.817   0.905 -0.2215 -0.5943 -0.3227
 6326SOL    HW130611   1.827   3.793   0.832 -0.2143 -1.0200 -0.1882
 6326SOL    HW230612   1.816   3.806   0.972 -1.9057  0.5520 -1.8442
 6327SOL     OW30613   4.274   0.613   8.876 -0.5095  0.7092 -0.4512
 6327SOL    HW130614   4.287   0.708   8.879  2.5700  0.3182 -0.8727
 6327SOL    HW230615   4.273   0.600   8.781  0.1391  0.2284 -0.3948
 6328SOL     OW30616   4.705   4.365   8.561 -0.1205 -0.3365  0.1183
 6328SOL    HW130617   0.002   4.289   8.516 -0.7938  0.9975 -2.6852
 6328SOL    HW230618   4.613   4.341   8.571 -0.2617  0.6746  1.2530
 6329SOL     OW30619   1.125   2.086   1.244 -0.2325 -0.0756 -0.0763
 6329SOL    HW130620   1.122   2.158   1.181 -2.4034 -0.5006 -0.4548
 6329SOL    HW230621   1.148   2.008   1.192  3.5900  0.7757  0.3056
 6330SOL     OW30622   2.941   2.468  10.179 -0.1473 -0.4244  0.2542
 6330SOL    HW130623   3.025   2.424  10.198  2.2933  4.4218  0.6343
 6330SOL    HW230624   2.954   2.502  10.091 -1.0036  0.0896  0.3397
 6331SOL     OW30625   2.326   1.956   5.335 -0.5772 -0.2353 -0.3950
 6331SOL    HW130626   2.270   1.889   5.297 -1.2349 -1.2409  2.4301
 6331SOL    HW230627   2.316   1.955   5.430  1.4136  3.8882 -0.1517
 6332SOL     OW30628   2.761   0.833   7.741  0.3510 -0.4234  0.1179
 6332SOL    HW130629   2.779   0.847   7.834 -1.8887 -0.5839  0.5970
 6332SOL    HW230630   2.744   0.739   7.747  0.7915 -0.6489 -1.9648
 6333SOL     OW30631   2.279   2.081   4.565 -0.0099 -0.3320  0.3759
 6333SOL    HW130632   2.366   2.045   4.551  1.3648  3.0504  0.2085
 6333SOL    HW230633   2.297   2.102   4.657  0.7856  4.1381 -0.7756
 6334SOL     OW30634   3.284   2.720   4.715 -0.2709  0.0473 -0.2797
 6334SOL    HW130635   3.239   2.689   4.636 -0.9353 -1.5750  0.7401
 6334SOL    HW230636   3.373   2.690   4.697 -0.3449 -0.7786  0.7435
 6335SOL     OW30637   1.902   0.380   2.241  0.1199 -0.5531 -0.4705
 6335SOL    HW130638   1.986   0.346   2.272  0.7614  0.6348 -0.9042
 6335SOL    HW230639   1.858   0.297   2.218  0.4169 -0.5787 -0.9349
 6336SOL     OW30640   0.049   2.416   2.603  0.2149  0.1109 -0.0565
 6336SOL    HW130641   0.139   2.424   2.636  0.9416  2.6345 -2.7059
 6336SOL    HW230642   0.009   2.378   2.682  0.3651  0.2700  0.0966
 6337SOL     OW30643   4.315   4.086   0.768  0.0948 -0.3084  0.0118
 6337SOL    HW130644   4.333   4.119   0.856  3.6490  0.7056 -1.0800
 6337SOL    HW230645   4.368   4.006   0.777  1.1132  0.2908 -0.7210
 6338SOL     OW30646   2.057   4.093   5.631  0.0132  0.1961 -0.2364
 6338SOL    HW130647   2.123   4.148   5.673 -0.9983  1.0291  0.2407
 6338SOL    HW230648   2.104   4.009   5.620  0.9013  0.5381  0.9028
 6339SOL     OW30649   0.697   0.034  12.520 -0.2661 -0.3033 -0.1506
 6339SOL    HW130650   0.746   0.104  12.562 -0.5387 -0.0770 -0.2013
 6339SOL    HW230651   0.633   0.000  12.583  1.5242 -0.1131  1.7416
 6340SOL     OW30652   1.463   0.087   5.343  0.5517 -0.5685 -0.0377
 6340SOL    HW130653   1.405   0.161   5.323 -0.6790 -1.5288 -0.0277
 6340SOL    HW230654   1.527   0.145   5.384 -1.8565  0.3562  2.4169
 6341SOL     OW30655   2.387   4.118  11.261 -0.0211 -0.5199 -0.7907
 6341SOL    HW130656   2.422   4.153  11.343 -1.7965  1.2731 -0.8005
 6341SOL    HW230657   2.362   4.201  11.219 -0.5018 -0.1726  0.1871
 6342SOL     OW30658   3.279   2.136   8.450  0.2595 -0.5410  0.1184
 6342SOL    HW130659   3.295   2.203   8.517  0.0659  0.7370 -1.1257
 6342SOL    HW230660   3.340   2.172   8.386  1.2829  0.0407  1.4288
 6343SOL     OW30661   0.270   0.676  12.919 -0.5754  0.2347 -0.1382
 6343SOL    HW130662   0.216   0.651  12.994 -1.3323 -1.0987 -1.1300
 6343SOL    HW230663   0.269   0.771  12.929  1.5108  0.4751 -2.1988
 6344SOL     OW30664   1.010   3.889   0.770  0.2275  0.1258 -0.5007
 6344SOL    HW130665   0.994   3.799   0.798  0.7270  1.0798  2.8914
 6344SOL    HW230666   1.101   3.902   0.796  0.5737 -3.5679  0.1711
 6345SOL     OW30667   3.205   0.584   3.334  0.5902 -0.2656 -0.2426
 6345SOL    HW130668   3.268   0.560   3.266  0.7319 -2.0156  0.5088
 6345SOL    HW230669   3.269   0.580   3.406  0.5280 -2.1878 -0.3082
 6346SOL     OW30670   0.070   0.868   3.099 -0.0136  0.5899  0.4045
 6346SOL    HW130671   0.002   0.876   3.031 -0.6013 -0.3697  0.8730
 6346SOL    HW230672   0.033   0.789   3.139 -2.3455  1.0846 -0.7494
 6347SOL     OW30673   3.867   1.422  14.327  0.3919 -0.0182  0.5002
 6347SOL    HW130674   3.806   1.415  14.401 -0.1217  0.9173  0.1600
 6347SOL    HW230675   3.941   1.465  14.371 -0.5515  1.9264  0.1550
 6348SOL     OW30676   1.657   2.751   5.476  0.0623  0.3594 -0.8291
 6348SOL    HW130677   1.636   2.746   5.569 -4.2473 -0.3389 -1.8485
 6348SOL    HW230678   1.592   2.807   5.434  0.1699  0.4998 -0.8092
 6349SOL     OW30679   0.303   4.324   8.820  0.2784 -0.2620 -0.2010
 6349SOL    HW130680   0.355   4.401   8.842 -0.5008 -0.4209  2.2116
 6349SOL    HW230681   0.212   4.355   8.817  0.2261 -0.1262  2.3958
 6350SOL     OW30682   2.663   0.082   7.187  0.8006 -0.2177  0.4300
 6350SOL    HW130683   2.594   0.054   7.247 -1.6944  0.4541 -2.1462
 6350SOL    HW230684   2.674   0.006   7.130  0.6137  1.5213 -1.9109
 6351SOL     OW30685   1.072   0.607   7.357 -0.4318  0.0199  0.1539
 6351SOL    HW130686   1.073   0.521   7.315 -0.0838  0.3935 -0.6001
 6351SOL    HW230687   0.980   0.629   7.339 -0.1397  0.2456 -1.0644
 6352SOL     OW30688   4.727   1.001   9.498  0.0782  0.2030 -0.0469
 6352SOL    HW130689   4.711   1.061   9.571  1.8639  0.1825  0.3774
 6352SOL    HW230690   4.678   1.037   9.425  0.6177 -1.7177 -1.3454
 6353SOL     OW30691   3.286   1.241   7.545  0.2131  0.0893 -0.4351
 6353SOL    HW130692   3.206   1.249   7.597  0.0694 -2.9876 -0.1491
 6353SOL    HW230693   3.332   1.169   7.588 -1.5447 -0.7939 -0.0235
 6354SOL     OW30694   0.087   2.239   7.074  0.2404 -0.2297 -0.2435
 6354SOL    HW130695   0.043   2.234   7.159  0.7732  1.4556  0.1269
 6354SOL    HW230696   0.117   2.329   7.065  2.4812 -0.8397  1.1657
 6355SOL     OW30697   1.184   1.827   7.682 -0.4278 -0.0015  0.3905
 6355SOL    HW130698   1.206   1.892   7.615  0.7277 -0.2284  0.5564
 6355SOL    HW230699   1.095   1.858   7.697 -0.6625 -0.0314 -0.9994
 6356SOL     OW30700   2.455   0.136   0.454 -0.3104 -0.0308  0.0303
 6356SOL    HW130701   2.368   0.121   0.491 -1.3775  0.0026 -2.4601
 6356SOL    HW230702   2.436   0.205   0.390 -1.4129  1.0193  1.4687
 6357SOL     OW30703   1.254   3.988   7.449 -0.5642  0.0792  0.8018
 6357SOL    HW130704   1.180   4.021   7.501  0.0139  0.4188  1.4113
 6357SOL    HW230705   1.290   4.072   7.420  1.0689 -1.1330 -0.6863
 6358SOL     OW30706   1.191   2.759   3.739  0.2020 -0.3218 -0.1895
 6358SOL    HW130707   1.146   2.723   3.816 -2.2748  0.2237 -1.3688
 6358SOL    HW230708   1.245   2.682   3.721  0.1360 -0.4251  0.0620
 6359SOL     OW30709   0.480   0.641   7.461  0.1863  0.0395 -0.1043
 6359SOL    HW130710   0.540   0.705   7.499  1.8304 -0.9852 -0.9821
 6359SOL    HW230711   0.472   0.580   7.535 -1.7322  2.0963  1.3824
 6360SOL     OW30712   3.704   1.989   3.052 -0.4392 -0.4373  0.2670
 6360SOL    HW130713   3.729   2.052   2.984  0.1152  1.4384  2.1920
 6360SOL    HW230714   3.642   1.928   3.012 -0.1664 -1.3005  1.1650
 6361SOL     OW30715   0.902   3.860   0.155 -0.0422  0.2632 -0.4693
 6361SOL    HW130716   0.850   3.868   0.074 -1.4212  4.1081  0.7971
 6361SOL    HW230717   0.827   3.829   0.206  0.0798 -0.5004 -0.7431
 6362SOL     OW30718   2.803   2.796  14.866 -0.1038 -0.5024 -0.0307
 6362SOL    HW130719   2.713   2.811  14.896 -0.1816 -0.4658 -0.2795
 6362SOL    HW230720   2.777   2.775  14.776  1.3894  2.4745 -1.1289
 6363SOL     OW30721   4.370   0.643  11.752 -0.3853 -0.4255 -0.6173
 6363SOL    HW130722   4.308   0.603  11.812  1.5807 -1.1109  0.9714
 6363SOL    HW230723   4.447   0.595  11.782  0.3062 -0.7651 -2.8890
 6364SOL     OW30724   4.605   0.286  13.735 -0.0138 -0.5092  0.4288
 6364SOL    HW130725   4.679   0.343  13.755 -0.4513 -0.1191  0.9219
 6364SOL    HW230726   4.650   0.203  13.721 -1.5508 -1.1018 -1.0632
 6365SOL     OW30727   3.751   4.038  12.337 -0.1729 -0.2574  0.0107
 6365SOL    HW130728   3.713   4.099  12.400  0.0484  0.1797 -0.2835
 6365SOL    HW230729   3.825   4.008  12.391  0.8809 -0.9004 -1.7944
 6366SOL     OW30730   0.258   0.955   7.440 -0.2462 -0.3013  0.2047
 6366SOL    HW130731   0.320   0.965   7.512 -0.1421  0.3523  0.0256
 6366SOL    HW230732   0.225   1.044   7.426  0.9848  0.4315  2.0157
 6367SOL     OW30733   3.151   1.055   8.713 -0.2735 -0.5965 -0.0967
 6367SOL    HW130734   3.177   0.995   8.783  0.2909 -0.8287 -0.5001
 6367SOL    HW230735   3.202   1.024   8.638  0.4577 -0.4947  0.3521
 6368SOL     OW30736   3.617   0.102  15.651  0.6232  0.7104  0.5250
 6368SOL    HW130737   3.542   0.160  15.661 -1.7144 -2.1277 -0.4227
 6368SOL    HW230738   3.649   0.107  15.741 -1.9255  1.3514  1.3900
 6369SOL     OW30739   4.449   2.308  16.500 -0.1498 -0.1398 -0.4727
 6369SOL    HW130740   4.432   2.362  16.577 -0.6564 -1.5531  0.3922
 6369SOL    HW230741   4.529   2.352  16.469 -0.4482  0.3969 -0.4764
 6370SOL     OW30742   0.159   2.573   8.581  0.0946 -0.3451 -0.1965
 6370SOL    HW130743   0.224   2.526   8.529 -0.2327 -0.9131 -0.0978
 6370SOL    HW230744   0.088   2.508   8.576  0.2176 -0.5566  0.8671
 6371SOL     OW30745   0.663   0.039   7.531  0.1237  0.3607 -0.1449
 6371SOL    HW130746   0.599   4.707   7.532  0.3917  0.1047 -1.9059
 6371SOL    HW230747   0.698   0.030   7.443 -2.5838 -1.5393 -1.0296
 6372SOL     OW30748   3.025   3.630   9.828  0.4743 -0.0719  0.2872
 6372SOL    HW130749   2.975   3.613   9.908 -0.4841 -0.6537 -0.4265
 6372SOL    HW230750   2.954   3.656   9.770 -2.1548  1.1876  4.0525
 6373SOL     OW30751   0.506   1.258  11.010 -0.1173 -0.5766 -0.3177
 6373SOL    HW130752   0.474   1.200  11.079 -1.4535  0.0303 -0.4323
 6373SOL    HW230753   0.526   1.195  10.941  2.9020 -0.1473  0.1255
 6374SOL     OW30754   0.414   4.085   8.345  0.0895 -0.2488  0.1405
 6374SOL    HW130755   0.458   4.154   8.295 -2.7847  1.0009 -0.6531
 6374SOL    HW230756   0.431   4.114   8.435  0.0612  1.0286 -0.2730
 6375SOL     OW30757   1.475   0.826   8.834  0.0706  0.1463 -0.0221
 6375SOL    HW130758   1.493   0.910   8.875  1.0332 -0.5165  0.9193
 6375SOL    HW230759   1.563   0.787   8.829  0.4497  1.1037 -0.8293
 6376SOL     OW30760   0.993   0.034   5.016  0.7931  0.0199  0.1836
 6376SOL    HW130761   1.024   0.064   5.102  1.2300 -0.4917  0.2007
 6376SOL    HW230762   1.056   4.708   4.986  0.1322 -0.7357  0.4330
 6377SOL     OW30763   4.599   2.066  12.016 -0.0116  0.0560 -0.2027
 6377SOL    HW130764   4.689   2.061  11.984 -0.2158  0.5554 -0.8579
 6377SOL    HW230765   4.605   2.161  12.016  0.4434  0.0314  2.0333
 6378SOL     OW30766   1.647   0.734   3.902  0.3685  0.0430  0.1635
 6378SOL    HW130767   1.713   0.782   3.853 -1.1175  1.6873 -0.2459
 6378SOL    HW230768   1.658   0.751   3.995 -0.6960  0.3812  0.2297
 6379SOL     OW30769   4.333   0.919   8.308 -0.3278 -0.3370  0.6017
 6379SOL    HW130770   4.251   0.904   8.260 -0.0844  0.6977 -0.1321
 6379SOL    HW230771   4.296   0.934   8.395 -1.6060 -4.1438  0.7353
 6380SOL     OW30772   3.755   2.446   8.765  0.0352 -0.2368  0.2941
 6380SOL    HW130773   3.681   2.460   8.707 -1.7259 -0.5951  2.4265
 6380SOL    HW230774   3.811   2.391   8.711  1.1728  0.4430  0.7904
 6381SOL     OW30775   4.303   3.063   1.555  0.0857  0.2079 -0.0624
 6381SOL    HW130776   4.298   3.069   1.651 -1.6201  0.7809 -0.1915
 6381SOL    HW230777   4.399   3.055   1.550  0.0754  0.8483 -1.1641
 6382SOL     OW30778   4.258   0.633  17.354 -0.0895  0.2469  0.2938
 6382SOL    HW130779   4.187   0.696  17.338  0.8111  0.9437 -0.9260
 6382SOL    HW230780   4.229   0.560  17.299 -0.1951  0.6618 -0.2006
 6383SOL     OW30781   3.346   0.979  10.147 -0.2301 -0.3024 -0.7278
 6383SOL    HW130782   3.284   0.909  10.168 -0.6560 -0.4018 -2.3327
 6383SOL    HW230783   3.426   0.930  10.129 -0.4343 -0.2180 -1.8545
 6384SOL     OW30784   4.214   2.353   4.824 -0.3816 -0.1030  0.6736
 6384SOL    HW130785   4.211   2.277   4.882  1.7625  0.4189  1.4762
 6384SOL    HW230786   4.229   2.429   4.880  2.8482 -1.0674  1.1032
 6385SOL     OW30787   1.011   0.639   5.882 -0.5019  0.2885 -0.1582
 6385SOL    HW130788   1.009   0.544   5.887 -0.6189  0.1841 -2.4443
 6385SOL    HW230789   1.052   0.656   5.967  0.5173  0.1821 -0.6302
 6386SOL     OW30790   4.619   0.252   5.707  0.2518  0.6772  0.2928
 6386SOL    HW130791   4.586   0.182   5.764 -0.7764  1.2424  0.3858
 6386SOL    HW230792   4.587   0.217   5.623 -0.2495 -0.4848  0.9687
 6387SOL     OW30793   3.791   3.179  16.133  0.4251 -0.1000 -0.8765
 6387SOL    HW130794   3.834   3.141  16.056  0.2433 -2.6747  0.2742
 6387SOL    HW230795   3.701   3.178  16.102  0.6066 -1.9666 -1.3582
 6388SOL     OW30796   3.092   3.900   1.647  0.1576  0.0214 -0.3889
 6388SOL    HW130797   3.061   3.886   1.558 -3.2492 -0.4187  0.8854
 6388SOL    HW230798   3.073   3.816   1.688 -0.4129  0.6683  0.6890
 6389SOL     OW30799   1.740   3.587   4.301 -0.0924  1.0770  0.1299
 6389SOL    HW130800   1.792   3.666   4.317  1.1822 -0.0647  1.5652
 6389SOL    HW230801   1.663   3.603   4.355  0.7582 -1.1193  1.9979
 6390SOL     OW30802   4.025   2.957   9.871 -0.0002 -0.3489 -0.7479
 6390SOL    HW130803   4.066   2.871   9.884 -0.4664 -0.0919  2.4195
 6390SOL    HW230804   3.945   2.949   9.924 -1.0107  0.7941 -2.1071
 6391SOL     OW30805   3.478   1.066   2.626  0.1053 -0.0193  0.3020
 6391SOL    HW130806   3.406   1.064   2.562  0.5854  0.0972 -0.2396
 6391SOL    HW230807   3.534   1.128   2.580 -0.6188  0.4915  0.1015
 6392SOL     OW30808   1.376   3.226   7.909  0.2812 -0.4230  0.1418
 6392SOL    HW130809   1.347   3.299   7.854 -0.6078 -1.2907 -0.5348
 6392SOL    HW230810   1.324   3.258   7.983 -1.6309  0.0119 -1.4033
 6393SOL     OW30811   4.133   2.166  13.725 -0.2168 -0.1318 -0.4323
 6393SOL    HW130812   4.082   2.208  13.794 -0.4441 -0.7837 -0.2092
 6393SOL    HW230813   4.210   2.223  13.724 -0.6344  0.4122 -2.9536
 6394SOL     OW30814   1.985   0.584  16.276 -0.0046  0.5501 -0.0908
 6394SOL    HW130815   2.054   0.650  16.276 -0.6392  1.2160  0.5233
 6394SOL    HW230816   1.980   0.563  16.183  1.5921 -1.0870  0.1911
 6395SOL     OW30817   4.297   2.816   4.313 -0.4956  0.4174  0.8863
 6395SOL    HW130818   4.300   2.732   4.266 -0.1307  1.1080 -0.3277
 6395SOL    HW230819   4.230   2.799   4.379 -0.5715  1.5937  1.1114
 6396SOL     OW30820   2.552   1.281   7.531 -0.2969 -0.7764  0.2133
 6396SOL    HW130821   2.554   1.377   7.530  2.2723 -0.8421  1.7707
 6396SOL    HW230822   2.574   1.262   7.622 -0.3664 -1.5122  0.0749
 6397SOL     OW30823   1.829   2.385   4.144 -0.0592 -0.0411 -0.2006
 6397SOL    HW130824   1.763   2.453   4.126 -0.7346 -0.2489  1.4722
 6397SOL    HW230825   1.893   2.401   4.075  1.0074  1.3965  1.1271
 6398SOL     OW30826   2.444   3.731  13.445 -0.0575 -0.1470  0.5168
 6398SOL    HW130827   2.510   3.663  13.446  0.4309  0.3287  0.1679
 6398SOL    HW230828   2.418   3.741  13.354  1.0690  0.2759  0.2476
 6399SOL     OW30829   2.521   2.339   9.269 -0.0882 -0.0678 -0.2320
 6399SOL    HW130830   2.470   2.294   9.202  0.7450 -0.5648 -0.5439
 6399SOL    HW230831   2.522   2.269   9.335 -0.4315  0.5780  0.4615
 6400SOL     OW30832   2.010   0.131   3.800  0.4762  0.2225 -0.1303
 6400SOL    HW130833   2.051   0.052   3.765 -2.1397  0.4731 -3.7256
 6400SOL    HW230834   2.086   0.190   3.803  0.7544 -0.0864 -1.3462
 6401SOL     OW30835   1.984   2.645   5.416 -0.7626 -0.1563  0.0554
 6401SOL    HW130836   1.986   2.646   5.512  0.2541 -1.0274  0.0408
 6401SOL    HW230837   1.890   2.637   5.400 -0.6297  1.4603 -1.5605
 6402SOL     OW30838   2.293   0.990   3.595 -0.1481  0.0358  0.0483
 6402SOL    HW130839   2.387   0.985   3.578 -0.4334  2.4260 -2.0845
 6402SOL    HW230840   2.259   0.985   3.506 -2.5174  2.4059  0.8217
 6403SOL     OW30841   2.621   3.412   4.693 -0.8589  0.1969 -0.6969
 6403SOL    HW130842   2.711   3.445   4.696 -1.1763  0.9087  1.1229
 6403SOL    HW230843   2.577   3.482   4.741  1.6215 -0.4663  2.6167
 6404SOL     OW30844   1.330   0.229   3.541  0.2637  0.1316  0.1547
 6404SOL    HW130845   1.412   0.267   3.572  1.1844 -1.3268 -0.4890
 6404SOL    HW230846   1.353   0.196   3.454 -0.3879 -0.6606  0.2862
 6405SOL     OW30847   0.077   2.859  10.522  0.2552  0.0552  0.4342
 6405SOL    HW130848   4.729   2.897  10.532  0.0547  0.2624 -2.1056
 6405SOL    HW230849   0.116   2.908  10.450 -0.5056 -0.3447 -0.2474
 6406SOL     OW30850   2.625   3.234   4.457 -0.1427  0.7421  0.4759
 6406SOL    HW130851   2.564   3.267   4.391  0.7580  0.5271 -0.4638
 6406SOL    HW230852   2.588   3.256   4.542 -0.8481 -0.1131  0.3872
 6407SOL     OW30853   0.931   0.216   1.479 -0.0175 -0.1667 -0.3018
 6407SOL    HW130854   0.982   0.286   1.438  1.1655 -0.7451  0.1823
 6407SOL    HW230855   1.006   0.166   1.510  0.1336  0.0175 -0.3673
 6408SOL     OW30856   2.377   3.244   5.454 -0.9571 -0.7238 -0.2101
 6408SOL    HW130857   2.445   3.274   5.394 -0.3153  1.9845  1.8839
 6408SOL    HW230858   2.394   3.150   5.464 -0.8033 -0.5529  1.1421
 6409SOL     OW30859   1.536   3.260   7.225 -0.0524 -0.0424 -0.3273
 6409SOL    HW130860   1.510   3.310   7.148 -2.4629 -0.2869  0.3423
 6409SOL    HW230861   1.482   3.289   7.297 -1.1334 -2.9574  0.0470
 6410SOL     OW30862   3.104   2.671  15.005 -0.0904 -0.2957 -0.1391
 6410SOL    HW130863   3.072   2.745  15.055  0.8877  0.3914 -0.5401
 6410SOL    HW230864   3.151   2.714  14.933 -1.4668 -0.0275 -0.8848
 6411SOL     OW30865   2.832   0.903   3.109  0.2537  0.3597  0.2282
 6411SOL    HW130866   2.891   0.838   3.147  0.3407  0.2604 -0.0736
 6411SOL    HW230867   2.744   0.865   3.108 -0.1146  1.2037  0.2168
 6412SOL     OW30868   0.232   0.499  10.921  0.0642  0.3622 -0.0845
 6412SOL    HW130869   0.300   0.456  10.975 -1.7622 -1.4562  0.7626
 6412SOL    HW230870   0.211   0.576  10.974 -2.9151 -0.5495  0.0613
 6413SOL     OW30871   3.855   4.087   8.133  0.5488  0.4710  0.3938
 6413SOL    HW130872   3.875   4.082   8.039 -1.9069 -0.2281 -0.0871
 6413SOL    HW230873   3.926   4.029   8.162 -0.6765  0.5629  3.5043
 6414SOL     OW30874   1.024   1.055   7.333 -0.1574  0.3974  0.4297
 6414SOL    HW130875   0.936   1.019   7.342 -0.4101  0.8214 -0.3645
 6414SOL    HW230876   1.081   1.000   7.387 -1.1662 -1.4928 -0.4241
 6415SOL     OW30877   0.823   3.093   8.994 -0.2529 -0.5220  0.1399
 6415SOL    HW130878   0.853   3.181   9.015 -2.3056  0.4754 -1.0798
 6415SOL    HW230879   0.784   3.071   9.078 -1.6532 -0.3939 -0.4759
 6416SOL     OW30880   0.351   2.961   4.530  0.2242 -0.5436 -0.3501
 6416SOL    HW130881   0.376   2.972   4.621 -4.5448 -0.3598  0.9246
 6416SOL    HW230882   0.385   2.872   4.522 -0.7283 -1.0504  1.1947
 6417SOL     OW30883   4.623   2.804   5.995  0.2304 -0.1578 -0.1940
 6417SOL    HW130884   4.634   2.724   6.046 -4.0610 -0.9644 -0.5746
 6417SOL    HW230885   4.635   2.873   6.060 -2.0267  0.5928 -0.5907
 6418SOL     OW30886   2.725   2.710   6.827 -0.8037 -0.2729  0.5297
 6418SOL    HW130887   2.810   2.686   6.790 -0.5653  0.5385  0.5412
 6418SOL    HW230888   2.667   2.641   6.798 -0.7203 -0.2944  0.4157
 6419SOL     OW30889   2.783   2.113   3.080 -0.0010  0.1268 -0.0490
 6419SOL    HW130890   2.741   2.050   3.021  2.1495 -0.9411 -0.4353
 6419SOL    HW230891   2.721   2.111   3.152  1.2378 -0.1111  1.0137
 6420SOL     OW30892   2.016   3.161   0.867  0.2445  0.0839 -0.1765
 6420SOL    HW130893   1.966   3.207   0.934 -1.5238 -0.8626 -0.8476
 6420SOL    HW230894   1.978   3.189   0.784  0.2043 -1.4735 -0.6927
 6421SOL     OW30895   1.319   3.064   2.579 -0.0456 -0.2904 -0.2394
 6421SOL    HW130896   1.253   3.002   2.547 -1.0680  1.3147 -1.2410
 6421SOL    HW230897   1.266   3.125   2.631 -0.1842 -0.4695 -0.1703
 6422SOL     OW30898   3.570   2.615  12.597  0.8792 -0.1556  0.0987
 6422SOL    HW130899   3.561   2.523  12.622  1.5022 -0.2551 -0.0292
 6422SOL    HW230900   3.580   2.647  12.687  1.0648  0.0774 -0.0044
 6423SOL     OW30901   3.979   4.662   3.774 -0.4694 -0.1268 -0.2063
 6423SOL    HW130902   4.047   4.617   3.723  0.9167 -1.0042  2.4173
 6423SOL    HW230903   3.952   4.600   3.842  1.5063 -0.5078  0.2506
 6424SOL     OW30904   0.416   1.890   9.489  0.1046  0.0466  0.4083
 6424SOL    HW130905   0.421   1.975   9.534 -1.5936  0.1087  0.4957
 6424SOL    HW230906   0.498   1.888   9.440  0.1358  1.7468  0.4084
 6425SOL     OW30907   3.495   4.217   4.831  0.2169  0.2770 -0.4068
 6425SOL    HW130908   3.437   4.244   4.903 -0.2914  0.5984 -0.9340
 6425SOL    HW230909   3.523   4.133   4.868 -0.5530 -0.9010 -2.5211
 6426SOL     OW30910   3.372   3.795   6.574 -0.5153 -0.5747 -0.1887
 6426SOL    HW130911   3.386   3.807   6.480  0.8655  1.0068  0.2127
 6426SOL    HW230912   3.281   3.822   6.587 -0.7092 -0.4760 -1.7706
 6427SOL     OW30913   0.709   0.562   9.160  0.0992  0.5698  0.0237
 6427SOL    HW130914   0.777   0.520   9.108  2.0146  1.2342  1.9946
 6427SOL    HW230915   0.756   0.588   9.240  1.0171  0.4207 -0.4644
 6428SOL     OW30916   0.294   2.317   4.269  0.0810 -0.5650  0.1659
 6428SOL    HW130917   0.246   2.366   4.202  0.8672 -0.2621 -0.1793
 6428SOL    HW230918   0.242   2.332   4.348 -1.0641 -0.9627 -0.5222
 6429SOL     OW30919   0.947   2.652  14.794  0.0456 -0.5851 -0.5760
 6429SOL    HW130920   0.878   2.601  14.838  0.4031  0.6778  1.4836
 6429SOL    HW230921   1.021   2.593  14.780 -0.0538 -1.1200  1.1238
 6430SOL     OW30922   1.528   3.622   4.505 -0.1370  0.2854 -0.1259
 6430SOL    HW130923   1.466   3.591   4.571  1.1105  0.8355  1.3215
 6430SOL    HW230924   1.481   3.602   4.424  0.2906  3.1387 -1.1107
 6431SOL     OW30925   2.599   2.070   3.280  0.0389  0.6683 -0.1673
 6431SOL    HW130926   2.563   2.156   3.303  2.4547  1.8276 -0.7040
 6431SOL    HW230927   2.527   2.031   3.231 -1.7834  3.2260  0.4619
 6432SOL     OW30928   1.339   2.852   6.823  0.1260 -0.6030  0.1374
 6432SOL    HW130929   1.405   2.785   6.805  1.9778  2.1436 -3.3457
 6432SOL    HW230930   1.399   2.923   6.847 -0.5068  0.1620 -0.5550
 6433SOL     OW30931   3.059   2.543  16.526 -0.0499  0.2235  0.3723
 6433SOL    HW130932   2.982   2.597  16.543 -0.0849  0.3234 -0.0866
 6433SOL    HW230933   3.119   2.607  16.489 -1.5271  0.4125 -1.7418
 6434SOL     OW30934   3.667   2.598   2.240 -0.4842 -0.1119  0.1447
 6434SOL    HW130935   3.684   2.610   2.146 -1.2063 -0.4061 -0.0251
 6434SOL    HW230936   3.580   2.557   2.241  0.4197 -2.0089  2.2137
 6435SOL     OW30937   2.046   0.573   6.553  0.2359  0.3283  0.3006
 6435SOL    HW130938   1.964   0.584   6.504  0.1727 -0.0709  0.3151
 6435SOL    HW230939   2.060   0.489   6.509 -0.5316 -1.2354  3.0039
 6436SOL     OW30940   2.503   0.978   5.784 -0.8060 -0.3527 -0.3188
 6436SOL    HW130941   2.438   1.046   5.770 -0.7431 -0.4006 -0.8456
 6436SOL    HW230942   2.485   0.957   5.876 -0.8777 -1.2772 -0.5416
 6437SOL     OW30943   2.086   1.618   4.725 -0.5412  0.1953  0.2086
 6437SOL    HW130944   2.115   1.700   4.685 -1.5535  1.7850  2.6985
 6437SOL    HW230945   2.044   1.649   4.806 -0.2397 -0.7632  0.7335
 6438SOL     OW30946   3.947   1.212  12.569 -0.0561  0.3772  0.5596
 6438SOL    HW130947   3.885   1.235  12.638  0.1177  0.5626  0.6548
 6438SOL    HW230948   4.012   1.161  12.616 -1.3129 -2.0116 -0.3057
 6439SOL     OW30949   2.956   1.145   6.962  0.4851  0.0825 -0.4863
 6439SOL    HW130950   2.897   1.126   7.034  1.4059 -3.0014 -0.5405
 6439SOL    HW230951   2.960   1.057   6.924 -0.4760  0.0008 -0.3921
 6440SOL     OW30952   0.143   2.246   0.609  0.1028 -0.9652 -0.3251
 6440SOL    HW130953   0.237   2.256   0.627 -0.0852 -0.4112  0.3258
 6440SOL    HW230954   0.126   2.153   0.620 -3.6079 -0.1594  0.4935
 6441SOL     OW30955   3.864   2.928   2.041  0.0151 -0.1216  0.3764
 6441SOL    HW130956   3.788   2.975   2.006  1.1761  0.4216 -1.4015
 6441SOL    HW230957   3.815   2.850   2.067  1.2133 -0.2226  2.3410
 6442SOL     OW30958   0.806   4.705   7.308  0.4634  0.5051 -0.2489
 6442SOL    HW130959   0.776   4.619   7.279  1.2649  0.4691 -0.9733
 6442SOL    HW230960   0.875   4.718   7.243 -1.2495  1.3318 -1.9303
 6443SOL     OW30961   2.281   0.236   2.665 -0.4513 -0.3423 -0.1252
 6443SOL    HW130962   2.234   0.316   2.689  1.8756  0.9870  0.0246
 6443SOL    HW230963   2.371   0.258   2.689 -0.6433  0.7049 -0.3959
 6444SOL     OW30964   3.081   2.337   4.664 -0.0006 -0.3313  0.4672
 6444SOL    HW130965   3.167   2.350   4.704  1.2937  1.4832 -2.8705
 6444SOL    HW230966   3.026   2.413   4.686 -0.3207 -0.6216  0.6579
 6445SOL     OW30967   3.583   1.746  14.834  0.1413  0.1875 -0.9802
 6445SOL    HW130968   3.587   1.667  14.889  0.7968  2.1026  1.7427
 6445SOL    HW230969   3.649   1.724  14.768 -0.3324  1.4222 -1.8588
 6446SOL     OW30970   0.762   4.096   4.127 -0.0666  0.0258 -0.0004
 6446SOL    HW130971   0.773   4.187   4.098  1.9938 -0.0929  0.3921
 6446SOL    HW230972   0.695   4.102   4.194  1.1099 -0.3325  1.2146
 6447SOL     OW30973   4.015   2.465  15.187  0.5096 -0.2725  0.4114
 6447SOL    HW130974   4.001   2.557  15.209 -0.6032 -0.4837  0.5788
 6447SOL    HW230975   4.038   2.425  15.271  0.7076 -0.5209  0.2383
 6448SOL     OW30976   1.463   0.783   3.676 -0.0899  0.0797 -0.0701
 6448SOL    HW130977   1.440   0.838   3.752  1.2779  1.8248 -0.9046
 6448SOL    HW230978   1.548   0.742   3.693 -0.3210  0.9891  3.3081
 6449SOL     OW30979   2.423   3.287   7.704  0.4062 -0.1103  0.2716
 6449SOL    HW130980   2.477   3.304   7.781 -2.3583  1.2067  1.8725
 6449SOL    HW230981   2.491   3.270   7.638  1.1758 -2.3148  1.6156
 6450SOL     OW30982   0.890   0.280   3.338 -0.0153  0.3832 -0.1831
 6450SOL    HW130983   0.833   0.355   3.353  0.5113  0.8243 -0.3896
 6450SOL    HW230984   0.972   0.321   3.366 -0.1531 -0.9536  2.1043
 6451SOL     OW30985   0.524   1.443   3.923 -0.2068  0.2569  0.3509
 6451SOL    HW130986   0.476   1.389   3.986 -2.6725  0.6314 -1.1894
 6451SOL    HW230987   0.566   1.499   3.987 -0.6837  0.1621  0.7462
 6452SOL     OW30988   1.817   4.400   2.148  0.8290 -0.0699 -0.3709
 6452SOL    HW130989   1.865   4.458   2.207 -0.8991  1.0978 -0.1163
 6452SOL    HW230990   1.883   4.356   2.094  2.0358  0.2764  0.8175
 6453SOL     OW30991   1.171   3.446   6.652 -0.2242 -0.4584  0.2405
 6453SOL    HW130992   1.261   3.438   6.684 -0.0004  1.1999  0.0436
 6453SOL    HW230993   1.184   3.471   6.560 -0.5709 -1.2506 -0.0193
 6454SOL     OW30994   2.435   2.703   2.460 -0.2610  0.4389 -0.1160
 6454SOL    HW130995   2.521   2.741   2.476  0.2892 -0.9182  0.1626
 6454SOL    HW230996   2.454   2.609   2.456 -0.2890  0.4629 -0.7538
 6455SOL     OW30997   3.272   3.116   2.187 -0.7569 -0.3893  0.2540
 6455SOL    HW130998   3.201   3.064   2.150  0.6516 -2.6058  0.6948
 6455SOL    HW230999   3.345   3.070   2.146 -0.6639  0.6834 -0.7558
 6456SOL     OW31000   2.763   1.480   8.727 -0.3734  0.4397 -0.1380
 6456SOL    HW131001   2.822   1.412   8.694 -0.9780  0.2211 -0.7810
 6456SOL    HW231002   2.694   1.418   8.751  1.4986 -1.1244  1.2586
 6457SOL     OW31003   4.080   3.661   8.541 -0.2828 -0.5028  0.5003
 6457SOL    HW131004   4.069   3.643   8.634  1.6597 -2.4526  0.3605
 6457SOL    HW231005   3.998   3.709   8.528 -0.3980 -0.5085  1.2388
 6458SOL     OW31006   0.247   0.716  10.282 -0.4497  0.0933  0.1524
 6458SOL    HW131007   0.250   0.622  10.265  0.2915  0.3453 -1.1878
 6458SOL    HW231008   0.289   0.747  10.201  0.0220 -0.7368  0.0843
 6459SOL     OW31009   3.700   1.836   3.735 -0.4853  0.0309  1.1349
 6459SOL    HW131010   3.673   1.761   3.681  0.5234  1.2239 -1.0091
 6459SOL    HW231011   3.787   1.855   3.700 -2.0103  1.1179 -2.0053
 6460SOL     OW31012   3.836   3.103   8.497  0.1660 -0.2303  0.0371
 6460SOL    HW131013   3.817   3.041   8.426  1.2067 -1.2550  0.6604
 6460SOL    HW231014   3.856   3.038   8.564  0.8705  0.7469  0.7613
 6461SOL     OW31015   3.481   2.880   9.428 -0.0668  0.7186 -0.2396
 6461SOL    HW131016   3.425   2.935   9.374 -2.1568 -3.1152 -2.0012
 6461SOL    HW231017   3.444   2.896   9.515 -1.6116 -0.1907 -0.7250
 6462SOL     OW31018   0.370   2.163   2.169  0.7213 -1.1122  0.2352
 6462SOL    HW131019   0.461   2.175   2.143  0.3627 -0.7242 -0.8420
 6462SOL    HW231020   0.327   2.245   2.145 -2.4654 -3.0037 -0.4822
 6463SOL     OW31021   1.603   1.393   2.095  0.0207 -0.5486  0.8672
 6463SOL    HW131022   1.645   1.313   2.062  0.0728 -0.4856  0.7809
 6463SOL    HW231023   1.538   1.358   2.156 -0.6861 -2.6389 -1.1146
 6464SOL     OW31024   0.776   4.699   9.849  0.2922 -0.0347  0.0552
 6464SOL    HW131025   0.832   4.627   9.819 -0.0940  0.9615 -3.0665
 6464SOL    HW231026   0.752   4.688   9.941  2.2737 -1.2005  0.4176
 6465SOL     OW31027   4.459   3.507   7.613 -0.4568 -0.0613 -0.0432
 6465SOL    HW131028   4.488   3.574   7.675  1.6450 -3.4053  2.5918
 6465SOL    HW231029   4.459   3.423   7.659 -1.9028 -0.2441 -0.3713
 6466SOL     OW31030   1.632   4.537   7.159 -0.4360 -0.6063  0.5647
 6466SOL    HW131031   1.536   4.540   7.159 -0.3530  1.9526 -2.1641
 6466SOL    HW231032   1.648   4.509   7.069  0.3493  0.0343  0.5052
 6467SOL     OW31033   3.643   2.000   5.683 -0.0816  0.2429  0.0318
 6467SOL    HW131034   3.680   1.994   5.595  2.0223  1.7862  0.8074
 6467SOL    HW231035   3.705   1.944   5.730 -0.3717 -0.6256 -0.6214
 6468SOL     OW31036   2.981   0.118  14.366 -0.3498 -0.2611 -0.1032
 6468SOL    HW131037   3.013   0.121  14.276  0.2903  0.4424  0.1447
 6468SOL    HW231038   2.915   0.051  14.353 -1.1541  0.5544 -0.2029
 6469SOL     OW31039   1.461   2.740   2.611 -0.8733  0.7431  0.2573
 6469SOL    HW131040   1.372   2.761   2.584 -0.2948  1.6304 -0.9546
 6469SOL    HW231041   1.447   2.724   2.704  0.3210 -2.3418 -0.0745
 6470SOL     OW31042   0.983   1.565   7.707  0.2390 -0.1037 -0.0431
 6470SOL    HW131043   0.920   1.493   7.719  0.9581 -0.6964  0.1452
 6470SOL    HW231044   0.961   1.591   7.617 -0.6409 -0.5854  0.0271
 6471SOL     OW31045   4.328   1.450   3.287 -0.4233 -0.0099 -0.3991
 6471SOL    HW131046   4.301   1.516   3.223  3.6150  1.5738 -0.4874
 6471SOL    HW231047   4.254   1.459   3.348  0.5911  0.5410  0.7469
 6472SOL     OW31048   0.629   0.269  11.508 -0.5375  0.0284 -0.2099
 6472SOL    HW131049   0.673   0.188  11.535 -2.4355 -0.9198  0.0249
 6472SOL    HW231050   0.700   0.314  11.463  0.2786  0.5518  1.5827
 6473SOL     OW31051   0.532   4.318   6.246 -0.2310  0.0578  0.5480
 6473SOL    HW131052   0.526   4.225   6.267 -0.3396 -0.4527 -1.7739
 6473SOL    HW231053   0.620   4.337   6.279  0.8670  1.9979 -3.5439
 6474SOL     OW31054   1.837   2.943   8.408  0.0746 -0.0398 -0.9530
 6474SOL    HW131055   1.917   2.949   8.356  0.1174  1.1673 -0.7484
 6474SOL    HW231056   1.798   3.029   8.395 -0.2749  0.0850  0.9513
 6475SOL     OW31057   0.041   2.551   8.301 -0.2617 -0.6540 -0.0089
 6475SOL    HW131058   4.705   2.540   8.242  0.7106 -1.5456 -1.0810
 6475SOL    HW231059   0.029   2.475   8.358 -2.2225  0.6404  1.3267
 6476SOL     OW31060   1.218   3.137   6.550  0.8735  0.2975 -0.7580
 6476SOL    HW131061   1.258   3.143   6.636  2.6390 -2.0646 -1.3925
 6476SOL    HW231062   1.131   3.172   6.568  0.3634  0.0918 -2.7622
 6477SOL     OW31063   2.174   1.015   5.541  0.0421 -0.3102  0.1739
 6477SOL    HW131064   2.174   1.085   5.607 -0.9246  0.1090 -0.2736
 6477SOL    HW231065   2.080   0.995   5.538  0.2892 -1.0696 -1.9605
 6478SOL     OW31066   4.031   4.476   0.337 -0.2959 -0.3377  0.7815
 6478SOL    HW131067   4.094   4.534   0.294 -1.3215  2.3102  2.8443
 6478SOL    HW231068   4.054   4.485   0.429 -0.7163 -0.1623  0.8690
 6479SOL     OW31069   2.836   3.294  16.084  0.3791 -0.4497 -0.7332
 6479SOL    HW131070   2.751   3.334  16.065  0.3399 -0.0062  0.3972
 6479SOL    HW231071   2.826   3.269  16.176  0.3915  1.4394 -0.2333
 6480SOL     OW31072   2.218   0.136  13.328  0.0695 -0.5890  0.2771
 6480SOL    HW131073   2.192   0.199  13.395 -1.4587 -2.1157  1.1351
 6480SOL    HW231074   2.132   0.108  13.294  0.5767 -1.0602 -0.6311
 6481SOL     OW31075   0.306   4.520   5.813 -0.2373 -0.2006  0.2974
 6481SOL    HW131076   0.326   4.601   5.767 -1.0819  0.4656  1.1094
 6481SOL    HW231077   0.395   4.492   5.834 -0.2524  0.1703  0.8466
 6482SOL     OW31078   1.904   4.351   1.502  0.6583  0.3306 -0.0670
 6482SOL    HW131079   1.868   4.390   1.422 -1.3720  1.3517  1.3725
 6482SOL    HW231080   1.996   4.370   1.485 -0.0374  3.9642  0.1794
 6483SOL     OW31081   2.359   0.122   9.682 -0.5185 -0.0408 -0.6229
 6483SOL    HW131082   2.392   0.096   9.596  0.7218  1.5577 -0.6347
 6483SOL    HW231083   2.279   0.069   9.680  0.7940 -2.0159 -0.8286
 6484SOL     OW31084   4.219   3.583   9.186 -0.2386 -0.0505  0.6943
 6484SOL    HW131085   4.306   3.573   9.223  0.3897  0.8059 -0.5205
 6484SOL    HW231086   4.185   3.494   9.194  0.9703 -0.5463  0.2829
 6485SOL     OW31087   0.433   4.129   5.463 -0.4644 -0.3916 -0.6331
 6485SOL    HW131088   0.510   4.184   5.471 -2.2404  2.3352 -2.4567
 6485SOL    HW231089   0.379   4.166   5.533 -0.1321 -0.5571 -0.2836
 6486SOL     OW31090   1.756   4.252  11.125 -0.4237  0.5059 -0.1721
 6486SOL    HW131091   1.779   4.312  11.196  0.4910 -0.0596 -0.0012
 6486SOL    HW231092   1.823   4.187  11.146 -0.5445 -0.2254 -2.0730
 6487SOL     OW31093   4.628   1.758   5.704  0.3389  0.2403  0.7265
 6487SOL    HW131094   4.707   1.788   5.750 -0.4607  1.8226  1.0458
 6487SOL    HW231095   4.629   1.825   5.636  0.6487 -0.6148 -0.1045
 6488SOL     OW31096   4.030   2.097   9.535 -0.0184  0.2678  0.0081
 6488SOL    HW131097   3.996   2.072   9.621 -0.8426  0.4340 -0.2722
 6488SOL    HW231098   3.957   2.145   9.497 -1.3578 -0.6481  1.4075
 6489SOL     OW31099   2.373   0.028   5.632  0.6264  0.1311  0.1404
 6489SOL    HW131100   2.454   0.051   5.677 -0.9432  1.8036  2.0954
 6489SOL    HW231101   2.364   0.100   5.569 -0.6934 -1.5536 -1.5933
 6490SOL     OW31102   1.495   0.212   5.043  0.4268  0.5939 -0.4316
 6490SOL    HW131103   1.469   0.298   5.075  2.6846  0.7223  1.1013
 6490SOL    HW231104   1.517   0.173   5.127  0.5373  0.7207 -0.4013
 6491SOL     OW31105   1.467   3.805   0.887  0.3252  0.2523 -0.3454
 6491SOL    HW131106   1.547   3.811   0.835  1.0154  0.5842  0.7301
 6491SOL    HW231107   1.489   3.868   0.956 -1.3429 -0.7283  1.1009
 6492SOL     OW31108   2.037   0.120   1.240  0.0020  0.7780 -0.2493
 6492SOL    HW131109   1.990   0.081   1.167 -0.7974  0.9751  0.1553
 6492SOL    HW231110   2.060   0.210   1.219  1.0167  0.5188 -0.2596
 6493SOL     OW31111   4.238   2.607   6.449  0.3689  0.1266 -0.2870
 6493SOL    HW131112   4.198   2.521   6.440  0.1883  0.2661 -0.7738
 6493SOL    HW231113   4.159   2.661   6.450 -0.9959 -1.8635  0.6056
 6494SOL     OW31114   1.268   4.051  11.534  0.2219  0.8986 -0.5939
 6494SOL    HW131115   1.182   4.080  11.565 -0.6676 -2.6547  0.2714
 6494SOL    HW231116   1.292   4.132  11.488 -2.3101  1.2498 -1.3086
 6495SOL     OW31117   1.114   2.142   5.940 -0.1065 -0.4467  0.5021
 6495SOL    HW131118   1.192   2.089   5.921 -2.6235 -4.0450  0.1749
 6495SOL    HW231119   1.073   2.156   5.855  0.1307  0.7584  0.5915
 6496SOL     OW31120   2.477   2.075   4.847 -0.0288  0.7289  0.4203
 6496SOL    HW131121   2.546   2.139   4.859  0.4742 -0.2923  2.9173
 6496SOL    HW231122   2.505   2.049   4.759 -1.0925  3.8478 -0.8428
 6497SOL     OW31123   3.140   0.657  14.938 -0.3124 -0.1730  0.3391
 6497SOL    HW131124   3.224   0.699  14.958 -0.9126  1.3179 -0.3019
 6497SOL    HW231125   3.173   0.568  14.929 -0.4971 -0.1249 -0.8181
 6498SOL     OW31126   1.449   1.363   7.524  0.3960 -0.3200  0.2290
 6498SOL    HW131127   1.405   1.355   7.440  0.4317  1.7249 -0.0026
 6498SOL    HW231128   1.380   1.404   7.577  1.0418  0.7487  0.2405
 6499SOL     OW31129   3.603   3.843   6.026  0.5694 -0.4230  0.4705
 6499SOL    HW131130   3.638   3.793   5.953  0.7024 -1.2606  1.1121
 6499SOL    HW231131   3.626   3.931   5.997 -0.6098  0.0114  0.8643
 6500SOL     OW31132   3.571   4.012   7.760  0.0346  0.2200 -0.1499
 6500SOL    HW131133   3.642   3.972   7.710 -0.9465 -1.9504  0.2207
 6500SOL    HW231134   3.524   4.053   7.687  1.8392  0.1665 -1.3247
 6501SOL     OW31135   0.996   3.776  13.211  0.3921 -0.2337 -0.7837
 6501SOL    HW131136   1.065   3.841  13.203 -1.1494  1.3232 -1.4235
 6501SOL    HW231137   0.918   3.825  13.233  0.5240 -0.1683 -0.4674
 6502SOL     OW31138   4.570   0.118   9.816 -0.3832 -0.4304  0.1891
 6502SOL    HW131139   4.491   0.095   9.766  0.8070 -0.0182 -1.8696
 6502SOL    HW231140   4.545   0.204   9.851  0.8427  0.7969 -1.9697
 6503SOL     OW31141   1.087   1.048   7.064  0.4675  0.4874  0.4154
 6503SOL    HW131142   1.161   1.108   7.050 -0.8917  1.6461 -1.7744
 6503SOL    HW231143   1.062   1.066   7.154 -0.7137  1.3696 -0.0897
 6504SOL     OW31144   3.616   3.600   6.280 -0.2230 -0.3453  0.0041
 6504SOL    HW131145   3.555   3.615   6.208 -0.6545  0.1493  0.4817
 6504SOL    HW231146   3.561   3.562   6.347  1.7401 -1.1088  1.1893
 6505SOL     OW31147   1.577   0.736   2.164 -1.1897  0.4070  0.1617
 6505SOL    HW131148   1.667   0.704   2.165 -0.5117  2.3689  1.5549
 6505SOL    HW231149   1.554   0.703   2.251  0.5656 -0.6202  0.2344
 6506SOL     OW31150   2.447   2.773   4.900 -0.0674  0.3812  0.2133
 6506SOL    HW131151   2.539   2.749   4.883 -0.5390 -2.3896  1.5677
 6506SOL    HW231152   2.439   2.733   4.986 -0.1373 -0.8535 -0.3577
 6507SOL     OW31153   0.151   4.127   1.294  0.3529  0.7968 -0.0647
 6507SOL    HW131154   0.163   4.201   1.353  1.1478  0.5316  0.0938
 6507SOL    HW231155   0.230   4.131   1.240  1.2202 -0.3370  1.1176
 6508SOL     OW31156   0.046   1.430  10.345  0.0683  0.2963  0.1413
 6508SOL    HW131157   0.000   1.420  10.429 -0.9603 -2.3098 -0.7408
 6508SOL    HW231158   4.738   1.507  10.313 -0.3449  1.6448  3.9552
 6509SOL     OW31159   0.595   1.828   4.986  0.2765  0.5061 -0.2137
 6509SOL    HW131160   0.526   1.764   4.998  1.1433 -0.7646 -2.0033
 6509SOL    HW231161   0.605   1.848   4.893 -0.2088 -0.1896 -0.4183
 6510SOL     OW31162   0.752   3.255   4.499 -0.1494 -0.0192  0.2087
 6510SOL    HW131163   0.676   3.270   4.443  1.1420 -0.7148 -1.6918
 6510SOL    HW231164   0.754   3.160   4.496  2.1112  0.0442 -0.3648
 6511SOL     OW31165   1.033   0.393   6.015 -0.4561 -0.3022  0.0068
 6511SOL    HW131166   0.978   0.406   6.093 -0.5613 -1.1577  0.0735
 6511SOL    HW231167   1.121   0.407   6.049 -1.1159  1.3482  1.0493
 6512SOL     OW31168   0.758   0.715   7.749  0.3450 -0.0352 -0.1280
 6512SOL    HW131169   0.782   0.730   7.841  0.7959  1.9460 -0.5799
 6512SOL    HW231170   0.801   0.631   7.733 -2.0118 -1.0815 -0.9625
 6513SOL     OW31171   0.875   1.628  14.152  0.0207  0.3114 -0.0927
 6513SOL    HW131172   0.800   1.575  14.177  0.2125  0.5539  0.9993
 6513SOL    HW231173   0.890   1.606  14.060 -2.2237 -0.3347 -0.2902
 6514SOL     OW31174   2.571   1.968   0.373  0.2541  0.1530 -0.2291
 6514SOL    HW131175   2.657   1.973   0.416  0.4522 -1.9284 -0.3901
 6514SOL    HW231176   2.525   1.981   0.456  0.5227 -2.3331  0.3131
 6515SOL     OW31177   4.287   4.300   4.511  0.6540  0.1187 -0.3916
 6515SOL    HW131178   4.338   4.350   4.575 -0.8298  0.8372  0.2451
 6515SOL    HW231179   4.269   4.360   4.439  0.4626  3.4775  2.4718
 6516SOL     OW31180   2.349   3.278   9.684  0.0720  0.6027 -0.0290
 6516SOL    HW131181   2.417   3.311   9.742 -0.4657 -0.4713  1.1999
 6516SOL    HW231182   2.320   3.198   9.727  1.6978  0.7896  1.3979
 6517SOL     OW31183   3.762   1.702  14.612  0.9312 -0.1264 -0.1706
 6517SOL    HW131184   3.837   1.691  14.552 -1.4039 -0.0760 -3.1121
 6517SOL    HW231185   3.690   1.711  14.549  0.3107  0.0817  0.5810
 6518SOL     OW31186   0.791   2.893  12.311  0.5118 -0.2003 -0.3422
 6518SOL    HW131187   0.851   2.818  12.314  2.1647  1.1054 -1.0699
 6518SOL    HW231188   0.796   2.918  12.219  0.0094  1.1697  0.0060
 6519SOL     OW31189   2.190   2.437  14.631 -0.1043  0.5657  0.3684
 6519SOL    HW131190   2.132   2.365  14.655  1.5084  0.4835  3.9474
 6519SOL    HW231191   2.279   2.401  14.628 -0.6309 -0.8863  2.4810
 6520SOL     OW31192   1.355   0.199  11.474  0.7819 -0.0565 -0.1403
 6520SOL    HW131193   1.351   0.169  11.384 -0.3563 -1.1043  0.2663
 6520SOL    HW231194   1.320   0.117  11.508  0.6423 -0.3759 -1.0721
 6521SOL     OW31195   1.952   2.076   2.456  0.3555 -0.0328  0.2995
 6521SOL    HW131196   1.989   2.099   2.542 -0.8832 -0.5541  0.9657
 6521SOL    HW231197   1.936   2.163   2.420  1.0583 -0.4718 -1.0566
 6522SOL     OW31198   2.380   4.271   7.770 -0.2575  0.1394 -0.6893
 6522SOL    HW131199   2.411   4.250   7.682  3.8481  0.4831  0.7036
 6522SOL    HW231200   2.391   4.192   7.823  0.5805  0.9855  0.3855
 6523SOL     OW31201   3.014   3.933   8.215  0.0182 -0.7943  0.0884
 6523SOL    HW131202   2.952   3.916   8.286 -0.6600  0.1938 -0.2548
 6523SOL    HW231203   3.096   3.926   8.264 -0.4860 -1.8677  0.7607
 6524SOL     OW31204   0.870   3.907   8.581 -0.0564 -0.1065  0.1731
 6524SOL    HW131205   0.928   3.851   8.529  0.7601 -0.6562  1.6713
 6524SOL    HW231206   0.793   3.867   8.542 -0.2790  0.8302 -0.3551
 6525SOL     OW31207   2.714   2.502   8.599  0.0159 -0.5035  0.0263
 6525SOL    HW131208   2.785   2.566   8.585 -1.0354  0.9873  1.5547
 6525SOL    HW231209   2.678   2.512   8.511  1.8455 -0.2484 -0.7094
 6526SOL     OW31210   2.983   2.883   5.824 -0.6090 -0.3379 -0.3530
 6526SOL    HW131211   3.053   2.884   5.758  0.6284  1.2965  0.9697
 6526SOL    HW231212   3.026   2.827   5.888  1.2046  0.4245 -0.8726
 6527SOL     OW31213   1.085   3.506   7.722 -0.2181  0.0041  0.3101
 6527SOL    HW131214   1.041   3.451   7.656 -0.6411 -0.0296  0.6176
 6527SOL    HW231215   1.068   3.439   7.788 -0.3372  0.8309  1.1158
 6528SOL     OW31216   2.354   0.491   5.628 -0.4695 -0.0965 -0.6074
 6528SOL    HW131217   2.331   0.571   5.675  1.9063 -0.0796  0.5100
 6528SOL    HW231218   2.438   0.474   5.670 -1.5530  1.1503  2.0899
 6529SOL     OW31219   1.017   0.327  12.704 -0.3582  0.7182  0.3722
 6529SOL    HW131220   1.105   0.293  12.718 -0.4920  0.7454  1.2826
 6529SOL    HW231221   1.004   0.403  12.760 -0.7949  2.1230 -1.6257
 6530SOL     OW31222   3.368   2.420   7.544 -0.6219  0.3760  0.1050
 6530SOL    HW131223   3.413   2.350   7.497  0.0922  0.2849  0.9500
 6530SOL    HW231224   3.276   2.401   7.524 -0.7227  0.7590  0.1981
 6531SOL     OW31225   0.622   0.118   7.099  0.2494 -0.0310 -0.1808
 6531SOL    HW131226   0.701   0.111   7.044  1.7248 -0.4404  1.9700
 6531SOL    HW231227   0.641   0.071   7.180 -0.6551 -1.0126 -0.5452
 6532SOL     OW31228   4.032   1.903   9.911 -0.2919 -0.1992  0.5301
 6532SOL    HW131229   3.970   1.845   9.955 -2.9505  1.5916 -0.8453
 6532SOL    HW231230   3.968   1.958   9.867 -0.3802 -1.2498 -0.6896
 6533SOL     OW31231   3.547   1.280  13.324 -0.6549 -0.3740  0.4094
 6533SOL    HW131232   3.577   1.329  13.247  0.9806 -0.0380  1.2566
 6533SOL    HW231233   3.575   1.196  13.289  0.2266  1.2388 -2.7961
 6534SOL     OW31234   1.746   2.350   7.059 -0.3103 -0.0306  0.1815
 6534SOL    HW131235   1.759   2.260   7.088  1.1511 -0.1155 -0.7066
 6534SOL    HW231236   1.833   2.377   7.027  0.0241 -1.0185  0.2529
 6535SOL     OW31237   0.358   2.778  17.480  0.4806 -0.1858 -0.2297
 6535SOL    HW131238   0.368   2.734  17.564 -1.5837  0.0832  0.1648
 6535SOL    HW231239   0.335   2.864  17.516  1.2467 -0.7978  1.6996
 6536SOL     OW31240   3.311   2.059  14.146  0.8939 -0.0099 -0.3371
 6536SOL    HW131241   3.228   2.015  14.129  0.4325  0.6168  0.2950
 6536SOL    HW231242   3.340   2.097  14.062  1.5289 -2.8231 -1.3737
 6537SOL     OW31243   2.908   2.213   1.267 -0.1897 -0.3140  0.2199
 6537SOL    HW131244   2.927   2.127   1.230  0.0380  0.9740 -2.6245
 6537SOL    HW231245   2.932   2.195   1.358 -2.8146  1.4452  1.2663
 6538SOL     OW31246   2.349   3.391   8.828  0.4185  0.4401  0.1203
 6538SOL    HW131247   2.438   3.423   8.816  0.8493 -0.7103  0.2594
 6538SOL    HW231248   2.367   3.314   8.881 -0.9459 -0.2080 -0.3578
 6539SOL     OW31249   1.680   3.813   0.682  0.4636  1.0766  0.3022
 6539SOL    HW131250   1.675   3.745   0.615 -0.5012  0.1390  1.3228
 6539SOL    HW231251   1.744   3.875   0.649  0.4502  0.5106 -0.7735
 6540SOL     OW31252   3.442   0.721   2.077  0.3447 -0.5227 -0.3125
 6540SOL    HW131253   3.347   0.729   2.087  0.4115  0.1537 -0.2332
 6540SOL    HW231254   3.467   0.787   2.141  2.0648 -0.1964 -1.3128
 6541SOL     OW31255   3.720   1.290   8.778 -0.4025  0.2406 -0.3486
 6541SOL    HW131256   3.631   1.257   8.792 -0.8643  1.1636 -1.1337
 6541SOL    HW231257   3.706   1.385   8.769  0.7739  0.4649  0.2450
 6542SOL     OW31258   0.491   2.447   6.503  0.2664 -0.5607 -0.2537
 6542SOL    HW131259   0.433   2.519   6.530  0.0393 -0.2385 -1.5902
 6542SOL    HW231260   0.504   2.476   6.413 -3.0115  1.0252 -0.2232
 6543SOL     OW31261   1.712   2.791   5.170 -0.4392 -0.0591  0.5011
 6543SOL    HW131262   1.764   2.718   5.136 -2.7031 -2.1994  1.6495
 6543SOL    HW231263   1.746   2.801   5.258  0.8888  1.2735 -0.1619
 6544SOL     OW31264   1.938   1.315  13.007  0.4848  0.1824  0.2224
 6544SOL    HW131265   1.911   1.242  12.952 -0.3402  1.0589 -0.5350
 6544SOL    HW231266   1.928   1.387  12.945 -0.3282  0.2077  0.3879
 6545SOL     OW31267   2.582   4.541   7.273 -0.0618  0.9229 -0.1221
 6545SOL    HW131268   2.613   4.577   7.190 -2.2428 -0.4995 -1.5668
 6545SOL    HW231269   2.535   4.466   7.237  0.6076  0.1743  0.5742
 6546SOL     OW31270   3.970   2.366   4.687 -0.3425  0.0594 -0.2092
 6546SOL    HW131271   4.060   2.365   4.721 -0.6126 -0.1342  0.5044
 6546SOL    HW231272   3.981   2.291   4.628  1.7963 -0.0218  0.3079
 6547SOL     OW31273   1.496   2.999   5.526 -0.1569 -0.0212  0.1094
 6547SOL    HW131274   1.541   3.068   5.575 -0.0244  0.0684 -0.1327
 6547SOL    HW231275   1.448   2.965   5.601 -0.9357  0.1719 -0.3072
 6548SOL     OW31276   1.506   1.209   7.853 -0.3234  0.6522 -0.0641
 6548SOL    HW131277   1.478   1.300   7.847 -0.4057  0.6916  0.9680
 6548SOL    HW231278   1.461   1.166   7.780 -2.1867 -0.5971  1.8150
 6549SOL     OW31279   3.126   0.127  17.040  0.1859  0.1392 -0.4961
 6549SOL    HW131280   3.167   0.049  17.077 -1.1250  0.5054  1.6844
 6549SOL    HW231281   3.048   0.095  16.995 -0.6836  0.9772  0.4374
 6550SOL     OW31282   3.170   3.653   2.795 -0.3926 -0.2553 -0.4953
 6550SOL    HW131283   3.087   3.692   2.766  0.4292  0.7144 -1.5665
 6550SOL    HW231284   3.138   3.567   2.821  1.1078 -0.4299  0.7871
 6551SOL     OW31285   0.491   2.415   7.555  0.1878 -0.5712 -0.1016
 6551SOL    HW131286   0.557   2.457   7.500 -0.3453 -0.5711 -0.7420
 6551SOL    HW231287   0.473   2.340   7.498  0.2700  1.4056 -2.7127
 6552SOL     OW31288   0.077   2.020   4.030 -0.5091 -0.4681  0.1913
 6552SOL    HW131289   0.150   2.079   4.010 -1.0882  0.3367  0.4493
 6552SOL    HW231290   0.081   1.958   3.957 -3.6367 -0.8165  0.3215
 6553SOL     OW31291   0.496   3.560   3.343  0.2247 -0.1599 -0.5212
 6553SOL    HW131292   0.467   3.479   3.300 -2.5459  0.4666  0.1616
 6553SOL    HW231293   0.459   3.548   3.431  3.1858 -0.5096  0.6823
 6554SOL     OW31294   4.048   0.016  10.059 -0.0378  0.0461  0.0318
 6554SOL    HW131295   4.020   0.040   9.970  0.6460 -2.7811 -0.9589
 6554SOL    HW231296   4.017   4.666  10.073  2.0242 -0.5196  0.8800
 6555SOL     OW31297   1.986   1.296   5.289  0.0140 -0.7078 -0.0469
 6555SOL    HW131298   1.970   1.364   5.355 -1.3517 -1.7498  0.6828
 6555SOL    HW231299   1.920   1.237   5.323  0.7019 -1.3550  0.1651
 6556SOL     OW31300   0.077   1.293   3.690 -0.3827  0.0799 -0.4149
 6556SOL    HW131301   0.125   1.220   3.651  1.3768  0.3058  1.3048
 6556SOL    HW231302   4.737   1.301   3.637  0.3116 -0.7454 -1.5731
 6557SOL     OW31303   0.341   2.163  17.474 -0.1532 -1.0149 -0.2381
 6557SOL    HW131304   0.290   2.092  17.513 -2.1370  1.5440  1.7937
 6557SOL    HW231305   0.285   2.185  17.399 -1.6554  0.5566  1.3493
 6558SOL     OW31306   0.221   1.094   3.587  0.0393 -0.4298 -0.1443
 6558SOL    HW131307   0.308   1.115   3.619 -0.2153  1.0660 -0.4085
 6558SOL    HW231308   0.222   1.127   3.498 -1.2944  0.9375  0.3300
 6559SOL     OW31309   1.692   4.585   3.021 -0.3539  0.6539 -0.0954
 6559SOL    HW131310   1.662   4.645   2.952 -2.0204  0.3115  0.3334
 6559SOL    HW231311   1.731   4.650   3.079 -2.5738  1.5022  0.4395
 6560SOL     OW31312   0.784   2.822   7.548 -0.5367 -0.7191 -0.4575
 6560SOL    HW131313   0.717   2.755   7.564 -0.0910 -1.4163 -1.5163
 6560SOL    HW231314   0.844   2.769   7.495 -1.4993  0.1904 -2.4379
 6561SOL     OW31315   4.448   1.292   7.898  0.4694 -0.0350 -0.5403
 6561SOL    HW131316   4.417   1.382   7.893  3.6333  1.0379 -0.9546
 6561SOL    HW231317   4.538   1.299   7.930  0.0961 -2.2705  1.0150
 6562SOL     OW31318   2.333   0.269   5.445 -0.1676 -0.2836 -0.7719
 6562SOL    HW131319   2.343   0.344   5.504 -1.7608  0.2629 -1.1830
 6562SOL    HW231320   2.405   0.276   5.383  0.1422 -1.0049 -0.4934
 6563SOL     OW31321   4.295   1.827   5.509  0.1915 -0.7355  0.0624
 6563SOL    HW131322   4.314   1.737   5.532  0.9036 -0.6585 -0.2320
 6563SOL    HW231323   4.224   1.849   5.569 -0.6820 -0.1795 -1.1879
 6564SOL     OW31324   0.006   2.669   1.929 -0.1774  0.3347 -0.0172
 6564SOL    HW131325   0.012   2.693   1.837  0.4525 -2.0013 -0.5913
 6564SOL    HW231326   0.051   2.739   1.976  1.6830  0.4952 -2.0439
 6565SOL     OW31327   1.236   1.486   7.633 -0.1840  0.2806 -0.2117
 6565SOL    HW131328   1.168   1.549   7.655  1.0832  0.9261  1.9522
 6565SOL    HW231329   1.223   1.430   7.710  0.8876 -0.3640 -0.4876
 6566SOL     OW31330   0.999   4.537   9.059  0.4803 -0.2241  0.1494
 6566SOL    HW131331   1.063   4.483   9.014 -0.1233  0.0455 -1.0356
 6566SOL    HW231332   1.036   4.625   9.050  1.6268 -0.9669 -2.2382
 6567SOL     OW31333   0.486   1.183   4.324  0.2232 -0.4614  0.1043
 6567SOL    HW131334   0.427   1.108   4.327  1.2792 -1.1220  3.7182
 6567SOL    HW231335   0.441   1.254   4.370 -0.5007 -2.3446  2.3051
 6568SOL     OW31336   3.720   2.745  13.560  0.3925  0.0269 -0.5503
 6568SOL    HW131337   3.781   2.715  13.492  1.4655 -0.9156  0.8126
 6568SOL    HW231338   3.635   2.714  13.530 -0.1844 -1.4520  2.6263
 6569SOL     OW31339   2.443   3.551   2.393  0.1203 -0.1487 -0.0781
 6569SOL    HW131340   2.440   3.458   2.414  0.5089  0.4282  2.5754
 6569SOL    HW231341   2.497   3.536   2.316 -0.1726 -0.0739 -0.2977
 6570SOL     OW31342   1.105   3.940  14.012  0.2009  0.1414  0.0777
 6570SOL    HW131343   1.164   3.916  13.940  0.6283  0.7363  0.2402
 6570SOL    HW231344   1.116   3.857  14.058 -2.1122  0.5954  1.4126
 6571SOL     OW31345   1.066   0.172   5.242  0.4674 -0.0945 -0.3136
 6571SOL    HW131346   1.005   0.245   5.236  0.1304 -0.3701 -0.2051
 6571SOL    HW231347   1.122   0.201   5.314 -1.6859  0.7263  1.0390
 6572SOL     OW31348   0.753   0.110   8.207 -0.4882 -0.7318 -0.1367
 6572SOL    HW131349   0.807   0.041   8.169  0.0589 -0.7117  0.6004
 6572SOL    HW231350   0.752   0.177   8.138 -0.8585 -1.0097 -0.3954
 6573SOL     OW31351   1.941   3.346   7.251 -0.0448 -0.1411 -0.3476
 6573SOL    HW131352   1.880   3.296   7.306  0.8470 -0.6908  0.1405
 6573SOL    HW231353   2.028   3.336   7.290  0.2002 -1.6594 -1.2908
 6574SOL     OW31354   2.865   1.642   4.122  0.1378 -0.4486  0.1156
 6574SOL    HW131355   2.815   1.721   4.140  0.8519 -0.3674  1.7377
 6574SOL    HW231356   2.948   1.684   4.100  0.4157 -0.2767  1.4698
 6575SOL     OW31357   3.613   1.712   9.473  0.1798 -0.7192  0.3192
 6575SOL    HW131358   3.618   1.617   9.463  2.1725 -0.6930  1.1267
 6575SOL    HW231359   3.697   1.754   9.454 -0.2913  0.7856  1.4794
 6576SOL     OW31360   3.861   1.988  16.311 -0.0532 -0.0571 -0.0808
 6576SOL    HW131361   3.839   1.996  16.218  0.9213  2.7116 -0.0661
 6576SOL    HW231362   3.784   1.936  16.335 -0.5226  1.0179  0.7416
 6577SOL     OW31363   4.299   3.900  10.666  0.1417  0.0253 -0.9449
 6577SOL    HW131364   4.386   3.925  10.635  1.0934 -0.8794  0.9876
 6577SOL    HW231365   4.319   3.852  10.746  1.3427 -1.0002 -1.8598
 6578SOL     OW31366   0.304   3.885   3.861  0.1140  0.6639 -0.0187
 6578SOL    HW131367   0.232   3.927   3.906 -0.6522 -0.1010 -0.5386
 6578SOL    HW231368   0.308   3.935   3.779 -1.0566 -0.0706 -0.5171
 6579SOL     OW31369   3.075   0.601  13.566  0.6486 -0.5181 -0.4189
 6579SOL    HW131370   3.037   0.544  13.499  1.2779  0.0359 -1.2497
 6579SOL    HW231371   3.064   0.688  13.528 -0.6208  0.1852  1.5662
 6580SOL     OW31372   2.818   3.800   8.033 -0.7178  0.3927  0.7491
 6580SOL    HW131373   2.889   3.802   8.097  1.3239  1.7964 -1.5728
 6580SOL    HW231374   2.815   3.709   8.002 -0.8742  0.9687 -0.9416
 6581SOL     OW31375   2.291   4.213   1.957  0.3656  0.0320  0.2344
 6581SOL    HW131376   2.310   4.125   1.990 -1.4868  0.2032  1.7965
 6581SOL    HW231377   2.305   4.193   1.864 -0.5668 -1.4067  0.4120
 6582SOL     OW31378   1.511   0.315   6.834  0.0598 -0.2983  0.0938
 6582SOL    HW131379   1.510   0.391   6.775 -2.8096 -0.0788  0.4188
 6582SOL    HW231380   1.416   0.307   6.828  0.0093  0.6384 -0.3966
 6583SOL     OW31381   1.201   4.578   7.034 -0.1935 -0.2642 -0.5932
 6583SOL    HW131382   1.249   4.511   7.084  1.3369 -0.0304 -1.7404
 6583SOL    HW231383   1.272   4.613   6.980  0.0639  1.1559  0.6929
 6584SOL     OW31384   2.895   0.377   7.828 -0.5289 -0.4585 -0.5818
 6584SOL    HW131385   2.825   0.437   7.802  0.3518 -0.3587 -2.7643
 6584SOL    HW231386   2.872   0.365   7.920  1.4698 -1.8182 -0.2699
 6585SOL     OW31387   2.446   2.527  11.362  0.1625 -0.1816  0.2668
 6585SOL    HW131388   2.522   2.470  11.359  0.8918  0.7633  0.8742
 6585SOL    HW231389   2.474   2.587  11.292  1.0454 -1.0227 -0.0989
 6586SOL     OW31390   1.886   2.576   5.080 -0.7357 -0.1089  0.0439
 6586SOL    HW131391   1.956   2.511   5.081 -1.7756 -1.2326 -0.5896
 6586SOL    HW231392   1.907   2.638   5.010  0.7217  0.5820  1.0873
 6587SOL     OW31393   2.628   3.991   5.818 -0.1344 -0.2430  0.4896
 6587SOL    HW131394   2.698   4.029   5.870  0.1074  1.4768 -1.1347
 6587SOL    HW231395   2.598   4.070   5.773  1.3166 -0.7602 -1.3817
 6588SOL     OW31396   1.995   2.912  11.590 -0.4608 -0.1414 -0.1812
 6588SOL    HW131397   1.998   2.999  11.550 -1.0861 -0.6535 -1.3663
 6588SOL    HW231398   1.918   2.894  11.535 -0.4674 -1.9019  0.3997
 6589SOL     OW31399   0.609   2.813   3.958  0.2170  0.6908  0.0829
 6589SOL    HW131400   0.687   2.777   4.002 -0.7392  0.2107  1.3887
 6589SOL    HW231401   0.574   2.738   3.910  1.8055 -0.8387  1.2806
 6590SOL     OW31402   0.483   4.223   3.723  0.2483 -0.0438 -0.2659
 6590SOL    HW131403   0.456   4.138   3.688 -0.1424 -0.5913  1.3690
 6590SOL    HW231404   0.464   4.216   3.816  2.4544  0.8993  0.2414
 6591SOL     OW31405   4.695   4.569   9.533 -0.5612  0.2499  0.1280
 6591SOL    HW131406   0.007   4.650   9.533 -0.7661  0.3653  2.4695
 6591SOL    HW231407   4.617   4.602   9.488  0.5636  0.9225 -1.3344
 6592SOL     OW31408   2.161   4.389   6.505 -0.6143 -0.2287 -0.1364
 6592SOL    HW131409   2.232   4.429   6.454 -2.1718 -0.2455 -2.3391
 6592SOL    HW231410   2.098   4.460   6.520  2.2328  2.1470  0.6267
 6593SOL     OW31411   2.691   4.574   2.988 -0.2660 -0.0810 -0.0529
 6593SOL    HW131412   2.635   4.498   3.005 -0.5509  0.0284 -0.5032
 6593SOL    HW231413   2.703   4.600   3.080 -0.1071 -2.1168  0.4920
 6594SOL     OW31414   0.129   4.098  14.326 -0.1833  0.1642  0.3971
 6594SOL    HW131415   0.197   4.080  14.261 -0.4784 -1.4271  0.5393
 6594SOL    HW231416   0.155   4.187  14.352 -1.9015  0.4297  1.1784
 6595SOL     OW31417   2.177   1.355   6.025  0.2437  0.1934  0.2128
 6595SOL    HW131418   2.124   1.434   6.017  1.5579  1.2901  2.3736
 6595SOL    HW231419   2.248   1.369   5.963  0.6243  1.4409  0.9408
 6596SOL     OW31420   0.878   3.235   0.244  0.4056 -0.0193  0.4918
 6596SOL    HW131421   0.808   3.184   0.284 -0.4598  2.6678  2.3527
 6596SOL    HW231422   0.818   3.307   0.223 -0.6556 -1.0818 -0.1083
 6597SOL     OW31423   2.689   3.282   0.179  0.2372 -0.0800  0.0539
 6597SOL    HW131424   2.654   3.310   0.094 -1.1953 -0.1458  0.6193
 6597SOL    HW231425   2.778   3.269   0.146  0.4295 -0.9534  0.9196
 6598SOL     OW31426   2.947   2.275   8.845  0.0793 -0.1135 -0.1070
 6598SOL    HW131427   3.015   2.214   8.817  1.7136  1.3969  0.5736
 6598SOL    HW231428   2.997   2.356   8.857  1.0113 -1.0490  2.2596
 6599SOL     OW31429   1.325   1.477   3.434 -0.0155  0.0128  0.0860
 6599SOL    HW131430   1.328   1.436   3.347  1.8404  2.5853 -1.0670
 6599SOL    HW231431   1.377   1.553   3.407  0.5491  0.1099  1.4744
 6600SOL     OW31432   2.486   0.760   1.392 -0.2798 -0.0455  0.3606
 6600SOL    HW131433   2.546   0.810   1.448  0.3611  1.8736 -1.9955
 6600SOL    HW231434   2.459   0.685   1.444  2.0217 -0.1469  1.3854
 6601SOL     OW31435   0.495   3.833   8.244 -0.3663 -0.0364 -0.5440
 6601SOL    HW131436   0.577   3.872   8.273 -1.0785  2.8958 -2.4355
 6601SOL    HW231437   0.442   3.912   8.244  1.4261  1.1570  0.9407
 6602SOL     OW31438   3.196   3.233  14.169 -0.2603 -0.3861 -0.4469
 6602SOL    HW131439   3.142   3.214  14.246 -0.6226 -2.3220 -1.1797
 6602SOL    HW231440   3.177   3.323  14.144 -0.2517 -0.6929 -1.5596
 6603SOL     OW31441   3.416   0.603   4.850 -0.2593  0.4757  0.5891
 6603SOL    HW131442   3.356   0.658   4.900 -1.1133  0.8277 -0.8470
 6603SOL    HW231443   3.492   0.662   4.842  0.1624 -0.0922  0.4669
 6604SOL     OW31444   2.928   0.880  12.076  0.1302 -0.2929  0.2848
 6604SOL    HW131445   2.975   0.857  12.156  0.1849 -0.2296  0.2707
 6604SOL    HW231446   2.844   0.835  12.087 -0.4893  0.9625  0.6319
 6605SOL     OW31447   4.293   4.569   2.269 -0.3319 -0.2590 -0.0983
 6605SOL    HW131448   4.240   4.646   2.290 -1.8842 -1.8093  1.6673
 6605SOL    HW231449   4.281   4.564   2.174  1.4423 -3.1531 -0.1561
 6606SOL     OW31450   2.081   1.666  13.507  0.5575  0.5931  0.8973
 6606SOL    HW131451   2.097   1.663  13.601  1.2438  1.3051  0.8027
 6606SOL    HW231452   2.173   1.673  13.483  0.8152  0.3194  1.8159
 6607SOL     OW31453   3.276   0.361   2.321 -0.2818  0.0606  0.9241
 6607SOL    HW131454   3.269   0.270   2.291 -0.3499 -0.5203  2.6796
 6607SOL    HW231455   3.341   0.389   2.257 -1.4491  0.0176 -0.3031
 6608SOL     OW31456   2.809   1.759  13.573 -0.3369  0.0639  0.1256
 6608SOL    HW131457   2.766   1.674  13.575 -1.5341  0.7037  1.1102
 6608SOL    HW231458   2.777   1.803  13.651  0.6614  0.6741  0.1975
 6609SOL     OW31459   0.475   3.843   3.399 -0.9471 -0.0302 -0.6329
 6609SOL    HW131460   0.563   3.829   3.435 -0.5181 -0.2660 -1.7768
 6609SOL    HW231461   0.435   3.757   3.409  0.0733 -0.3570  0.7229
 6610SOL     OW31462   1.608   0.888   9.162 -0.0578 -0.0978 -0.7749
 6610SOL    HW131463   1.513   0.897   9.168 -0.0185 -1.6739  2.4515
 6610SOL    HW231464   1.622   0.930   9.077  0.0480  1.9645  0.2520
 6611SOL     OW31465   3.569   1.903   0.598  0.1819  0.2826 -0.1532
 6611SOL    HW131466   3.615   1.841   0.541 -0.4903 -0.0856 -0.2952
 6611SOL    HW231467   3.612   1.985   0.572 -0.0306  0.0540 -1.2519
 6612SOL     OW31468   4.702   2.333  17.418  1.1572  0.3179  0.8213
 6612SOL    HW131469   4.730   2.347  17.327  2.1232  0.0287  1.0840
 6612SOL    HW231470   4.637   2.403  17.432  0.4261 -0.2613  0.3505
 6613SOL     OW31471   2.011   1.104  15.835 -0.5093 -0.3789  0.0048
 6613SOL    HW131472   2.078   1.170  15.815  0.1430 -1.0690 -0.0952
 6613SOL    HW231473   2.052   1.038  15.891  3.8616  1.7334 -0.7454
 6614SOL     OW31474   3.517   3.106   9.740  0.4023  0.5693 -0.3886
 6614SOL    HW131475   3.565   3.140   9.815  0.0241 -0.1758  0.1919
 6614SOL    HW231476   3.589   3.049   9.714  0.2326 -0.5475  1.5832
 6615SOL     OW31477   2.591   4.676   1.759  0.2753 -0.3291 -0.1351
 6615SOL    HW131478   2.552   4.602   1.804  1.3630 -0.9348 -0.1873
 6615SOL    HW231479   2.547   4.670   1.675  1.6566 -0.2627 -0.8628
 6616SOL     OW31480   3.128   4.040   7.628 -0.0523 -0.0188 -0.1946
 6616SOL    HW131481   3.056   4.079   7.580 -0.6651  2.0776  2.4801
 6616SOL    HW231482   3.085   3.974   7.682  0.2189  0.2915  0.3952
 6617SOL     OW31483   3.328   3.979   2.594 -0.3716  0.4163 -0.0225
 6617SOL    HW131484   3.267   4.041   2.554 -0.1605  1.8321  1.8979
 6617SOL    HW231485   3.410   4.026   2.587 -0.6127  0.8960  0.4343
 6618SOL     OW31486   4.660   4.183   1.135  0.1070  0.0497  0.3507
 6618SOL    HW131487   4.722   4.125   1.180 -0.4393 -0.5805  0.3039
 6618SOL    HW231488   4.715   4.218   1.066 -0.6162 -2.5667 -1.5762
 6619SOL     OW31489   1.419   4.673   2.564  0.1598  0.3360 -0.2796
 6619SOL    HW131490   1.424   4.577   2.567 -3.1605  0.0756 -3.0462
 6619SOL    HW231491   1.361   4.689   2.639  0.9462 -0.4397  0.5022
 6620SOL     OW31492   2.937   1.936   1.835  0.1003 -0.1695  0.7798
 6620SOL    HW131493   2.858   1.974   1.875  1.2457  2.5217  0.4584
 6620SOL    HW231494   2.919   1.954   1.742  3.3593  0.3967  0.2766
 6621SOL     OW31495   1.193   2.618   5.268 -0.4328  0.1483 -0.2262
 6621SOL    HW131496   1.200   2.628   5.173 -0.5148 -0.6971 -0.3195
 6621SOL    HW231497   1.119   2.558   5.279  1.2068 -1.6061  1.1527
 6622SOL     OW31498   0.244   4.410   9.132 -0.1674 -0.4540 -0.8595
 6622SOL    HW131499   0.326   4.442   9.170 -0.5410  0.6813 -0.9823
 6622SOL    HW231500   0.208   4.365   9.208  0.3294 -0.0635 -0.3932
 6623SOL     OW31501   2.633   4.034   5.428  0.0698 -0.1250 -0.3185
 6623SOL    HW131502   2.643   3.940   5.414 -3.0644 -0.1349 -2.4809
 6623SOL    HW231503   2.583   4.065   5.352  1.1877 -0.4295 -1.1800
 6624SOL     OW31504   1.180   2.349   8.480  0.1227  0.0990 -0.2133
 6624SOL    HW131505   1.271   2.372   8.500  0.9469 -1.8960 -1.6506
 6624SOL    HW231506   1.134   2.431   8.498 -0.7755 -0.7499  1.3724
 6625SOL     OW31507   3.358   3.045   2.667 -0.8101  0.5327  0.3223
 6625SOL    HW131508   3.273   3.021   2.704 -1.5337  1.8367 -0.5157
 6625SOL    HW231509   3.416   2.996   2.726 -0.3098  0.9621  0.1801
 6626SOL     OW31510   1.723   4.612  14.932 -0.8736 -0.2120  0.7190
 6626SOL    HW131511   1.729   4.634  15.025  2.0637 -2.2827  1.0346
 6626SOL    HW231512   1.674   4.531  14.945 -0.1783 -1.1578 -2.6575
 6627SOL     OW31513   2.112   2.197   9.326  0.2090 -0.3781 -0.0028
 6627SOL    HW131514   2.169   2.182   9.250 -1.2942 -1.9036 -0.8199
 6627SOL    HW231515   2.124   2.114   9.371 -1.0314 -0.7395 -0.3531
 6628SOL     OW31516   0.260   1.811   8.414 -0.2013 -0.1194  0.1837
 6628SOL    HW131517   0.210   1.890   8.391  0.8501  0.9232  1.4626
 6628SOL    HW231518   0.339   1.844   8.456  0.1795 -0.2036 -0.4650
 6629SOL     OW31519   4.574   0.799   4.745  0.1368 -0.1236  0.0653
 6629SOL    HW131520   4.603   0.799   4.837  1.4424 -2.3647 -0.3454
 6629SOL    HW231521   4.482   0.775   4.753  0.0871 -0.9611 -3.0313
 6630SOL     OW31522   4.062   3.643   4.573  0.3403 -0.4761 -0.1090
 6630SOL    HW131523   4.107   3.630   4.489  0.5608 -2.1815  0.2861
 6630SOL    HW231524   4.138   3.655   4.630  1.3715 -0.8135 -1.3892
 6631SOL     OW31525   3.902   3.711  10.674  0.1111  0.2183 -0.3881
 6631SOL    HW131526   3.952   3.791  10.692 -2.8379  2.1144 -0.7091
 6631SOL    HW231527   3.944   3.656  10.741  0.2984 -0.7439 -1.2833
 6632SOL     OW31528   0.554   4.044  15.159  0.0546 -0.2691  0.8763
 6632SOL    HW131529   0.586   3.956  15.180  1.4741 -0.3876 -1.8148
 6632SOL    HW231530   0.501   4.032  15.081 -1.8802 -1.5842  2.3932
 6633SOL     OW31531   3.973   3.706  17.258 -0.4460  0.2177 -0.6731
 6633SOL    HW131532   4.064   3.680  17.249 -0.2367  1.4486 -2.1053
 6633SOL    HW231533   3.978   3.775  17.191  0.9669  1.7078  0.9843
 6634SOL     OW31534   1.846   1.226  12.646  0.2815 -0.2796  0.3077
 6634SOL    HW131535   1.858   1.143  12.599  0.6934  0.3004 -0.6002
 6634SOL    HW231536   1.827   1.196  12.735  2.3158  0.3055  0.9351
 6635SOL     OW31537   0.484   0.777   4.171  0.0110  0.7536 -0.7410
 6635SOL    HW131538   0.576   0.759   4.192 -1.0868 -5.1448 -0.9314
 6635SOL    HW231539   0.442   0.695   4.144  1.5075 -0.0519 -0.6665
 6636SOL     OW31540   4.370   1.089   5.601  0.1706  0.2012  0.5958
 6636SOL    HW131541   4.459   1.080   5.636 -0.4700 -1.6597  1.7435
 6636SOL    HW231542   4.325   1.046   5.674  0.8682 -1.9800 -0.2486
 6637SOL     OW31543   0.686   1.626   3.137  0.6285 -0.4162 -0.3121
 6637SOL    HW131544   0.596   1.645   3.163  1.1481  0.8227  0.6170
 6637SOL    HW231545   0.718   1.660   3.221 -1.3926  0.1071  0.2524
 6638SOL     OW31546   1.090   4.271   7.258 -0.3188  0.0218  0.5242
 6638SOL    HW131547   1.024   4.304   7.197 -0.3215 -0.9113  0.0291
 6638SOL    HW231548   1.151   4.228   7.198 -0.2699  0.9053 -0.0613
 6639SOL     OW31549   4.652   2.585   2.174 -0.3851 -0.0168 -0.7764
 6639SOL    HW131550   4.567   2.563   2.135 -1.3034 -2.3180  2.5732
 6639SOL    HW231551   4.681   2.636   2.098 -0.8211 -0.2567 -1.1073
 6640SOL     OW31552   1.230   0.503   8.147  0.3884  0.3181  0.3551
 6640SOL    HW131553   1.264   0.475   8.062  0.9300 -0.0456  0.6904
 6640SOL    HW231554   1.144   0.532   8.117 -0.1625  1.1223  2.6485
 6641SOL     OW31555   3.456   0.365   6.774  0.1499  0.0534 -0.1972
 6641SOL    HW131556   3.490   0.328   6.856  1.6062 -0.2306 -0.9321
 6641SOL    HW231557   3.532   0.405   6.733 -0.0710  0.5976 -0.0827
 6642SOL     OW31558   1.378   3.565   4.269 -1.0490  0.6149  0.6366
 6642SOL    HW131559   1.412   3.645   4.228 -0.8748  0.0832 -0.2517
 6642SOL    HW231560   1.348   3.518   4.192 -2.0546  0.5548  1.0584
 6643SOL     OW31561   2.211   1.337   9.849 -0.1663 -0.3362  0.3824
 6643SOL    HW131562   2.126   1.307   9.817  0.0853  1.0238 -1.5314
 6643SOL    HW231563   2.193   1.325   9.943  0.5534  0.1788  0.5859
 6644SOL     OW31564   2.639   3.769   3.509 -0.0569  0.3482  0.1483
 6644SOL    HW131565   2.558   3.806   3.545 -0.8233 -0.9509 -0.2400
 6644SOL    HW231566   2.696   3.846   3.511 -0.7503  0.8669  0.0298
 6645SOL     OW31567   3.877   1.671  17.284 -0.0874 -0.1459  0.5497
 6645SOL    HW131568   3.897   1.735  17.352 -1.7564  0.6794  0.2571
 6645SOL    HW231569   3.955   1.668  17.229 -0.2319 -0.3409  0.3551
 6646SOL     OW31570   3.553   1.665   8.039  0.3701  0.4002 -0.5949
 6646SOL    HW131571   3.611   1.721   7.988  0.5319  2.7849  2.1849
 6646SOL    HW231572   3.492   1.639   7.970  0.3441 -0.6634 -0.1660
 6647SOL     OW31573   0.214   0.076   8.769  0.4830  0.2075  0.3153
 6647SOL    HW131574   0.226   0.115   8.683 -0.3498  0.0390  0.1210
 6647SOL    HW231575   0.139   0.124   8.806 -0.5487 -1.3078  0.1995
 6648SOL     OW31576   2.387   0.960   3.858  0.3298 -0.1735 -0.2510
 6648SOL    HW131577   2.325   1.022   3.896 -0.2305 -1.5642  1.1239
 6648SOL    HW231578   2.360   0.971   3.767 -0.6659  1.0475  0.1840
 6649SOL     OW31579   0.685   2.214  11.455  0.3258  0.3524  0.0423
 6649SOL    HW131580   0.780   2.221  11.448  0.3698  0.0512  0.3844
 6649SOL    HW231581   0.686   2.119  11.466  1.0106 -0.0927 -3.9059
 6650SOL     OW31582   2.776   3.850   6.886 -0.6673 -0.1366  0.6743
 6650SOL    HW131583   2.858   3.899   6.884 -0.1043 -1.0773  0.7020
 6650SOL    HW231584   2.796   3.764   6.923 -1.3171  0.2892  2.0259
 6651SOL     OW31585   0.283   0.636   8.527  0.0979  0.6063  0.2619
 6651SOL    HW131586   0.338   0.712   8.508 -0.6329  1.5393  1.8694
 6651SOL    HW231587   0.348   0.603   8.590 -0.1905  2.7113  1.6746
 6652SOL     OW31588   3.653   0.506  13.369 -0.1470 -0.2218  0.6590
 6652SOL    HW131589   3.728   0.452  13.343  0.5119 -0.5100  3.0976
 6652SOL    HW231590   3.680   0.538  13.456  1.6261 -2.9253  1.1349
 6653SOL     OW31591   4.568   0.729   3.884 -0.4866 -0.0389  0.2550
 6653SOL    HW131592   4.563   0.660   3.819  2.4439 -0.7415  0.7861
 6653SOL    HW231593   4.483   0.712   3.926 -1.1077 -0.6521 -1.2618
 6654SOL     OW31594   2.798   1.528   6.261  0.3090  0.8193 -0.3465
 6654SOL    HW131595   2.736   1.577   6.207 -0.1422 -0.2976 -0.8477
 6654SOL    HW231596   2.798   1.451   6.205  0.9488  0.5157  0.0786
 6655SOL     OW31597   4.567   2.275   0.239  0.2947  0.1118  0.1644
 6655SOL    HW131598   4.585   2.365   0.212 -0.6030  0.5539  1.0254
 6655SOL    HW231599   4.650   2.231   0.257  0.9491  1.6789  0.9157
 6656SOL     OW31600   2.492   2.437   5.327  0.4115  0.0235 -0.0349
 6656SOL    HW131601   2.557   2.465   5.392  4.3142  0.2719 -4.0456
 6656SOL    HW231602   2.440   2.395   5.395 -2.9091  2.3820 -1.1073
 6657SOL     OW31603   2.755   2.776  11.920 -0.2036  0.7424 -0.1830
 6657SOL    HW131604   2.711   2.793  11.836  0.2418 -0.1298 -0.5901
 6657SOL    HW231605   2.687   2.747  11.981  0.2225 -0.3644 -0.2378
 6658SOL     OW31606   4.414   3.616  16.526 -0.4439  0.1407  0.4916
 6658SOL    HW131607   4.456   3.537  16.492 -2.7885 -0.1806 -1.6663
 6658SOL    HW231608   4.422   3.688  16.464  0.8913 -1.4021 -1.1130
 6659SOL     OW31609   3.656   2.988   6.690 -0.3167 -0.2107  0.5173
 6659SOL    HW131610   3.709   2.957   6.763 -0.6458 -0.2477  0.7366
 6659SOL    HW231611   3.612   3.068   6.718  0.7908  0.6619 -0.2385
 6660SOL     OW31612   1.600   1.287  17.000 -0.3778  0.2790  0.3095
 6660SOL    HW131613   1.633   1.254  16.916  0.4746 -1.2263  1.2451
 6660SOL    HW231614   1.579   1.205  17.045  2.0553 -0.3451  0.3095
 6661SOL     OW31615   4.508   4.346   5.693 -0.3611  0.1648  0.8810
 6661SOL    HW131616   4.488   4.259   5.658 -0.9860  0.1200  1.3412
 6661SOL    HW231617   4.548   4.341   5.780  0.6852 -0.8232  0.3362
 6662SOL     OW31618   2.778   0.482   6.830  0.0133  0.2499 -0.2779
 6662SOL    HW131619   2.749   0.395   6.856  0.5209 -0.1029 -0.9092
 6662SOL    HW231620   2.829   0.466   6.751 -0.1481 -0.8759 -0.1434
 6663SOL     OW31621   3.160   1.523   5.193  0.0969 -0.7080  0.8139
 6663SOL    HW131622   3.152   1.483   5.106  1.9409  0.7607 -0.0568
 6663SOL    HW231623   3.254   1.539   5.205  0.3424 -0.8035 -0.8929
 6664SOL     OW31624   4.187   4.629   9.307 -0.2256  0.5931  0.6114
 6664SOL    HW131625   4.145   4.608   9.390 -0.1001 -2.5025 -0.0912
 6664SOL    HW231626   4.124   4.606   9.239  1.4675  3.0162 -1.7762
 6665SOL     OW31627   0.634   3.954   6.303  0.3054  0.5869 -0.1136
 6665SOL    HW131628   0.547   3.990   6.289  0.6917  2.2152  1.7337
 6665SOL    HW231629   0.666   4.015   6.370  3.1749  0.1962 -1.1200
 6666SOL     OW31630   0.265   0.751   0.461 -0.5733 -0.1510  0.5318
 6666SOL    HW131631   0.273   0.717   0.372 -0.5908 -0.6393  0.7171
 6666SOL    HW231632   0.349   0.741   0.506  0.1268  1.4979 -0.3959
 6667SOL     OW31633   2.065   0.475   5.541  0.0133 -0.5704 -0.3889
 6667SOL    HW131634   2.151   0.469   5.583 -0.0687 -0.3678 -0.1903
 6667SOL    HW231635   2.026   0.528   5.610 -1.6420 -1.3496 -0.7351
 6668SOL     OW31636   3.198   0.584   0.063 -0.6897  0.3626 -0.6256
 6668SOL    HW131637   3.201   0.579   0.159  0.4425  0.5724 -0.6517
 6668SOL    HW231638   3.105   0.565   0.051 -0.7632  0.9486 -0.9935
 6669SOL     OW31639   2.261   3.520   6.257 -0.2043  0.4905 -0.7756
 6669SOL    HW131640   2.255   3.549   6.348  0.9434 -1.7683  0.0188
 6669SOL    HW231641   2.253   3.425   6.260  0.4970  0.4441 -0.4580
 6670SOL     OW31642   3.657   2.007  17.239 -0.5041 -0.4576 -0.2946
 6670SOL    HW131643   3.704   1.930  17.206  2.0297 -0.3033  2.9542
 6670SOL    HW231644   3.582   1.965  17.281  0.0701  0.1109  1.3069
 6671SOL     OW31645   2.088   3.084   0.164  0.5271 -0.1458  0.1275
 6671SOL    HW131646   2.068   3.139   0.088  0.8984 -0.9621 -0.5597
 6671SOL    HW231647   2.008   3.031   0.165  0.1679  0.3411 -2.3598
 6672SOL     OW31648   1.621   3.799  15.904  0.4054  0.0446  0.1618
 6672SOL    HW131649   1.685   3.781  15.835 -1.9049 -0.5230 -1.8230
 6672SOL    HW231650   1.665   3.749  15.972 -1.9805 -0.2622  1.4856
 6673SOL     OW31651   3.076   1.836   0.751 -0.6754 -0.2082  0.2185
 6673SOL    HW131652   3.106   1.926   0.735 -0.8166 -0.3820 -0.9704
 6673SOL    HW231653   3.156   1.793   0.781  0.9748  1.7538 -1.4015
 6674SOL     OW31654   3.391   1.747   8.975  0.4751  0.3442  0.6467
 6674SOL    HW131655   3.424   1.769   8.888  0.9695  0.6562  0.9132
 6674SOL    HW231656   3.443   1.816   9.016 -1.8989  1.1989  2.1991
 6675SOL     OW31657   0.685   3.732   0.241  0.2303 -0.0019  0.1481
 6675SOL    HW131658   0.676   3.764   0.331  0.2351  1.4833 -0.3717
 6675SOL    HW231659   0.595   3.740   0.212  0.0842  0.2812  0.6805
 6676SOL     OW31660   1.446   3.198   0.587  0.3488  0.3808 -0.4649
 6676SOL    HW131661   1.369   3.182   0.533 -0.4373 -0.6415  0.9482
 6676SOL    HW231662   1.465   3.122   0.643  1.5173 -0.3544 -1.8581
 6677SOL     OW31663   0.069   0.827   9.886  0.1017 -0.2578 -1.0774
 6677SOL    HW131664   0.100   0.913   9.913 -1.3925 -0.5320  1.5217
 6677SOL    HW231665   0.144   0.774   9.914 -0.3281  0.0057  0.5607
 6678SOL     OW31666   2.197   2.836  15.401 -0.1800  0.3218 -0.3088
 6678SOL    HW131667   2.172   2.807  15.314  2.1894 -0.2472 -0.8061
 6678SOL    HW231668   2.225   2.926  15.381 -0.3188 -0.2286 -3.0007
 6679SOL     OW31669   4.621   3.189   8.917  0.5296 -0.7427 -0.0243
 6679SOL    HW131670   4.701   3.228   8.954 -0.8401  1.9898  0.0997
 6679SOL    HW231671   4.591   3.254   8.853 -2.1266  0.7230  2.6686
 6680SOL     OW31672   0.679   4.516   2.755 -0.0249 -0.1511 -0.2737
 6680SOL    HW131673   0.761   4.542   2.714 -1.8048  1.0874 -3.0409
 6680SOL    HW231674   0.684   4.556   2.842  0.8266 -2.2614  0.6440
 6681SOL     OW31675   4.438   4.224   7.117  0.0456  0.3412 -0.0791
 6681SOL    HW131676   4.472   4.279   7.046  2.2076 -2.3679 -1.1613
 6681SOL    HW231677   4.348   4.201   7.092  0.4620 -1.0482 -0.3403
 6682SOL     OW31678   2.718   2.081   6.639  0.1019  0.0218  0.0386
 6682SOL    HW131679   2.637   2.035   6.662  0.2336  0.1539  0.7852
 6682SOL    HW231680   2.778   2.032   6.695  1.5536  1.0163 -0.6506
 6683SOL     OW31681   4.160   3.738   0.316  0.3588 -0.0305  0.4177
 6683SOL    HW131682   4.200   3.787   0.244  0.2541 -1.0901 -0.3507
 6683SOL    HW231683   4.104   3.674   0.272 -1.2003  0.0138  2.3042
 6684SOL     OW31684   2.891   3.783   2.714 -0.3009  0.1462 -0.4512
 6684SOL    HW131685   2.812   3.815   2.757  0.3065  1.9122 -0.6799
 6684SOL    HW231686   2.922   3.869   2.688  1.1194 -0.8813 -2.1983
 6685SOL     OW31687   3.941   2.709   5.674  0.6038  0.1016  0.0919
 6685SOL    HW131688   3.913   2.623   5.707  1.1560  0.1027  0.5610
 6685SOL    HW231689   3.976   2.747   5.754 -0.4972  0.2103  0.5150
 6686SOL     OW31690   3.350   0.653   7.727 -0.3754  0.1660 -0.0706
 6686SOL    HW131691   3.445   0.656   7.735 -0.3701  1.6007 -0.6354
 6686SOL    HW231692   3.330   0.734   7.774 -0.3568 -0.5012  1.0913
 6687SOL     OW31693   4.429   2.880   9.274 -0.2692  0.0943  0.4110
 6687SOL    HW131694   4.437   2.975   9.282 -0.2807 -0.0861  2.7780
 6687SOL    HW231695   4.425   2.853   9.366 -0.6089 -2.0669 -0.2566
 6688SOL     OW31696   3.246   2.590   9.295 -0.5705 -0.1849 -0.0692
 6688SOL    HW131697   3.198   2.520   9.252  1.0751 -1.4282  0.1539
 6688SOL    HW231698   3.176   2.655   9.310 -3.0850 -3.2044  1.3333
 6689SOL     OW31699   4.224   0.084  17.022 -0.2832 -0.7482  0.7477
 6689SOL    HW131700   4.204   4.730  17.032  1.0511 -1.3342 -2.0064
 6689SOL    HW231701   4.136   0.120  17.022 -0.4427 -1.1334 -2.1611
 6690SOL     OW31702   3.671   3.841   7.019  0.3652 -0.6564  0.3107
 6690SOL    HW131703   3.595   3.898   7.009  1.1957  0.8813  2.7266
 6690SOL    HW231704   3.627   3.757   7.030 -3.1465  1.0276 -0.8753
 6691SOL     OW31705   2.930   1.687   6.486  0.9063 -0.1658 -0.0087
 6691SOL    HW131706   2.862   1.743   6.524  2.5364  0.7445  1.5646
 6691SOL    HW231707   2.901   1.605   6.525  3.4595 -1.9550 -1.8483
 6692SOL     OW31708   3.504   2.636   7.506 -0.2600 -0.0816 -0.3819
 6692SOL    HW131709   3.452   2.555   7.503  0.2657 -0.4396  0.2318
 6692SOL    HW231710   3.476   2.664   7.593  0.8536  0.2400 -0.1383
 6693SOL     OW31711   2.114   4.626   5.525 -0.1855  0.0414 -0.4105
 6693SOL    HW131712   2.207   4.649   5.528 -0.2258  0.1359  0.1755
 6693SOL    HW231713   2.094   4.662   5.612  0.6118 -1.1428  0.2728
 6694SOL     OW31714   1.286   0.392  16.789 -0.4851 -0.2485 -0.0179
 6694SOL    HW131715   1.259   0.483  16.779  0.3092 -0.0105  0.0186
 6694SOL    HW231716   1.242   0.356  16.712 -0.0462  2.6265 -1.5983
 6695SOL     OW31717   0.421   2.379   8.204 -0.0204 -0.1673  0.0493
 6695SOL    HW131718   0.516   2.379   8.203 -0.0109 -2.6010  0.0205
 6695SOL    HW231719   0.410   2.285   8.187  0.9613  0.0240 -1.6266
 6696SOL     OW31720   0.534   0.027   2.690 -0.3757  0.0775 -0.6480
 6696SOL    HW131721   0.555   4.673   2.694 -0.8846 -0.0681 -1.4166
 6696SOL    HW231722   0.466   0.030   2.757  1.1049  2.2461  0.7549
 6697SOL     OW31723   4.583   2.511   5.768  0.3089  0.0644 -0.2352
 6697SOL    HW131724   4.644   2.559   5.824  0.7363 -0.2360 -0.4418
 6697SOL    HW231725   4.645   2.463   5.713  1.6531  1.8420 -0.2563
 6698SOL     OW31726   1.790   3.604   1.879 -0.7061 -0.7457  0.0651
 6698SOL    HW131727   1.877   3.564   1.873  0.6310  2.2024  0.2053
 6698SOL    HW231728   1.784   3.636   1.969 -0.9925 -1.8490  0.4487
 6699SOL     OW31729   1.179   1.406  11.491 -0.1907 -0.2278 -0.4928
 6699SOL    HW131730   1.197   1.385  11.399  0.5767  1.5716 -0.7558
 6699SOL    HW231731   1.115   1.475  11.476 -0.0114 -0.0604 -0.4876
 6700SOL     OW31732   1.408   0.420  11.106  0.1015 -0.0016 -1.5463
 6700SOL    HW131733   1.494   0.458  11.126 -0.4384  0.3225  0.1707
 6700SOL    HW231734   1.433   0.375  11.025 -1.8702 -1.0668 -1.5675
 6701SOL     OW31735   4.277   2.211  12.016  0.8376 -0.0469 -0.3870
 6701SOL    HW131736   4.282   2.162  11.934 -0.2080  0.3824 -0.6974
 6701SOL    HW231737   4.346   2.177  12.074  0.1106  0.5123  0.8191
 6702SOL     OW31738   1.651   1.141   2.579  0.3253 -0.3696  0.3443
 6702SOL    HW131739   1.646   1.138   2.483 -1.0706  0.5625  0.3947
 6702SOL    HW231740   1.734   1.103   2.608  0.7783 -0.4036 -0.9698
 6703SOL     OW31741   0.261   1.723  12.355 -0.2297 -0.0406 -0.3355
 6703SOL    HW131742   0.208   1.765  12.287 -0.2996 -1.1078 -0.9425
 6703SOL    HW231743   0.204   1.743  12.429  0.0799 -0.0082 -0.1033
 6704SOL     OW31744   2.598   2.715  17.062  0.1267  0.0016 -0.3985
 6704SOL    HW131745   2.612   2.642  17.123  0.2555  0.0652 -0.3518
 6704SOL    HW231746   2.650   2.685  16.987 -2.5787  0.3496 -2.4066
 6705SOL     OW31747   4.480   2.145   7.551  0.3967  0.4266  0.2937
 6705SOL    HW131748   4.395   2.182   7.526  1.0778  1.5516 -0.3045
 6705SOL    HW231749   4.443   2.073   7.603 -0.9305  2.0442  1.6164
 6706SOL     OW31750   4.246   0.970   3.706 -0.3445  0.1104 -0.1931
 6706SOL    HW131751   4.291   1.006   3.782 -0.1929  0.3798 -0.4094
 6706SOL    HW231752   4.165   0.931   3.739  0.0455 -0.3102  0.2678
 6707SOL     OW31753   0.421   2.584   1.334  0.4758 -0.3670  0.0206
 6707SOL    HW131754   0.447   2.493   1.320  0.7294 -0.3824  0.6051
 6707SOL    HW231755   0.425   2.594   1.429  0.0087 -1.4317  0.1543
 6708SOL     OW31756   1.005   2.498   7.227 -0.4047  0.5583  0.0834
 6708SOL    HW131757   0.930   2.443   7.202  0.5255 -0.2303 -0.9966
 6708SOL    HW231758   1.054   2.428   7.270 -1.3399 -1.0525 -1.4511
 6709SOL     OW31759   3.133   4.572   5.458 -0.1052 -0.0428 -0.5364
 6709SOL    HW131760   3.210   4.566   5.401  0.4458  0.5155  0.1620
 6709SOL    HW231761   3.102   4.482   5.459 -3.0211  0.9580 -0.2130
 6710SOL     OW31762   4.152   0.865   6.158  0.5099 -0.3665  0.3075
 6710SOL    HW131763   4.083   0.817   6.203 -0.1100 -0.2023 -0.4893
 6710SOL    HW231764   4.204   0.900   6.231  0.8505 -0.5126  0.1348
 6711SOL     OW31765   4.511   4.115   9.252 -0.1732 -0.2462  0.1205
 6711SOL    HW131766   4.524   4.138   9.160 -2.3865  0.9958  0.0992
 6711SOL    HW231767   4.549   4.190   9.297  1.0163 -0.7326 -0.0836
 6712SOL     OW31768   3.090   0.132   3.677 -0.4567  0.3456 -0.1389
 6712SOL    HW131769   3.142   0.120   3.597 -0.6139 -2.6558  0.2069
 6712SOL    HW231770   3.096   0.227   3.682  0.9392  0.2771 -0.4655
 6713SOL     OW31771   4.704   1.801   8.523  0.2760  0.2575 -0.5867
 6713SOL    HW131772   4.636   1.737   8.543 -0.2563  1.0903  0.2579
 6713SOL    HW231773   0.039   1.748   8.553 -1.6950 -1.5757  1.0103
 6714SOL     OW31774   0.652   1.248   6.894  0.2859  0.2851 -0.5088
 6714SOL    HW131775   0.575   1.279   6.941  0.2934 -0.1509 -0.2077
 6714SOL    HW231776   0.700   1.195   6.958  0.7161  0.4379 -0.7007
 6715SOL     OW31777   2.690   4.222  12.018  0.5375 -0.1479 -0.0644
 6715SOL    HW131778   2.621   4.200  11.956  0.6870 -0.6926 -0.0436
 6715SOL    HW231779   2.636   4.257  12.089 -0.4333 -0.3039 -0.7397
 6716SOL     OW31780   2.988   1.218  12.117  0.0327  0.2523  0.0695
 6716SOL    HW131781   2.968   1.288  12.054  0.6229  0.6513  0.3183
 6716SOL    HW231782   2.905   1.171  12.122 -0.9731  1.9105 -1.2368
 6717SOL     OW31783   1.520   1.314   6.797 -0.1719  0.2073 -0.1388
 6717SOL    HW131784   1.607   1.314   6.756 -0.7725 -1.2507 -1.4405
 6717SOL    HW231785   1.462   1.342   6.727  2.1715 -1.4765 -2.7569
 6718SOL     OW31786   4.153   3.293  11.933  0.3805 -0.0867  0.0548
 6718SOL    HW131787   4.244   3.279  11.960  0.0483 -0.9798  0.7311
 6718SOL    HW231788   4.121   3.324  12.018 -1.6781  1.6877 -1.3657
 6719SOL     OW31789   1.182   4.182   1.279  0.2700  0.1448 -0.6159
 6719SOL    HW131790   1.105   4.197   1.334 -1.9403 -0.7356 -3.4233
 6719SOL    HW231791   1.246   4.162   1.347 -0.3834 -2.7165 -0.8338
 6720SOL     OW31792   1.159   0.027  11.669  0.6087 -0.0528  1.1906
 6720SOL    HW131793   1.076   4.721  11.685  0.7365  0.3224  2.9288
 6720SOL    HW231794   1.121   0.109  11.699 -2.2699 -1.4864  1.4184
 6721SOL     OW31795   0.152   2.109   7.398 -1.0078  0.5671 -0.6641
 6721SOL    HW131796   0.114   2.191   7.429  0.8816  2.1958 -2.7241
 6721SOL    HW231797   0.078   2.052   7.423 -1.7887  0.8545 -2.3699
 6722SOL     OW31798   3.224   1.667   4.699  0.2056  0.6307  0.1916
 6722SOL    HW131799   3.220   1.705   4.611  0.3721 -0.7710 -0.4166
 6722SOL    HW231800   3.142   1.618   4.695  0.5357  0.2181 -1.5911
 6723SOL     OW31801   3.013   3.119  10.072 -0.4015  0.1580 -0.3077
 6723SOL    HW131802   3.053   3.082  10.150 -1.8687  2.0436  1.3369
 6723SOL    HW231803   3.012   3.041  10.017  1.6245  0.4781 -0.8093
 6724SOL     OW31804   1.458   0.168  14.267 -0.2886 -0.4117  0.0362
 6724SOL    HW131805   1.505   0.143  14.188  1.1815 -0.0616  0.7993
 6724SOL    HW231806   1.495   0.104  14.328 -0.4972  1.7586  2.4636
 6725SOL     OW31807   2.982   3.574   6.697 -0.2718  0.0645  0.0935
 6725SOL    HW131808   2.920   3.535   6.634 -0.2907 -2.0328  1.4031
 6725SOL    HW231809   3.065   3.532   6.675 -0.8937 -0.3017 -1.5740
 6726SOL     OW31810   0.392   2.115   6.219 -0.0296 -0.1712 -0.3899
 6726SOL    HW131811   0.388   2.210   6.208 -0.2680 -0.1783 -0.3740
 6726SOL    HW231812   0.390   2.118   6.315 -1.4071  2.0486 -0.4783
 6727SOL     OW31813   1.109   0.784   5.664 -0.5590 -0.2421 -0.5280
 6727SOL    HW131814   1.064   0.744   5.738 -0.4152  1.2278  0.3605
 6727SOL    HW231815   1.184   0.726   5.654 -0.7386 -0.4201 -0.8165
 6728SOL     OW31816   3.672   4.187   4.095  0.5011 -0.0697  0.2156
 6728SOL    HW131817   3.764   4.162   4.084  0.8430  1.3343 -0.1825
 6728SOL    HW231818   3.653   4.139   4.176 -1.9102  1.1039  0.3587
 6729SOL     OW31819   2.741   0.135   3.078 -0.1952 -0.0685  0.6921
 6729SOL    HW131820   2.670   0.103   3.022 -1.0089  2.4822  0.2947
 6729SOL    HW231821   2.812   0.152   3.016  0.0495 -1.2478  0.6366
 6730SOL     OW31822   1.132   4.370   4.776 -0.6689  0.5143  0.4104
 6730SOL    HW131823   1.091   4.394   4.693 -0.8766  0.9384  0.6323
 6730SOL    HW231824   1.224   4.372   4.753 -0.7453 -2.4700 -0.1782
 6731SOL     OW31825   0.344   4.453   2.974 -0.5396  0.3714 -0.4239
 6731SOL    HW131826   0.419   4.511   2.986  0.2677 -0.2188 -2.5760
 6731SOL    HW231827   0.290   4.493   2.905  0.1151 -0.0789 -1.2015
 6732SOL     OW31828   4.272   0.304   6.977 -0.1178 -0.0474 -0.1769
 6732SOL    HW131829   4.294   0.216   6.948  1.5250 -0.1259  1.2886
 6732SOL    HW231830   4.356   0.350   6.972 -0.7588  1.0560 -0.8713
 6733SOL     OW31831   1.019   3.943   2.467  0.7462 -0.0369  0.3959
 6733SOL    HW131832   0.939   3.892   2.483  0.0178  1.0287  0.2026
 6733SOL    HW231833   1.002   3.980   2.380 -0.7436  0.1744  0.7726
 6734SOL     OW31834   1.505   2.371   8.037  0.5360  0.4725 -0.1019
 6734SOL    HW131835   1.567   2.336   8.101  0.4343 -0.6691 -0.6231
 6734SOL    HW231836   1.573   2.403   7.978  1.4506  0.9301  1.2006
 6735SOL     OW31837   4.672   3.762   2.803 -0.0957 -0.4857 -0.5751
 6735SOL    HW131838   4.609   3.747   2.873 -2.2164 -2.0114 -2.8235
 6735SOL    HW231839   0.010   3.731   2.851 -1.4866  0.0708  2.0273
 6736SOL     OW31840   3.686   0.474   0.207  0.3101 -0.5785 -0.1063
 6736SOL    HW131841   3.596   0.442   0.203  0.6901 -1.4767 -1.3313
 6736SOL    HW231842   3.683   0.540   0.276  0.0827 -0.5559 -0.1365
 6737SOL     OW31843   2.975   3.238   4.993 -0.2722  0.7458  0.1171
 6737SOL    HW131844   3.041   3.225   5.062  1.6135 -1.8610 -2.1471
 6737SOL    HW231845   2.918   3.308   5.021  1.0957  2.2413 -0.8359
 6738SOL     OW31846   3.920   4.328   6.416 -0.0790 -0.1238  0.7435
 6738SOL    HW131847   3.852   4.320   6.484 -1.0306 -0.0419 -0.1947
 6738SOL    HW231848   3.866   4.368   6.348  1.0844 -2.5575 -1.6082
 6739SOL     OW31849   1.203   1.865   2.696  0.7229  0.2400 -0.2522
 6739SOL    HW131850   1.118   1.824   2.705  0.9274  0.6652  3.4427
 6739SOL    HW231851   1.211   1.887   2.789 -1.4854 -2.6172  0.5901
 6740SOL     OW31852   0.816   0.243   9.829 -0.1386  0.3643 -0.0768
 6740SOL    HW131853   0.773   0.158   9.839  1.4435 -0.6063 -1.4880
 6740SOL    HW231854   0.910   0.222   9.833  0.2448  2.2674  0.8338
 6741SOL     OW31855   4.555   2.515   0.945  0.0722 -0.1866  0.0223
 6741SOL    HW131856   4.522   2.438   0.991  1.0865 -0.2377  0.6463
 6741SOL    HW231857   4.643   2.484   0.923 -0.5453 -2.4343  0.6974
 6742SOL     OW31858   1.497   3.380  10.930 -0.1029  0.0299 -0.5139
 6742SOL    HW131859   1.497   3.451  10.865  0.1567 -1.3703 -2.0367
 6742SOL    HW231860   1.565   3.419  10.986 -0.3649  1.0080 -0.8718
 6743SOL     OW31861   3.676   3.165   9.151  0.6127 -0.3259 -0.1427
 6743SOL    HW131862   3.593   3.133   9.186  1.4071 -3.2929 -0.9511
 6743SOL    HW231863   3.648   3.255   9.132 -0.9182 -0.5258  1.1271
 6744SOL     OW31864   2.153   1.252   6.278  0.5282  0.0815 -0.1981
 6744SOL    HW131865   2.227   1.193   6.267  0.9953  0.9311 -1.6829
 6744SOL    HW231866   2.165   1.307   6.200 -2.0092  1.3361  0.3183
 6745SOL     OW31867   0.493   2.649   4.215  0.0566 -0.0408  0.3365
 6745SOL    HW131868   0.517   2.605   4.296 -3.5635 -0.5892  1.1086
 6745SOL    HW231869   0.527   2.583   4.154 -0.9658  0.1382 -0.4395
 6746SOL     OW31870   2.158   3.642   8.126  0.4412 -0.1618 -0.2541
 6746SOL    HW131871   2.160   3.600   8.212  0.2489  1.2424  0.4465
 6746SOL    HW231872   2.175   3.727   8.167 -0.8696  0.8571 -1.8213
 6747SOL     OW31873   3.358   3.003   3.418  0.2020  0.1121 -0.2112
 6747SOL    HW131874   3.439   2.989   3.369 -0.2550 -1.7559 -0.4342
 6747SOL    HW231875   3.381   3.071   3.481 -0.6087  3.4913 -3.5643
 6748SOL     OW31876   1.967   1.027   8.694 -0.3666 -0.5185 -0.4843
 6748SOL    HW131877   1.969   1.115   8.656 -0.9101 -0.2747  0.0502
 6748SOL    HW231878   1.927   1.040   8.780  1.1803 -0.0092  0.1657
 6749SOL     OW31879   0.916   2.843  14.586 -0.2117  0.7643 -0.3263
 6749SOL    HW131880   0.945   2.927  14.622 -1.4586  1.3574 -0.7065
 6749SOL    HW231881   0.908   2.794  14.668 -2.6906 -0.2013 -1.1333
 6750SOL     OW31882   3.224   1.151   7.977  0.2968  0.3840 -0.2647
 6750SOL    HW131883   3.208   1.088   8.047 -0.2338 -0.7999 -1.4421
 6750SOL    HW231884   3.185   1.232   8.011  1.3311  1.0071 -0.5668
 6751SOL     OW31885   4.036   3.942  10.715 -1.1763 -0.2542  0.2089
 6751SOL    HW131886   4.129   3.918  10.712 -1.4197 -1.0783 -0.8669
 6751SOL    HW231887   4.046   4.035  10.737  1.6550 -0.3757 -0.4522
 6752SOL     OW31888   4.432   2.635  10.229 -0.5556 -0.0723  0.3081
 6752SOL    HW131889   4.405   2.558  10.179 -1.0822 -0.1290  0.6856
 6752SOL    HW231890   4.357   2.657  10.283  0.7079  2.1846  1.1373
 6753SOL     OW31891   1.396   2.421   1.683  0.8599  0.3298 -0.3199
 6753SOL    HW131892   1.325   2.484   1.693 -0.0579 -0.6901 -0.3910
 6753SOL    HW231893   1.345   2.347   1.650 -0.6115 -0.0932  2.9298
 6754SOL     OW31894   0.175   1.752   7.401 -0.0438  1.1505 -0.6683
 6754SOL    HW131895   0.215   1.825   7.447  0.2131  1.7507 -1.8493
 6754SOL    HW231896   0.087   1.786   7.385  0.3961  1.6248 -2.0946
 6755SOL     OW31897   3.043   3.458   2.406 -0.1052 -0.3920  0.6998
 6755SOL    HW131898   3.084   3.424   2.486  0.9971 -1.5103 -0.3401
 6755SOL    HW231899   3.091   3.434   2.327  1.0783  0.6005  1.1257
 6756SOL     OW31900   2.508   0.712  11.988 -0.1196 -0.2621 -0.1387
 6756SOL    HW131901   2.508   0.622  11.953 -2.7205 -0.2492 -0.1249
 6756SOL    HW231902   2.588   0.710  12.042 -0.3834 -0.3814  0.2455
 6757SOL     OW31903   1.742   3.339   2.062  0.2927 -0.8089  0.3678
 6757SOL    HW131904   1.693   3.320   1.982  0.6881 -0.7818  0.1191
 6757SOL    HW231905   1.726   3.430   2.083 -2.5741 -1.5197  1.2187
 6758SOL     OW31906   0.769   1.882   5.571  0.0114 -0.3045 -0.1262
 6758SOL    HW131907   0.840   1.838   5.618 -0.0978 -0.7530 -0.3764
 6758SOL    HW231908   0.781   1.975   5.587  0.5176 -0.7456  2.0421
 6759SOL     OW31909   2.059   2.108   5.099 -0.3589  0.4009 -0.2194
 6759SOL    HW131910   2.026   2.085   5.011  0.4863 -0.6517 -0.2626
 6759SOL    HW231911   2.154   2.117   5.094 -0.4417  1.3065 -0.1407
 6760SOL     OW31912   2.561   1.688   1.329  0.4250 -0.7208 -0.0589
 6760SOL    HW131913   2.634   1.748   1.338  1.7231 -2.1871 -0.7675
 6760SOL    HW231914   2.558   1.691   1.233  0.3430 -1.2822 -0.0764
 6761SOL     OW31915   1.489   2.038  15.846  0.0376 -0.3447 -0.5349
 6761SOL    HW131916   1.426   2.103  15.875  0.2838 -0.3338 -0.0258
 6761SOL    HW231917   1.538   2.078  15.774 -2.4380 -1.5487 -2.9081
 6762SOL     OW31918   2.409   2.041  13.117 -0.4964 -0.2232  0.4052
 6762SOL    HW131919   2.441   1.997  13.038 -0.2291  0.4608  0.1299
 6762SOL    HW231920   2.492   2.057  13.162  0.3195 -0.2042 -1.1039
 6763SOL     OW31921   0.737   1.019   2.756 -0.1022  0.1889  0.3854
 6763SOL    HW131922   0.759   1.020   2.849 -0.1691  2.7894  0.3820
 6763SOL    HW231923   0.812   0.969   2.723 -2.6981 -2.0064 -2.0994
 6764SOL     OW31924   0.324   2.421   9.305 -0.0630  0.1716 -0.2254
 6764SOL    HW131925   0.271   2.375   9.370  0.0821  0.7035  0.2644
 6764SOL    HW231926   0.273   2.493   9.270 -3.2331 -3.0224 -2.2260
 6765SOL     OW31927   0.202   4.200   3.072  0.6194 -0.1784 -0.3502
 6765SOL    HW131928   0.295   4.183   3.085  1.0831  0.8083 -2.4110
 6765SOL    HW231929   0.197   4.262   2.999 -2.8288 -0.5830 -0.4688
 6766SOL     OW31930   3.234   3.950   3.142 -0.5900 -0.1054  0.0952
 6766SOL    HW131931   3.226   3.997   3.060  0.1596  1.2095  0.7689
 6766SOL    HW231932   3.142   3.942   3.169 -0.8306  0.5953 -0.5227
 6767SOL     OW31933   2.132   2.966   8.284  0.4021 -0.0624  0.1712
 6767SOL    HW131934   2.197   2.918   8.335 -0.9598 -1.6811  0.3650
 6767SOL    HW231935   2.178   2.961   8.200 -0.9934 -1.1964 -0.5203
 6768SOL     OW31936   2.345   4.336   2.182 -0.7002  0.7068  0.2312
 6768SOL    HW131937   2.264   4.302   2.219  0.0788  1.2438  2.4824
 6768SOL    HW231938   2.319   4.325   2.091  1.8495  0.4128 -0.4624
 6769SOL     OW31939   2.447   2.276   8.898  0.4738  0.2614  0.2697
 6769SOL    HW131940   2.439   2.369   8.877 -4.0185 -0.2084  0.0971
 6769SOL    HW231941   2.540   2.278   8.921  0.5097  0.9173  0.0717
 6770SOL     OW31942   0.036   2.671  10.126  0.3905 -0.5448 -0.1383
 6770SOL    HW131943   0.076   2.747  10.168  0.0795  0.3671 -1.5073
 6770SOL    HW231944   0.020   2.608  10.197 -1.0409 -1.0248 -0.8672
 6771SOL     OW31945   3.650   0.639  17.575  0.5132  0.1150  0.2704
 6771SOL    HW131946   3.588   0.646  17.502 -0.6203  0.2258  1.2603
 6771SOL    HW231947   3.692   0.724  17.562 -2.6983  1.5543 -0.7938
 6772SOL     OW31948   2.245   3.834  12.995  0.3952 -0.1671  0.3254
 6772SOL    HW131949   2.205   3.918  13.016  2.2021  0.0077  3.0689
 6772SOL    HW231950   2.259   3.790  13.079  0.9009 -2.5320 -0.9812
 6773SOL     OW31951   2.428   2.555   7.683  0.5037  0.3432  0.3350
 6773SOL    HW131952   2.469   2.638   7.705 -0.0039  0.4456  0.9048
 6773SOL    HW231953   2.456   2.498   7.755 -2.1131  1.7105  2.4378
 6774SOL     OW31954   3.125   4.190   5.026  0.1240  0.5826 -0.2621
 6774SOL    HW131955   3.155   4.137   5.099  2.8174  2.5337  0.0338
 6774SOL    HW231956   3.098   4.121   4.964 -2.8861  0.2255  1.4564
 6775SOL     OW31957   1.300   2.720  12.968  0.1783 -0.6094  0.4087
 6775SOL    HW131958   1.295   2.626  12.948  0.1663 -0.4389 -0.3827
 6775SOL    HW231959   1.242   2.726  13.044  0.0967 -0.6511  0.3504
 6776SOL     OW31960   4.132   4.583   6.593  0.6615 -0.7370 -0.3650
 6776SOL    HW131961   4.070   4.576   6.521  0.4495  1.3444 -0.3960
 6776SOL    HW231962   4.170   4.496   6.591 -0.2314 -1.2131  2.5851
 6777SOL     OW31963   0.266   0.579   4.104  0.2994 -0.4816 -0.0292
 6777SOL    HW131964   0.318   0.577   4.024  0.3050 -2.5767  0.0154
 6777SOL    HW231965   0.258   0.485   4.122  0.8268 -0.7030 -0.9542
 6778SOL     OW31966   0.907   3.827   7.360  0.6478 -0.1046  0.6413
 6778SOL    HW131967   0.906   3.923   7.370  2.4914 -0.0514  0.4413
 6778SOL    HW231968   0.908   3.805   7.453  1.4881 -2.2141  0.1212
 6779SOL     OW31969   0.653   1.018   1.421 -0.1676 -0.5864 -0.6513
 6779SOL    HW131970   0.688   0.948   1.477 -0.5671 -0.1003  0.2144
 6779SOL    HW231971   0.694   1.093   1.464 -0.0717 -1.3225  0.5421
 6780SOL     OW31972   0.738   3.379   7.734  0.2037 -0.1423  0.4008
 6780SOL    HW131973   0.765   3.327   7.658 -0.1869 -0.8611  0.7556
 6780SOL    HW231974   0.663   3.428   7.700  0.3230  0.7655  1.4938
 6781SOL     OW31975   0.259   3.172   4.411  0.0360  0.1738  0.2039
 6781SOL    HW131976   0.299   3.094   4.448 -0.7864 -0.8644 -1.0984
 6781SOL    HW231977   0.227   3.213   4.491  3.5067  0.4016  1.4569
 6782SOL     OW31978   4.215   1.852  14.522  0.0263  0.2711  0.3858
 6782SOL    HW131979   4.309   1.855  14.504  0.1760  1.4094  1.3754
 6782SOL    HW231980   4.229   1.878  14.613  0.0888  0.2813  0.3732
 6783SOL     OW31981   3.434   3.782   2.792 -0.4515  0.1711  0.1874
 6783SOL    HW131982   3.410   3.847   2.726 -1.2763  0.3104  0.6268
 6783SOL    HW231983   3.343   3.759   2.811 -0.1796 -0.5475  0.6131
 6784SOL     OW31984   0.761   0.912  12.649  0.1551  0.4243  0.0387
 6784SOL    HW131985   0.840   0.864  12.623  0.0412 -1.0909  2.5117
 6784SOL    HW231986   0.702   0.841  12.673 -1.3832  2.3319  1.8863
 6785SOL     OW31987   1.639   3.463   4.904 -0.0467  0.6959 -0.0448
 6785SOL    HW131988   1.652   3.526   4.975  0.2204 -0.4711  0.9235
 6785SOL    HW231989   1.567   3.511   4.861 -1.0954 -1.1037 -0.2853
 6786SOL     OW31990   1.988   2.101   4.829  0.3491 -0.4754  0.3343
 6786SOL    HW131991   2.005   2.091   4.735 -0.5330 -0.8073  0.2089
 6786SOL    HW231992   2.032   2.185   4.839  0.0711 -0.2192 -0.5537
 6787SOL     OW31993   0.459   4.730   8.045 -0.6837 -0.0002  0.1570
 6787SOL    HW131994   0.443   4.685   8.128  2.6065 -1.3522  0.0794
 6787SOL    HW231995   0.554   4.717   8.048 -0.4421  2.0360  1.1178
 6788SOL     OW31996   2.306   4.115   5.990  0.0992 -0.7709 -0.2526
 6788SOL    HW131997   2.307   4.026   6.024 -1.3157 -0.4104  0.7270
 6788SOL    HW231998   2.331   4.110   5.898  0.0128  0.4516 -0.3435
 6789SOL     OW31999   0.766   0.656   3.993 -0.7106  0.1887 -0.0776
 6789SOL    HW132000   0.852   0.695   3.975 -0.8677  1.5122  1.9140
 6789SOL    HW232001   0.774   0.630   4.085 -2.6641 -1.2936 -0.3257
 6790SOL     OW32002   3.792   2.777   5.077  0.0864 -0.1919 -0.2513
 6790SOL    HW132003   3.756   2.806   5.161  2.2094  0.7305  0.3330
 6790SOL    HW232004   3.866   2.723   5.105 -0.4269 -1.1384 -0.7173
 6791SOL     OW32005   4.486   0.463  10.148  0.2230  0.2741  0.6117
 6791SOL    HW132006   4.536   0.450  10.068  1.0789  0.9251  1.0314
 6791SOL    HW232007   4.559   0.502  10.197  1.7760 -1.8406 -0.0535
 6792SOL     OW32008   2.936   3.944   7.766 -0.4062  0.5305  0.1718
 6792SOL    HW132009   2.920   4.007   7.836  0.2796  1.2829 -0.3416
 6792SOL    HW232010   2.911   3.870   7.821  0.3503 -1.0645 -1.6187
 6793SOL     OW32011   3.397   1.873   7.194  0.2106 -0.4923  0.0874
 6793SOL    HW132012   3.423   1.793   7.241 -1.7357 -0.7544  0.7356
 6793SOL    HW232013   3.474   1.890   7.140 -1.5297  1.8419 -1.6424
 6794SOL     OW32014   2.054   4.517   0.963 -0.2058  0.1290 -0.6566
 6794SOL    HW132015   2.050   4.485   0.873 -2.3218 -0.8450 -0.2134
 6794SOL    HW232016   2.149   4.523   0.975 -0.3839 -1.9523  1.9284
 6795SOL     OW32017   2.065   4.380   4.899  0.6900  0.3571 -0.5538
 6795SOL    HW132018   2.013   4.459   4.914 -0.1567 -0.5261  1.2448
 6795SOL    HW232019   2.098   4.354   4.985 -1.3731 -0.6253 -0.0506
 6796SOL     OW32020   4.077   3.002   6.709  0.0044  0.1492  0.1400
 6796SOL    HW132021   4.134   3.046   6.772 -1.4494 -0.1807  1.6537
 6796SOL    HW232022   4.017   3.074   6.689 -0.0209  0.9593  3.1769
 6797SOL     OW32023   1.702   3.942   3.435 -0.5946  0.1611 -0.6124
 6797SOL    HW132024   1.702   4.027   3.391  2.3056 -0.2244 -1.4072
 6797SOL    HW232025   1.798   3.936   3.435 -0.6854 -1.2908  0.4715
 6798SOL     OW32026   3.881   2.345   9.548 -0.1116 -0.0536  0.1680
 6798SOL    HW132027   3.895   2.439   9.560 -1.9672  0.0584  1.4125
 6798SOL    HW232028   3.860   2.341   9.455 -5.1663  0.7004  1.2388
 6799SOL     OW32029   0.216   1.597   2.825 -0.4215 -0.2346  0.0164
 6799SOL    HW132030   0.170   1.531   2.774  0.6761 -0.0657 -1.1973
 6799SOL    HW232031   0.305   1.596   2.790 -0.7823  0.8437 -0.9178
 6800SOL     OW32032   2.624   4.487   8.111  0.5141  0.0753 -0.3810
 6800SOL    HW132033   2.558   4.486   8.181  0.5928 -3.4004 -0.3585
 6800SOL    HW232034   2.698   4.447   8.158 -0.6803  0.6666  2.0271
 6801SOL     OW32035   4.687   0.273   2.132  0.0429 -0.0534 -0.2293
 6801SOL    HW132036   0.001   0.201   2.100 -0.4148 -0.5792  0.1965
 6801SOL    HW232037   4.613   0.221   2.163  0.5796 -1.1900 -0.8612
 6802SOL     OW32038   1.780   4.423  11.817  0.2198  0.5303 -0.2655
 6802SOL    HW132039   1.872   4.450  11.819  0.4116 -0.0191 -1.4606
 6802SOL    HW232040   1.739   4.509  11.820  1.9369  1.2598  2.5302
 6803SOL     OW32041   1.225   2.795   2.490 -0.2856 -0.0417 -0.6471
 6803SOL    HW132042   1.223   2.821   2.398 -0.4138 -0.0572 -0.6483
 6803SOL    HW232043   1.213   2.702   2.467 -0.4897 -0.2779  0.4098
 6804SOL     OW32044   1.394   4.080   3.940 -0.2177 -0.4403  0.3031
 6804SOL    HW132045   1.342   4.050   4.014 -2.3377  2.4595 -0.0324
 6804SOL    HW232046   1.463   4.122   3.992  1.3529 -1.1411 -1.1988
 6805SOL     OW32047   3.646   0.600   5.547  0.6690 -0.9101  0.7867
 6805SOL    HW132048   3.668   0.656   5.473 -1.5895 -0.4116  0.4896
 6805SOL    HW232049   3.731   0.557   5.559  0.2011 -2.6001 -1.8642
 6806SOL     OW32050   3.226   2.644   6.995  0.2867 -0.7587  0.7513
 6806SOL    HW132051   3.217   2.664   7.088  3.0607 -0.9246  1.0748
 6806SOL    HW232052   3.287   2.571   7.007  0.6013 -0.2698  2.1100
 6807SOL     OW32053   0.859   0.297  14.759 -0.2563 -0.6104  0.4962
 6807SOL    HW132054   0.794   0.316  14.827  1.0344  2.3817  0.9218
 6807SOL    HW232055   0.940   0.293  14.810 -1.2273  0.3325  2.0997
 6808SOL     OW32056   3.737   4.099   2.783 -0.4487  0.4200  0.6124
 6808SOL    HW132057   3.663   4.086   2.724  0.5466 -0.3047 -0.4713
 6808SOL    HW232058   3.701   4.171   2.835 -1.3659  0.3921  0.0160
 6809SOL     OW32059   1.963   2.157  11.114 -0.2670  0.1705  0.2890
 6809SOL    HW132060   1.967   2.072  11.157  3.4636  0.5145  0.5570
 6809SOL    HW232061   1.962   2.129  11.022 -0.4200  0.9049  0.0650
 6810SOL     OW32062   2.214   3.209  10.985 -0.0720 -0.4235 -0.2012
 6810SOL    HW132063   2.185   3.168  10.903  0.5179 -1.2461  0.0051
 6810SOL    HW232064   2.228   3.128  11.033 -0.0256 -0.6080 -0.5227
 6811SOL     OW32065   0.636   0.859   3.282 -0.4359 -0.2200  0.3683
 6811SOL    HW132066   0.610   0.949   3.264  0.0758  0.1500  1.5476
 6811SOL    HW232067   0.583   0.813   3.216  2.0089 -3.2583  0.5118
 6812SOL     OW32068   1.728   4.113   1.494 -0.0042 -0.3135  0.0751
 6812SOL    HW132069   1.802   4.174   1.488 -0.3143  0.1952  1.5757
 6812SOL    HW232070   1.677   4.155   1.564  0.9821 -0.6778  1.0027
 6813SOL     OW32071   3.744   3.215   3.183 -0.6592 -0.0647 -0.3651
 6813SOL    HW132072   3.758   3.303   3.150 -1.1892  0.5959  1.2135
 6813SOL    HW232073   3.816   3.214   3.245  2.1949  1.0876 -3.6714
 6814SOL     OW32074   4.323   3.180  11.595 -0.3601 -0.6951 -0.7643
 6814SOL    HW132075   4.240   3.134  11.611 -1.3680  1.7617  1.0268
 6814SOL    HW232076   4.305   3.218  11.508 -1.1219  2.1814  0.6396
 6815SOL     OW32077   1.185   1.747   8.299 -0.0599  0.5060  0.0564
 6815SOL    HW132078   1.161   1.753   8.206 -1.3495  0.4388  0.3858
 6815SOL    HW232079   1.121   1.684   8.332  0.2340  0.4292  0.4717
 6816SOL     OW32080   4.521   4.358   6.890  0.3349 -0.1442 -0.1604
 6816SOL    HW132081   4.515   4.452   6.906  0.7856  0.2635 -2.4071
 6816SOL    HW232082   4.547   4.364   6.798 -3.3506 -1.1464 -1.2386
 6817SOL     OW32083   2.278   4.725   3.477  0.0608 -0.5547 -0.3442
 6817SOL    HW132084   2.195   4.689   3.446  0.0312 -0.3813 -0.4636
 6817SOL    HW232085   2.300   0.045   3.405 -0.3887  0.1188  0.0760
 6818SOL     OW32086   1.408   0.296  17.571 -0.2442  0.1818  0.0515
 6818SOL    HW132087   1.393   0.220  17.515  0.3169  1.8261 -2.3540
 6818SOL    HW232088   1.462   0.352  17.515 -0.1591 -0.0667 -0.1156
 6819SOL     OW32089   1.985   2.066  10.342 -0.0869 -0.7215  0.5823
 6819SOL    HW132090   1.963   1.986  10.294  1.1289  0.3946 -1.8760
 6819SOL    HW232091   2.028   2.111  10.269  0.0562 -0.6890  0.6876
 6820SOL     OW32092   1.922   4.028   4.306 -0.0279 -0.2688 -0.8003
 6820SOL    HW132093   1.978   4.052   4.232  0.2606 -2.5041 -1.3088
 6820SOL    HW232094   1.879   4.113   4.304 -0.8568 -0.6603  0.9040
 6821SOL     OW32095   0.422   2.665   3.744  0.1337 -0.0787  0.0771
 6821SOL    HW132096   0.512   2.648   3.716 -0.2786  0.7800 -1.7676
 6821SOL    HW232097   0.395   2.729   3.679  0.6808  1.6007  1.4803
 6822SOL     OW32098   3.858   3.945   7.195  0.4665  0.3637  0.4082
 6822SOL    HW132099   3.808   3.948   7.113 -0.8688 -0.6081  1.1756
 6822SOL    HW232100   3.946   3.933   7.161 -0.3008  0.2586 -1.5587
 6823SOL     OW32101   1.874   4.025   8.406  0.0280 -0.8210  0.4143
 6823SOL    HW132102   1.824   4.043   8.327  0.0706  1.9241  0.9928
 6823SOL    HW232103   1.883   3.931   8.396  0.5335 -0.7300  0.0492
 6824SOL     OW32104   3.586   0.892  10.073 -0.0981 -0.8764 -0.2706
 6824SOL    HW132105   3.646   0.818  10.062 -1.8421 -2.4618  1.0316
 6824SOL    HW232106   3.645   0.964  10.097 -2.1341  0.7901 -0.3040
 6825SOL     OW32107   1.471   2.886   5.145 -0.4235 -0.0679 -0.1223
 6825SOL    HW132108   1.557   2.846   5.158 -0.5528 -0.1708  0.4211
 6825SOL    HW232109   1.489   2.970   5.188 -1.8580 -0.0619  0.4605
 6826SOL     OW32110   1.513   3.130   5.302  0.2423  0.0296 -0.6386
 6826SOL    HW132111   1.509   3.074   5.380  1.4136  0.1655 -0.4773
 6826SOL    HW232112   1.435   3.184   5.314  1.7871  1.6526  1.9195
 6827SOL     OW32113   1.467   4.558   4.032  0.4691 -0.1901 -0.2658
 6827SOL    HW132114   1.500   4.623   4.094 -0.2739 -0.7794  0.7400
 6827SOL    HW232115   1.453   4.480   4.085  0.0122 -1.2356 -1.9392
 6828SOL     OW32116   3.702   4.310   1.768 -0.1144  0.0799 -0.4433
 6828SOL    HW132117   3.789   4.271   1.774  0.5314  1.4100 -1.0945
 6828SOL    HW232118   3.678   4.292   1.677  1.0882  0.2752 -0.7978
 6829SOL     OW32119   2.005   1.396  11.255 -0.4377 -0.0744 -0.3923
 6829SOL    HW132120   2.016   1.367  11.345 -0.8226 -0.3762 -0.4415
 6829SOL    HW232121   2.041   1.325  11.200  1.5159 -0.0516  0.8441
 6830SOL     OW32122   2.437   0.238   4.993  0.1247  0.1381 -0.0915
 6830SOL    HW132123   2.475   0.187   4.922  0.2155 -0.4530  0.3813
 6830SOL    HW232124   2.406   0.318   4.951 -2.6290  0.2481  2.1784
 6831SOL     OW32125   1.290   1.534   0.626 -0.2207 -0.0965 -0.0282
 6831SOL    HW132126   1.262   1.566   0.711 -2.1339  0.6521 -0.9368
 6831SOL    HW232127   1.208   1.526   0.578  0.3232  0.7933 -1.1027
 6832SOL     OW32128   0.998   4.694   7.155 -0.2765  0.2104  0.3107
 6832SOL    HW132129   1.077   4.711   7.207 -1.0158 -0.3069  1.6137
 6832SOL    HW232130   1.040   4.633   7.094 -0.7045 -1.1301  1.3286
 6833SOL     OW32131   3.748   1.642  13.288 -0.6003 -0.5078  0.1184
 6833SOL    HW132132   3.835   1.670  13.262 -0.8202 -1.5141 -1.6683
 6833SOL    HW232133   3.759   1.548  13.291  3.1521 -0.1488 -3.1219
 6834SOL     OW32134   0.783   0.502   1.988  0.0754 -0.2873  0.0498
 6834SOL    HW132135   0.806   0.417   2.028 -0.0260 -0.9429 -1.2820
 6834SOL    HW232136   0.695   0.512   2.024  0.6168 -0.7997  1.5462
 6835SOL     OW32137   2.743   3.866   3.858  0.1324 -0.0838 -0.4690
 6835SOL    HW132138   2.826   3.907   3.834  0.6869  0.1607  1.8097
 6835SOL    HW232139   2.695   3.926   3.801  1.2812  2.4814  1.2711
 6836SOL     OW32140   3.022   3.497   9.124  0.5753 -0.5068  0.0011
 6836SOL    HW132141   3.109   3.535   9.131 -0.0921  1.3930 -1.8079
 6836SOL    HW232142   2.989   3.511   9.213  0.6896  0.0022 -0.0338
 6837SOL     OW32143   4.024   4.186   9.136  0.8907 -0.4378  0.0328
 6837SOL    HW132144   4.113   4.160   9.112  0.7445 -0.4326 -0.5001
 6837SOL    HW232145   3.989   4.210   9.050 -1.0398  0.3505  1.0477
 6838SOL     OW32146   0.480   0.353  11.110 -0.1502  0.4095 -0.2168
 6838SOL    HW132147   0.418   0.281  11.117  0.4773 -0.0115  1.1330
 6838SOL    HW232148   0.437   0.410  11.174 -0.6914  0.4584 -0.6273
 6839SOL     OW32149   3.058   1.977   5.503 -0.2259  0.4989  0.2534
 6839SOL    HW132150   3.145   2.006   5.474 -1.1628  0.8690 -2.1562
 6839SOL    HW232151   3.009   2.059   5.494  1.1861  1.2620 -0.5360
 6840SOL     OW32152   2.965   0.718   8.420 -0.0833  0.1972 -0.4951
 6840SOL    HW132153   3.021   0.719   8.498  2.4980  2.8889 -2.3648
 6840SOL    HW232154   3.035   0.709   8.355  0.9753 -3.1236  1.1157
 6841SOL     OW32155   4.608   2.651  17.211  0.1896 -0.2968  0.2996
 6841SOL    HW132156   4.659   2.660  17.131  0.3152 -0.7521  0.3259
 6841SOL    HW232157   4.595   2.741  17.238  0.5204 -0.0746 -0.2879
 6842SOL     OW32158   1.319   4.459   3.114  0.1752  0.0014 -0.4470
 6842SOL    HW132159   1.309   4.392   3.047 -0.4709  2.0763 -2.4262
 6842SOL    HW232160   1.229   4.494   3.114  0.3282  0.4104 -1.6582
 6843SOL     OW32161   3.564   0.799   8.894  0.2012 -0.5339  0.4313
 6843SOL    HW132162   3.534   0.708   8.889  1.9425 -1.1455  0.9608
 6843SOL    HW232163   3.584   0.813   8.801 -0.7560  0.4300  0.3727
 6844SOL     OW32164   4.479   1.010   9.265  0.1655  0.1213 -0.4090
 6844SOL    HW132165   4.439   1.013   9.352  0.2253  1.5521 -0.4330
 6844SOL    HW232166   4.460   1.101   9.241 -0.2507  0.7276  2.2277
 6845SOL     OW32167   3.870   2.552   2.722  0.4235 -0.5239  0.1582
 6845SOL    HW132168   3.815   2.535   2.646  1.3345  0.0593 -0.6288
 6845SOL    HW232169   3.814   2.519   2.792 -1.0974  4.6082  1.3715
 6846SOL     OW32170   4.621   0.931   2.844  0.1480  1.1379 -0.1115
 6846SOL    HW132171   4.544   0.947   2.790 -1.2134  0.9304  1.7960
 6846SOL    HW232172   4.655   1.020   2.839 -0.1715  1.1827 -1.4395
 6847SOL     OW32173   1.838   2.824  15.760  0.1763  0.6070  0.3895
 6847SOL    HW132174   1.767   2.760  15.755  0.5153  0.2827 -0.2171
 6847SOL    HW232175   1.825   2.869  15.677  2.5761  0.1029 -0.2465
 6848SOL     OW32176   3.937   1.620   8.045 -0.0792  0.6157  0.4473
 6848SOL    HW132177   3.899   1.662   8.123  0.4350 -0.7522  1.4191
 6848SOL    HW232178   3.997   1.690   8.018  1.4639 -1.0411 -0.3871
 6849SOL     OW32179   4.452   3.482  16.767  0.4662  0.5804  0.4676
 6849SOL    HW132180   4.457   3.531  16.685  0.8912  0.7553  0.5967
 6849SOL    HW232181   4.366   3.440  16.761 -0.3673  2.1913  1.2074
 6850SOL     OW32182   3.554   1.557   6.836 -0.6046 -0.1799  0.3469
 6850SOL    HW132183   3.472   1.551   6.787 -1.2246 -0.9922  1.4826
 6850SOL    HW232184   3.519   1.553   6.925  0.2048  1.4988  0.7488
 6851SOL     OW32185   0.948   4.393   5.182  0.2611 -0.9505 -0.1005
 6851SOL    HW132186   0.855   4.409   5.203  0.5181 -0.4266  0.6523
 6851SOL    HW232187   0.954   4.442   5.100  0.4008 -0.0420  0.4507
 6852SOL     OW32188   4.739   4.568   1.076  0.6311  0.1825  0.1800
 6852SOL    HW132189   0.082   4.599   1.038  1.8457 -1.3772  1.5273
 6852SOL    HW232190   4.698   4.649   1.104  1.3124  0.4688  0.3398
 6853SOL     OW32191   2.263   1.979   6.190 -0.3957 -0.3716 -0.6577
 6853SOL    HW132192   2.208   1.952   6.116 -0.9844  0.4338 -0.5154
 6853SOL    HW232193   2.281   1.891   6.224  2.1928 -0.6181 -2.6579
 6854SOL     OW32194   3.665   4.343   8.223 -0.3864  0.1511  0.1921
 6854SOL    HW132195   3.724   4.301   8.286  0.2640  1.0825  0.1999
 6854SOL    HW232196   3.669   4.434   8.253  2.0757 -0.3904  1.5745
 6855SOL     OW32197   3.889   3.873   9.984 -0.4803 -0.2572  0.3799
 6855SOL    HW132198   3.918   3.835  10.067  0.6569  3.2549  1.6367
 6855SOL    HW232199   3.825   3.814   9.946 -0.3205 -0.8082  0.9613
 6856SOL     OW32200   3.460   4.247  14.275 -0.0929  0.2520  0.4194
 6856SOL    HW132201   3.421   4.273  14.192  0.6504  0.6316  0.1923
 6856SOL    HW232202   3.471   4.338  14.302  2.2499  0.0626  0.1207
 6857SOL     OW32203   2.549   3.543   2.824 -0.3132 -0.0169 -0.0317
 6857SOL    HW132204   2.590   3.510   2.744  0.0409  0.1616  0.0769
 6857SOL    HW232205   2.525   3.632   2.799 -3.4644 -1.2314 -1.4097
 6858SOL     OW32206   1.844   0.676  14.975 -0.2334  0.0814 -0.2688
 6858SOL    HW132207   1.796   0.757  14.991 -0.8750 -0.4447  0.4423
 6858SOL    HW232208   1.911   0.716  14.920  0.5478  2.0170  2.0840
 6859SOL     OW32209   2.356   0.052   7.349 -0.6540  0.6335 -0.3602
 6859SOL    HW132210   2.308   4.709   7.361  0.2500  0.2394  0.5209
 6859SOL    HW232211   2.382   0.067   7.440  1.0816 -0.0908 -0.7474
 6860SOL     OW32212   3.267   0.149   4.685  0.4153  0.0758  0.3656
 6860SOL    HW132213   3.214   0.101   4.748 -1.2986 -0.0143 -1.1476
 6860SOL    HW232214   3.292   0.222   4.742 -2.6950  0.3953  1.3152
 6861SOL     OW32215   1.431   1.554  17.218 -0.3585 -0.1662 -0.5511
 6861SOL    HW132216   1.499   1.617  17.241  0.7412 -0.7085 -2.3109
 6861SOL    HW232217   1.376   1.535  17.293  1.0596  2.3216  1.1413
 6862SOL     OW32218   3.033   2.559   9.629 -0.3465 -0.2411 -0.2920
 6862SOL    HW132219   3.076   2.480   9.595  1.9963  0.6652  0.5820
 6862SOL    HW232220   3.086   2.566   9.708  1.4279 -1.3971 -1.3701
 6863SOL     OW32221   4.372   1.165  13.914  0.4337 -0.1051  0.0514
 6863SOL    HW132222   4.367   1.075  13.883 -1.5985 -0.1683  0.5736
 6863SOL    HW232223   4.283   1.200  13.919  0.8031  0.7400  0.7505
 6864SOL     OW32224   1.456   4.033   7.857 -0.5607  0.2231 -0.0558
 6864SOL    HW132225   1.409   4.086   7.793  0.2044  0.5558 -0.3428
 6864SOL    HW232226   1.502   4.107   7.897  2.5742 -1.4492 -0.5036
 6865SOL     OW32227   3.351   0.322  12.534  0.4007 -0.0056  0.4859
 6865SOL    HW132228   3.347   0.257  12.604 -2.7644 -0.0817  0.2261
 6865SOL    HW232229   3.445   0.334  12.524  0.2746  0.8998  0.3852
 6866SOL     OW32230   1.323   1.287  17.157 -0.3088  0.3466 -0.3389
 6866SOL    HW132231   1.328   1.383  17.149 -0.4877  0.2481 -1.6144
 6866SOL    HW232232   1.402   1.270  17.106 -2.0469  3.3503 -4.0461
 6867SOL     OW32233   2.370   3.827  12.757 -0.6168  0.0028  0.3584
 6867SOL    HW132234   2.407   3.739  12.749  1.4496  0.8990  0.0698
 6867SOL    HW232235   2.306   3.822  12.828  0.7528 -0.9121  1.5142
 6868SOL     OW32236   4.314   4.734   7.523 -0.1838 -0.0254  0.0450
 6868SOL    HW132237   4.228   4.724   7.565  0.7033  0.3948  1.9850
 6868SOL    HW232238   4.327   4.643   7.496 -0.0277  0.0302 -0.0670
 6869SOL     OW32239   0.635   1.958   3.400  0.1399  0.4559 -0.4849
 6869SOL    HW132240   0.631   2.053   3.395  0.7385  0.5599  0.8498
 6869SOL    HW232241   0.685   1.947   3.320  2.5557  0.8781  0.9537
 6870SOL     OW32242   0.283   3.928   1.774  0.5424  0.2277 -0.1781
 6870SOL    HW132243   0.190   3.943   1.758  0.1580 -0.1166  1.7622
 6870SOL    HW232244   0.299   3.898   1.685 -3.7832  2.7318 -1.7789
 6871SOL     OW32245   1.915   1.856   9.255  0.3695  0.1106  0.0296
 6871SOL    HW132246   1.905   1.780   9.312 -2.0177  1.6176  1.5654
 6871SOL    HW232247   1.901   1.924   9.320  0.7543  1.2659 -1.1097
 6872SOL     OW32248   4.652   1.082   7.607  0.0034  0.3155 -0.5718
 6872SOL    HW132249   4.662   1.175   7.625  0.6292 -0.0153  0.8357
 6872SOL    HW232250   4.625   1.083   7.515  1.7038  3.7474 -1.0181
 6873SOL     OW32251   3.960   1.798  11.090 -0.6696  0.2246  0.3415
 6873SOL    HW132252   4.028   1.744  11.130 -0.2198 -0.2335 -1.0495
 6873SOL    HW232253   3.906   1.802  11.169 -2.0526  0.7601 -0.6415
 6874SOL     OW32254   3.238   0.521   6.828 -0.1274  0.1547  0.1777
 6874SOL    HW132255   3.242   0.615   6.808 -1.5211  0.7601  2.6916
 6874SOL    HW232256   3.316   0.476   6.797  0.4582 -0.2235  2.1682
 6875SOL     OW32257   1.089   3.775   5.154 -0.1815 -0.1926 -0.4090
 6875SOL    HW132258   1.061   3.785   5.246 -0.2086  0.7120 -0.5168
 6875SOL    HW232259   1.007   3.804   5.114 -0.4986 -0.9734 -0.3204
 6876SOL     OW32260   4.433   4.341   8.565 -0.7735 -0.5758  0.4512
 6876SOL    HW132261   4.368   4.271   8.568 -0.7330 -0.6799 -1.0925
 6876SOL    HW232262   4.389   4.399   8.627  1.4336  2.6148 -0.9768
 6877SOL     OW32263   2.634   3.485   2.574 -0.5016 -0.5333  0.5517
 6877SOL    HW132264   2.567   3.544   2.539  1.0199  1.0072  0.2057
 6877SOL    HW232265   2.710   3.502   2.517 -1.6418  1.1581 -0.4728
 6878SOL     OW32266   3.925   1.239  13.575 -0.0604 -0.3224 -0.0392
 6878SOL    HW132267   3.889   1.161  13.532  0.8766 -0.4248 -0.6288
 6878SOL    HW232268   4.014   1.213  13.600 -1.2061 -1.5286  2.7941
 6879SOL     OW32269   1.602   4.676   6.015  0.5219  0.4249  0.1015
 6879SOL    HW132270   1.553   4.685   6.097 -0.4719 -2.4011 -0.1845
 6879SOL    HW232271   1.601   0.027   5.982 -0.7907 -0.1712 -1.4946
 6880SOL     OW32272   1.952   1.184   3.736 -0.2581  0.0075  0.0644
 6880SOL    HW132273   1.888   1.256   3.733  0.3127  0.4534 -1.5221
 6880SOL    HW232274   1.948   1.170   3.641 -1.2244  1.0107 -0.0405
 6881SOL     OW32275   2.249   2.153   5.853 -0.0435 -0.6551 -0.6050
 6881SOL    HW132276   2.317   2.168   5.919  0.5721  0.7272 -1.5577
 6881SOL    HW232277   2.211   2.237   5.828  0.6954 -0.2081 -0.2230
 6882SOL     OW32278   2.585   3.045  13.397 -0.3906  0.2851 -0.1225
 6882SOL    HW132279   2.621   3.133  13.386  0.1632  0.2196  1.2187
 6882SOL    HW232280   2.562   3.025  13.306 -0.2739  1.3391 -0.3808
 6883SOL     OW32281   0.257   0.326   2.984 -0.1589 -0.1970  0.2878
 6883SOL    HW132282   0.273   0.379   3.061 -1.9040  1.4502 -0.4820
 6883SOL    HW232283   0.185   0.366   2.936 -0.7376 -0.5708  0.8426
 6884SOL     OW32284   2.330   0.548   3.467 -0.1883  0.4412  0.2204
 6884SOL    HW132285   2.306   0.597   3.546 -0.9709  0.8710 -0.2833
 6884SOL    HW232286   2.414   0.591   3.449 -0.0787  0.0097 -0.2800
 6885SOL     OW32287   2.307   3.272   8.070 -0.3140 -0.5996 -0.3216
 6885SOL    HW132288   2.299   3.345   8.009 -0.1423 -0.1625  0.1829
 6885SOL    HW232289   2.229   3.270   8.125 -1.2522 -2.6336 -1.7352
 6886SOL     OW32290   2.281   4.140   3.937  0.7218 -0.3654  0.1207
 6886SOL    HW132291   2.376   4.146   3.938  0.7412 -0.5069 -1.4468
 6886SOL    HW232292   2.276   4.172   3.847 -0.9410  0.5717  0.5327
 6887SOL     OW32293   4.519   4.026   4.759 -0.3681 -0.1947 -0.5045
 6887SOL    HW132294   4.570   4.093   4.714 -2.0214  0.3447 -1.5619
 6887SOL    HW232295   4.451   4.004   4.696  1.4233 -0.6543 -2.2820
 6888SOL     OW32296   4.613   1.867  12.434 -0.4663  0.2261  0.2714
 6888SOL    HW132297   4.540   1.919  12.402 -0.1065  0.1149 -0.7328
 6888SOL    HW232298   4.662   1.848  12.354 -0.6668 -0.3516  0.2855
 6889SOL     OW32299   3.148   1.704  16.024  0.3160  0.1106  0.2522
 6889SOL    HW132300   3.068   1.684  15.975 -0.9536 -1.1321  2.8225
 6889SOL    HW232301   3.112   1.770  16.083 -0.9152  0.2551 -0.6638
 6890SOL     OW32302   1.820   1.071   2.950  0.4180  0.6327  0.2737
 6890SOL    HW132303   1.817   1.001   3.015 -0.3860 -0.1991 -0.6620
 6890SOL    HW232304   1.844   1.029   2.868 -2.0963 -1.1751  0.4526
 6891SOL     OW32305   4.528   0.692   3.405 -0.0396 -0.1862  0.0543
 6891SOL    HW132306   4.518   0.605   3.444  1.5829  1.0098  3.1405
 6891SOL    HW232307   4.519   0.750   3.481 -1.9599 -0.0112 -0.3130
 6892SOL     OW32308   0.776   3.006   3.486  0.0477  0.3586 -0.3042
 6892SOL    HW132309   0.697   2.959   3.460  0.3620 -0.3071 -0.0543
 6892SOL    HW232310   0.756   3.021   3.578  0.8148 -1.0226  0.0923
 6893SOL     OW32311   0.102   2.456   2.337 -0.0890 -0.5346 -0.3643
 6893SOL    HW132312   0.055   2.409   2.406 -1.8345  1.1841 -0.3894
 6893SOL    HW232313   0.037   2.486   2.273 -0.4475 -1.3536 -0.3891
 6894SOL     OW32314   3.444   4.628   5.810 -0.0338 -0.3605 -0.2944
 6894SOL    HW132315   3.422   4.540   5.779  1.6299 -0.7335 -0.4110
 6894SOL    HW232316   3.455   4.678   5.729  1.6417 -0.6693 -0.2553
 6895SOL     OW32317   2.849   0.421   3.214 -0.0330 -0.3516 -0.0655
 6895SOL    HW132318   2.865   0.462   3.298  0.2885  1.7812 -1.1766
 6895SOL    HW232319   2.785   0.355   3.241 -0.2141 -0.1774 -0.0662
 6896SOL     OW32320   4.248   4.126   8.586  0.1282  0.0258  0.1660
 6896SOL    HW132321   4.252   4.035   8.617 -0.3920 -0.2770 -0.6668
 6896SOL    HW232322   4.155   4.142   8.575  0.2831  0.0779 -1.0688
 6897SOL     OW32323   3.348   2.152   4.592 -0.5226  0.0843 -0.3694
 6897SOL    HW132324   3.272   2.133   4.646  0.7680 -2.0602  0.6715
 6897SOL    HW232325   3.345   2.072   4.540 -2.1296 -0.4948  0.6228
 6898SOL     OW32326   1.730   0.438   4.912 -0.0123 -0.1643  0.0809
 6898SOL    HW132327   1.757   0.370   4.973  0.7422 -0.7064 -0.8418
 6898SOL    HW232328   1.776   0.512   4.951 -1.6198  1.1443 -0.5185
 6899SOL     OW32329   4.739   3.852  12.855  0.3582  0.2244 -0.0608
 6899SOL    HW132330   0.063   3.923  12.869 -0.1498  1.0896 -2.0590
 6899SOL    HW232331   4.695   3.831  12.938  1.1148 -1.2394 -0.0342
 6900SOL     OW32332   2.282   0.715   6.438  0.1393  0.0927  0.0769
 6900SOL    HW132333   2.297   0.623   6.459 -1.2120  0.1805  1.4917
 6900SOL    HW232334   2.188   0.710   6.458  0.4741  2.4164  2.1995
 6901SOL     OW32335   2.152   0.765  10.885 -0.1527  0.2081 -0.0340
 6901SOL    HW132336   2.221   0.799  10.942  1.0463 -1.2303 -0.6265
 6901SOL    HW232337   2.155   0.827  10.813  1.8835  0.4878  0.2830
 6902SOL     OW32338   4.415   1.924   3.921  0.1184  0.1151  0.0074
 6902SOL    HW132339   4.438   2.013   3.894  1.4358  0.0633  0.9512
 6902SOL    HW232340   4.499   1.900   3.960 -0.3897 -0.3514  0.8245
 6903SOL     OW32341   3.327   0.861   7.383  0.6554 -0.2816  0.2745
 6903SOL    HW132342   3.280   0.791   7.430 -2.5483  0.2837 -2.0681
 6903SOL    HW232343   3.294   0.939   7.427  0.4069  0.5689 -1.4607
 6904SOL     OW32344   0.068   4.144   3.874  0.3718 -0.4210  0.1705
 6904SOL    HW132345   0.110   4.228   3.891 -1.4242  0.7109 -1.0515
 6904SOL    HW232346   4.732   4.166   3.820 -0.7436 -0.3566  1.7546
 6905SOL     OW32347   4.223   2.555   5.509 -0.1267 -0.6630 -0.4718
 6905SOL    HW132348   4.309   2.594   5.494 -0.7124  0.4048 -1.0816
 6905SOL    HW232349   4.200   2.573   5.600 -0.9068 -1.8421 -0.4281
 6906SOL     OW32350   0.934   1.331   3.308 -0.4062  0.0443  0.0515
 6906SOL    HW132351   0.945   1.394   3.380  0.4118 -1.6729  1.4202
 6906SOL    HW232352   0.845   1.298   3.320  0.2249 -1.6857 -0.0176
 6907SOL     OW32353   1.346   0.776   3.415  0.1214 -0.1237 -0.0342
 6907SOL    HW132354   1.393   0.694   3.429 -0.3864 -0.3433  0.3717
 6907SOL    HW232355   1.377   0.823   3.493 -2.3797  0.8607  0.3766
 6908SOL     OW32356   0.389   0.170   6.764  0.2423  0.2038  0.1867
 6908SOL    HW132357   0.413   0.175   6.671 -1.7159 -1.2109 -0.3986
 6908SOL    HW232358   0.458   0.111   6.797 -2.0548 -1.3521  2.2506
 6909SOL     OW32359   3.193   4.300   8.841 -0.1415 -0.2328 -0.1357
 6909SOL    HW132360   3.147   4.324   8.921  0.4970  2.5513 -0.5807
 6909SOL    HW232361   3.247   4.376   8.816 -0.9329  0.7116  1.0719
 6910SOL     OW32362   0.038   0.243   7.582  0.1426  0.0915  0.2179
 6910SOL    HW132363   0.115   0.254   7.526 -0.9431  0.5168 -1.2117
 6910SOL    HW232364   4.723   0.195   7.519 -1.8642 -0.3161  2.2607
 6911SOL     OW32365   2.671   3.535  12.640  0.0127  0.4016  0.3126
 6911SOL    HW132366   2.584   3.555  12.677 -0.1534 -1.6319  1.0138
 6911SOL    HW232367   2.653   3.549  12.547  1.4469  0.5607  0.0679
 6912SOL     OW32368   3.515   4.099   6.478  0.0384  0.3876 -0.1728
 6912SOL    HW132369   3.460   4.095   6.556  0.3474  0.5390  0.0566
 6912SOL    HW232370   3.470   4.039   6.419  0.6036  1.3010 -1.5386
 6913SOL     OW32371   2.912   1.367  14.393  0.6391  0.6406  0.1237
 6913SOL    HW132372   2.846   1.310  14.353 -0.0724  2.3405 -1.1237
 6913SOL    HW232373   2.938   1.419  14.317  1.6562 -0.1592 -0.0694
 6914SOL     OW32374   4.473   3.226   6.229  0.5301  0.3092  0.8815
 6914SOL    HW132375   4.518   3.226   6.145 -0.3812 -2.0962  0.3989
 6914SOL    HW232376   4.540   3.261   6.288 -0.0890 -1.1484  2.4517
 6915SOL     OW32377   3.648   0.828  13.543  0.7149 -0.1937 -0.3858
 6915SOL    HW132378   3.592   0.838  13.621  0.8908  0.6203 -0.3610
 6915SOL    HW232379   3.590   0.790  13.478 -1.7055  0.3330  1.4400
 6916SOL     OW32380   3.210   4.376  12.892 -0.6704 -0.3043  0.0794
 6916SOL    HW132381   3.198   4.384  12.797 -2.1721 -0.0073  0.2825
 6916SOL    HW232382   3.303   4.398  12.891 -0.6785 -0.2557  1.0591
 6917SOL     OW32383   4.681   0.515   6.935 -0.5172  0.0064 -0.4446
 6917SOL    HW132384   4.720   0.568   7.005 -0.2373 -1.0600  0.1917
 6917SOL    HW232385   0.014   0.458   6.910 -1.1076 -0.7451 -0.4141
 6918SOL     OW32386   2.785   4.013   7.551  0.4859  0.1284  0.2896
 6918SOL    HW132387   2.838   4.083   7.512 -0.0582 -0.1344 -0.8949
 6918SOL    HW232388   2.846   3.982   7.618  0.7193 -1.4875 -0.6763
 6919SOL     OW32389   3.893   1.839   2.830  0.0381  0.3366  0.2760
 6919SOL    HW132390   3.906   1.843   2.924 -2.6446 -0.7480  0.7002
 6919SOL    HW232391   3.984   1.835   2.801 -0.0861  1.6729 -0.3113
 6920SOL     OW32392   2.250   2.499  13.784  0.6576  0.3986  0.6306
 6920SOL    HW132393   2.194   2.551  13.843 -0.3964 -0.2511  0.2022
 6920SOL    HW232394   2.219   2.532  13.700  1.3422  1.4760  0.7972
 6921SOL     OW32395   0.984   2.891   1.731  0.0478 -0.3344 -0.0111
 6921SOL    HW132396   1.027   2.976   1.727  0.8844 -0.7183  1.2173
 6921SOL    HW232397   0.989   2.863   1.822  0.3004 -0.7739 -0.1624
 6922SOL     OW32398   2.135   1.199   2.236  0.8071 -0.1626 -0.4991
 6922SOL    HW132399   2.060   1.246   2.272  1.8836  0.1854  1.3215
 6922SOL    HW232400   2.173   1.266   2.178  0.4727 -0.9489 -1.6135
 6923SOL     OW32401   3.711   3.864   3.620  0.0412 -0.2648 -0.0377
 6923SOL    HW132402   3.645   3.803   3.588  1.6693 -1.0833 -1.8395
 6923SOL    HW232403   3.711   3.926   3.546  0.8454  0.9727  1.0111
 6924SOL     OW32404   2.800   3.548   5.537  0.2058 -0.3195  1.2621
 6924SOL    HW132405   2.725   3.490   5.550 -0.9144  1.2328  1.6038
 6924SOL    HW232406   2.782   3.614   5.603  0.3465  1.6220 -0.6623
 6925SOL     OW32407   3.192   3.246  15.219  0.0278  0.0711  0.0447
 6925SOL    HW132408   3.176   3.341  15.214  3.5842  0.6328 -0.8597
 6925SOL    HW232409   3.203   3.246  15.314 -0.3354 -1.6170  0.0836
 6926SOL     OW32410   3.340   3.621  15.358 -0.2046 -0.2031  0.0387
 6926SOL    HW132411   3.295   3.584  15.282 -1.6731 -0.1487  0.8903
 6926SOL    HW232412   3.357   3.710  15.327 -1.8172  0.5857  1.4470
 6927SOL     OW32413   0.968   2.987   9.289  0.0130  0.6812  0.6228
 6927SOL    HW132414   0.982   3.038   9.210 -1.0275 -0.5299 -0.3566
 6927SOL    HW232415   0.874   3.000   9.300 -0.1674 -0.2635  0.2074
 6928SOL     OW32416   1.588   0.762   4.262 -0.0609 -0.8384  0.4299
 6928SOL    HW132417   1.678   0.792   4.254 -0.4189  0.7804  2.5329
 6928SOL    HW232418   1.582   0.755   4.358  0.2276  1.4136  0.5987
 6929SOL     OW32419   2.905   1.664   3.618  0.4246  0.4688  0.1671
 6929SOL    HW132420   2.884   1.754   3.643  0.1172  1.1109 -2.3399
 6929SOL    HW232421   2.819   1.629   3.597  0.5696  0.0388  0.2956
 6930SOL     OW32422   0.401   3.734   7.182  0.4567  0.0326  0.2780
 6930SOL    HW132423   0.406   3.651   7.228 -1.2715  1.5072  3.1395
 6930SOL    HW232424   0.306   3.746   7.179  0.6655  1.7274  0.3610
 6931SOL     OW32425   0.703   4.102   9.194 -0.8094  0.8422  0.2544
 6931SOL    HW132426   0.676   4.160   9.123  0.5932  0.7215 -0.3752
 6931SOL    HW232427   0.793   4.132   9.206 -0.5005 -1.1969  2.9544
 6932SOL     OW32428   0.602   3.384   6.648  1.5878  0.2896 -0.2144
 6932SOL    HW132429   0.536   3.388   6.717  0.9789 -1.2713 -0.6985
 6932SOL    HW232430   0.630   3.294   6.633 -0.8815 -0.1906 -1.9380
 6933SOL     OW32431   1.092   4.557  12.774  0.1941 -0.0752 -0.2699
 6933SOL    HW132432   1.154   4.598  12.714  2.4955  1.4993  3.1441
 6933SOL    HW232433   1.153   4.497  12.816  0.5150  0.2085 -0.3304
 6934SOL     OW32434   3.782   0.050  15.257  0.0767 -0.1452  0.4199
 6934SOL    HW132435   3.774   0.134  15.302 -1.2484  0.1741 -0.4246
 6934SOL    HW232436   3.767   0.077  15.167 -0.0206 -0.9057  0.2119
 6935SOL     OW32437   3.000   4.506   0.952  0.1778 -0.1107 -0.1276
 6935SOL    HW132438   3.024   4.487   1.043  2.0164 -0.2855 -0.6392
 6935SOL    HW232439   3.001   4.417   0.916  0.6681  0.5218 -1.6643
 6936SOL     OW32440   1.146   1.428   2.594 -0.6748 -0.0218  0.5601
 6936SOL    HW132441   1.228   1.396   2.556 -1.5560  1.2240 -2.4536
 6936SOL    HW232442   1.169   1.458   2.681  0.0511  1.0506 -0.0154
 6937SOL     OW32443   1.526   4.388  15.018 -0.0669 -0.1648  0.6863
 6937SOL    HW132444   1.471   4.465  15.005  0.2012  0.2732  2.1807
 6937SOL    HW232445   1.467   4.338  15.074  0.8947 -1.7555  0.2887
 6938SOL     OW32446   2.800   3.283  16.372  0.0357 -0.6287  0.1239
 6938SOL    HW132447   2.857   3.342  16.422 -2.3480  2.6827 -1.0946
 6938SOL    HW232448   2.839   3.196  16.379 -0.1367 -0.5757  1.9016
 6939SOL     OW32449   3.687   2.000   7.972  0.1752 -0.2379  0.2033
 6939SOL    HW132450   3.724   1.932   7.917  1.1186  0.6405 -0.2389
 6939SOL    HW232451   3.605   2.023   7.928  0.2441 -2.2467 -0.9633
 6940SOL     OW32452   3.496   3.093   5.389  0.0362  0.2527 -0.4142
 6940SOL    HW132453   3.577   3.047   5.369  0.5297  0.9146  0.0947
 6940SOL    HW232454   3.448   3.033   5.446  0.7277 -1.1970 -1.3421
 6941SOL     OW32455   2.105   1.932   9.931  0.1407 -0.1242 -0.6018
 6941SOL    HW132456   2.110   2.027   9.940  0.5480 -0.2122  0.0503
 6941SOL    HW232457   2.200   1.923   9.917  0.1497 -1.0798  0.1037
 6942SOL     OW32458   4.197   1.007  14.594 -0.6393  0.5064  0.7962
 6942SOL    HW132459   4.287   1.040  14.592 -0.6013  0.2759 -0.9475
 6942SOL    HW232460   4.203   0.935  14.658 -0.0730  1.6620  2.0357
 6943SOL     OW32461   0.221   3.841   2.156 -0.4264  0.3805 -0.6020
 6943SOL    HW132462   0.170   3.920   2.174 -0.5700 -0.0486  0.9547
 6943SOL    HW232463   0.188   3.802   2.237 -1.4054  1.8873 -0.2692
 6944SOL     OW32464   0.591   4.416   8.699  0.2419 -0.2763  0.1087
 6944SOL    HW132465   0.659   4.467   8.654 -0.0893  0.7819  0.8228
 6944SOL    HW232466   0.530   4.483   8.729  0.1904  0.0406 -0.6927
 6945SOL     OW32467   0.512   2.626  15.879 -0.3865  0.2214 -0.5244
 6945SOL    HW132468   0.601   2.634  15.844 -0.1024 -2.2688 -0.3376
 6945SOL    HW232469   0.521   2.685  15.953 -1.6496 -1.5703  1.0422
 6946SOL     OW32470   2.965   4.307   0.769 -0.0789 -0.1528 -0.0306
 6946SOL    HW132471   2.946   4.343   0.683  0.4575 -0.4126 -0.2615
 6946SOL    HW232472   2.886   4.254   0.782 -0.1193 -0.0528  0.1315
 6947SOL     OW32473   3.802   3.028   0.090 -1.3920 -0.0443  0.3431
 6947SOL    HW132474   3.836   2.938   0.089  0.6675  0.7608  0.1070
 6947SOL    HW232475   3.816   3.047   0.183  0.0731 -0.7028  0.2505
 6948SOL     OW32476   1.563   1.939   9.913  0.5602  0.2858  0.4589
 6948SOL    HW132477   1.642   1.943   9.967  0.9190  2.5146 -0.2059
 6948SOL    HW232478   1.582   1.985   9.832 -1.1439  0.8813  0.3910
 6949SOL     OW32479   2.264   3.796  17.538 -0.6844  0.5487 -0.1134
 6949SOL    HW132480   2.173   3.800  17.509 -0.1079 -1.4049 -2.1429
 6949SOL    HW232481   2.268   3.719  17.596 -0.9276  0.8984  0.3659
 6950SOL     OW32482   3.403   4.105   5.650 -0.3560 -0.2704 -0.4741
 6950SOL    HW132483   3.353   4.075   5.725 -0.9867 -0.7029 -1.0736
 6950SOL    HW232484   3.336   4.077   5.587 -1.6848  1.8515  0.0101
 6951SOL     OW32485   0.392   1.292   8.224 -0.0407  0.0928  0.1389
 6951SOL    HW132486   0.412   1.238   8.148 -1.4594  0.8960 -0.8127
 6951SOL    HW232487   0.398   1.227   8.294  0.4414  0.0340  0.0395
 6952SOL     OW32488   2.656   0.400   7.282 -0.5057 -0.2676  0.5766
 6952SOL    HW132489   2.638   0.316   7.238 -0.5596  0.4032 -0.6965
 6952SOL    HW232490   2.580   0.451   7.253 -1.2485 -2.8722 -2.0497
 6953SOL     OW32491   3.962   3.588  17.517 -0.1007 -0.1777  0.4617
 6953SOL    HW132492   3.933   3.631  17.437 -0.1359  3.7468  2.5749
 6953SOL    HW232493   4.012   3.652  17.566 -0.0903  0.6982 -0.7026
 6954SOL     OW32494   4.193   1.133   9.459 -0.1758  0.3133  0.5202
 6954SOL    HW132495   4.168   1.167   9.545  1.4127 -1.6669  1.7550
 6954SOL    HW232496   4.273   1.083   9.476 -0.2677  0.4263  1.2589
 6955SOL     OW32497   3.189   2.742  13.988 -0.2716 -0.6287  0.8025
 6955SOL    HW132498   3.246   2.694  13.927  1.2661  3.5193 -1.0372
 6955SOL    HW232499   3.127   2.785  13.929  1.1171 -1.5210 -1.2894
 6956SOL     OW32500   1.075   1.306   9.003  0.1528 -0.3408  0.3687
 6956SOL    HW132501   1.026   1.367   8.947  0.2148 -2.0626 -1.5601
 6956SOL    HW232502   1.001   1.281   9.059  1.0306 -2.0567  0.7656
 6957SOL     OW32503   3.684   4.587  14.672 -0.7398 -0.5518  0.2573
 6957SOL    HW132504   3.606   4.641  14.678 -1.5804 -1.9438  1.7679
 6957SOL    HW232505   3.653   4.508  14.716  0.6288 -0.5435  1.2234
 6958SOL     OW32506   2.553   0.453  10.839  0.1985  0.6832 -0.0304
 6958SOL    HW132507   2.558   0.530  10.782  0.6204  1.6197  1.2534
 6958SOL    HW232508   2.502   0.497  10.908  0.1509 -0.7729  0.8644
 6959SOL     OW32509   2.002   3.291   1.857  0.4234 -0.1468  0.2731
 6959SOL    HW132510   2.055   3.238   1.917  3.5141  1.6441 -0.8788
 6959SOL    HW232511   2.015   3.379   1.892  2.0401 -0.1675 -0.2823
 6960SOL     OW32512   2.565   0.314   2.766  0.6862 -1.1581  0.1542
 6960SOL    HW132513   2.643   0.259   2.767  1.2824 -0.3593 -2.0889
 6960SOL    HW232514   2.608   0.396   2.791  1.3165 -0.9576 -1.6101
 6961SOL     OW32515   3.860   0.803   2.328 -0.6610  0.5926  0.7326
 6961SOL    HW132516   3.788   0.861   2.308 -0.3398  0.8215  0.2248
 6961SOL    HW232517   3.932   0.828   2.269 -0.9980 -0.5641 -0.1663
 6962SOL     OW32518   0.521   0.166  14.340 -0.0565 -0.0636  0.1970
 6962SOL    HW132519   0.578   0.237  14.312 -0.5357  1.0269  1.9312
 6962SOL    HW232520   0.475   0.146  14.259  2.1812 -0.1318 -1.0408
 6963SOL     OW32521   2.685   1.146   7.775 -0.1907  0.3412  0.0252
 6963SOL    HW132522   2.750   1.189   7.831 -0.7964  1.1300  0.1283
 6963SOL    HW232523   2.729   1.065   7.749 -1.5946 -0.0327 -1.2036
 6964SOL     OW32524   3.275   3.634   5.423 -0.1021  0.3815  0.3301
 6964SOL    HW132525   3.365   3.668   5.427 -0.6634  2.1196 -2.0576
 6964SOL    HW232526   3.232   3.715   5.451 -1.4471 -0.5253  0.8489
 6965SOL     OW32527   3.474   2.978   8.446 -0.4222 -0.1308  0.2374
 6965SOL    HW132528   3.419   3.056   8.452  0.6246  0.7934 -2.1660
 6965SOL    HW232529   3.418   2.904   8.421 -1.2378  0.8616 -0.8880
 6966SOL     OW32530   4.539   1.042  14.876 -0.0946 -0.0504  0.0015
 6966SOL    HW132531   4.595   0.964  14.872  0.0543  0.1233 -1.5521
 6966SOL    HW232532   4.569   1.088  14.954  1.1205  0.3273 -0.6912
 6967SOL     OW32533   4.243   4.357   7.489 -0.6080 -0.0917  0.1661
 6967SOL    HW132534   4.318   4.394   7.536 -1.1173  1.9758 -0.6479
 6967SOL    HW232535   4.183   4.350   7.564  1.4440 -0.7217  1.7535
 6968SOL     OW32536   1.485   2.788   1.460 -0.7840 -0.1279  0.0113
 6968SOL    HW132537   1.543   2.738   1.517  1.6041  1.7831 -0.7634
 6968SOL    HW232538   1.538   2.790   1.381 -1.6299  1.6686 -0.5209
 6969SOL     OW32539   3.007   1.654  13.070 -0.3758  0.1008 -0.4063
 6969SOL    HW132540   2.970   1.728  13.022 -3.4810 -0.8575  0.5659
 6969SOL    HW232541   3.101   1.670  13.061 -0.2498 -1.7940 -2.5608
 6970SOL     OW32542   1.342   1.921   7.882  0.1371 -0.0308  0.4344
 6970SOL    HW132543   1.300   1.856   7.827 -0.0261  0.3526  0.1087
 6970SOL    HW232544   1.272   1.936   7.946 -0.6259 -1.4237 -0.0820
 6971SOL     OW32545   3.760   0.783  15.631 -0.2431  0.2806  0.2077
 6971SOL    HW132546   3.835   0.769  15.690  0.0850  2.3512  0.3034
 6971SOL    HW232547   3.731   0.869  15.662 -1.3398  0.1327 -0.4349
 6972SOL     OW32548   1.144   3.325   8.884 -0.3764 -0.7385  0.3478
 6972SOL    HW132549   1.114   3.307   8.795 -0.7778 -2.8909  0.9232
 6972SOL    HW232550   1.176   3.414   8.867 -0.5101 -0.6691  0.4563
 6973SOL     OW32551   1.169   3.343   4.908  0.1424  0.6971 -0.6376
 6973SOL    HW132552   1.087   3.295   4.923 -0.6615  1.2571 -3.1219
 6973SOL    HW232553   1.227   3.279   4.949 -0.1948 -1.6759 -3.8260
 6974SOL     OW32554   1.724   1.860   2.723 -0.0801  0.4593  0.2954
 6974SOL    HW132555   1.718   1.953   2.704 -0.4443 -0.2698 -3.1622
 6974SOL    HW232556   1.812   1.839   2.692  0.0646  0.2180  0.8585
 6975SOL     OW32557   0.386   4.520   6.811  0.1310  0.4778 -0.9846
 6975SOL    HW132558   0.395   4.520   6.715  0.0476 -0.4904 -0.9911
 6975SOL    HW232559   0.322   4.591   6.822 -2.1055 -1.6209 -0.3622
 6976SOL     OW32560   3.548   2.535  16.030 -0.6443  0.2184 -0.2816
 6976SOL    HW132561   3.561   2.440  16.030 -0.5683  0.2280  0.6117
 6976SOL    HW232562   3.514   2.548  16.119  1.1846  2.0770  0.1444
 6977SOL     OW32563   2.105   3.641   7.155 -0.4929 -0.0110  0.1678
 6977SOL    HW132564   2.058   3.558   7.160 -0.8911  0.2580  0.8594
 6977SOL    HW232565   2.188   3.612   7.194 -1.9096 -0.7652  2.5812
 6978SOL     OW32566   1.733   0.216   4.314  0.1183 -0.3033 -0.3226
 6978SOL    HW132567   1.802   0.224   4.380 -0.4635 -1.0285  0.3733
 6978SOL    HW232568   1.773   0.244   4.232  1.5826  0.2049  0.5737
 6979SOL     OW32569   1.146   4.188   8.342  0.3032 -0.2439  0.4122
 6979SOL    HW132570   1.176   4.099   8.325  1.9122  0.8252 -2.2468
 6979SOL    HW232571   1.073   4.180   8.404  0.7985  1.2471  1.1836
 6980SOL     OW32572   3.555   2.290  12.035 -0.3260  0.1058 -0.1052
 6980SOL    HW132573   3.617   2.353  11.999 -0.4803  0.7302  0.7254
 6980SOL    HW232574   3.498   2.343  12.091 -1.7298 -0.1626 -1.2933
 6981SOL     OW32575   1.291   2.260   7.914  0.3223  0.3556  0.1212
 6981SOL    HW132576   1.230   2.210   7.969  0.9656 -0.7589 -0.1807
 6981SOL    HW232577   1.370   2.268   7.967  2.0483 -2.6017 -1.9808
 6982SOL     OW32578   0.455   1.146   8.003  0.7468 -0.1932  0.2827
 6982SOL    HW132579   0.540   1.120   7.966  0.1880 -0.1309 -1.0637
 6982SOL    HW232580   0.426   1.203   7.931  0.0162 -0.2435  0.5369
 6983SOL     OW32581   1.344   0.350  11.753 -0.2229  0.3045 -0.4598
 6983SOL    HW132582   1.308   0.325  11.668 -0.0141  0.6606 -0.6539
 6983SOL    HW232583   1.415   0.408  11.727  1.1407 -1.7554 -1.3972
 6984SOL     OW32584   0.531   0.506  14.127  0.6859  0.2376  0.1479
 6984SOL    HW132585   0.586   0.449  14.181  1.6746  2.9388  2.0068
 6984SOL    HW232586   0.563   0.594  14.144  0.1761  0.0508  2.1809
 6985SOL     OW32587   4.559   2.522  15.021 -0.3245 -0.7602  0.3531
 6985SOL    HW132588   4.556   2.470  14.940 -0.1225 -0.9634  0.4774
 6985SOL    HW232589   4.607   2.466  15.082 -0.4315 -2.5208 -1.1768
 6986SOL     OW32590   3.520   4.575  13.981  0.4662 -0.6132 -0.4239
 6986SOL    HW132591   3.575   4.500  14.001  1.0011 -0.7920 -2.5660
 6986SOL    HW232592   3.496   4.556  13.890  0.9414 -0.8965 -0.4921
 6987SOL     OW32593   2.464   0.586   2.966  0.1552 -0.7273 -0.0892
 6987SOL    HW132594   2.491   0.495   2.956  0.0570 -1.0407  2.3334
 6987SOL    HW232595   2.380   0.582   3.012  0.1363  0.3612 -0.0191
 6988SOL     OW32596   3.636   1.796   3.996 -0.8881  0.8871  0.4868
 6988SOL    HW132597   3.616   1.704   3.984 -0.4629  0.8710 -0.0768
 6988SOL    HW232598   3.640   1.827   3.905  0.9694 -2.2212 -0.4715
 6989SOL     OW32599   2.976   0.396   2.934  0.3562 -0.3786  0.1616
 6989SOL    HW132600   2.962   0.430   3.022  0.0328 -0.0987  0.0036
 6989SOL    HW232601   2.988   0.301   2.946  0.5356 -0.4335 -0.4523
 6990SOL     OW32602   4.343   4.673   1.233  0.9089 -0.2020  0.7134
 6990SOL    HW132603   4.410   4.706   1.293  1.9186 -2.2653  0.6968
 6990SOL    HW232604   4.312   4.588   1.264  1.6891 -1.7075 -2.5856
 6991SOL     OW32605   2.225   3.358   6.750 -0.0827  0.5094  0.3662
 6991SOL    HW132606   2.183   3.308   6.820  0.8523  2.7883  2.5527
 6991SOL    HW232607   2.163   3.340   6.680 -0.6021 -1.8663  1.4545
 6992SOL     OW32608   3.928   0.146  17.057 -0.2129 -0.4326 -0.1310
 6992SOL    HW132609   3.876   0.115  17.131  1.8122  0.1840  1.5198
 6992SOL    HW232610   3.913   0.240  17.063  0.3164 -0.5369  2.5338
 6993SOL     OW32611   2.717   2.677   7.266 -0.1210 -0.5110 -0.2669
 6993SOL    HW132612   2.715   2.601   7.208  1.0273 -1.6583  1.2080
 6993SOL    HW232613   2.806   2.709   7.247 -0.5118  0.1558 -1.0131
 6994SOL     OW32614   2.921   0.542   0.488  0.0361  0.4268 -0.1881
 6994SOL    HW132615   2.920   0.456   0.445 -0.8283 -1.5346  3.7217
 6994SOL    HW232616   2.833   0.552   0.526 -1.1717  1.2803 -3.1896
 6995SOL     OW32617   0.434   3.540   7.475 -0.1509  0.2928  0.4437
 6995SOL    HW132618   0.437   3.469   7.411 -2.5532  2.3366 -1.9649
 6995SOL    HW232619   0.354   3.590   7.455 -1.6748 -2.1663  0.4186
 6996SOL     OW32620   3.024   1.223  17.023 -0.8131 -0.4039 -0.6577
 6996SOL    HW132621   3.113   1.255  17.038 -1.1026 -0.4285  1.1800
 6996SOL    HW232622   3.021   1.130  17.048  1.4097 -0.5230 -0.8680
 6997SOL     OW32623   2.660   3.381   3.305  0.5031 -0.4118  0.5115
 6997SOL    HW132624   2.706   3.410   3.384 -0.7988  1.8717  0.4288
 6997SOL    HW232625   2.647   3.291   3.336  0.7034 -1.1875 -1.6208
 6998SOL     OW32626   3.365   1.380   8.368 -0.2979 -0.4379 -0.2302
 6998SOL    HW132627   3.303   1.453   8.379 -0.2698 -0.1502 -1.9164
 6998SOL    HW232628   3.454   1.414   8.373  0.1109 -1.5509 -0.0957
 6999SOL     OW32629   0.739   3.064   5.701 -0.5677 -1.3445 -0.3726
 6999SOL    HW132630   0.771   3.059   5.791 -0.5099 -2.2622 -0.4414
 6999SOL    HW232631   0.732   2.971   5.680 -0.6491 -1.3274 -0.4218
 7000SOL     OW32632   0.453   2.112   2.776  0.2601  0.2144  0.0340
 7000SOL    HW132633   0.476   2.133   2.686  2.1938  3.2603  1.2547
 7000SOL    HW232634   0.383   2.048   2.758 -2.1762  2.9504 -0.2745
 7001SOL     OW32635   3.458   0.697   4.070  0.0690 -0.0380 -0.5934
 7001SOL    HW132636   3.441   0.785   4.036  2.6852 -0.3319 -2.6608
 7001SOL    HW232637   3.531   0.725   4.126  2.3846 -1.0769 -3.1326
 7002SOL     OW32638   0.006   2.760   1.333  0.1251  0.1912  0.3134
 7002SOL    HW132639   4.729   2.677   1.288  1.0844 -0.3368  0.9335
 7002SOL    HW232640   4.683   2.750   1.405  0.3364 -3.6012 -0.0419
 7003SOL     OW32641   3.093   1.405  11.624  0.5464 -0.4215 -0.0139
 7003SOL    HW132642   3.122   1.324  11.584  1.7291  0.3841 -0.7885
 7003SOL    HW232643   3.106   1.464  11.549 -1.3952 -0.0833 -0.0863
 7004SOL     OW32644   0.605   0.159   8.930 -0.1669  0.2136  0.2712
 7004SOL    HW132645   0.605   0.084   8.989  0.9537 -0.3847 -0.4946
 7004SOL    HW232646   0.516   0.153   8.895 -0.4626  0.5363  0.9744
 7005SOL     OW32647   2.981   3.194  14.867  0.4852  0.2036  0.1117
 7005SOL    HW132648   2.950   3.183  14.957 -0.3737 -2.7120 -0.5633
 7005SOL    HW232649   2.925   3.264  14.833  0.4183  0.1752  0.1612
 7006SOL     OW32650   3.172   0.698   4.079  0.1604  0.0878  0.4353
 7006SOL    HW132651   3.157   0.627   4.141 -0.9903  1.9398  2.2684
 7006SOL    HW232652   3.254   0.664   4.042  0.2194  1.1488 -0.4085
 7007SOL     OW32653   3.212   4.137  15.921  0.7419  0.1705  0.0458
 7007SOL    HW132654   3.279   4.091  15.872  1.6260  0.8397  0.6350
 7007SOL    HW232655   3.236   4.089  16.001 -2.7470 -1.1912  0.2823
 7008SOL     OW32656   1.927   3.631   7.807 -0.4312  0.7858 -0.2444
 7008SOL    HW132657   1.926   3.727   7.800  1.0762  0.9672  1.8346
 7008SOL    HW232658   1.964   3.598   7.725  1.5113  1.5663  0.3010
 7009SOL     OW32659   1.267   2.417   8.204  0.0676 -0.2738  0.1581
 7009SOL    HW132660   1.313   2.425   8.120  0.9637 -2.1655  0.4625
 7009SOL    HW232661   1.329   2.373   8.262  0.5852 -1.7704 -1.5244
 7010SOL     OW32662   1.345   1.883   2.450 -0.2045  0.3510 -0.6867
 7010SOL    HW132663   1.291   1.880   2.529 -1.7816 -1.7096 -1.8159
 7010SOL    HW232664   1.409   1.814   2.462 -0.4311  0.5057  1.3227
 7011SOL     OW32665   0.460   2.726   3.241 -0.2992 -0.4163  0.7565
 7011SOL    HW132666   0.425   2.643   3.271  0.2920 -0.9056  0.0755
 7011SOL    HW232667   0.408   2.738   3.162  0.0985 -2.9006  0.1454
 7012SOL     OW32668   1.629   2.540   8.312  0.0004  0.6479  0.1438
 7012SOL    HW132669   1.662   2.465   8.264  2.9824  2.5870 -0.8356
 7012SOL    HW232670   1.651   2.523   8.403 -0.5316  0.7424  0.2951
 7013SOL     OW32671   0.413   3.558   5.574 -0.1507 -0.0445  0.5408
 7013SOL    HW132672   0.507   3.554   5.593 -0.2203 -0.3102  0.8362
 7013SOL    HW232673   0.398   3.486   5.513 -1.2043  0.2772  0.4210
 7014SOL     OW32674   0.993   3.479   9.979  0.0107  0.4419 -0.2615
 7014SOL    HW132675   0.994   3.568  10.014  1.7994  0.0930  0.5738
 7014SOL    HW232676   1.048   3.477   9.900  0.8860  2.0646  0.2992
 7015SOL     OW32677   3.183   3.589   4.404  0.2510  0.4148 -0.1039
 7015SOL    HW132678   3.122   3.524   4.368  0.9608  0.2306 -0.9803
 7015SOL    HW232679   3.227   3.545   4.477 -1.0899 -1.2540 -0.3013
 7016SOL     OW32680   3.912   1.877   6.298 -0.3007  0.6667  0.2286
 7016SOL    HW132681   3.970   1.886   6.222 -2.1293  0.5003 -1.1782
 7016SOL    HW232682   3.865   1.798   6.271  4.4724 -1.5010 -1.7107
 7017SOL     OW32683   3.280   0.326   7.491 -0.7186 -0.1648  0.0747
 7017SOL    HW132684   3.219   0.375   7.547  1.1321 -0.9810  2.8163
 7017SOL    HW232685   3.318   0.398   7.441  1.6721 -0.6992  1.1194
 7018SOL     OW32686   0.537   0.890   9.111 -0.1694  0.5417  0.0917
 7018SOL    HW132687   0.441   0.884   9.106 -0.0021 -5.0981  3.0304
 7018SOL    HW232688   0.559   0.809   9.064 -0.4263  1.2471 -1.2416
 7019SOL     OW32689   1.062   4.105  14.227 -0.5462  0.0303  0.3976
 7019SOL    HW132690   1.086   4.049  14.153  3.4625  1.8643  0.2598
 7019SOL    HW232691   1.145   4.145  14.254 -0.5971  1.5875 -1.6715
 7020SOL     OW32692   4.229   2.961   1.296  0.4072 -0.1345  0.1910
 7020SOL    HW132693   4.233   3.013   1.377  2.6341 -0.0566  0.0491
 7020SOL    HW232694   4.289   2.887   1.309  1.5283  0.8326  0.5490
 7021SOL     OW32695   0.234   3.320   8.155 -0.2488  0.1884  0.0807
 7021SOL    HW132696   0.327   3.306   8.170 -0.2714  2.4807  2.2078
 7021SOL    HW232697   0.212   3.245   8.099 -0.3435  0.2071  0.0915
 7022SOL     OW32698   3.542   4.611   6.389  0.2896 -0.0213  0.1636
 7022SOL    HW132699   3.550   4.562   6.471 -0.2828 -1.7620 -0.8267
 7022SOL    HW232700   3.624   4.661   6.397  0.5761 -0.4189 -0.3336
 7023SOL     OW32701   2.191   0.705  10.225 -0.3148 -0.5136 -0.5184
 7023SOL    HW132702   2.281   0.691  10.256 -0.6114  0.9221  1.0397
 7023SOL    HW232703   2.171   0.783  10.277 -0.9824 -1.4150  0.5798
 7024SOL     OW32704   2.989   3.661   6.964 -0.1467  0.0190 -0.2842
 7024SOL    HW132705   2.979   3.643   6.871 -1.3297  0.8719 -0.3240
 7024SOL    HW232706   3.074   3.704   6.966  0.0667 -0.3685 -1.0442
 7025SOL     OW32707   1.264   3.056   0.348 -0.0149  0.0796  0.0316
 7025SOL    HW132708   1.249   3.015   0.433 -1.2987  0.5865  0.0539
 7025SOL    HW232709   1.311   2.984   0.308 -0.0657  0.2212 -0.2872
 7026SOL     OW32710   0.101   0.616  14.739 -0.8436  0.3911  0.0427
 7026SOL    HW132711   0.178   0.560  14.730 -0.9688  0.2754 -0.3061
 7026SOL    HW232712   0.137   0.678  14.676 -1.5422  0.8231  0.0608
 7027SOL     OW32713   3.385   2.748   0.980  0.4117 -0.3564 -0.3058
 7027SOL    HW132714   3.338   2.827   1.004 -0.2555 -0.6229 -0.7152
 7027SOL    HW232715   3.373   2.704   1.064 -0.2490  1.1990  0.4015
 7028SOL     OW32716   1.856   1.027   5.467 -0.3104  0.3688  0.4977
 7028SOL    HW132717   1.766   1.032   5.436 -0.6970  0.9998  1.7380
 7028SOL    HW232718   1.873   0.933   5.456  0.4697  0.5914 -0.2222
 7029SOL     OW32719   3.809   1.252   8.032  0.7273 -0.0130 -0.3247
 7029SOL    HW132720   3.830   1.327   7.977 -0.0264  0.4700  0.0406
 7029SOL    HW232721   3.897   1.228   8.060  0.6990  2.0430  1.5363
 7030SOL     OW32722   0.709   4.011   4.929  0.1048 -0.0868  0.3792
 7030SOL    HW132723   0.718   4.106   4.926 -2.2442  0.1536  0.7500
 7030SOL    HW232724   0.796   3.979   4.908  1.2155  2.0434  1.7562
 7031SOL     OW32725   1.467   2.761   7.852 -0.6192 -0.5481  0.3029
 7031SOL    HW132726   1.552   2.784   7.815 -0.7634 -1.0374 -0.3243
 7031SOL    HW232727   1.464   2.666   7.848  0.6657 -0.4595 -2.1064
 7032SOL     OW32728   3.816   1.013   4.477  0.2698  0.1351  0.2635
 7032SOL    HW132729   3.753   0.986   4.544 -0.2229 -2.0195 -1.0991
 7032SOL    HW232730   3.758   1.068   4.424 -1.4749 -2.9098 -0.9909
 7033SOL     OW32731   1.515   0.705   9.393 -0.4020  0.2571  0.1714
 7033SOL    HW132732   1.501   0.799   9.378 -1.6828  0.2685  1.3730
 7033SOL    HW232733   1.440   0.656   9.360 -0.7843  1.3604 -0.6148
 7034SOL     OW32734   4.518   1.564   4.638 -0.0559 -0.1821 -0.6916
 7034SOL    HW132735   4.507   1.604   4.551  1.4645 -0.3803 -0.9680
 7034SOL    HW232736   4.606   1.528   4.641 -0.4825 -0.7852  4.4127
 7035SOL     OW32737   0.220   4.712   1.039 -0.2190 -0.1973  1.0383
 7035SOL    HW132738   0.312   4.695   1.021  0.0700  1.4042  0.9773
 7035SOL    HW232739   0.211   0.061   1.001 -0.5608 -0.1429  1.2409
 7036SOL     OW32740   2.100   3.242  12.674  0.7586  0.1851 -0.0407
 7036SOL    HW132741   2.153   3.320  12.691 -0.8434  1.2614 -0.0035
 7036SOL    HW232742   2.134   3.220  12.587 -0.6297  1.9485 -1.0208
 7037SOL     OW32743   4.305   2.251   2.863 -0.3560 -0.2147  0.1315
 7037SOL    HW132744   4.340   2.327   2.910 -0.6471 -0.8173  1.3386
 7037SOL    HW232745   4.331   2.185   2.927  3.0347  1.3087  0.3216
 7038SOL     OW32746   3.357   4.375   5.756 -0.1134 -0.3657  0.3808
 7038SOL    HW132747   3.317   4.289   5.769 -1.3264  0.1574  0.1371
 7038SOL    HW232748   3.445   4.349   5.729  0.5509 -0.0877  2.3115
 7039SOL     OW32749   0.177   1.165   1.263  0.1349  0.0999 -0.1871
 7039SOL    HW132750   0.173   1.099   1.194  0.2864  0.6969 -0.7628
 7039SOL    HW232751   0.272   1.169   1.275 -0.0142  2.1428  0.3960
 7040SOL     OW32752   1.821   4.177  16.888 -0.3476  0.6900  0.2509
 7040SOL    HW132753   1.770   4.097  16.903  0.1863  0.8400  2.8827
 7040SOL    HW232754   1.847   4.174  16.796 -0.6621  1.2379  0.1393
 7041SOL     OW32755   3.211   4.446   1.728  0.2043  0.6676 -0.1522
 7041SOL    HW132756   3.154   4.370   1.716 -0.0700  0.8239  0.1353
 7041SOL    HW232757   3.243   4.418   1.814  0.9829  0.0743 -0.6410
 7042SOL     OW32758   0.482   1.324   6.201  0.7957  0.2244 -0.1012
 7042SOL    HW132759   0.456   1.352   6.288 -1.0026  3.2872 -1.6153
 7042SOL    HW232760   0.401   1.327   6.149  0.2188 -0.8803  0.7436
 7043SOL     OW32761   4.504   1.586   8.559  0.1898  0.0714  0.0784
 7043SOL    HW132762   4.479   1.529   8.632  2.4671 -2.0279 -0.7886
 7043SOL    HW232763   4.555   1.531   8.499  1.7676  1.6387 -0.0078
 7044SOL     OW32764   4.736   3.426   4.847 -0.7455  0.2902 -0.2256
 7044SOL    HW132765   4.730   3.410   4.941  0.0602 -0.4362 -0.2918
 7044SOL    HW232766   0.092   3.430   4.834 -0.7712  2.3465  0.3196
 7045SOL     OW32767   3.043   2.509   8.905  0.6011 -0.0260  0.0429
 7045SOL    HW132768   2.975   2.576   8.910 -0.5750 -1.3115  1.2366
 7045SOL    HW232769   3.109   2.572   8.934 -1.4777  1.8791  0.6981
 7046SOL     OW32770   2.192   2.938  12.073 -0.1110 -0.1127 -0.3321
 7046SOL    HW132771   2.233   2.928  12.158 -1.0123 -2.5504 -0.1796
 7046SOL    HW232772   2.271   2.928  12.020  0.5410 -0.4377  0.7201
 7047SOL     OW32773   1.825   1.546   8.581 -0.1524 -0.7801 -0.0142
 7047SOL    HW132774   1.755   1.573   8.522  0.8411 -0.0907 -0.8631
 7047SOL    HW232775   1.895   1.603   8.549  0.4829 -0.1275  2.5701
 7048SOL     OW32776   1.649   3.724   6.627 -0.3279  0.2813 -0.6508
 7048SOL    HW132777   1.570   3.684   6.662 -0.2950  0.1324 -0.7486
 7048SOL    HW232778   1.710   3.651   6.640  0.4942  0.9102 -1.0028
 7049SOL     OW32779   2.862   4.588   1.865  0.1700 -0.0930  0.2178
 7049SOL    HW132780   2.894   4.587   1.955 -0.4108 -0.5103  0.4173
 7049SOL    HW232781   2.776   4.629   1.878  0.7780  1.4008 -0.4514
 7050SOL     OW32782   0.108   0.047  17.334  0.3920  0.1786  0.1188
 7050SOL    HW132783   0.109   0.053  17.238  1.7524 -0.6034  0.0917
 7050SOL    HW232784   0.051   0.120  17.360  0.1304 -0.2693  0.8093
 7051SOL     OW32785   4.067   2.420   3.104  0.4739  0.2154  0.2270
 7051SOL    HW132786   4.040   2.329   3.092 -0.4933  0.8359 -2.3063
 7051SOL    HW232787   4.097   2.413   3.195 -1.4873  1.4193  0.9645
 7052SOL     OW32788   0.700   4.649   3.816 -0.0960  0.0475 -0.2326
 7052SOL    HW132789   0.779   4.596   3.817 -0.0414  0.1364  0.3217
 7052SOL    HW232790   0.625   4.591   3.833 -0.7718  0.0303 -3.2521
 7053SOL     OW32791   3.727   0.200   7.475  0.0277  0.2538 -0.3038
 7053SOL    HW132792   3.729   0.295   7.470 -0.6634  0.4320  2.8268
 7053SOL    HW232793   3.636   0.198   7.503 -0.5904 -0.9022 -2.4107
 7054SOL     OW32794   3.819   2.047   1.487  0.0913 -0.2324 -0.2191
 7054SOL    HW132795   3.809   2.107   1.413  2.9548 -0.2587 -0.6180
 7054SOL    HW232796   3.809   1.961   1.446 -0.0165 -0.9904  1.3989
 7055SOL     OW32797   0.967   3.278   2.881  0.3275  0.6085 -0.1889
 7055SOL    HW132798   0.944   3.365   2.913  0.1661  0.5983 -0.2777
 7055SOL    HW232799   1.024   3.250   2.952  0.1361  3.8693  1.2696
 7056SOL     OW32800   0.986   1.852   3.416 -0.0186 -0.3460 -0.0475
 7056SOL    HW132801   1.026   1.811   3.493 -1.0158 -0.9436  0.1586
 7056SOL    HW232802   0.898   1.872   3.449  1.2614 -1.8584  4.2118
 7057SOL     OW32803   4.223   2.905   8.981  0.3158 -0.0334  0.4698
 7057SOL    HW132804   4.240   2.828   8.927 -3.9007 -2.1593  2.1699
 7057SOL    HW232805   4.189   2.858   9.058  0.1430 -0.2989  0.2298
 7058SOL     OW32806   4.597   1.378   3.007 -0.0301  0.3620 -1.3508
 7058SOL    HW132807   4.526   1.337   3.056  0.8729 -1.1259 -1.2868
 7058SOL    HW232808   4.587   1.472   3.019  1.8674  0.5489 -1.2107
 7059SOL     OW32809   0.313   0.226   9.113 -0.0648  0.6225  0.0633
 7059SOL    HW132810   0.406   0.243   9.127 -0.0427  1.2092 -0.8628
 7059SOL    HW232811   0.300   0.256   9.023 -0.5567  0.9991  0.2599
 7060SOL     OW32812   3.116   0.213   0.775 -0.2280  0.0311  0.0063
 7060SOL    HW132813   3.103   0.223   0.869  1.9349 -0.6321  0.3675
 7060SOL    HW232814   3.099   0.122   0.753  0.6475  0.4778 -2.5034
 7061SOL     OW32815   3.133   0.418   7.063  0.2930  0.1749 -0.2721
 7061SOL    HW132816   3.130   0.431   6.968 -1.3706  0.2584 -0.2007
 7061SOL    HW232817   3.165   0.505   7.090 -1.0858  1.4836 -2.9117
 7062SOL     OW32818   2.445   0.138   2.942  0.2848  0.1512 -0.1679
 7062SOL    HW132819   2.494   0.180   2.871 -0.8230 -0.1923 -1.1327
 7062SOL    HW232820   2.395   0.079   2.886 -1.7214  1.2950  0.4132
 7063SOL     OW32821   4.637   2.575   6.134  0.0383  0.2145 -0.5976
 7063SOL    HW132822   4.575   2.503   6.119  1.9625 -1.5990  0.1048
 7063SOL    HW232823   4.592   2.629   6.199  1.4560  2.1700 -1.2383
 7064SOL     OW32824   1.980   1.317   7.663 -0.1681 -0.1105  0.1683
 7064SOL    HW132825   2.031   1.336   7.742 -1.7055  1.1972  0.8486
 7064SOL    HW232826   1.985   1.222   7.653  1.0232  0.2642 -2.8587
 7065SOL     OW32827   0.095   1.465   2.320  0.0731 -0.3473  0.0631
 7065SOL    HW132828   0.062   1.554   2.338 -0.9796 -1.2093  2.4263
 7065SOL    HW232829   0.049   1.415   2.388  0.7339 -1.3418 -0.2258
 7066SOL     OW32830   4.308   1.233   8.369 -0.1547  0.0164 -0.4547
 7066SOL    HW132831   4.366   1.222   8.444  0.5238  3.0403 -0.5513
 7066SOL    HW232832   4.365   1.286   8.314 -0.4145  1.4027  0.6220
 7067SOL     OW32833   0.483   2.789   5.493 -0.2070  0.3256 -0.4617
 7067SOL    HW132834   0.480   2.752   5.405  2.8108 -0.1344 -0.3661
 7067SOL    HW232835   0.394   2.823   5.503 -0.3755  0.4498 -2.2781
 7068SOL     OW32836   3.102   1.994  12.605  0.3726 -0.8792 -0.3224
 7068SOL    HW132837   3.034   2.060  12.593  1.7311  1.0574  2.5700
 7068SOL    HW232838   3.083   1.961  12.692 -3.0146  0.0713 -0.7299
 7069SOL     OW32839   4.496   4.626   9.110  0.6077 -0.3501  0.3450
 7069SOL    HW132840   4.513   4.651   9.201 -0.9351 -0.9151  0.7883
 7069SOL    HW232841   4.583   4.605   9.077  1.6410  0.1935  2.6581
 7070SOL     OW32842   2.654   0.690  14.573 -0.1044  0.1819  0.0689
 7070SOL    HW132843   2.724   0.649  14.624  0.3573  0.6979 -0.1476
 7070SOL    HW232844   2.585   0.670  14.636  0.2307 -1.1599  0.0159
 7071SOL     OW32845   1.870   0.750  10.918  0.0016 -0.4001  0.2058
 7071SOL    HW132846   1.966   0.749  10.916 -0.0157  3.8691 -2.9207
 7071SOL    HW232847   1.854   0.735  11.011 -2.8292  0.0602 -0.2053
 7072SOL     OW32848   2.875   3.884   0.876  0.2146  0.0255 -0.4426
 7072SOL    HW132849   2.915   3.798   0.881  1.4653  0.5638 -1.0625
 7072SOL    HW232850   2.897   3.910   0.787 -0.8451  1.6986 -0.2227
 7073SOL     OW32851   3.389   0.984   6.589 -0.8560  0.3460 -0.5702
 7073SOL    HW132852   3.394   1.074   6.558 -2.8329  0.9581  0.8601
 7073SOL    HW232853   3.454   0.946   6.530 -0.2291 -1.4513  1.2638
 7074SOL     OW32854   3.204   1.495   2.077 -0.1535  0.1745  0.3002
 7074SOL    HW132855   3.224   1.458   1.991  0.6176  1.0644  0.0835
 7074SOL    HW232856   3.151   1.570   2.050 -2.1235 -1.5918 -0.7235
 7075SOL     OW32857   2.313   0.166   1.739 -0.5918 -0.1789 -0.1215
 7075SOL    HW132858   2.400   0.189   1.772 -0.7481 -2.2727  1.6895
 7075SOL    HW232859   2.255   0.156   1.815 -1.1490 -1.6866 -0.7636
 7076SOL     OW32860   0.325   0.897   8.389  0.0117  0.1724  0.2858
 7076SOL    HW132861   0.271   0.968   8.423 -1.9568 -2.0975  1.9117
 7076SOL    HW232862   0.410   0.915   8.431 -0.3341 -1.9345  1.8909
 7077SOL     OW32863   1.657   4.439  13.408  0.4289  0.2330 -0.2072
 7077SOL    HW132864   1.672   4.453  13.314 -0.1184 -0.5634 -0.4190
 7077SOL    HW232865   1.620   4.526  13.423 -1.3669 -0.4413 -0.6867
 7078SOL     OW32866   1.062   4.447   6.263 -0.4058  0.4832  0.5488
 7078SOL    HW132867   1.116   4.429   6.186  0.5312  1.8780  0.8751
 7078SOL    HW232868   0.990   4.383   6.263  1.3612 -1.5324  1.6254
 7079SOL     OW32869   1.515   0.901   4.972  0.4610 -0.6089  0.1302
 7079SOL    HW132870   1.593   0.896   5.026 -2.1205 -0.4836  3.8678
 7079SOL    HW232871   1.522   0.990   4.935  2.3271 -0.6142  0.5036
 7080SOL     OW32872   4.097   4.283   5.225 -0.2312  0.0522  0.3609
 7080SOL    HW132873   4.064   4.275   5.135 -0.6876 -1.2104  0.6390
 7080SOL    HW232874   4.187   4.302   5.199  0.0507 -0.1216  1.2304
 7081SOL     OW32875   2.190   4.493   4.000 -0.2002 -0.3039 -0.8990
 7081SOL    HW132876   2.272   4.449   3.975 -0.3529 -0.5393 -0.9842
 7081SOL    HW232877   2.215   4.503   4.092  0.8171  0.5345 -1.2667
 7082SOL     OW32878   0.330   3.098   8.997  0.7644 -0.3840 -0.4510
 7082SOL    HW132879   0.408   3.071   8.948  1.3840 -2.4775  1.6894
 7082SOL    HW232880   0.263   3.041   8.959  2.4099 -1.3337 -1.9614
 7083SOL     OW32881   1.540   4.541   5.362 -1.1389  0.0435 -0.1826
 7083SOL    HW132882   1.561   4.448   5.378 -1.1952 -0.2345 -1.7598
 7083SOL    HW232883   1.536   4.590   5.444  0.3567  0.2088 -0.1975
 7084SOL     OW32884   4.667   1.575   5.455  0.1389 -0.2370  0.8001
 7084SOL    HW132885   4.604   1.503   5.447  0.4465 -0.3845 -0.4362
 7084SOL    HW232886   4.624   1.646   5.502 -1.1355 -0.2331 -0.3616
 7085SOL     OW32887   4.351   2.808   7.101 -0.1325  0.2469  0.0432
 7085SOL    HW132888   4.415   2.802   7.172 -0.5468  1.2298  0.5152
 7085SOL    HW232889   4.400   2.762   7.033  1.9019 -1.6145  2.7860
 7086SOL     OW32890   2.677   1.473   2.814  0.5992  0.4406 -0.2565
 7086SOL    HW132891   2.663   1.551   2.867 -0.4043  0.2756 -0.2762
 7086SOL    HW232892   2.700   1.416   2.887 -0.2894 -0.4684 -0.6825
 7087SOL     OW32893   1.349   4.242   9.089 -0.0852  0.2314  0.2525
 7087SOL    HW132894   1.423   4.192   9.124 -1.7287 -2.2826  0.0806
 7087SOL    HW232895   1.346   4.309   9.158  0.2530 -0.5585  1.0305
 7088SOL     OW32896   2.516   4.675   1.501  0.7913  0.0708  0.1855
 7088SOL    HW132897   2.575   4.726   1.446 -0.5492  0.9186 -0.4944
 7088SOL    HW232898   2.437   4.689   1.448  0.2165 -2.1985  0.4650
 7089SOL     OW32899   2.092   0.711  17.036  0.3240 -0.0178 -0.0665
 7089SOL    HW132900   2.033   0.655  16.986  0.6094 -0.8181  0.4936
 7089SOL    HW232901   2.139   0.762  16.969 -1.2205  1.2339 -0.2119
 7090SOL     OW32902   3.908   1.654   9.332 -0.1653  0.1766 -0.0873
 7090SOL    HW132903   3.839   1.591   9.314  0.6731 -0.2153 -1.9820
 7090SOL    HW232904   3.988   1.618   9.292 -0.8062 -1.1501 -0.1814
 7091SOL     OW32905   4.233   0.755   7.045  0.2640  0.2447  0.1489
 7091SOL    HW132906   4.305   0.716   6.994 -0.0753  0.2029 -0.2996
 7091SOL    HW232907   4.237   0.698   7.121 -0.0210 -0.0018 -0.0198
 7092SOL     OW32908   2.542   2.995   0.816  0.9033 -0.1992  0.0238
 7092SOL    HW132909   2.457   3.027   0.847  0.3732 -2.2038  0.6304
 7092SOL    HW232910   2.532   2.901   0.800 -2.1357  0.1316 -0.0145
 7093SOL     OW32911   2.321   2.025   9.601  0.2683  0.3603  0.0679
 7093SOL    HW132912   2.267   1.982   9.535  1.1672  2.5662 -2.1079
 7093SOL    HW232913   2.381   2.083   9.555  1.6196 -1.3142 -0.3095
 7094SOL     OW32914   3.052   4.244   8.346 -0.0785 -0.0950  0.2727
 7094SOL    HW132915   3.063   4.170   8.405 -1.0087  0.8004  1.5501
 7094SOL    HW232916   3.115   4.228   8.275  0.4946 -0.3322  0.8305
 7095SOL     OW32917   3.155   4.521   5.890 -0.4401 -0.3286 -0.4274
 7095SOL    HW132918   3.228   4.489   5.838  1.5970  0.0908  2.1904
 7095SOL    HW232919   3.136   4.602   5.843 -0.9336 -1.0935 -1.5504
 7096SOL     OW32920   2.599   3.880   7.730  0.3436  0.3603 -0.6986
 7096SOL    HW132921   2.528   3.857   7.671  0.8344  0.0843 -1.1860
 7096SOL    HW232922   2.659   3.931   7.676 -1.2920  2.1874 -0.7864
 7097SOL     OW32923   0.493   0.707   6.786 -0.3065  0.4416  0.3372
 7097SOL    HW132924   0.533   0.773   6.842  0.3469  1.7027 -1.6218
 7097SOL    HW232925   0.544   0.630   6.810  1.7575  1.7301  0.0996
 7098SOL     OW32926   1.947   2.788   6.331  0.0817 -0.2447  0.4000
 7098SOL    HW132927   1.986   2.845   6.398  1.7434 -0.6774 -0.2107
 7098SOL    HW232928   1.864   2.835   6.324  1.1867  1.7733  0.5516
 7099SOL     OW32929   0.734   0.714   4.299  1.1073 -0.3806  0.6030
 7099SOL    HW132930   0.754   0.792   4.351  0.7121  0.9026 -1.2132
 7099SOL    HW232931   0.815   0.663   4.308 -0.2363 -2.8093 -1.0336
 7100SOL     OW32932   2.726   1.430   5.881 -0.4209  0.0099  0.2076
 7100SOL    HW132933   2.712   1.353   5.825 -1.1968 -0.8999  1.6749
 7100SOL    HW232934   2.757   1.390   5.962 -0.4898  0.3706  0.4086
 7101SOL     OW32935   2.675   0.403  12.010 -0.0720  0.4432  0.2464
 7101SOL    HW132936   2.607   0.401  12.076  1.0800 -0.8544  1.3960
 7101SOL    HW232937   2.754   0.367  12.051 -0.5963  0.7296  1.4777
 7102SOL     OW32938   3.389   3.795   4.432  0.1207 -0.2346 -0.0104
 7102SOL    HW132939   3.337   3.715   4.441 -0.0586  0.1322  2.2632
 7102SOL    HW232940   3.359   3.831   4.349  1.4366 -0.6178 -0.6579
 7103SOL     OW32941   1.491   1.438   8.838  0.5132 -0.2328  0.1487
 7103SOL    HW132942   1.572   1.488   8.824  0.3267  0.0426  0.0513
 7103SOL    HW232943   1.490   1.387   8.757 -1.1276 -0.9537  0.6233
 7104SOL     OW32944   4.275   2.667   8.857 -0.2310  0.4060 -0.5653
 7104SOL    HW132945   4.289   2.724   8.780 -2.2082  1.1106 -0.3913
 7104SOL    HW232946   4.185   2.644   8.837 -0.9561 -0.1554  3.5126
 7105SOL     OW32947   3.286   2.635   8.714 -0.1725 -0.5808  0.1370
 7105SOL    HW132948   3.287   2.616   8.808 -1.0530  1.1401  0.4980
 7105SOL    HW232949   3.228   2.712   8.719  0.4627  0.1893 -4.2035
 7106SOL     OW32950   2.371   1.293   4.566  0.3531 -0.8184 -1.0171
 7106SOL    HW132951   2.395   1.320   4.478 -1.1853  1.8589 -0.5922
 7106SOL    HW232952   2.386   1.372   4.618 -0.8448 -0.4696 -1.2105
 7107SOL     OW32953   0.036   2.498   1.232  0.0080 -0.4648 -0.7601
 7107SOL    HW132954   0.079   2.459   1.308 -0.6559  0.8435  0.3044
 7107SOL    HW232955   0.050   2.440   1.157 -1.2415 -1.1614 -0.4676
 7108SOL     OW32956   0.725   2.136   4.050  0.8311 -0.5983  0.0851
 7108SOL    HW132957   0.727   2.116   3.956  0.8134 -0.7668  0.1207
 7108SOL    HW232958   0.643   2.092   4.072 -0.1634  0.9492 -0.5276
 7109SOL     OW32959   0.564   3.081   4.783  0.4889 -0.3731 -0.0246
 7109SOL    HW132960   0.624   3.098   4.855  0.5691 -1.0730  0.0726
 7109SOL    HW232961   0.619   3.066   4.706  0.7634 -0.2144  0.1456
 7110SOL     OW32962   0.977   2.445   4.539 -0.4293 -0.8079 -0.5032
 7110SOL    HW132963   1.032   2.408   4.608  3.2052  1.7391 -2.0618
 7110SOL    HW232964   1.049   2.483   4.489  1.0834  0.5998  2.7076
 7111SOL     OW32965   1.657   0.280   5.447 -0.2524  0.1193 -0.4009
 7111SOL    HW132966   1.697   0.365   5.463 -0.1685  0.5539 -2.8335
 7111SOL    HW232967   1.720   0.219   5.485  0.5140  0.9670 -0.3089
 7112SOL     OW32968   2.237   4.185  14.079  0.1677  0.4045 -0.3394
 7112SOL    HW132969   2.238   4.278  14.097  0.2515  0.1348  1.0147
 7112SOL    HW232970   2.303   4.161  14.144  0.1143 -0.8344 -0.7237
 7113SOL     OW32971   3.740   1.827   8.816 -0.0071  0.3648  0.1140
 7113SOL    HW132972   3.723   1.733   8.818  0.9968  0.1848  0.4259
 7113SOL    HW232973   3.656   1.862   8.786 -0.9481 -0.3513  1.9020
 7114SOL     OW32974   3.653   0.784   8.173  0.4107  0.0134 -0.2101
 7114SOL    HW132975   3.710   0.814   8.244 -2.2554  1.6747  1.2127
 7114SOL    HW232976   3.711   0.752   8.104  1.4545  2.6932 -0.5636
 7115SOL     OW32977   3.925   3.699   3.534 -0.2029  0.1001  0.0526
 7115SOL    HW132978   3.869   3.759   3.583  0.3193 -0.5890  1.4997
 7115SOL    HW232979   3.954   3.759   3.465  1.0933  1.2733  1.6272
 7116SOL     OW32980   4.685   2.166   8.793  0.1555  0.0359  0.4147
 7116SOL    HW132981   4.649   2.090   8.838 -0.0286  0.3129  0.7352
 7116SOL    HW232982   0.002   2.204   8.860 -0.2506  1.5474 -0.0965
 7117SOL     OW32983   1.075   1.925   1.577 -0.2259  0.0392 -0.2052
 7117SOL    HW132984   1.162   1.893   1.553  0.8276  3.0080 -0.3215
 7117SOL    HW232985   1.047   1.960   1.492  1.4904  2.9998  0.4648
 7118SOL     OW32986   0.344   4.160   3.349 -0.0622 -0.1447  0.2299
 7118SOL    HW132987   0.327   4.250   3.323 -1.5460 -0.6620 -0.6045
 7118SOL    HW232988   0.394   4.124   3.275 -2.0569 -0.1391 -1.1331
 7119SOL     OW32989   1.511   3.122   2.763 -0.4486 -0.3440 -0.1324
 7119SOL    HW132990   1.455   3.085   2.694  0.4094 -2.1514  0.1322
 7119SOL    HW232991   1.479   3.212   2.759 -0.7648 -0.3696  1.9869
 7120SOL     OW32992   2.273   1.727   6.640 -0.4749 -0.5149 -0.2265
 7120SOL    HW132993   2.185   1.760   6.621 -0.8818 -1.4935 -0.0409
 7120SOL    HW232994   2.326   1.806   6.628 -0.8591  0.0239  1.5796
 7121SOL     OW32995   4.529   4.350   5.951 -0.0512  0.4839  0.0762
 7121SOL    HW132996   4.561   4.421   6.008  0.8318  0.8999 -0.9537
 7121SOL    HW232997   4.506   4.279   6.011 -2.3619  2.3966  1.4570
 7122SOL     OW32998   4.488   3.713   5.739 -0.0187 -0.5881 -0.3457
 7122SOL    HW132999   4.401   3.750   5.723 -0.5408 -0.6853  2.3169
 7122SOL    HW233000   4.514   3.753   5.822 -0.5825  0.5478 -0.7239
 7123SOL     OW33001   2.774   2.651   5.112  0.2166  0.0785  0.4811
 7123SOL    HW133002   2.772   2.712   5.038  1.1638 -0.2787  0.1577
 7123SOL    HW233003   2.832   2.693   5.175  1.9757 -2.0938  0.2926
 7124SOL     OW33004   1.812   4.512  11.418 -0.5136  0.3692 -0.5774
 7124SOL    HW133005   1.736   4.532  11.364 -1.7448 -0.8186  0.7110
 7124SOL    HW233006   1.817   4.597  11.462  1.6522 -1.0799  1.9733
 7125SOL     OW33007   2.197   3.721   4.926 -0.1043 -0.6161  0.4688
 7125SOL    HW133008   2.284   3.759   4.918  0.6029 -2.4110 -0.3851
 7125SOL    HW233009   2.181   3.713   4.832  0.6028  0.2292  0.2821
 7126SOL     OW33010   1.633   3.274   3.503  0.1459 -0.0604  0.4645
 7126SOL    HW133011   1.567   3.320   3.451  2.4353 -1.2528 -3.5156
 7126SOL    HW233012   1.577   3.242   3.574 -0.0178  0.7796  0.7126
 7127SOL     OW33013   0.933   3.973   1.237  0.2594 -0.0432 -0.0113
 7127SOL    HW133014   0.964   3.993   1.325 -0.6154  0.2539  0.2280
 7127SOL    HW233015   1.018   3.984   1.194  2.0269  1.8005  3.9417
 7128SOL     OW33016   0.681   4.156   8.695 -0.2280  0.9435 -0.2832
 7128SOL    HW133017   0.649   4.142   8.783  2.0048 -1.8546  0.0687
 7128SOL    HW233018   0.637   4.239   8.675 -0.2403  0.6030 -1.6835
 7129SOL     OW33019   0.501   0.507   6.577 -0.1136 -0.1484  0.5388
 7129SOL    HW133020   0.468   0.594   6.599  1.7875  0.7205 -0.0860
 7129SOL    HW233021   0.520   0.467   6.662  0.7461 -1.0239 -0.0609
 7130SOL     OW33022   1.756   1.157   3.382 -0.7111  0.1179 -0.5227
 7130SOL    HW133023   1.843   1.136   3.416 -1.5813  0.2509  1.8222
 7130SOL    HW233024   1.695   1.121   3.446  2.3726 -0.7998  1.8679
 7131SOL     OW33025   3.928   0.816  13.560  0.0419 -0.1268 -0.4095
 7131SOL    HW133026   3.836   0.788  13.566 -0.1176  0.3625 -0.5530
 7131SOL    HW233027   3.968   0.736  13.594  0.6245 -0.1285 -1.0933
 7132SOL     OW33028   0.466   0.720   4.687  0.0409  0.0873 -0.0185
 7132SOL    HW133029   0.528   0.783   4.651 -2.3198  1.4204 -1.7782
 7132SOL    HW233030   0.379   0.755   4.665  0.1936 -0.0315 -0.8137
 7133SOL     OW33031   2.821   0.784   3.419  0.1436  0.1427  0.1772
 7133SOL    HW133032   2.838   0.871   3.455 -0.1969  0.7556 -1.1005
 7133SOL    HW233033   2.894   0.771   3.358 -0.2292 -1.8276  0.1506
 7134SOL     OW33034   0.209   1.194   2.047  0.3394 -0.3839 -0.2432
 7134SOL    HW133035   0.168   1.166   2.129 -0.3969  3.4118  0.6740
 7134SOL    HW233036   0.257   1.272   2.076  0.0681 -0.4795  0.4698
 7135SOL     OW33037   4.141   0.934   9.143 -0.6504 -0.1724 -0.6064
 7135SOL    HW133038   4.062   0.914   9.092 -1.9010 -2.4436  2.2513
 7135SOL    HW233039   4.131   0.876   9.219  3.0625 -0.2360 -0.1890
 7136SOL     OW33040   2.888   3.724  14.537 -0.5400  0.0599  0.0880
 7136SOL    HW133041   2.919   3.775  14.462  1.3202  1.5920  1.9212
 7136SOL    HW233042   2.827   3.785  14.579  1.1049  1.8757 -0.2195
 7137SOL     OW33043   3.523   3.597   2.287  0.2652 -0.1751 -0.3424
 7137SOL    HW133044   3.480   3.666   2.337 -0.4018  0.5233 -1.8865
 7137SOL    HW233045   3.466   3.525   2.311  0.2611 -0.1011 -0.1306
 7138SOL     OW33046   1.255   4.124   7.063 -0.0771 -0.1147  0.5611
 7138SOL    HW133047   1.234   4.031   7.074  0.8297 -0.3270  0.5126
 7138SOL    HW233048   1.347   4.132   7.088  0.3714 -1.1085 -0.7094
 7139SOL     OW33049   3.975   4.119  15.064 -0.8499  0.1029  0.2713
 7139SOL    HW133050   3.928   4.063  15.002 -0.2969 -0.6428  0.5283
 7139SOL    HW233051   3.949   4.206  15.032 -0.2564  0.5733  1.0811
 7140SOL     OW33052   1.823   1.577  13.411  0.6986  0.3262 -0.0064
 7140SOL    HW133053   1.911   1.615  13.416  0.7754  0.0184  0.9953
 7140SOL    HW233054   1.768   1.654  13.426 -0.2507 -0.3233 -0.1932
 7141SOL     OW33055   3.107   2.844   8.748 -0.0791  0.4296 -0.1373
 7141SOL    HW133056   3.047   2.902   8.701 -1.0046 -0.8082 -0.4922
 7141SOL    HW233057   3.049   2.816   8.819  0.7903 -0.0220  0.3902
 7142SOL     OW33058   3.092   1.245  12.372 -0.0234 -0.1812 -0.7659
 7142SOL    HW133059   3.047   1.223  12.290  4.0862 -0.5308 -2.8816
 7142SOL    HW233060   3.120   1.336  12.360 -1.3507  1.0160  4.8180
 7143SOL     OW33061   1.934   0.857   0.937  0.2401  0.5503 -0.2225
 7143SOL    HW133062   1.942   0.761   0.944 -2.9168  0.3632  1.3355
 7143SOL    HW233063   1.912   0.885   1.026  2.7443 -1.0611  0.8927
 7144SOL     OW33064   2.156   4.469   3.308  0.1004  0.0177  0.1030
 7144SOL    HW133065   2.112   4.544   3.270 -0.9377 -0.7869 -0.2886
 7144SOL    HW233066   2.113   4.472   3.394 -0.8302 -1.1344 -0.3083
 7145SOL     OW33067   3.125   3.619   4.003  0.0019  0.6578  0.0873
 7145SOL    HW133068   3.119   3.611   4.098  0.0377 -1.5221 -0.0968
 7145SOL    HW233069   3.219   3.634   3.994  0.1547 -0.3922 -0.1163
 7146SOL     OW33070   4.152   3.893   7.963 -0.3115 -0.3036  0.0196
 7146SOL    HW133071   4.084   3.957   7.943 -0.2098 -0.3587 -0.5078
 7146SOL    HW233072   4.169   3.911   8.055 -1.4920  2.6632 -0.3465
 7147SOL     OW33073   0.419   1.874  16.251  0.2420 -0.0038  0.2278
 7147SOL    HW133074   0.367   1.817  16.195  1.6718 -1.3330  0.2826
 7147SOL    HW233075   0.405   1.831  16.335  1.3864 -1.7965 -0.5128
 7148SOL     OW33076   2.322   0.092   1.308 -0.1300  0.4803  0.7252
 7148SOL    HW133077   2.328   0.113   1.215  0.5666  0.2112  0.7132
 7148SOL    HW233078   2.227   0.105   1.313 -0.4514 -1.0922 -1.4053
 7149SOL     OW33079   1.363   4.122   2.690 -0.0529 -0.0016  0.3963
 7149SOL    HW133080   1.312   4.167   2.623 -0.8088 -0.7532  0.4754
 7149SOL    HW233081   1.298   4.058   2.716 -0.0975 -0.9230 -1.9703
 7150SOL     OW33082   1.407   2.756   2.936  0.1141  0.2959 -0.2724
 7150SOL    HW133083   1.316   2.763   2.906 -1.0566  2.3206  3.7282
 7150SOL    HW233084   1.415   2.662   2.923 -1.3297  0.3188 -1.3837
 7151SOL     OW33085   3.512   2.611   9.313  0.2971 -0.7206 -0.4537
 7151SOL    HW133086   3.514   2.697   9.356 -1.9672 -0.9157  0.0578
 7151SOL    HW233087   3.419   2.606   9.293  0.2664 -1.2119 -0.1662
 7152SOL     OW33088   2.982   2.776  10.040 -0.0885 -0.2379  0.0594
 7152SOL    HW133089   2.927   2.748  10.114  0.0855 -1.5719 -0.3126
 7152SOL    HW233090   3.069   2.783  10.079 -0.9757  1.6865  1.6898
 7153SOL     OW33091   1.611   3.861  12.572 -0.0593 -0.1086  0.5852
 7153SOL    HW133092   1.650   3.836  12.488 -0.0986  0.9368  0.2497
 7153SOL    HW233093   1.537   3.801  12.580 -0.5438  0.5734  1.1851
 7154SOL     OW33094   0.979   4.155  12.524 -0.5963  0.0669  0.4815
 7154SOL    HW133095   1.049   4.183  12.465  1.4427  1.0010  3.3486
 7154SOL    HW233096   0.950   4.070  12.491  1.5563  0.2424 -1.8126
 7155SOL     OW33097   1.010   3.977   1.498 -0.1008  0.0808  0.2933
 7155SOL    HW133098   0.973   3.974   1.586  0.7628  1.3826  0.7086
 7155SOL    HW233099   1.046   4.064   1.515 -1.0100  0.5435 -0.1810
 7156SOL     OW33100   2.059   2.761   9.241 -0.0023 -0.2377 -0.0845
 7156SOL    HW133101   2.033   2.785   9.330 -1.6867 -1.1028 -0.3433
 7156SOL    HW233102   2.018   2.829   9.187  0.7136  1.1627  1.1290
 7157SOL     OW33103   1.881   0.956  14.108 -0.1837  0.2415 -0.6779
 7157SOL    HW133104   1.907   0.999  14.190 -0.4610  0.2970 -0.6183
 7157SOL    HW233105   1.880   0.868  14.145  1.6417  1.5121  2.4221
 7158SOL     OW33106   2.608   1.268  17.496  0.0653 -0.1885 -0.4117
 7158SOL    HW133107   2.575   1.182  17.522 -1.6103  0.0164 -1.8149
 7158SOL    HW233108   2.614   1.256  17.401 -0.8194 -0.6883 -0.4037
 7159SOL     OW33109   3.031   4.143   8.715  0.0768 -0.3192  0.1233
 7159SOL    HW133110   2.965   4.184   8.771  0.3117  0.6628 -0.3087
 7159SOL    HW233111   3.099   4.199   8.753 -1.0296  1.4156 -0.4496
 7160SOL     OW33112   1.627   1.729   6.151 -0.1821  0.0017  0.3188
 7160SOL    HW133113   1.701   1.671   6.170 -0.8994 -0.3962  1.8478
 7160SOL    HW233114   1.655   1.814   6.184  1.7993 -0.5609  0.1391
 7161SOL     OW33115   0.555   1.508   8.582 -0.1282  0.1638 -0.2824
 7161SOL    HW133116   0.549   1.599   8.553  1.1074  0.0437 -0.9309
 7161SOL    HW233117   0.599   1.469   8.506 -0.3170 -0.4409 -0.0748
 7162SOL     OW33118   1.404   1.636   8.473  0.4842  0.3345  0.7900
 7162SOL    HW133119   1.348   1.684   8.412  1.4090  2.3853  1.5156
 7162SOL    HW233120   1.364   1.674   8.552  2.5354 -1.0022  2.4622
 7163SOL     OW33121   0.303   0.493  11.880  0.5910 -0.1482 -0.1379
 7163SOL    HW133122   0.373   0.524  11.822 -0.2469  1.2332 -0.4052
 7163SOL    HW233123   0.223   0.517  11.833  1.1562  1.3322 -0.3161
 7164SOL     OW33124   0.733   2.217   9.399 -0.0882 -0.7145 -0.1146
 7164SOL    HW133125   0.793   2.208   9.473  0.2014  1.9576  0.0036
 7164SOL    HW233126   0.668   2.283   9.427 -0.0104 -1.6273  2.2047
 7165SOL     OW33127   0.446   2.066   8.186 -0.1276 -0.2409 -0.0185
 7165SOL    HW133128   0.424   2.065   8.093  0.3150  2.3689 -0.1369
 7165SOL    HW233129   0.513   1.999   8.200 -2.5961 -2.8370 -0.6010
 7166SOL     OW33130   3.671   1.098   2.417  0.4670 -0.0392 -0.2547
 7166SOL    HW133131   3.644   1.189   2.428 -0.0835 -0.1837 -0.4106
 7166SOL    HW233132   3.691   1.101   2.324  1.2546  1.8861 -0.0377
 7167SOL     OW33133   2.377   1.210   5.727  0.0436 -0.0661  0.4106
 7167SOL    HW133134   2.300   1.242   5.680 -0.0001 -0.9105 -0.0949
 7167SOL    HW233135   2.395   1.277   5.793  1.4344  0.3239 -0.3668
 7168SOL     OW33136   0.573   3.399  12.855  0.0338 -0.4299  0.4559
 7168SOL    HW133137   0.625   3.322  12.833  1.1528  0.3239  0.4404
 7168SOL    HW233138   0.630   3.473  12.833  1.1051 -0.9033  1.6529
 7169SOL     OW33139   0.364   2.161   7.922  0.5177 -0.0474 -0.0161
 7169SOL    HW133140   0.388   2.254   7.920  0.3849 -0.0579 -2.9365
 7169SOL    HW233141   0.283   2.167   7.870 -0.6186  0.5749  1.8299
 7170SOL     OW33142   3.510   0.941  17.385  0.1520  0.2504 -0.3699
 7170SOL    HW133143   3.497   0.964  17.293 -1.5247 -0.4110 -0.3104
 7170SOL    HW233144   3.430   0.900  17.418  1.1168 -0.9049  0.5327
 7171SOL     OW33145   2.562   0.893   8.275  0.4578  0.4804  0.3459
 7171SOL    HW133146   2.513   0.815   8.301  1.9700 -1.1698 -1.8408
 7171SOL    HW233147   2.523   0.908   8.189  0.0888  0.5908  0.5278
 7172SOL     OW33148   3.527   0.299   8.732  0.4410  0.6142 -0.0421
 7172SOL    HW133149   3.601   0.254   8.772  1.4560  0.0380 -2.5492
 7172SOL    HW233150   3.484   0.228   8.684 -2.0050  0.7340  1.9934
 7173SOL     OW33151   0.167   4.286  15.533 -0.3572 -0.0742  0.5342
 7173SOL    HW133152   0.147   4.193  15.522 -0.9449 -0.0028  0.9975
 7173SOL    HW233153   0.187   4.275  15.626  0.0151 -0.7345  0.3803
 7174SOL     OW33154   1.352   1.310   9.048  0.1268 -0.0722  0.2170
 7174SOL    HW133155   1.264   1.324   9.013  0.0426 -1.6184 -0.2180
 7174SOL    HW233156   1.398   1.342   8.970 -0.7634  1.2984  0.2628
 7175SOL     OW33157   2.107   0.676   3.340  0.8082  0.0554 -0.3114
 7175SOL    HW133158   2.181   0.626   3.374 -0.0779 -0.4513  0.8641
 7175SOL    HW233159   2.041   0.606   3.341 -1.3237  2.0957  0.3876
 7176SOL     OW33160   2.774   4.645   3.617 -0.4686  0.2825 -0.6028
 7176SOL    HW133161   2.750   4.738   3.623 -1.4177  0.0867 -1.2974
 7176SOL    HW233162   2.841   4.643   3.685 -0.2213  2.2994 -0.7966
 7177SOL     OW33163   2.478   3.258   9.423 -0.4702 -0.2106  0.5488
 7177SOL    HW133164   2.433   3.229   9.503 -0.3618 -2.2147 -0.1079
 7177SOL    HW233165   2.410   3.244   9.357  0.9582  0.0432 -0.9722
 7178SOL     OW33166   4.711   2.783   7.557  0.0973  0.5272 -0.4066
 7178SOL    HW133167   4.717   2.804   7.650 -1.5862 -0.4662 -0.0798
 7178SOL    HW233168   4.722   2.688   7.566  0.8867  0.5226 -1.3004
 7179SOL     OW33169   1.892   1.553   3.782  0.1265  0.3043  0.3623
 7179SOL    HW133170   1.837   1.521   3.710  0.1390 -0.1095  0.5336
 7179SOL    HW233171   1.870   1.500   3.859 -1.9210 -3.1800 -2.5852
 7180SOL     OW33172   1.548   1.062   6.502  0.0855  0.4784 -0.3176
 7180SOL    HW133173   1.555   1.156   6.487  3.4400  0.6775  2.4740
 7180SOL    HW233174   1.558   1.021   6.416  2.5495  1.9708 -0.7296
 7181SOL     OW33175   3.890   1.580   4.662  0.1311 -0.3105  0.2243
 7181SOL    HW133176   3.877   1.646   4.593  0.7149 -1.7079 -1.2041
 7181SOL    HW233177   3.810   1.528   4.649  0.8333 -0.6388 -2.6000
 7182SOL     OW33178   1.924   4.736   4.450  0.2108  0.8124  0.0574
 7182SOL    HW133179   1.840   0.016   4.490 -1.0695  0.3397 -2.3924
 7182SOL    HW233180   1.985   4.716   4.521  0.9140  0.6645 -0.5768
 7183SOL     OW33181   4.192   1.785   6.416  0.1531 -0.3954  0.2824
 7183SOL    HW133182   4.108   1.775   6.372 -0.4964  3.2149  0.7239
 7183SOL    HW233183   4.162   1.834   6.492 -2.4125 -1.3867 -0.1070
 7184SOL     OW33184   0.520   3.555  10.402  0.1254  0.2886  0.1782
 7184SOL    HW133185   0.427   3.543  10.421 -0.1483 -0.6364 -1.6830
 7184SOL    HW233186   0.559   3.551  10.489  0.9193 -2.3409 -0.2910
 7185SOL     OW33187   4.375   1.544   5.401 -0.8074  0.4589  0.0672
 7185SOL    HW133188   4.333   1.533   5.486 -2.7066 -2.3283 -1.2466
 7185SOL    HW233189   4.341   1.466   5.358  0.8899  0.5582 -1.4708
 7186SOL     OW33190   3.709   2.431   9.891 -0.2014  0.4309  0.0831
 7186SOL    HW133191   3.627   2.477   9.868 -1.2539 -1.1874  0.6270
 7186SOL    HW233192   3.677   2.392   9.972  0.6975 -0.7880 -0.1442
 7187SOL     OW33193   0.175   1.319  15.587  0.1702  0.0459  0.3135
 7187SOL    HW133194   0.100   1.260  15.582  1.1011 -0.9220 -2.5223
 7187SOL    HW233195   0.243   1.268  15.630  0.1720  0.4307  0.7649
 7188SOL     OW33196   0.869   0.354   4.567  0.0112  0.1943  0.0560
 7188SOL    HW133197   0.839   0.270   4.601 -0.2952  0.7566  1.1466
 7188SOL    HW233198   0.792   0.407   4.587  0.5069  0.9370  0.0124
 7189SOL     OW33199   4.402   1.225   3.118 -0.0903  0.1051  0.3507
 7189SOL    HW133200   4.378   1.285   3.188  1.0732  0.5516  0.3670
 7189SOL    HW233201   4.316   1.202   3.081  0.6005 -1.3956 -0.2946
 7190SOL     OW33202   2.240   2.394   2.371  0.7573 -0.1041 -0.0433
 7190SOL    HW133203   2.231   2.438   2.287  1.0235  0.1145  0.0401
 7190SOL    HW233204   2.330   2.414   2.396  0.9843  0.9893 -1.7448
 7191SOL     OW33205   2.787   0.746  16.018 -0.1778  0.6719 -0.6168
 7191SOL    HW133206   2.755   0.835  16.004 -0.2309  0.7838  0.2065
 7191SOL    HW233207   2.708   0.695  16.001  0.0685 -0.4020  1.5180
 7192SOL     OW33208   3.526   0.555  10.272 -0.1644  0.0559 -0.3308
 7192SOL    HW133209   3.498   0.577  10.361 -1.4078  1.8814 -1.1548
 7192SOL    HW233210   3.618   0.532  10.274 -0.6485 -1.9373 -1.1024
 7193SOL     OW33211   0.217   4.134  17.388  0.0798 -0.7473  0.0968
 7193SOL    HW133212   0.284   4.083  17.342  0.8910 -0.5687  1.0807
 7193SOL    HW233213   0.197   4.200  17.322  1.9745  0.2731  0.5421
 7194SOL     OW33214   0.354   2.887   2.754 -0.3976  0.0241 -0.0134
 7194SOL    HW133215   0.331   2.980   2.742  1.5996  0.7581  1.8769
 7194SOL    HW233216   0.291   2.844   2.696 -1.2618 -0.0892  1.0020
 7195SOL     OW33217   1.601   0.184  11.685 -1.1176  0.1392  0.5046
 7195SOL    HW133218   1.590   0.094  11.716 -1.9244  0.1322  0.1902
 7195SOL    HW233219   1.695   0.199  11.692 -0.8904 -1.5702  1.0678
 7196SOL     OW33220   2.220   0.602   2.186  0.2528 -0.6273  0.0984
 7196SOL    HW133221   2.206   0.526   2.131 -2.2847 -0.0256 -0.0822
 7196SOL    HW233222   2.216   0.572   2.277  1.8510 -0.5949  0.1827
 7197SOL     OW33223   2.350   0.070   6.330  0.1479  0.2109 -0.5306
 7197SOL    HW133224   2.351   0.024   6.247  0.5472  3.0965 -2.1190
 7197SOL    HW233225   2.255   0.080   6.341  0.3490  1.6367 -0.0522
 7198SOL     OW33226   3.411   3.862  15.266  0.2094 -0.1136 -0.3476
 7198SOL    HW133227   3.391   3.890  15.177  0.3009 -0.9772 -0.6336
 7198SOL    HW233228   3.367   3.933  15.313  1.1071  0.0496  0.2443
 7199SOL     OW33229   4.525   1.382  10.114 -0.9902  0.3472 -0.2820
 7199SOL    HW133230   4.459   1.451  10.122 -1.6410 -0.4349  0.9517
 7199SOL    HW233231   4.506   1.331  10.192  1.0528  1.8934  1.2358
 7200SOL     OW33232   2.312   4.270   3.695  0.0125  0.3319  0.1998
 7200SOL    HW133233   2.388   4.241   3.643  0.8867 -1.4860  2.4865
 7200SOL    HW233234   2.309   4.364   3.677  0.6879  0.3277  0.0484
 7201SOL     OW33235   3.650   1.570   9.826 -0.5263 -0.1042  0.3661
 7201SOL    HW133236   3.674   1.558   9.734  0.0216 -0.1740  0.5186
 7201SOL    HW233237   3.717   1.514   9.866 -1.6976 -2.0837 -0.4773
 7202SOL     OW33238   3.882   1.131   9.716  0.0256  0.2274  0.3710
 7202SOL    HW133239   3.964   1.173   9.690 -0.1480 -0.4075 -1.2034
 7202SOL    HW233240   3.868   1.075   9.639  2.7522  0.7739 -0.4974
 7203SOL     OW33241   2.931   2.802   3.167  0.3381  0.3567 -0.1460
 7203SOL    HW133242   2.983   2.877   3.138  2.9164 -0.2348  2.8868
 7203SOL    HW233243   2.984   2.767   3.239 -0.2796 -0.9514 -0.3194
 7204SOL     OW33244   1.112   2.971   6.891  0.0834 -0.0121 -0.2979
 7204SOL    HW133245   1.192   2.919   6.886  0.4757  0.6069 -0.5073
 7204SOL    HW233246   1.143   3.057   6.862 -0.7762  0.2966 -0.3205
 7205SOL     OW33247   3.766   4.550   7.980 -0.0695  0.0258 -0.3798
 7205SOL    HW133248   3.719   4.569   8.062  0.4323 -0.4620  0.0207
 7205SOL    HW233249   3.701   4.485   7.954 -2.0810  2.1860 -0.7474
 7206SOL     OW33250   0.843   4.456   4.388  0.2020 -0.2420 -0.1298
 7206SOL    HW133251   0.771   4.397   4.363 -0.3635  0.7456 -0.8534
 7206SOL    HW233252   0.825   4.533   4.334  0.3454  0.2951  0.6026
 7207SOL     OW33253   0.485   1.025   3.758  0.4910 -0.3396 -0.0357
 7207SOL    HW133254   0.425   0.951   3.771 -2.1757  1.9855  0.8606
 7207SOL    HW233255   0.488   1.061   3.847  0.9031 -1.3123  0.3462
 7208SOL     OW33256   4.204   4.103   4.863  0.2670  0.4044  0.6264
 7208SOL    HW133257   4.119   4.146   4.873 -0.8607 -1.3705 -1.5532
 7208SOL    HW233258   4.208   4.067   4.774  1.3339  0.6126  0.5876
 7209SOL     OW33259   3.066   3.785   8.606  0.4781 -0.0977 -0.0234
 7209SOL    HW133260   3.046   3.769   8.698  3.1938  0.0325  0.6020
 7209SOL    HW233261   3.127   3.715   8.582 -0.6226 -0.8212 -0.7398
 7210SOL     OW33262   2.089   2.919   0.672  0.4046  0.4501  0.0265
 7210SOL    HW133263   2.109   2.946   0.761  0.5851  0.8559 -0.1351
 7210SOL    HW233264   2.146   2.983   0.629  0.6626 -0.1403 -0.5238
 7211SOL     OW33265   4.216   0.775   1.850 -0.0963 -0.1751 -0.3647
 7211SOL    HW133266   4.279   0.761   1.779 -0.0666  1.3457 -0.6443
 7211SOL    HW233267   4.148   0.721   1.810 -0.7142  0.0597  0.3759
 7212SOL     OW33268   3.546   3.638  10.374  0.1497 -0.4048 -0.5233
 7212SOL    HW133269   3.591   3.636  10.459 -1.2956 -0.0483  0.2403
 7212SOL    HW233270   3.617   3.617  10.313  0.1708  1.3124 -1.1019
 7213SOL     OW33271   0.722   2.870   0.934 -0.1575  0.7102 -0.8796
 7213SOL    HW133272   0.810   2.853   0.967 -0.2232  2.8894  0.4632
 7213SOL    HW233273   0.691   2.789   0.894  0.0513 -0.2137  0.7925
 7214SOL     OW33274   3.741   2.965   5.330  0.3552 -0.2815  0.1648
 7214SOL    HW133275   3.786   2.883   5.354  1.4676  0.4419  0.5556
 7214SOL    HW233276   3.776   3.028   5.392  0.9174  1.5581 -2.0238
 7215SOL     OW33277   4.254   3.817   8.383 -0.3031 -0.5619 -0.2111
 7215SOL    HW133278   4.313   3.755   8.341  1.1266 -0.0166  0.9844
 7215SOL    HW233279   4.236   3.770   8.465  3.8571 -0.6671  0.6153
 7216SOL     OW33280   4.249   1.068   3.474  0.2035  0.0939 -0.1771
 7216SOL    HW133281   4.340   1.053   3.450 -0.3863 -0.6735 -1.9530
 7216SOL    HW233282   4.235   1.015   3.553  1.4513 -0.4901 -0.3584
 7217SOL     OW33283   1.671   0.187  11.060  0.2472  0.3022  0.2207
 7217SOL    HW133284   1.682   0.282  11.051 -2.5903  0.5951 -0.0657
 7217SOL    HW233285   1.757   0.150  11.040  0.1973 -0.3082  1.1400
 7218SOL     OW33286   3.743   2.212   6.134  0.1616  0.5393  0.6243
 7218SOL    HW133287   3.831   2.224   6.098  0.1954  2.6771  1.3918
 7218SOL    HW233288   3.699   2.195   6.050  2.2498  0.5905 -0.4733
 7219SOL     OW33289   4.030   2.670  11.657 -0.3390  0.0313  0.6185
 7219SOL    HW133290   4.057   2.584  11.626 -0.7666 -0.1972  0.8700
 7219SOL    HW233291   4.103   2.726  11.631  0.1382 -1.5175 -1.3901
 7220SOL     OW33292   1.109   3.923   3.845  0.5347 -0.2096  0.0540
 7220SOL    HW133293   1.136   4.010   3.873 -0.5394 -0.0330  0.5406
 7220SOL    HW233294   1.160   3.869   3.906  0.9915 -0.5099 -0.5925
 7221SOL     OW33295   3.198   2.253   5.151  0.3774 -0.0009  0.6266
 7221SOL    HW133296   3.173   2.175   5.200  1.8988 -0.2465  1.0078
 7221SOL    HW233297   3.257   2.306   5.205 -0.2125  1.2753  0.0450
 7222SOL     OW33298   2.208   0.839  17.668  0.5869 -0.3080  0.5208
 7222SOL    HW133299   2.208   0.776  17.741 -0.6259 -1.1146 -0.1899
 7222SOL    HW233300   2.269   0.903  17.706 -0.8936  0.6079  1.3863
 7223SOL     OW33301   0.602   4.224   9.399 -0.1376 -0.1672  0.3593
 7223SOL    HW133302   0.521   4.190   9.437 -1.3602 -0.0794 -2.1621
 7223SOL    HW233303   0.607   4.191   9.309  1.0300 -1.8175  1.0335
 7224SOL     OW33304   3.267   1.225   5.242 -0.4344 -0.4823 -0.4600
 7224SOL    HW133305   3.263   1.276   5.161  0.1011  0.9944  0.4521
 7224SOL    HW233306   3.179   1.186   5.246  0.3443 -2.1198  0.5138
 7225SOL     OW33307   2.679   1.701   2.984  0.3272  0.1193 -0.0533
 7225SOL    HW133308   2.662   1.795   2.978  1.6238  0.3325 -0.5873
 7225SOL    HW233309   2.627   1.680   3.061 -1.9781 -0.9868 -1.8987
 7226SOL     OW33310   0.092   2.437   4.127 -0.4191 -0.0312 -0.1123
 7226SOL    HW133311   0.064   2.527   4.146  0.7053 -0.0677  1.7086
 7226SOL    HW233312   0.039   2.382   4.184  3.4018 -2.4860  1.0572
 7227SOL     OW33313   2.798   2.598   4.741  0.6183 -0.2754 -0.8941
 7227SOL    HW133314   2.882   2.639   4.760  0.2592 -0.2328  0.6499
 7227SOL    HW233315   2.747   2.671   4.705  2.2387  1.3864  0.1993
 7228SOL     OW33316   3.047   0.605   0.743  0.0511 -0.0261 -0.3468
 7228SOL    HW133317   2.975   0.668   0.746  1.5677  1.6545  0.5790
 7228SOL    HW233318   3.041   0.569   0.654  1.5638  0.3828 -0.6160
 7229SOL     OW33319   2.090   1.036   6.998  0.0230  0.5381  0.5358
 7229SOL    HW133320   2.060   1.115   7.043  1.9995  2.9066 -2.3302
 7229SOL    HW233321   2.144   1.006   7.072 -0.2109 -0.6566  0.2127
 7230SOL     OW33322   0.415   1.515   0.800 -0.3371 -1.0442 -0.0161
 7230SOL    HW133323   0.354   1.458   0.846 -0.7965 -1.4677 -1.1527
 7230SOL    HW233324   0.494   1.494   0.849  0.5686 -2.0171 -1.9091
 7231SOL     OW33325   4.016   0.143  13.501  0.0152  0.3872 -0.4524
 7231SOL    HW133326   4.089   0.198  13.527  0.6306 -0.6929  0.1183
 7231SOL    HW233327   4.058   0.059  13.521  0.8379  1.0825  0.7100
 7232SOL     OW33328   4.449   1.759  14.119  0.5121  0.1412  0.1969
 7232SOL    HW133329   4.388   1.826  14.149 -0.7773  0.2335 -2.7356
 7232SOL    HW233330   4.450   1.759  14.024  0.2678  1.7920  0.1910
 7233SOL     OW33331   0.618   0.418   8.854  0.2562  0.1153 -0.1589
 7233SOL    HW133332   0.683   0.423   8.785  0.1209  0.4153 -0.2644
 7233SOL    HW233333   0.648   0.346   8.909 -0.4258 -0.4748 -0.5634
 7234SOL     OW33334   1.908   1.771   7.418  0.4320  0.9708 -0.1537
 7234SOL    HW133335   1.935   1.802   7.504 -0.0018  0.7737  0.0541
 7234SOL    HW233336   1.954   1.833   7.361  1.0194 -0.3400 -1.0955
 7235SOL     OW33337   4.722   3.029  17.571  0.1964  0.9989  0.2217
 7235SOL    HW133338   4.676   3.112  17.573  0.7831  1.3566 -1.1115
 7235SOL    HW233339   0.076   3.051  17.570  0.9085 -1.9362 -0.4840
 7236SOL     OW33340   2.036   4.500   4.322 -0.0847  0.0677 -0.4769
 7236SOL    HW133341   1.988   4.583   4.330  0.7780  0.6284 -1.0365
 7236SOL    HW233342   2.098   4.505   4.395  0.1416  1.0282 -0.7306
 7237SOL     OW33343   3.076   1.238   3.718  0.4579 -0.3029  0.1183
 7237SOL    HW133344   3.026   1.263   3.641 -0.8720 -1.3137  0.6626
 7237SOL    HW233345   3.009   1.255   3.784 -0.1150  4.5012 -1.6455
 7238SOL     OW33346   0.418   0.152   7.834 -0.1378 -0.1605 -0.3612
 7238SOL    HW133347   0.323   0.144   7.819  0.2093  0.7898 -3.0539
 7238SOL    HW233348   0.427   0.095   7.910 -0.1876  2.3378  1.5102
 7239SOL     OW33349   2.228   3.429  17.252  0.3337  0.3094 -0.1899
 7239SOL    HW133350   2.284   3.506  17.245  1.1972 -0.3014  0.0843
 7239SOL    HW233351   2.184   3.426  17.167  1.7796 -0.0937 -0.9273
 7240SOL     OW33352   1.959   3.991  16.068 -0.1760  0.3297 -0.1684
 7240SOL    HW133353   1.937   3.901  16.094  2.2224 -1.2024 -3.3978
 7240SOL    HW233354   1.876   4.035  16.051  0.3318  0.3151 -2.6291
 7241SOL     OW33355   1.433   3.239   8.871 -0.2285 -0.5113 -0.4628
 7241SOL    HW133356   1.461   3.237   8.780 -0.1332 -0.6076 -0.4320
 7241SOL    HW233357   1.338   3.239   8.861 -0.3252 -0.0893  0.4534
 7242SOL     OW33358   3.278   4.187  17.574 -0.0290  0.5627 -0.0481
 7242SOL    HW133359   3.337   4.164  17.645  0.0645  2.0248  0.3546
 7242SOL    HW233360   3.274   4.098  17.538  1.1944  0.6798 -0.4716
 7243SOL     OW33361   2.051   1.596   2.965 -0.2950 -0.0833  0.3637
 7243SOL    HW133362   2.089   1.619   3.050  1.0630 -2.7977  0.5013
 7243SOL    HW233363   2.020   1.683   2.942 -2.2567 -0.6888  0.7676
 7244SOL     OW33364   4.718   3.601   6.080 -0.0212  0.5286  0.2328
 7244SOL    HW133365   0.056   3.552   6.109  1.1069  1.0931 -1.8167
 7244SOL    HW233366   4.737   3.695   6.089 -0.0876  0.7740 -2.3118
 7245SOL     OW33367   0.085   1.834  10.523 -0.4357  0.8044  0.2947
 7245SOL    HW133368   0.077   1.880  10.439 -1.0560  0.9717  0.4444
 7245SOL    HW233369   4.735   1.801  10.531 -0.0361  0.1387  1.9420
 7246SOL     OW33370   2.544   1.867   7.367 -0.6118 -0.2277 -0.4113
 7246SOL    HW133371   2.609   1.916   7.317 -1.5997  0.2594 -1.2290
 7246SOL    HW233372   2.572   1.915   7.445 -2.0100 -0.4721  0.2474
 7247SOL     OW33373   3.330   1.409   5.749 -0.2015  0.1925 -0.7269
 7247SOL    HW133374   3.324   1.314   5.739 -1.1600  0.2698 -0.9019
 7247SOL    HW233375   3.271   1.414   5.825  0.8194 -0.4148  0.0981
 7248SOL     OW33376   0.203   2.857   5.276  0.2947  0.1332 -0.5989
 7248SOL    HW133377   0.278   2.836   5.222 -0.1042 -0.8348 -0.7852
 7248SOL    HW233378   0.126   2.871   5.220  1.9032  1.5659 -2.4019
 7249SOL     OW33379   1.263   0.391   9.701 -0.1666  0.2260  0.1979
 7249SOL    HW133380   1.187   0.437   9.737 -0.6119  1.3267 -2.1415
 7249SOL    HW233381   1.327   0.461   9.706 -0.0665  0.1564 -0.1401
 7250SOL     OW33382   0.706   4.535   6.649 -0.4069 -0.2896  0.2564
 7250SOL    HW133383   0.637   4.592   6.683  1.6548  2.4947 -0.1851
 7250SOL    HW233384   0.694   4.546   6.555  0.5618 -0.7929  0.0818
 7251SOL     OW33385   4.306   0.421   3.813 -0.3396  0.4000  0.4188
 7251SOL    HW133386   4.270   0.418   3.724 -0.3164  0.9539  0.3918
 7251SOL    HW233387   4.335   0.330   3.818  1.4717  0.9203 -0.8913
 7252SOL     OW33388   3.216   2.808  10.156  0.8906  0.1602 -0.2656
 7252SOL    HW133389   3.285   2.869  10.133  0.2056  1.5437  1.3108
 7252SOL    HW233390   3.259   2.723  10.149  2.0256  0.8754 -1.9344
 7253SOL     OW33391   3.156   1.717   4.429  0.0955  0.3571  0.0217
 7253SOL    HW133392   3.156   1.649   4.362  0.5251  0.5195 -0.1412
 7253SOL    HW233393   3.068   1.704   4.464  0.9525  1.2313  2.4988
 7254SOL     OW33394   0.512   2.138   0.173  0.1230 -0.3291 -0.3459
 7254SOL    HW133395   0.575   2.098   0.113 -0.0659 -1.1012 -0.0261
 7254SOL    HW233396   0.445   2.176   0.117 -1.1599 -0.9266  0.7930
 7255SOL     OW33397   1.994   1.159   3.472  0.0419 -0.2582  0.1276
 7255SOL    HW133398   2.004   1.231   3.410 -0.2981  1.3717  1.9744
 7255SOL    HW233399   2.013   1.081   3.420  2.0887 -0.2801  0.9421
 7256SOL     OW33400   3.363   0.464   6.145 -0.5753 -0.7372  0.3693
 7256SOL    HW133401   3.456   0.455   6.123 -0.2919  1.8694  0.4992
 7256SOL    HW233402   3.366   0.483   6.238 -0.7533 -1.4267  0.5168
 7257SOL     OW33403   2.871   3.205   5.591  0.0523 -0.3138  0.2355
 7257SOL    HW133404   2.891   3.116   5.619  0.9312 -0.0419  0.4718
 7257SOL    HW233405   2.879   3.253   5.673  0.2849 -3.3218  1.9644
 7258SOL     OW33406   3.268   1.662   5.679 -0.6246  0.2841  0.2254
 7258SOL    HW133407   3.310   1.591   5.728  0.4434  0.2635 -0.7207
 7258SOL    HW233408   3.196   1.621   5.631  0.7437 -1.7839 -0.0300
 7259SOL     OW33409   4.035   2.997   9.545 -0.0108 -0.8113 -0.1560
 7259SOL    HW133410   3.944   3.002   9.515 -0.4538  0.0971  1.3556
 7259SOL    HW233411   4.043   3.061   9.615 -1.2581 -1.8940  0.9576
 7260SOL     OW33412   2.879   1.213  16.795  0.3220  0.2222  0.1469
 7260SOL    HW133413   2.883   1.303  16.762  0.7841 -0.4264 -1.5399
 7260SOL    HW233414   2.930   1.217  16.876 -0.1981  1.3727  0.4193
 7261SOL     OW33415   1.504   1.838   3.195 -0.2064 -0.6232  0.0819
 7261SOL    HW133416   1.416   1.809   3.221  0.6028 -1.3155  2.0121
 7261SOL    HW233417   1.484   1.931   3.189 -0.7615 -0.8056 -1.0514
 7262SOL     OW33418   3.177   1.403   4.947  0.4501  0.1778 -0.2064
 7262SOL    HW133419   3.092   1.369   4.918  0.5552 -0.7238  0.5637
 7262SOL    HW233420   3.207   1.432   4.861 -1.3983 -0.8225 -1.1921
 7263SOL     OW33421   1.596   0.839   7.918 -0.1924 -0.6780 -0.0028
 7263SOL    HW133422   1.657   0.908   7.943 -0.7322 -0.7143  1.4335
 7263SOL    HW233423   1.601   0.836   7.822  2.5223 -0.6341  0.1588
 7264SOL     OW33424   0.395   3.517   3.591 -0.2779  0.2077 -0.0398
 7264SOL    HW133425   0.317   3.563   3.622 -1.8380 -0.6614 -2.6700
 7264SOL    HW233426   0.428   3.499   3.679 -2.7408 -0.2909  0.7816
 7265SOL     OW33427   0.311   1.203   9.561 -0.3643 -0.8717  0.5872
 7265SOL    HW133428   0.345   1.187   9.648 -2.2513 -1.2521  1.2590
 7265SOL    HW233429   0.246   1.274   9.568  1.9330  1.3706 -0.6287
 7266SOL     OW33430   1.125   1.713   5.048 -0.2250  0.2781  0.2668
 7266SOL    HW133431   1.074   1.708   4.966  0.8713 -0.0493 -0.3920
 7266SOL    HW233432   1.128   1.622   5.075 -1.4779  0.3308  0.6114
 7267SOL     OW33433   2.955   1.600  12.512 -0.4146 -0.8605 -0.2676
 7267SOL    HW133434   2.926   1.611  12.602 -1.9089  1.5254 -1.0201
 7267SOL    HW233435   3.048   1.578  12.517 -0.0617  0.4897 -0.7293
 7268SOL     OW33436   4.233   4.329   6.620 -0.1923  0.1328 -0.4212
 7268SOL    HW133437   4.187   4.323   6.704  0.5552  3.1248  0.2193
 7268SOL    HW233438   4.210   4.243   6.585 -0.3259 -0.7560  1.8292
 7269SOL     OW33439   0.644   3.722   7.931  0.4183  0.2985 -0.3184
 7269SOL    HW133440   0.658   3.637   7.889  3.2091  0.6185 -0.0190
 7269SOL    HW233441   0.564   3.696   7.978 -1.1088  3.7366 -1.0159
 7270SOL     OW33442   1.426   0.990   2.761  0.2634 -0.4023  0.0178
 7270SOL    HW133443   1.502   1.017   2.708  0.1225 -0.2158 -0.0900
 7270SOL    HW233444   1.447   1.042   2.839 -1.2275  1.8017 -1.0482
 7271SOL     OW33445   1.190   1.121   5.220 -0.0316  0.1132 -0.5387
 7271SOL    HW133446   1.121   1.170   5.267 -1.5561 -0.9623 -1.6473
 7271SOL    HW233447   1.236   1.080   5.293  1.2724  2.9986  0.2897
 7272SOL     OW33448   4.510   2.435   1.315 -0.0463  0.0223  0.6588
 7272SOL    HW133449   4.592   2.482   1.299  0.4828 -2.2057 -3.0563
 7272SOL    HW233450   4.509   2.368   1.247 -0.3105  0.1985  0.4899
 7273SOL     OW33451   3.280   3.410   9.278 -0.3052 -0.2622  0.2626
 7273SOL    HW133452   3.272   3.482   9.215 -0.5811  1.9185  2.7998
 7273SOL    HW233453   3.375   3.404   9.289 -0.0978  2.3013  0.0369
 7274SOL     OW33454   4.071   1.710  17.080  0.0776  0.3883  0.4931
 7274SOL    HW133455   4.027   1.794  17.084  1.0766  0.8096  2.1926
 7274SOL    HW233456   4.158   1.735  17.048 -0.6570  1.3342 -0.7913
 7275SOL     OW33457   0.526   2.689   9.987 -0.2524 -0.4339 -0.0590
 7275SOL    HW133458   0.582   2.611   9.995 -1.7575 -1.6622 -1.5281
 7275SOL    HW233459   0.579   2.757  10.028  0.4012 -0.1296 -1.3928
 7276SOL     OW33460   1.221   4.660   2.742 -0.1632 -0.2700 -0.0415
 7276SOL    HW133461   1.157   4.591   2.727 -0.2643 -0.1641 -0.0956
 7276SOL    HW233462   1.161   4.734   2.750 -1.3087 -1.0521 -1.4187
 7277SOL     OW33463   0.992   0.813  15.334  0.3426 -0.0669  0.0448
 7277SOL    HW133464   0.988   0.721  15.312 -0.5105  0.1481 -0.6567
 7277SOL    HW233465   0.943   0.852  15.262 -0.0007  0.9884  0.8445
 7278SOL     OW33466   0.129   1.475  12.955  0.1926  0.1704 -0.1284
 7278SOL    HW133467   0.184   1.535  12.906  2.1046 -2.8331 -1.6957
 7278SOL    HW233468   0.048   1.485  12.904  0.5667  1.5088 -0.4564
 7279SOL     OW33469   3.242   1.203   3.414  0.3532 -0.0694  0.3399
 7279SOL    HW133470   3.188   1.129   3.442  1.0336 -0.8452 -0.3658
 7279SOL    HW233471   3.283   1.156   3.341 -1.9746  1.0201 -1.6497
 7280SOL     OW33472   1.643   4.595  16.300  0.6010  0.2205  0.2582
 7280SOL    HW133473   1.617   4.685  16.277  1.1342 -0.3620 -2.6015
 7280SOL    HW233474   1.716   4.584  16.239  0.2612 -0.4547 -0.0164
 7281SOL     OW33475   2.730   3.040  15.244  0.2158  0.2961  0.1546
 7281SOL    HW133476   2.678   3.043  15.163 -1.9845 -2.0762  1.4470
 7281SOL    HW233477   2.664   2.996  15.298  0.8936 -0.7963  0.1066
 7282SOL     OW33478   0.011   4.587   9.024 -0.2555 -0.4143 -0.2968
 7282SOL    HW133479   0.047   4.534   9.095 -0.3633 -0.4348 -0.2571
 7282SOL    HW233480   0.066   4.542   8.960  2.0762  2.4481 -0.2941
 7283SOL     OW33481   3.948   2.890  13.953 -0.2831 -0.0087 -0.3074
 7283SOL    HW133482   3.943   2.874  13.858 -1.5836 -2.5710  0.1985
 7283SOL    HW233483   3.938   2.805  13.995 -0.1202  0.7157  1.1837
 7284SOL     OW33484   2.482   0.667   6.243 -0.8098  0.0367  0.0220
 7284SOL    HW133485   2.469   0.578   6.210  0.3893  0.2519 -1.0408
 7284SOL    HW233486   2.407   0.676   6.302 -0.2639 -2.4775  1.0960
 7285SOL     OW33487   3.641   1.553   4.518  1.0105  0.4534 -0.4702
 7285SOL    HW133488   3.624   1.632   4.570  0.8755  0.5871 -0.7194
 7285SOL    HW233489   3.575   1.570   4.451 -1.1820 -0.5476  1.4339
 7286SOL     OW33490   3.023   3.139   3.908 -0.4269 -0.0794  0.6705
 7286SOL    HW133491   3.102   3.191   3.921 -0.8420  0.9751 -0.9958
 7286SOL    HW233492   2.986   3.143   3.996 -2.4209  1.2260 -0.2428
 7287SOL     OW33493   1.973   3.321   1.327 -0.3800 -0.4544 -0.4834
 7287SOL    HW133494   2.049   3.375   1.349  0.6017 -1.7189 -0.7132
 7287SOL    HW233495   1.992   3.255   1.395  0.9510 -0.8381 -1.2127
 7288SOL     OW33496   4.270   2.658   4.608 -0.7016 -0.1174 -0.0092
 7288SOL    HW133497   4.198   2.652   4.545 -1.8670 -2.1143  1.4990
 7288SOL    HW233498   4.206   2.690   4.672 -0.4961 -0.1789  0.2280
 7289SOL     OW33499   2.972   3.291   3.705  0.1095 -0.3851 -0.1991
 7289SOL    HW133500   2.987   3.247   3.789  0.9266 -1.7180 -1.0481
 7289SOL    HW233501   3.050   3.278   3.652 -0.5610 -0.2438 -1.2173
 7290SOL     OW33502   3.708   2.825  12.315  0.4549  0.3205  0.2136
 7290SOL    HW133503   3.621   2.788  12.331 -0.5806  2.7683  0.2454
 7290SOL    HW233504   3.737   2.785  12.233 -2.3450  1.9119 -1.5412
 7291SOL     OW33505   0.159   2.303   4.855  0.2442 -0.0706  0.2132
 7291SOL    HW133506   0.100   2.291   4.780  0.8088  0.2852 -0.2863
 7291SOL    HW233507   0.091   2.347   4.906  0.0547 -0.2632  0.1298
 7292SOL     OW33508   1.540   3.066   5.941  0.3526 -0.0724  0.1229
 7292SOL    HW133509   1.459   3.016   5.943 -0.0809  0.6419  0.6549
 7292SOL    HW233510   1.535   3.086   6.035  1.8909  0.9958 -0.0242
 7293SOL     OW33511   4.088   0.557   6.062  0.1156 -0.1077 -0.1345
 7293SOL    HW133512   4.115   0.507   5.985  0.9010  0.4650 -0.2316
 7293SOL    HW233513   4.144   0.633   6.046 -0.3023 -0.0407 -1.2486
 7294SOL     OW33514   0.461   0.779   3.081  0.3370  0.7525  0.0464
 7294SOL    HW133515   0.393   0.735   3.031  2.4324  0.4757 -2.5873
 7294SOL    HW233516   0.412   0.854   3.115 -1.1856  0.1565 -0.8565
 7295SOL     OW33517   0.649   1.352   7.372 -0.0491 -0.5952  0.5662
 7295SOL    HW133518   0.591   1.394   7.436 -0.4458  1.6271 -1.2439
 7295SOL    HW233519   0.597   1.277   7.343  0.1253 -1.4226  2.4023
 7296SOL     OW33520   1.138   0.213   8.009  0.3480  0.6709 -0.4130
 7296SOL    HW133521   1.213   0.174   8.054 -1.8444 -2.7992  0.2520
 7296SOL    HW233522   1.174   0.270   7.940 -1.1624 -0.8204 -2.4275
 7297SOL     OW33523   1.293   4.144  11.785 -0.6916 -0.6308  0.0473
 7297SOL    HW133524   1.332   4.220  11.742  0.9614 -2.3569 -1.4638
 7297SOL    HW233525   1.300   4.083  11.712 -3.6138  0.1211 -0.8726
 7298SOL     OW33526   2.577   4.239   2.272 -0.4359  0.1702 -0.1823
 7298SOL    HW133527   2.575   4.209   2.181  0.5384 -0.0024 -0.1531
 7298SOL    HW233528   2.521   4.317   2.276 -1.2666 -0.3266 -2.0078
 7299SOL     OW33529   1.107   3.293  10.108  0.0013  0.1106 -0.0160
 7299SOL    HW133530   1.045   3.259  10.173 -2.1783  0.3637 -1.9621
 7299SOL    HW233531   1.063   3.370  10.073  0.2644  0.3010  0.0760
 7300SOL     OW33532   1.831   1.528   6.176 -0.5484  0.1539 -0.1458
 7300SOL    HW133533   1.896   1.598   6.174 -0.5049  0.1693  1.7759
 7300SOL    HW233534   1.866   1.476   6.248  0.8983 -0.5936 -1.4116
 7301SOL     OW33535   0.033   0.384  17.170 -0.0641  0.4309  0.1805
 7301SOL    HW133536   0.045   0.452  17.236 -0.5354  0.3391  0.3562
 7301SOL    HW233537   4.683   0.352  17.182 -0.0956  0.7311  0.7463
 7302SOL     OW33538   0.876   2.607  17.639 -0.3159  0.2283  0.0676
 7302SOL    HW133539   0.807   2.549  17.606 -0.3395  0.5699 -0.4715
 7302SOL    HW233540   0.823   2.671  17.687 -2.2584 -1.1219 -0.2811
 7303SOL     OW33541   3.285   1.252   7.280  0.5571  0.5388  0.1815
 7303SOL    HW133542   3.228   1.175   7.267  1.1580  0.0523  0.4541
 7303SOL    HW233543   3.265   1.267   7.372  2.1567  0.1397  0.5839
 7304SOL     OW33544   0.527   4.232   7.519  0.3667  0.5236 -0.7728
 7304SOL    HW133545   0.520   4.245   7.424 -3.1200  1.9399 -0.3154
 7304SOL    HW233546   0.607   4.280   7.543 -0.2556  2.0671 -1.7479
 7305SOL     OW33547   3.314   1.949   4.402  0.5174 -0.4871 -0.1278
 7305SOL    HW133548   3.276   1.866   4.429  1.5863 -0.5131  1.2713
 7305SOL    HW233549   3.404   1.929   4.375  0.7414 -0.6003  0.6944
 7306SOL     OW33550   2.150   0.979  13.533 -0.2992  0.5662 -0.1085
 7306SOL    HW133551   2.080   1.029  13.491  1.4939  0.9589 -2.6677
 7306SOL    HW233552   2.201   1.051  13.570 -0.7325  0.3460  0.9191
 7307SOL     OW33553   3.853   2.353  17.416  0.2174  0.3854  0.2267
 7307SOL    HW133554   3.870   2.445  17.436  1.2306  0.2862 -0.1624
 7307SOL    HW233555   3.918   2.317  17.477  0.2852  1.4028  0.7557
 7308SOL     OW33556   0.454   4.621   8.366  0.3148 -0.3250 -0.4051
 7308SOL    HW133557   0.400   4.700   8.370  1.9305  0.7342  0.6870
 7308SOL    HW233558   0.498   4.623   8.451 -0.3268 -0.2464 -0.0720
 7309SOL     OW33559   1.823   4.215   5.544  0.6570  0.1054 -0.5218
 7309SOL    HW133560   1.831   4.305   5.576  2.5996 -0.6494  1.1390
 7309SOL    HW233561   1.905   4.179   5.578  0.4381 -1.4800 -1.7162
 7310SOL     OW33562   2.289   1.549   3.993 -0.2687 -0.1709 -0.3879
 7310SOL    HW133563   2.269   1.608   4.065  0.8080 -0.4330  0.1403
 7310SOL    HW233564   2.223   1.485   4.020 -0.3588 -0.3445 -1.0309
 7311SOL     OW33565   2.599   0.190   1.846 -0.5584 -0.0446 -0.4695
 7311SOL    HW133566   2.599   0.096   1.827 -0.2391 -0.4583  1.5208
 7311SOL    HW233567   2.667   0.221   1.787 -0.6632  0.5041 -0.2964
 7312SOL     OW33568   0.731   0.114   8.603 -0.6741 -0.2379 -0.2413
 7312SOL    HW133569   0.722   0.162   8.520  1.6143  0.0468 -0.3170
 7312SOL    HW233570   0.648   0.145   8.639 -0.6815  0.7445 -1.1104
 7313SOL     OW33571   2.980   0.611   6.331 -0.0210  0.1722  0.2520
 7313SOL    HW133572   3.000   0.519   6.309  1.3826  0.9630 -1.7953
 7313SOL    HW233573   2.889   0.616   6.358 -0.1263  2.8830 -0.6679
 7314SOL     OW33574   1.715   1.580   7.968  0.6110 -0.1280 -0.2845
 7314SOL    HW133575   1.735   1.496   7.926 -3.0087  0.0128 -2.2538
 7314SOL    HW233576   1.661   1.603   7.892  1.7267  0.5885 -0.8668
 7315SOL     OW33577   1.400   1.914   2.147 -0.2653  0.0252 -0.0259
 7315SOL    HW133578   1.319   1.944   2.104  0.9518 -0.0771 -2.3751
 7315SOL    HW233579   1.366   1.907   2.236  1.3917 -0.3552  0.5669
 7316SOL     OW33580   3.757   2.374  10.834  0.1133  0.3025  0.1485
 7316SOL    HW133581   3.661   2.373  10.831  0.0445  0.0397  2.0982
 7316SOL    HW233582   3.771   2.292  10.881  0.1784 -0.3865 -1.0914
 7317SOL     OW33583   0.560   3.224  11.264 -0.2543 -1.0827 -0.7319
 7317SOL    HW133584   0.644   3.258  11.234 -1.5090  1.2615 -1.5930
 7317SOL    HW233585   0.491   3.288  11.248  0.3716 -0.0245  0.8663
 7318SOL     OW33586   0.189   2.129   2.392  0.1879 -0.2137 -0.4484
 7318SOL    HW133587   0.231   2.198   2.444  0.8525 -1.4511  0.6490
 7318SOL    HW233588   0.229   2.127   2.305  0.1598 -1.6898 -0.4124
 7319SOL     OW33589   3.330   3.511   5.689  0.2063 -0.2825 -0.1128
 7319SOL    HW133590   3.249   3.551   5.658  2.2891  2.2110 -2.4214
 7319SOL    HW233591   3.378   3.487   5.609  0.4131 -1.4149  0.3536
 7320SOL     OW33592   4.295   4.610   6.282  0.3166  0.0140 -0.0213
 7320SOL    HW133593   4.229   4.679   6.275 -1.3468 -1.3880  1.6967
 7320SOL    HW233594   4.361   4.644   6.343  1.4454 -0.5627 -0.9295
 7321SOL     OW33595   3.407   0.593   2.998  0.1113  0.4862  0.4705
 7321SOL    HW133596   3.431   0.685   2.991  0.1728  0.4526  0.2440
 7321SOL    HW233597   3.316   0.602   2.968 -0.2871 -1.5791  1.0448
 7322SOL     OW33598   2.775   2.374   8.336  0.3089 -0.3563  0.1578
 7322SOL    HW133599   2.830   2.301   8.367  1.7566  0.3556 -0.7642
 7322SOL    HW233600   2.827   2.445   8.373  2.5429 -1.3206 -1.1270
 7323SOL     OW33601   1.908   4.646  17.452  0.0811 -0.2688 -0.1714
 7323SOL    HW133602   1.838   4.711  17.443  1.5778  1.3280 -0.4215
 7323SOL    HW233603   1.983   4.683  17.405  0.9829 -0.5670  0.9975
 7324SOL     OW33604   1.269   4.265   7.457  0.9233  0.2905 -0.2922
 7324SOL    HW133605   1.282   4.359   7.447  0.8580  0.4600  1.2115
 7324SOL    HW233606   1.203   4.259   7.388  0.7857  1.2656 -0.2457
 7325SOL     OW33607   3.510   3.854   3.844  0.1622  0.6208  0.2113
 7325SOL    HW133608   3.539   3.923   3.784 -0.7995  0.0252 -0.9492
 7325SOL    HW233609   3.453   3.811   3.781 -0.1644  0.4234  0.6439
 7326SOL     OW33610   1.894   0.231   4.063 -0.3291 -0.3517 -0.6674
 7326SOL    HW133611   1.894   0.192   3.976  1.6818 -0.1999 -0.7328
 7326SOL    HW233612   1.984   0.258   4.076 -0.9887  0.6419  1.8003
 7327SOL     OW33613   4.631   3.477   7.391 -0.6586 -0.5965  0.1283
 7327SOL    HW133614   4.594   3.489   7.478  0.6472  0.3562  0.5559
 7327SOL    HW233615   4.550   3.450   7.348 -0.2309 -3.1903  0.9226
 7328SOL     OW33616   4.072   2.485   5.259  0.4513  0.1696 -0.0743
 7328SOL    HW133617   4.129   2.519   5.327  0.7432 -1.0853  0.3057
 7328SOL    HW233618   4.130   2.499   5.184  1.2057 -1.0534  0.2953
 7329SOL     OW33619   3.983   4.689   5.278  0.0666 -0.0465 -0.2877
 7329SOL    HW133620   4.052   4.696   5.212 -1.4818  1.1501 -1.7791
 7329SOL    HW233621   3.930   4.623   5.233 -1.4403  1.0838 -0.1404
 7330SOL     OW33622   2.351   1.767  11.948 -0.3695 -0.3319 -0.2001
 7330SOL    HW133623   2.330   1.697  11.887  0.5863 -0.0116 -0.9087
 7330SOL    HW233624   2.395   1.721  12.020 -0.2239  1.9249  1.1587
 7331SOL     OW33625   1.691   1.363  15.615  0.0155  1.1148 -0.3367
 7331SOL    HW133626   1.618   1.334  15.560 -0.3436 -0.4592  0.9700
 7331SOL    HW233627   1.723   1.438  15.565  0.7089  1.6814  0.9764
 7332SOL     OW33628   2.747   4.148  15.462  0.2439  0.2610 -0.1636
 7332SOL    HW133629   2.743   4.080  15.529  0.7119 -0.3474 -0.7562
 7332SOL    HW233630   2.801   4.107  15.395  3.0303  0.4640  1.9670
 7333SOL     OW33631   3.034   2.669   2.758 -0.1650 -0.1692 -0.0105
 7333SOL    HW133632   2.955   2.658   2.812 -0.3220 -3.4070 -0.9039
 7333SOL    HW233633   3.053   2.582   2.724 -3.4478 -1.5056  1.5501
 7334SOL     OW33634   4.122   4.397   7.800 -0.0369 -0.3074  0.1267
 7334SOL    HW133635   4.200   4.452   7.813 -2.1627  2.5100  0.8980
 7334SOL    HW233636   4.081   4.454   7.735 -1.5072  0.6510  1.8974
 7335SOL     OW33637   3.543   3.982   4.950 -0.1340  0.4400  0.1319
 7335SOL    HW133638   3.558   3.909   4.889 -0.0267 -1.1907  2.1183
 7335SOL    HW233639   3.552   3.938   5.035 -1.0599  2.0480  1.0562
 7336SOL     OW33640   1.227   1.024   4.661  1.1517 -0.3950  0.4117
 7336SOL    HW133641   1.300   1.076   4.694  3.1817 -1.7138 -1.9479
 7336SOL    HW233642   1.153   1.077   4.688  0.0242 -2.0259  0.5162
 7337SOL     OW33643   0.853   0.212  14.140 -0.1184 -0.0758 -0.6386
 7337SOL    HW133644   0.830   0.121  14.160 -1.3237  0.5043  0.6109
 7337SOL    HW233645   0.798   0.268  14.195 -0.6042  0.3786 -1.5953
 7338SOL     OW33646   0.825   0.933   6.682 -0.0293 -0.2845  0.1955
 7338SOL    HW133647   0.849   1.012   6.633  1.0960 -1.3859 -1.0198
 7338SOL    HW233648   0.772   0.889   6.615 -1.8776 -0.5069  1.8034
 7339SOL     OW33649   0.152   3.671  10.896 -0.5410 -0.1612 -0.1019
 7339SOL    HW133650   0.228   3.706  10.942 -1.3939  1.1888  0.2706
 7339SOL    HW233651   0.159   3.576  10.896 -1.1207 -0.2010  0.5381
 7340SOL     OW33652   1.876   2.521   3.300  0.5363 -0.1373  0.0328
 7340SOL    HW133653   1.803   2.475   3.257  0.7494  0.6258 -1.1434
 7340SOL    HW233654   1.900   2.565   3.218 -0.2281 -1.2338 -0.7833
 7341SOL     OW33655   3.252   2.280   2.401  0.0002 -0.5206 -0.1203
 7341SOL    HW133656   3.262   2.276   2.305 -0.5787  0.8435 -0.2348
 7341SOL    HW233657   3.338   2.313   2.427 -0.2213 -1.9439  2.4130
 7342SOL     OW33658   0.816   3.441   5.077 -0.0638 -0.1932  0.3430
 7342SOL    HW133659   0.783   3.495   5.149  0.7990  0.1252  0.5021
 7342SOL    HW233660   0.910   3.458   5.079 -0.0952 -0.1256  1.4736
 7343SOL     OW33661   0.797   0.183   4.889  0.1187  0.1204 -0.4511
 7343SOL    HW133662   0.806   0.123   4.815  0.0632 -0.1409 -0.2474
 7343SOL    HW233663   0.861   0.141   4.947  0.2650  0.3822 -0.4222
 7344SOL     OW33664   2.742   1.292   3.057  0.5947  0.5420 -0.3408
 7344SOL    HW133665   2.654   1.281   3.022  0.7430 -1.0475 -0.2239
 7344SOL    HW233666   2.731   1.327   3.146 -0.9742 -0.4199 -0.1587
 7345SOL     OW33667   1.616   1.543   3.418 -0.2185 -0.1489  0.1202
 7345SOL    HW133668   1.637   1.473   3.356  0.6684  2.9716 -3.1124
 7345SOL    HW233669   1.652   1.616   3.368 -0.1416  0.7428  1.4828
 7346SOL     OW33670   0.928   0.512   3.015 -0.1440  0.3631 -0.0745
 7346SOL    HW133671   0.837   0.488   2.997 -0.4874  1.9375 -0.4272
 7346SOL    HW233672   0.909   0.586   3.072  0.2779  1.4773 -1.3829
 7347SOL     OW33673   3.800   3.216   6.838 -0.3743 -0.1854  0.1783
 7347SOL    HW133674   3.758   3.158   6.901 -1.4259 -0.3205 -0.6366
 7347SOL    HW233675   3.787   3.302   6.878 -1.2231 -0.5971  0.7759
 7348SOL     OW33676   1.025   4.551   9.924  0.3912  0.2162 -0.1442
 7348SOL    HW133677   1.044   4.562   9.831 -0.8746 -1.6352 -0.6112
 7348SOL    HW233678   1.094   4.493   9.954  0.0820 -0.7610 -1.3476
 7349SOL     OW33679   3.102   3.516  12.151 -0.6614  0.7374 -0.1389
 7349SOL    HW133680   3.041   3.533  12.079 -1.9824 -0.5883  0.6582
 7349SOL    HW233681   3.044   3.512  12.227  0.4161  1.4459  0.7109
 7350SOL     OW33682   1.325   3.570   6.300 -0.5182  0.1698 -0.2910
 7350SOL    HW133683   1.271   3.492   6.313  0.0730 -0.3481 -1.0119
 7350SOL    HW233684   1.276   3.630   6.356  1.0387  2.5750 -1.5060
 7351SOL     OW33685   4.543   3.761   7.178  0.2321 -0.5341  0.4399
 7351SOL    HW133686   4.584   3.817   7.245 -0.4151  0.7077 -0.1912
 7351SOL    HW233687   4.485   3.704   7.227 -0.6403 -2.0049 -2.3252
 7352SOL     OW33688   3.712   0.993   5.788 -0.6277 -0.3489  0.1844
 7352SOL    HW133689   3.790   1.019   5.836 -1.0927 -1.0879  1.3360
 7352SOL    HW233690   3.647   1.024   5.850 -2.5126  0.9325 -2.4714
 7353SOL     OW33691   3.076   0.066   2.283  0.2974  0.4199 -0.3275
 7353SOL    HW133692   3.045   4.736   2.224  2.0608  1.5948 -2.6834
 7353SOL    HW233693   3.168   0.071   2.254  0.4807  0.3284  0.2358
 7354SOL     OW33694   2.539   4.123   2.934 -0.2419  0.2002 -0.2413
 7354SOL    HW133695   2.565   4.177   2.859 -1.2933  1.2492  0.1522
 7354SOL    HW233696   2.590   4.042   2.928 -2.5785 -1.3720  1.2807
 7355SOL     OW33697   0.452   4.398   2.161  0.0889 -0.6735 -0.2895
 7355SOL    HW133698   0.383   4.337   2.186  1.1018 -0.7773  2.2515
 7355SOL    HW233699   0.515   4.339   2.120 -0.6501  0.2662 -2.7691
 7356SOL     OW33700   0.771   4.208  11.677  0.6915 -0.3547  0.1085
 7356SOL    HW133701   0.785   4.286  11.623 -3.5439  0.4897  0.2398
 7356SOL    HW233702   0.683   4.178  11.653  0.3020  0.1436  0.9291
 7357SOL     OW33703   1.339   1.273   5.051  0.0776  0.0198 -0.4258
 7357SOL    HW133704   1.281   1.341   5.085 -0.2086  0.0648 -1.0095
 7357SOL    HW233705   1.328   1.202   5.115  0.2915  1.3638  1.1070
 7358SOL     OW33706   0.353   2.766   8.694  0.4776 -0.5854  0.2375
 7358SOL    HW133707   0.323   2.675   8.691  1.8890 -1.0758  0.6661
 7358SOL    HW233708   0.448   2.754   8.707  0.4136 -1.2500  0.0694
 7359SOL     OW33709   1.047   3.091  14.026 -0.0817  0.1171 -0.1693
 7359SOL    HW133710   1.048   3.137  14.109 -0.8587 -1.2851  0.6349
 7359SOL    HW233711   0.990   3.145  13.971 -1.4721  0.0372  1.1817
 7360SOL     OW33712   1.463   2.165   3.162  0.1502  0.0039 -0.2726
 7360SOL    HW133713   1.372   2.137   3.157  0.2790 -0.8483  1.9854
 7360SOL    HW233714   1.458   2.258   3.187  0.6617 -0.1564  0.4222
 7361SOL     OW33715   3.883   4.334  14.679  0.5206 -0.2417  0.3174
 7361SOL    HW133716   3.895   4.416  14.631  2.1346 -0.9720 -0.5415
 7361SOL    HW233717   3.901   4.373  14.764 -0.7024  4.0934 -1.4075
 7362SOL     OW33718   2.706   1.497   9.536 -0.0057 -0.0542  0.0080
 7362SOL    HW133719   2.771   1.501   9.607  1.2692  0.4679 -1.1833
 7362SOL    HW233720   2.748   1.535   9.459 -1.6022  0.3764 -0.6500
 7363SOL     OW33721   3.898   1.740   5.233  0.0463  0.0212 -0.4801
 7363SOL    HW133722   3.910   1.716   5.141 -1.4482  0.2776 -0.7424
 7363SOL    HW233723   3.803   1.724   5.233  0.0241  0.1977  0.6773
 7364SOL     OW33724   2.739   0.911   4.920  0.4667 -0.0010  0.3693
 7364SOL    HW133725   2.665   0.932   4.977  1.2800  2.6931  0.4447
 7364SOL    HW233726   2.691   0.886   4.841  1.6848  2.6108 -1.1996
 7365SOL     OW33727   1.182   2.250   9.460 -0.0746  0.2953  0.5257
 7365SOL    HW133728   1.202   2.303   9.382  2.9715 -1.3202  0.2291
 7365SOL    HW233729   1.244   2.287   9.522 -1.7591 -0.2329  2.4952
 7366SOL     OW33730   1.857   2.524  15.638  0.1236 -0.2273  0.0372
 7366SOL    HW133731   1.771   2.564  15.626  0.3059 -0.2322 -1.2579
 7366SOL    HW233732   1.848   2.460  15.709 -0.8948 -1.8485 -1.5518
 7367SOL     OW33733   0.459   4.069  15.683  0.1330  0.5394  0.5889
 7367SOL    HW133734   0.430   4.152  15.722  0.7305  0.6769  0.7535
 7367SOL    HW233735   0.488   4.087  15.594  2.0785  1.9024  1.4907
 7368SOL     OW33736   0.044   3.168   5.550  0.7164  0.0418  0.5216
 7368SOL    HW133737   0.088   3.170   5.635  0.3041  2.1233  0.6907
 7368SOL    HW233738   4.723   3.095   5.561  1.1370 -0.4334 -0.4295
 7369SOL     OW33739   1.293   3.188   6.827 -0.2520 -0.0440 -0.4512
 7369SOL    HW133740   1.317   3.269   6.873 -0.8113 -0.5832  0.8046
 7369SOL    HW233741   1.378   3.144   6.819 -1.1322 -1.8934  0.3898
 7370SOL     OW33742   4.456   4.166   2.568  0.6087  0.0116  0.3872
 7370SOL    HW133743   4.403   4.226   2.516  1.8838  0.7734 -0.0257
 7370SOL    HW233744   4.464   4.089   2.511 -0.9306 -0.8226  1.2654
 7371SOL     OW33745   3.900   0.165   2.584  0.7202  0.0929 -0.1533
 7371SOL    HW133746   3.965   0.214   2.533  0.7979 -0.8385 -0.9551
 7371SOL    HW233747   3.826   0.197   2.533 -0.7462  0.5789  2.2623
 7372SOL     OW33748   1.807   2.191   6.484  0.0158  0.1945  0.0735
 7372SOL    HW133749   1.792   2.173   6.576 -1.8470  1.6051  0.0551
 7372SOL    HW233750   1.901   2.209   6.489  0.0870  0.0735 -0.8593
 7373SOL     OW33751   3.788   4.007   5.301 -0.2347 -0.0630  0.2257
 7373SOL    HW133752   3.745   3.942   5.245  0.8046 -0.7259  0.1847
 7373SOL    HW233753   3.758   3.982   5.388 -0.8604  0.0175  0.0346
 7374SOL     OW33754   1.037   0.114   2.833 -0.2410 -0.1351 -0.6398
 7374SOL    HW133755   1.040   0.158   2.918 -0.5843  1.7910 -1.6263
 7374SOL    HW233756   0.943   0.114   2.817 -0.1558 -0.3712 -1.1325
 7375SOL     OW33757   0.011   4.075  16.610 -0.1055  0.6717  0.0153
 7375SOL    HW133758   0.016   4.138  16.538 -0.6130  0.6413 -0.0499
 7375SOL    HW233759   4.665   4.033  16.597  1.6290 -2.5702 -0.7247
 7376SOL     OW33760   0.737   1.607   3.414  0.5373  0.4623  0.6436
 7376SOL    HW133761   0.666   1.548   3.437 -0.4206  1.0906 -0.6537
 7376SOL    HW233762   0.806   1.569   3.468 -0.3705 -1.5668  0.3810
 7377SOL     OW33763   3.438   0.495   7.096 -0.3095  0.6949 -0.2496
 7377SOL    HW133764   3.368   0.559   7.083 -2.0914 -1.4332 -1.0856
 7377SOL    HW233765   3.490   0.519   7.173 -3.1634  2.4991  1.1365
 7378SOL     OW33766   2.607   0.958  15.581  0.0540  0.1481 -0.1040
 7378SOL    HW133767   2.598   1.052  15.563  0.5351  0.8196  3.1755
 7378SOL    HW233768   2.519   0.956  15.619  0.5599  1.5631  1.1259
 7379SOL     OW33769   2.375   3.969   2.126  0.1908 -0.3104 -0.4834
 7379SOL    HW133770   2.350   3.885   2.165 -1.1734  0.4032  0.1873
 7379SOL    HW233771   2.372   4.030   2.200 -2.7156 -1.0212 -0.0279
 7380SOL     OW33772   3.764   3.089   2.380  0.6946 -0.8721  0.2131
 7380SOL    HW133773   3.750   3.162   2.441  3.3758 -2.8411  3.2580
 7380SOL    HW233774   3.684   3.038   2.385 -0.4064  0.7754 -0.8694
 7381SOL     OW33775   0.224   4.240   6.479  0.0538 -0.0406  0.1216
 7381SOL    HW133776   0.245   4.311   6.419 -2.4390  2.6571  2.4374
 7381SOL    HW233777   0.138   4.220   6.444 -0.3756  3.0865 -0.6250
 7382SOL     OW33778   0.215   1.512   9.345  1.5878 -0.4471  0.1387
 7382SOL    HW133779   0.236   1.532   9.436  0.8080 -1.3052  0.5141
 7382SOL    HW233780   0.302   1.514   9.305  1.0367 -0.2376 -1.0632
 7383SOL     OW33781   0.172   4.496   2.059  0.0814 -0.3598  0.0192
 7383SOL    HW133782   0.255   4.464   2.095  0.2418  0.4481  0.3797
 7383SOL    HW233783   0.173   4.470   1.967  1.2724 -1.1944  0.2651
 7384SOL     OW33784   2.705   3.791   6.598 -0.1363 -0.1345 -0.0319
 7384SOL    HW133785   2.730   3.820   6.686 -0.6540 -0.1514  0.1238
 7384SOL    HW233786   2.649   3.714   6.613  0.6528 -0.7085 -0.0458
 7385SOL     OW33787   3.354   2.656  13.211 -0.0122 -0.3388  0.1406
 7385SOL    HW133788   3.293   2.718  13.169 -0.2520  1.6088  3.3854
 7385SOL    HW233789   3.304   2.574  13.216 -1.3830  0.5134  0.5648
 7386SOL     OW33790   3.788   2.556   0.757  0.5330 -0.4686  0.3826
 7386SOL    HW133791   3.788   2.651   0.770 -0.6396 -0.3410 -0.5373
 7386SOL    HW233792   3.873   2.538   0.717  1.2001  1.9860  0.6741
 7387SOL     OW33793   0.960   3.337   7.467  0.3226  1.0545  0.1948
 7387SOL    HW133794   1.038   3.353   7.415  0.6240  0.1211  0.3631
 7387SOL    HW233795   0.889   3.339   7.402  0.6921 -0.9781 -0.2613
 7388SOL     OW33796   2.247   0.714  16.285 -0.1075  0.1590  0.2791
 7388SOL    HW133797   2.308   0.735  16.214  1.4246  1.3930  1.9318
 7388SOL    HW233798   2.280   0.762  16.361 -0.5710  0.6598  0.1561
 7389SOL     OW33799   2.511   0.600  17.588  0.4924 -0.5287  0.0323
 7389SOL    HW133800   2.563   0.524  17.561  0.4414 -1.3207  2.1454
 7389SOL    HW233801   2.423   0.575  17.560  0.3263  1.1871 -0.9727
 7390SOL     OW33802   4.480   1.756   8.315  0.2470 -0.3554 -0.0673
 7390SOL    HW133803   4.573   1.774   8.299 -0.1239  1.4479 -0.2769
 7390SOL    HW233804   4.487   1.694   8.387  1.0264  0.5339  0.6295
 7391SOL     OW33805   0.734   4.632  13.552  0.1077  0.0176  0.0034
 7391SOL    HW133806   0.790   4.613  13.476 -0.1258 -0.1061 -0.1364
 7391SOL    HW233807   0.723   4.547  13.595  1.3818 -1.0251 -1.7002
 7392SOL     OW33808   3.222   1.533  14.099 -0.0644 -0.1254  0.0706
 7392SOL    HW133809   3.310   1.502  14.120 -0.1813  0.0188  0.7700
 7392SOL    HW233810   3.254   1.596  14.035  0.5810 -0.9801 -0.4535
 7393SOL     OW33811   3.847   3.954   4.966  0.1413 -0.0240  0.0374
 7393SOL    HW133812   3.839   3.903   4.885  3.1016 -0.6807  0.1568
 7393SOL    HW233813   3.829   3.898   5.041 -1.9037  0.2582 -0.2396
 7394SOL     OW33814   2.300   0.517  17.402 -0.3954  0.0384 -0.8396
 7394SOL    HW133815   2.354   0.571  17.344 -1.0197 -1.6097 -2.9375
 7394SOL    HW233816   2.217   0.522  17.356  0.4199 -1.8028 -2.4839
 7395SOL     OW33817   0.653   4.378   5.766  0.3792  0.1311 -0.1600
 7395SOL    HW133818   0.593   4.391   5.840 -0.8807 -2.2655 -0.7556
 7395SOL    HW233819   0.729   4.346   5.814 -0.5333  0.2653  1.3958
 7396SOL     OW33820   1.491   3.397   3.996  0.4306  0.4080  0.1868
 7396SOL    HW133821   1.450   3.482   3.982  0.9240  0.5853 -0.1727
 7396SOL    HW233822   1.583   3.422   3.994  0.1063  1.3967 -2.2945
 7397SOL     OW33823   2.753   3.112   7.783 -0.3072  0.0913 -0.0853
 7397SOL    HW133824   2.709   3.067   7.855  0.7024 -1.0272 -0.1743
 7397SOL    HW233825   2.712   3.197   7.799  0.3386  0.1492  1.2442
 7398SOL     OW33826   1.649   2.963   3.815 -0.2630  0.4509  0.4061
 7398SOL    HW133827   1.585   3.027   3.784 -0.7178  1.1794  2.8918
 7398SOL    HW233828   1.701   3.016   3.876 -0.6089 -0.7301  1.7300
 7399SOL     OW33829   3.635   0.599  11.075 -0.0607  0.1933  0.6632
 7399SOL    HW133830   3.605   0.532  11.014  0.3828 -0.5627  1.2716
 7399SOL    HW233831   3.610   0.677  11.026  0.4724 -0.0222  0.0559
 7400SOL     OW33832   1.755   2.987   8.035  0.3150  0.5521 -0.2871
 7400SOL    HW133833   1.704   2.998   7.955  1.0218 -0.8226 -0.9367
 7400SOL    HW233834   1.681   2.972   8.094  0.2130  1.6159 -0.1527
 7401SOL     OW33835   0.209   1.383   6.659  0.2911 -0.1650 -0.3214
 7401SOL    HW133836   0.267   1.307   6.670  2.4023  1.1412 -2.3049
 7401SOL    HW233837   0.148   1.367   6.730  0.3400  0.6333 -0.0977
 7402SOL     OW33838   1.471   1.523  12.371 -0.0803  0.3245  0.2694
 7402SOL    HW133839   1.517   1.584  12.429  0.2745  0.0367  0.2911
 7402SOL    HW233840   1.394   1.522  12.427 -1.6999 -0.6031 -1.9656
 7403SOL     OW33841   3.931   1.993   7.088 -0.2075  0.1129 -0.5863
 7403SOL    HW133842   3.966   1.913   7.126 -0.8662  0.1963  0.1697
 7403SOL    HW233843   4.001   2.051   7.118  1.7091 -2.9806  0.9255
 7404SOL     OW33844   2.481   4.510   7.557  0.1293 -0.2738  0.0575
 7404SOL    HW133845   2.518   4.552   7.479  0.5326  0.8351  0.8402
 7404SOL    HW233846   2.553   4.500   7.620 -1.6516  2.5869  2.5845
 7405SOL     OW33847   3.117   2.078   8.178  0.3118  0.2139 -0.1774
 7405SOL    HW133848   3.128   1.990   8.143 -0.6975 -0.4869  1.3015
 7405SOL    HW233849   3.204   2.111   8.154  1.5115 -1.3760  2.0263
 7406SOL     OW33850   0.006   3.269   6.250 -0.4529  0.1435  0.4645
 7406SOL    HW133851   0.064   3.343   6.232 -2.7002  1.6793 -0.4084
 7406SOL    HW233852   0.025   3.242   6.340 -1.4850  0.1301  0.6844
 7407SOL     OW33853   2.751   3.720   7.409 -0.2061  0.4683 -0.0012
 7407SOL    HW133854   2.672   3.769   7.387 -1.7631 -1.7709  0.6893
 7407SOL    HW233855   2.814   3.738   7.339  1.2345  2.0562  1.7067
 7408SOL     OW33856   0.964   4.573   3.534 -0.3123  0.1088 -0.9379
 7408SOL    HW133857   0.955   4.560   3.628 -0.5780 -1.6808 -1.2054
 7408SOL    HW233858   0.876   4.600   3.510 -0.3272  0.6527 -0.2579
 7409SOL     OW33859   2.014   2.138   2.730  0.0810  0.5511  0.6970
 7409SOL    HW133860   2.054   2.216   2.691  0.2257 -0.0664 -0.3718
 7409SOL    HW233861   2.004   2.167   2.821 -0.2419 -2.0238  1.4612
 7410SOL     OW33862   2.751   2.159  16.266  0.1668  0.4401  0.0067
 7410SOL    HW133863   2.846   2.149  16.270  0.2330  2.2158  2.8528
 7410SOL    HW233864   2.741   2.156  16.171  0.3904  1.1141 -0.0414
 7411SOL     OW33865   3.909   0.275   9.010 -0.6361  0.0603 -0.2600
 7411SOL    HW133866   4.003   0.284   9.022 -0.6364 -2.0666  1.2657
 7411SOL    HW233867   3.894   0.367   9.034  1.3549  0.6908 -1.4924
 7412SOL     OW33868   0.138   1.407   2.653 -0.4797  0.0708  0.7480
 7412SOL    HW133869   0.061   1.407   2.596  1.8370  3.0063 -2.4449
 7412SOL    HW233870   0.173   1.326   2.615 -1.3962  0.1327 -0.2224
 7413SOL     OW33871   4.416   4.714   0.229  0.0724 -0.5266  0.2070
 7413SOL    HW133872   4.412   0.050   0.287 -0.7430 -0.1964 -0.2707
 7413SOL    HW233873   4.398   4.643   0.291 -0.0987 -1.3916 -0.8266
 7414SOL     OW33874   0.622   2.544   6.281 -0.0293 -0.5850  0.2440
 7414SOL    HW133875   0.705   2.592   6.272 -1.3996  1.6129 -0.6862
 7414SOL    HW233876   0.615   2.493   6.200  0.1866 -0.1082 -0.0778
 7415SOL     OW33877   0.514   0.053   6.066  0.0874  0.3040 -0.2563
 7415SOL    HW133878   0.603   0.033   6.038  0.6956  3.1864 -0.3330
 7415SOL    HW233879   0.470   0.041   5.982  1.7019  1.1054 -1.1956
 7416SOL     OW33880   3.553   0.868  11.843  0.0256  0.1241 -0.3389
 7416SOL    HW133881   3.586   0.924  11.914 -1.2450  0.2565  0.1401
 7416SOL    HW233882   3.581   0.784  11.879 -0.5484 -0.0414 -0.2951
 7417SOL     OW33883   1.549   4.705  12.090  0.5112  0.1915 -0.5718
 7417SOL    HW133884   1.472   0.011  12.055  0.9652 -0.3082 -2.2136
 7417SOL    HW233885   1.571   0.033  12.155 -0.2575 -0.9268  0.8496
 7418SOL     OW33886   4.268   3.109   4.460 -0.4608 -0.0852 -0.1848
 7418SOL    HW133887   4.335   3.177   4.455 -0.2293 -0.2709  0.3448
 7418SOL    HW233888   4.318   3.045   4.511  2.3994  1.7857 -0.6356
 7419SOL     OW33889   1.377   2.605   3.457  0.4631 -0.1450  0.0579
 7419SOL    HW133890   1.369   2.686   3.407  1.7810  0.5292  0.9363
 7419SOL    HW233891   1.287   2.571   3.451  0.6291 -0.0114 -3.3404
 7420SOL     OW33892   0.934   0.712   6.264 -0.3398 -0.1435 -0.0589
 7420SOL    HW133893   0.900   0.626   6.240  2.0049 -1.2119  0.4327
 7420SOL    HW233894   0.923   0.707   6.360 -0.9988 -1.7760 -0.2105
 7421SOL     OW33895   2.960   4.651   7.671 -0.6263  0.1378  0.0389
 7421SOL    HW133896   3.043   4.694   7.648  0.1066 -0.7808  0.9660
 7421SOL    HW233897   2.893   4.708   7.634 -1.8806 -1.0947  0.4650
 7422SOL     OW33898   3.981   1.284   6.243 -1.0389  0.2591  0.0197
 7422SOL    HW133899   4.075   1.301   6.249 -0.4397 -2.7503 -0.6571
 7422SOL    HW233900   3.955   1.361   6.194  0.3563  0.2699 -0.6824
 7423SOL     OW33901   2.328   1.544   2.663  0.0992 -0.3486  0.2084
 7423SOL    HW133902   2.398   1.535   2.598 -0.6533 -0.8838 -0.5215
 7423SOL    HW233903   2.350   1.628   2.703  0.0712 -1.0224  1.6392
 7424SOL     OW33904   3.718   1.750   0.428  0.2601  0.1048 -0.2698
 7424SOL    HW133905   3.710   1.662   0.390 -1.6306  0.1349  0.0652
 7424SOL    HW233906   3.767   1.720   0.504  0.6405 -0.3357 -0.6867
 7425SOL     OW33907   2.437   4.180   6.920 -0.1792  0.1104  0.0456
 7425SOL    HW133908   2.485   4.101   6.896 -0.3935  1.0424 -3.4438
 7425SOL    HW233909   2.458   4.247   6.856  0.9726 -1.4334 -1.1855
 7426SOL     OW33910   1.617   3.240   6.630  0.5274  0.2282 -0.0591
 7426SOL    HW133911   1.592   3.266   6.542  1.5061  1.0738 -0.0883
 7426SOL    HW233912   1.659   3.155   6.617 -1.8416 -0.8091 -0.9651
 7427SOL     OW33913   1.007   3.316  11.742  0.2685  0.5521 -0.5483
 7427SOL    HW133914   0.964   3.362  11.670 -0.3072 -2.5018 -2.1516
 7427SOL    HW233915   1.085   3.369  11.757  0.4409 -0.0498  0.6691
 7428SOL     OW33916   1.710   1.112   2.313 -0.0868 -0.6551  0.3389
 7428SOL    HW133917   1.714   1.095   2.219  0.9991  0.2977  0.2074
 7428SOL    HW233918   1.764   1.191   2.315 -0.1936 -0.5413 -1.1175
 7429SOL     OW33919   4.367   2.230   0.655 -0.0035 -0.3365 -0.2139
 7429SOL    HW133920   4.461   2.213   0.665  0.2394  1.6174  0.9228
 7429SOL    HW233921   4.386   2.307   0.602 -1.1740 -0.8091 -1.3053
 7430SOL     OW33922   0.744   1.276   3.776 -0.3304 -0.5146  0.3701
 7430SOL    HW133923   0.676   1.332   3.815 -1.1693 -0.1250 -1.6547
 7430SOL    HW233924   0.747   1.203   3.838  4.4450  0.7374  1.6393
 7431SOL     OW33925   2.598   4.490   4.842  0.0702  0.1114 -0.4341
 7431SOL    HW133926   2.692   4.492   4.824  0.3238 -2.4429  0.6100
 7431SOL    HW233927   2.558   4.419   4.791 -0.7355  1.2998 -1.4749
 7432SOL     OW33928   1.397   1.441  10.070 -0.3722  0.7893  0.2138
 7432SOL    HW133929   1.430   1.375  10.131 -0.1049 -1.1769 -2.0598
 7432SOL    HW233930   1.446   1.518  10.098  1.7724 -0.4056 -0.2753
 7433SOL     OW33931   2.262   0.399  10.973  0.2212  0.0476  0.0998
 7433SOL    HW133932   2.225   0.453  10.903  1.8707  0.8618 -0.1464
 7433SOL    HW233933   2.226   0.426  11.058  0.0317 -1.2951  0.4346
 7434SOL     OW33934   2.025   1.972   6.392 -0.1398 -0.0510 -0.1246
 7434SOL    HW133935   2.117   1.996   6.381 -0.0205 -0.4239  0.0613
 7434SOL    HW233936   2.031   1.928   6.476  1.2960 -2.2954 -1.3847
 7435SOL     OW33937   2.691   3.579  13.469 -1.3019 -0.6145 -0.1436
 7435SOL    HW133938   2.707   3.576  13.375  1.7153 -1.6223  0.4169
 7435SOL    HW233939   2.774   3.618  13.495 -0.3792 -1.3211 -2.0590
 7436SOL     OW33940   2.924   2.904   4.592 -0.3914 -0.1401 -0.3325
 7436SOL    HW133941   2.839   2.866   4.613 -0.8868  1.1949  0.1125
 7436SOL    HW233942   2.951   2.942   4.675  0.8049 -0.6855 -0.4703
 7437SOL     OW33943   1.328   0.900   3.907  0.6482 -0.3946 -0.1739
 7437SOL    HW133944   1.327   0.940   3.994 -0.6199 -2.0356  0.5860
 7437SOL    HW233945   1.329   0.810   3.941 -0.9411 -0.9843 -1.6607
 7438SOL     OW33946   1.762   1.308   7.892  0.3934 -0.2551 -0.2184
 7438SOL    HW133947   1.685   1.265   7.853  0.0118 -1.1830  1.5595
 7438SOL    HW233948   1.816   1.332   7.817 -0.2695  1.1484 -0.2360
 7439SOL     OW33949   4.245   3.062  15.149  0.6311 -0.0962  0.0397
 7439SOL    HW133950   4.165   3.095  15.107  0.0265 -1.1171  0.3747
 7439SOL    HW233951   4.278   3.018  15.070  0.4508 -1.3828  0.6844
 7440SOL     OW33952   3.906   0.800   3.270 -0.2215  0.1524 -0.3540
 7440SOL    HW133953   3.847   0.854   3.217  1.2946  1.3219 -0.8506
 7440SOL    HW233954   3.934   0.736   3.205 -0.7086 -1.5450  1.1141
 7441SOL     OW33955   4.064   4.335   8.334  0.2979 -0.0874 -0.5054
 7441SOL    HW133956   4.131   4.400   8.358  0.3724  0.4566 -2.1516
 7441SOL    HW233957   4.040   4.368   8.247 -0.4838  0.6724 -0.0063
 7442SOL     OW33958   3.984   3.016  15.053  0.9454 -0.1090  0.5249
 7442SOL    HW133959   4.026   2.961  14.987 -2.8321  0.7249 -2.5967
 7442SOL    HW233960   3.891   2.999  15.036  1.2844  0.1335 -1.6316
 7443SOL     OW33961   0.589   2.768   2.622  0.9200  0.9017  0.1455
 7443SOL    HW133962   0.580   2.863   2.616 -1.9919  0.5987 -0.0759
 7443SOL    HW233963   0.521   2.750   2.687 -1.0783  0.1223 -2.1872
 7444SOL     OW33964   1.012   2.744   3.433  0.0540  0.3374  0.1688
 7444SOL    HW133965   0.932   2.731   3.382  0.7971 -2.2894 -0.3373
 7444SOL    HW233966   1.048   2.823   3.392  0.3051 -0.4111 -1.0574
 7445SOL     OW33967   2.551   3.705   0.867  0.4697 -0.4513 -0.2813
 7445SOL    HW133968   2.640   3.719   0.901  0.4591 -0.6517 -0.1726
 7445SOL    HW233969   2.512   3.711   0.955 -1.0973  3.2283 -1.2276
 7446SOL     OW33970   4.501   2.374   6.439 -0.0019 -0.5057  0.0525
 7446SOL    HW133971   4.540   2.433   6.504 -0.6254 -0.8934  0.7738
 7446SOL    HW233972   4.443   2.320   6.493 -2.5064  1.1437 -0.9891
 7447SOL     OW33973   0.559   4.462   3.964  0.3638 -0.8982 -0.4560
 7447SOL    HW133974   0.503   4.521   4.014  1.2089  0.9374 -1.6522
 7447SOL    HW233975   0.518   4.376   3.972 -2.7868  0.7223  0.5510
 7448SOL     OW33976   2.916   3.124   6.431  0.6803  0.5837 -0.0242
 7448SOL    HW133977   2.969   3.146   6.507 -0.7955 -2.0504  1.7681
 7448SOL    HW233978   2.827   3.110   6.464 -0.2277  0.6190 -2.4563
 7449SOL     OW33979   1.269   1.974   3.657  0.0300  0.1072  0.1610
 7449SOL    HW133980   1.207   1.999   3.725  0.0207  0.6957 -0.0647
 7449SOL    HW233981   1.348   2.014   3.693  0.3561 -0.3807 -0.0131
 7450SOL     OW33982   1.263   3.694   0.650  0.1532 -0.2786 -0.2303
 7450SOL    HW133983   1.254   3.609   0.606 -0.6069  1.5864 -3.6878
 7450SOL    HW233984   1.179   3.730   0.621  0.8601  1.3508 -0.2658
 7451SOL     OW33985   2.409   1.678   5.763 -0.3006  0.1447 -0.1077
 7451SOL    HW133986   2.481   1.732   5.731  1.9537 -1.5565  2.0789
 7451SOL    HW233987   2.329   1.721   5.734  0.1179  1.6294  0.9443
 7452SOL     OW33988   4.734   0.535   2.098 -0.3286 -0.2758  0.1515
 7452SOL    HW133989   4.726   0.441   2.116  0.6463 -0.0078  1.9216
 7452SOL    HW233990   4.704   0.523   2.008 -1.2859  2.1955  0.1385
 7453SOL     OW33991   0.307   1.173   4.712  0.0266 -0.3481  0.1409
 7453SOL    HW133992   0.313   1.250   4.656  1.7805  0.3611  1.3202
 7453SOL    HW233993   0.294   1.215   4.797  0.1202 -0.7174  0.3389
 7454SOL     OW33994   2.704   4.037   1.734 -0.1918 -0.0234  0.1706
 7454SOL    HW133995   2.657   3.962   1.769  0.7026 -1.0823 -0.8769
 7454SOL    HW233996   2.719   4.023   1.640 -2.3029 -1.1264  0.0104
 7455SOL     OW33997   3.230   2.184  14.408 -0.0476 -0.6685  0.4014
 7455SOL    HW133998   3.274   2.220  14.331 -0.1911 -0.8325  0.2408
 7455SOL    HW233999   3.157   2.141  14.364 -1.3588 -0.0564  1.9978
 7456SOL     OW34000   0.828   2.218  16.220 -0.5377 -0.6476 -0.2371
 7456SOL    HW134001   0.852   2.234  16.129  0.7166 -2.5852 -0.2571
 7456SOL    HW234002   0.778   2.137  16.220 -0.4270 -0.7147 -0.6461
 7457SOL     OW34003   4.332   2.390  14.439 -0.1967 -0.0935 -0.0931
 7457SOL    HW134004   4.281   2.456  14.393 -0.7745 -2.2838 -2.6249
 7457SOL    HW234005   4.286   2.366  14.519  0.5975  0.2271  0.4620
 7458SOL     OW34006   1.939   0.123   7.050 -0.3367  0.1438  0.0937
 7458SOL    HW134007   1.912   0.212   7.073 -0.2338  0.1329  0.2526
 7458SOL    HW234008   1.922   0.087   7.137  0.6164 -2.2253 -0.6947
 7459SOL     OW34009   1.675   0.261   9.002 -0.0182 -0.1606 -0.0484
 7459SOL    HW134010   1.742   0.308   8.952  0.1050 -0.2653  0.0189
 7459SOL    HW234011   1.713   0.174   9.012 -1.5020 -0.8035  0.0255
 7460SOL     OW34012   1.719   1.172   8.140 -0.1805  0.1759 -0.5182
 7460SOL    HW134013   1.664   1.245   8.169  1.3805  0.0408  2.8099
 7460SOL    HW234014   1.696   1.177   8.048 -0.2029 -1.1305 -0.5823
 7461SOL     OW34015   4.320   0.036  10.019 -0.5996  0.6701  0.0421
 7461SOL    HW134016   4.348   0.127  10.014 -0.4632  0.6310  0.0853
 7461SOL    HW234017   4.229   0.036  10.049 -1.1786 -1.2327 -1.7239
 7462SOL     OW34018   2.492   3.646   4.822 -0.0367  0.1163 -0.2084
 7462SOL    HW134019   2.523   3.722   4.870 -1.4631 -0.3644  1.4566
 7462SOL    HW234020   2.473   3.675   4.732 -2.0804  2.1186  0.8579
 7463SOL     OW34021   0.711   3.021   6.456 -0.5665 -0.0857 -0.4655
 7463SOL    HW134022   0.641   3.026   6.390 -1.9980  3.8928  1.3467
 7463SOL    HW234023   0.755   2.939   6.435  1.7208  1.1323 -0.4923
 7464SOL     OW34024   3.030   3.169   1.219  0.2498  0.6608 -0.3145
 7464SOL    HW134025   3.003   3.163   1.128  0.7019  3.3365 -0.6213
 7464SOL    HW234026   3.014   3.079   1.246 -2.8546  1.0984 -0.6980
 7465SOL     OW34027   4.239   1.621   7.403 -0.6520 -0.5729 -0.4069
 7465SOL    HW134028   4.290   1.607   7.323  0.0154 -0.2495 -0.0404
 7465SOL    HW234029   4.228   1.530   7.430 -2.1418 -0.8652 -1.9639
 7466SOL     OW34030   0.503   0.105  15.691 -0.2880  0.3859  0.6204
 7466SOL    HW134031   0.461   0.185  15.661  0.6489  0.1893 -1.2200
 7466SOL    HW234032   0.592   0.139  15.700  0.0262 -0.5679  1.1136
 7467SOL     OW34033   3.822   2.110   3.523  0.3513 -0.1656  0.3816
 7467SOL    HW134034   3.770   2.177   3.567 -2.2591 -1.3119 -0.9529
 7467SOL    HW234035   3.766   2.092   3.447  1.7999 -0.0267 -0.7199
 7468SOL     OW34036   2.045   0.595   3.903  0.1905 -0.5342 -0.1122
 7468SOL    HW134037   2.110   0.623   3.968  0.5382  0.9941 -1.1004
 7468SOL    HW234038   1.969   0.581   3.958  1.6846  2.0935  2.6326
 7469SOL     OW34039   3.843   2.432   5.674  0.5882  0.6351 -0.2206
 7469SOL    HW134040   3.783   2.450   5.601 -0.7742  0.5243  0.8713
 7469SOL    HW234041   3.781   2.457   5.743 -1.8814  0.8551 -2.5319
 7470SOL     OW34042   4.184   1.593   0.694 -0.4961  0.0232 -0.7753
 7470SOL    HW134043   4.168   1.687   0.688 -1.2171  0.0455  1.4384
 7470SOL    HW234044   4.253   1.591   0.760 -1.2317 -0.8271 -0.0185
 7471SOL     OW34045   4.087   3.093   4.802  0.5561  0.1899  0.1732
 7471SOL    HW134046   4.075   3.186   4.822 -1.0861 -0.2776  1.3795
 7471SOL    HW234047   4.031   3.051   4.867 -1.2934  2.1109 -0.1363
 7472SOL     OW34048   1.696   1.932   9.055  0.0495  0.4679 -0.5178
 7472SOL    HW134049   1.777   1.924   9.104  0.4435 -1.8925 -1.5360
 7472SOL    HW234050   1.687   1.841   9.026 -1.7285 -0.3974  2.7331
 7473SOL     OW34051   2.583   3.943   9.284  0.3173  0.0254 -0.7676
 7473SOL    HW134052   2.645   4.004   9.324 -1.1573  1.1886 -0.2240
 7473SOL    HW234053   2.646   3.884   9.243 -1.1187 -0.5444 -2.1547
 7474SOL     OW34054   3.442   2.494   9.802 -0.4858  0.3223 -0.4300
 7474SOL    HW134055   3.359   2.537   9.821 -2.0607 -3.8982  2.3151
 7474SOL    HW234056   3.431   2.476   9.708 -3.4861  0.6895 -0.1540
 7475SOL     OW34057   2.489   1.604   8.220  0.2555 -0.3176  0.3620
 7475SOL    HW134058   2.441   1.544   8.163  0.1174 -0.0775  0.2270
 7475SOL    HW234059   2.530   1.551   8.289 -0.3378  1.7409  2.3083
 7476SOL     OW34060   4.054   3.365   6.681 -0.7206 -0.5090  0.1241
 7476SOL    HW134061   4.063   3.309   6.758 -1.5825 -0.4345  0.2714
 7476SOL    HW234062   3.959   3.372   6.674 -0.8211 -3.4114 -1.2062
 7477SOL     OW34063   4.101   1.866   9.016  0.5628 -0.0378  0.0805
 7477SOL    HW134064   4.147   1.949   9.026 -1.0050  0.8831 -0.2449
 7477SOL    HW234065   4.034   1.870   9.084  0.2883  0.0902 -0.1965
 7478SOL     OW34066   2.815   0.042   4.852 -0.5521 -0.3722 -0.4038
 7478SOL    HW134067   2.893   0.086   4.886 -0.7134 -1.1593  0.9756
 7478SOL    HW234068   2.856   4.706   4.808 -0.7389 -0.7944  0.1377
 7479SOL     OW34069   0.727   4.293   4.933 -0.4381  0.6556  0.5459
 7479SOL    HW134070   0.746   4.321   5.022  1.4226 -0.7508  0.5827
 7479SOL    HW234071   0.769   4.365   4.887  0.8377  0.0856  0.8129
 7480SOL     OW34072   0.845   1.414   7.924 -0.2975  0.1083  0.1240
 7480SOL    HW134073   0.809   1.385   8.008  0.5096  1.2453  0.8576
 7480SOL    HW234074   0.938   1.389   7.924 -0.7506 -1.5895 -1.2824
 7481SOL     OW34075   4.380   3.977   8.098 -0.4795 -0.2404 -0.2709
 7481SOL    HW134076   4.470   4.007   8.111  0.3379 -1.5474 -2.8244
 7481SOL    HW234077   4.375   3.938   8.010 -1.5230  2.2445 -1.3067
 7482SOL     OW34078   2.836   3.379   7.580 -0.5853  0.2558  0.1211
 7482SOL    HW134079   2.905   3.324   7.616 -2.1384 -1.7481  0.0251
 7482SOL    HW234080   2.776   3.322   7.532 -1.7299 -1.2370  3.3289
 7483SOL     OW34081   1.816   3.118   5.571  0.1679  0.0870 -0.1184
 7483SOL    HW134082   1.843   3.047   5.629  0.3415 -0.1694 -0.5086
 7483SOL    HW234083   1.766   3.176   5.627 -3.0671 -1.2733 -1.6156
 7484SOL     OW34084   2.072   2.292   7.228  0.0278 -0.7585 -0.1556
 7484SOL    HW134085   2.056   2.383   7.201  0.2628  0.5704  4.0351
 7484SOL    HW234086   2.089   2.252   7.143  0.3311  2.1615 -1.4884
 7485SOL     OW34087   0.486   3.829   4.136  0.6033 -0.2018  0.2284
 7485SOL    HW134088   0.431   3.877   4.198  0.5472  0.1850 -0.1225
 7485SOL    HW234089   0.436   3.849   4.057  0.1011 -2.3690 -0.0163
 7486SOL     OW34090   0.255   3.767   4.423  0.4159  0.2958  0.1569
 7486SOL    HW134091   0.220   3.746   4.336 -0.0392 -2.6315  1.0488
 7486SOL    HW234092   0.316   3.694   4.435 -0.4035 -0.3791  0.1687
 7487SOL     OW34093   0.273   1.621   9.906 -0.7342 -0.5057  0.6637
 7487SOL    HW134094   0.351   1.658   9.864 -1.6188 -1.2264 -1.5976
 7487SOL    HW234095   0.203   1.671   9.864 -0.3766 -0.8913 -0.3974
 7488SOL     OW34096   1.869   3.851   3.877 -0.4897  0.1368  0.0492
 7488SOL    HW134097   1.826   3.863   3.962  0.3810  0.3536  0.4533
 7488SOL    HW234098   1.810   3.897   3.817 -1.8129 -3.3109 -1.3092
 7489SOL     OW34099   1.591   4.708  14.427  0.0726  0.0335 -0.4611
 7489SOL    HW134100   1.658   4.672  14.368 -1.2921 -0.3988 -1.7453
 7489SOL    HW234101   1.645   4.728  14.503  1.4516  2.5767 -2.1338
 7490SOL     OW34102   0.413   3.576   9.394 -0.5514  0.4615 -0.1920
 7490SOL    HW134103   0.360   3.619   9.461  0.7392  0.5739  0.7539
 7490SOL    HW234104   0.393   3.633   9.319  0.3913 -0.0828 -0.8628
 7491SOL     OW34105   4.097   4.634   8.584  0.0319 -0.3732  0.3094
 7491SOL    HW134106   4.168   4.683   8.625 -0.4305 -0.4257  1.1650
 7491SOL    HW234107   4.098   4.655   8.490 -0.8663  0.8904  0.5759
 7492SOL     OW34108   2.074   2.942   3.860  0.0243 -0.0240  0.3894
 7492SOL    HW134109   2.047   2.900   3.778  0.3867  0.0677  0.2222
 7492SOL    HW234110   2.003   2.913   3.918  0.5085  0.4509  1.2087
 7493SOL     OW34111   0.112   4.029   5.453 -0.5212 -0.5438 -0.1415
 7493SOL    HW134112   0.063   4.090   5.509 -1.9991 -0.2014 -1.7615
 7493SOL    HW234113   0.203   4.058   5.449 -0.4927 -0.6228 -0.0459
 7494SOL     OW34114   0.327   1.187   2.907 -0.1568  0.1341  0.4979
 7494SOL    HW134115   0.328   1.216   2.815  0.2815 -1.3093  0.0477
 7494SOL    HW234116   0.411   1.219   2.941  1.4699 -1.2077 -2.1752
 7495SOL     OW34117   3.283   1.834   6.937 -0.0159  0.5742 -0.7849
 7495SOL    HW134118   3.319   1.820   7.024 -1.3116 -1.8282 -0.6335
 7495SOL    HW234119   3.325   1.918   6.921  0.6773  0.3006 -0.3774
 7496SOL     OW34120   4.370   0.506   1.138 -0.3503 -0.8342 -0.2116
 7496SOL    HW134121   4.465   0.497   1.134 -0.3676 -0.0964 -2.2562
 7496SOL    HW234122   4.369   0.510   1.234 -1.4750  0.9067 -0.2874
 7497SOL     OW34123   0.927   1.664   8.621 -0.2636 -0.1588  0.4724
 7497SOL    HW134124   0.859   1.724   8.652  1.2121  1.4019  0.6374
 7497SOL    HW234125   0.941   1.606   8.696  2.5697 -3.2693 -2.4853
 7498SOL     OW34126   0.316   4.415   3.267 -0.3594 -0.1158 -0.5218
 7498SOL    HW134127   0.343   4.459   3.186  0.3206 -1.9632 -1.3013
 7498SOL    HW234128   0.397   4.417   3.317 -1.1156 -0.3568  0.6997
 7499SOL     OW34129   3.992   3.587   0.124 -0.2139 -0.3905 -0.4260
 7499SOL    HW134130   3.918   3.526   0.126  0.4028 -1.1460 -0.5775
 7499SOL    HW234131   3.978   3.639   0.045 -1.0275 -0.2816 -0.2111
 7500SOL     OW34132   4.191   0.912   2.510 -0.1925 -0.4658  0.1866
 7500SOL    HW134133   4.117   0.865   2.548 -0.4508 -0.1243  0.0971
 7500SOL    HW234134   4.164   0.941   2.423 -1.0307 -0.6633  0.3811
 7501SOL     OW34135   2.918   0.685  14.811 -0.3067  0.2713  0.4771
 7501SOL    HW134136   2.952   0.644  14.732  1.9047 -2.1315  2.6762
 7501SOL    HW234137   2.993   0.675  14.870  0.6481 -1.8944 -1.1176
 7502SOL     OW34138   3.323   3.141   6.290 -0.0390 -0.0320  0.4205
 7502SOL    HW134139   3.232   3.119   6.270 -0.1994 -0.0092  1.1250
 7502SOL    HW234140   3.317   3.191   6.372  0.1106 -0.2087  0.5387
 7503SOL     OW34141   2.505   1.575   5.474  0.0170 -0.0670  0.3417
 7503SOL    HW134142   2.530   1.649   5.419 -2.1627  1.3747  1.3068
 7503SOL    HW234143   2.563   1.585   5.550  0.8951  3.5290 -0.7938
 7504SOL     OW34144   3.894   3.865   9.250 -0.2136  0.2903 -0.0053
 7504SOL    HW134145   3.863   3.888   9.162 -1.0648  2.3214  0.8110
 7504SOL    HW234146   3.881   3.771   9.259  2.1069  0.0924  1.3154
 7505SOL     OW34147   4.668   3.016   7.028  0.7729 -0.0410 -0.4338
 7505SOL    HW134148   4.684   3.107   7.051  0.7877  0.0999 -0.9830
 7505SOL    HW234149   4.708   3.016   6.941  1.7777  1.0381  0.0377
 7506SOL     OW34150   1.428   2.237   6.212 -0.0235 -0.3299 -0.3319
 7506SOL    HW134151   1.403   2.146   6.192  0.8123 -0.2634 -1.6350
 7506SOL    HW234152   1.485   2.225   6.289 -1.5757  1.5036  1.0977
 7507SOL     OW34153   0.355   2.656  16.248  0.7567  0.1225 -0.2833
 7507SOL    HW134154   0.358   2.570  16.290  0.4863 -1.3118 -3.1359
 7507SOL    HW234155   0.330   2.713  16.320 -2.9941 -1.6031 -0.2252
 7508SOL     OW34156   3.797   2.914   6.472  0.0973 -0.4678 -0.1855
 7508SOL    HW134157   3.785   2.995   6.423 -0.2995 -1.5546 -1.8946
 7508SOL    HW234158   3.739   2.935   6.545 -1.3355  0.7632 -1.7035
 7509SOL     OW34159   0.156   2.398   3.837  0.5555 -0.3863 -0.2801
 7509SOL    HW134160   0.123   2.398   3.927  2.6621 -0.1919  0.4889
 7509SOL    HW234161   0.244   2.433   3.849 -0.1290  0.5141  2.1685
 7510SOL     OW34162   1.543   2.402  11.860  0.4112  0.6460 -0.2310
 7510SOL    HW134163   1.511   2.316  11.834 -0.5925  0.9064  0.1182
 7510SOL    HW234164   1.635   2.386  11.841  1.0036  1.1260  2.2637
 7511SOL     OW34165   3.992   2.372   9.810  0.0981  0.1511 -0.1312
 7511SOL    HW134166   4.036   2.389   9.727  0.3222 -1.7772 -0.4060
 7511SOL    HW234167   3.904   2.348   9.781  0.3151  0.9391 -1.4767
 7512SOL     OW34168   2.135   2.844   4.562  0.6115  0.1445 -0.6256
 7512SOL    HW134169   2.100   2.885   4.483 -2.9116 -0.8351  0.4477
 7512SOL    HW234170   2.071   2.776   4.585  0.5886  1.0027  1.8637
 7513SOL     OW34171   4.637   4.425  15.585 -0.3372  0.0166  0.3692
 7513SOL    HW134172   4.617   4.500  15.528 -0.6164 -1.8368 -1.9747
 7513SOL    HW234173   4.678   4.370  15.519 -1.4078 -0.3528  0.0230
 7514SOL     OW34174   1.535   2.683   7.536  0.3904  0.2338  0.2345
 7514SOL    HW134175   1.600   2.677   7.466 -1.6170 -2.4946 -1.3790
 7514SOL    HW234176   1.577   2.745   7.594 -0.4418  2.4507 -1.5330
 7515SOL     OW34177   0.944   2.790   1.045  0.0266 -0.2663 -0.1339
 7515SOL    HW134178   0.992   2.830   1.117 -2.4826  3.1764 -0.3288
 7515SOL    HW234179   1.007   2.768   0.977  0.9349  0.8699  0.3400
 7516SOL     OW34180   2.922   2.838   5.295 -0.0097  0.5990  0.7204
 7516SOL    HW134181   3.010   2.800   5.290  0.1998  1.4223 -1.9393
 7516SOL    HW234182   2.945   2.924   5.260 -0.5362  0.8242  0.9312
 7517SOL     OW34183   2.828   3.488   5.096  0.4794  0.5696  0.4780
 7517SOL    HW134184   2.873   3.535   5.166  1.9245 -2.8093  1.8261
 7517SOL    HW234185   2.874   3.521   5.019  0.5373 -0.1205  0.2117
 7518SOL     OW34186   1.649   0.137   2.091  0.5098 -0.1367  0.0938
 7518SOL    HW134187   1.741   0.139   2.063  0.4580 -1.3976 -0.1514
 7518SOL    HW234188   1.628   0.228   2.070 -0.2361 -0.1754  0.6865
 7519SOL     OW34189   4.487   3.783  16.321 -0.1045  0.0356 -0.2992
 7519SOL    HW134190   4.582   3.772  16.330  0.2868  1.5341 -2.6509
 7519SOL    HW234191   4.476   3.878  16.310  2.4726  0.6580  2.3096
 7520SOL     OW34192   0.417   0.675   0.251  0.0953 -0.1582  0.2262
 7520SOL    HW134193   0.426   0.674   0.155 -1.2100 -1.5198  0.1035
 7520SOL    HW234194   0.505   0.645   0.274  0.3105  0.1890 -0.1275
 7521SOL     OW34195   4.540   1.911   4.741 -0.1900 -0.0815  0.2755
 7521SOL    HW134196   4.618   1.893   4.689  0.1220 -0.0004  0.7103
 7521SOL    HW234197   4.508   1.995   4.709  0.9217 -0.0834 -0.8421
 7522SOL     OW34198   0.118   2.598   5.708 -0.6739  0.5128  0.1094
 7522SOL    HW134199   0.081   2.585   5.621  0.4673  1.4013 -0.5174
 7522SOL    HW234200   0.161   2.683   5.696  0.5725  0.0541  1.3034
 7523SOL     OW34201   2.741   2.352   3.917 -0.0233 -0.1187 -0.2621
 7523SOL    HW134202   2.797   2.346   3.995 -2.0286 -1.2252  1.1063
 7523SOL    HW234203   2.720   2.445   3.918  0.1695 -0.0834  0.3196
 7524SOL     OW34204   3.246   3.032   7.649  0.1111 -0.0731  0.1988
 7524SOL    HW134205   3.175   2.973   7.623 -1.7432  1.2853  2.1658
 7524SOL    HW234206   3.295   3.032   7.567 -0.5792 -1.7002 -0.2209
 7525SOL     OW34207   1.108   3.319  17.726  0.2247 -0.6704  0.2389
 7525SOL    HW134208   1.182   3.271   0.009 -0.4616 -1.4346  0.6273
 7525SOL    HW234209   1.071   3.358   0.051  0.0253  0.5120 -0.4355
 7526SOL     OW34210   1.030   4.193   6.096  0.2310  0.1701 -0.1296
 7526SOL    HW134211   1.095   4.127   6.120 -1.0569 -0.9900  0.1247
 7526SOL    HW234212   1.082   4.231   6.025  1.9187  1.7590  1.9523
 7527SOL     OW34213   4.389   3.817  12.432  0.0750 -0.4432  0.1075
 7527SOL    HW134214   4.428   3.789  12.515  0.4149 -0.9023 -0.2056
 7527SOL    HW234215   4.308   3.858  12.463  0.4917 -0.1982  0.8861
 7528SOL     OW34216   2.897   1.245   7.254  0.2247 -0.3252 -0.1882
 7528SOL    HW134217   2.943   1.322   7.287  1.6366 -1.4010  0.3855
 7528SOL    HW234218   2.850   1.208   7.328  1.5374  0.5533  1.0740
 7529SOL     OW34219   2.324   3.591   7.335  0.2948  0.0333  0.4262
 7529SOL    HW134220   2.416   3.580   7.309  0.0150 -0.7080 -0.2420
 7529SOL    HW234221   2.336   3.578   7.429 -1.6059 -1.3775  0.4621
 7530SOL     OW34222   2.787   3.049   3.424  0.2955 -0.1567  0.8363
 7530SOL    HW134223   2.857   3.107   3.395 -0.6847  0.6801  0.1542
 7530SOL    HW234224   2.716   3.066   3.361  1.4058 -0.8125 -0.5863
 7531SOL     OW34225   1.428   1.891  12.957  0.0347  0.0575 -0.0738
 7531SOL    HW134226   1.511   1.928  12.988  0.0933  0.9753 -1.3486
 7531SOL    HW234227   1.384   1.846  13.030 -0.7409  1.5321  0.3521
 7532SOL     OW34228   3.585   1.718   7.570 -0.0603 -0.0085  0.0826
 7532SOL    HW134229   3.650   1.772   7.525  0.1775  0.6530  1.2205
 7532SOL    HW234230   3.587   1.646   7.506  2.2995  0.1986 -0.0606
 7533SOL     OW34231   4.473   4.045   8.425 -0.5253  0.9854 -0.1441
 7533SOL    HW134232   4.411   3.971   8.423  0.5615  0.1794 -3.6034
 7533SOL    HW234233   4.451   4.089   8.507 -2.5580 -1.9476  0.8789
 7534SOL     OW34234   2.194   2.482   6.999 -0.2239  0.6812 -0.4896
 7534SOL    HW134235   2.242   2.470   7.081 -2.1043 -0.7104  0.4194
 7534SOL    HW234236   2.258   2.453   6.935  0.4944  3.1154 -0.8643
 7535SOL     OW34237   0.399   1.859   0.005  0.3495  0.0794  0.2087
 7535SOL    HW134238   0.322   1.905  17.724  0.1180 -1.9229 -1.9133
 7535SOL    HW234239   0.462   1.930   0.014 -1.8706  2.1123 -0.1878
 7536SOL     OW34240   3.021   1.076   3.095  0.4133 -0.2302  0.0425
 7536SOL    HW134241   2.954   1.009   3.081 -0.5043  0.5396  0.7448
 7536SOL    HW234242   3.013   1.113   3.007 -2.5032  1.5012  1.0223
 7537SOL     OW34243   4.213   0.681  15.313  0.2765 -0.1399 -0.0028
 7537SOL    HW134244   4.126   0.657  15.283  0.2373 -2.0236  1.6165
 7537SOL    HW234245   4.208   0.641  15.400 -1.1015  0.3875  0.1577
 7538SOL     OW34246   1.789   0.190  10.173 -0.1454  0.4831  0.1383
 7538SOL    HW134247   1.701   0.185  10.135  0.2784  1.9277 -1.0520
 7538SOL    HW234248   1.838   0.219  10.097 -0.9080  1.8599  0.1726
 7539SOL     OW34249   1.793   1.363  13.572  0.3733 -0.4249 -0.2043
 7539SOL    HW134250   1.816   1.435  13.514  0.5361  0.2584  0.7030
 7539SOL    HW234251   1.699   1.381  13.568  0.2312 -1.4766 -1.6608
 7540SOL     OW34252   1.219   1.184   2.890 -0.1706  0.1938 -0.2314
 7540SOL    HW134253   1.223   1.127   2.813 -0.9058  0.7292 -0.6650
 7540SOL    HW234254   1.125   1.202   2.888 -0.4047 -0.9045  0.7119
 7541SOL     OW34255   3.743   2.823   0.789 -0.1201  0.8307 -0.1424
 7541SOL    HW134256   3.818   2.879   0.769  0.5760  0.9116  2.7438
 7541SOL    HW234257   3.729   2.842   0.882  1.5068 -0.5571  0.3759
 7542SOL     OW34258   0.556   4.675   9.681 -0.1569 -0.5162 -0.1255
 7542SOL    HW134259   0.583   4.704   9.768 -0.2532  1.1260 -0.6385
 7542SOL    HW234260   0.641   4.686   9.637  0.0030  0.2428  0.3632
 7543SOL     OW34261   2.151   1.291  10.822  0.4363 -0.0331 -0.4620
 7543SOL    HW134262   2.154   1.386  10.831  2.0254  0.0886 -2.2013
 7543SOL    HW234263   2.094   1.268  10.895 -0.1402  0.5626 -0.7245
 7544SOL     OW34264   2.518   2.045   8.060 -0.3032 -0.0301  0.0472
 7544SOL    HW134265   2.557   1.964   8.092  0.6833  0.4667  0.1099
 7544SOL    HW234266   2.509   2.092   8.142  0.0223 -0.1482  0.1515
 7545SOL     OW34267   4.369   1.644   9.832 -0.8920  0.0443 -0.2721
 7545SOL    HW134268   4.276   1.625   9.825 -0.8588 -0.4081  0.4481
 7545SOL    HW234269   4.385   1.711   9.766  1.7227 -0.9458 -0.6370
 7546SOL     OW34270   1.961   0.004  11.255  0.0089 -0.4640 -0.6076
 7546SOL    HW134271   1.867   4.723  11.248  0.2722 -1.2760 -1.7621
 7546SOL    HW234272   1.968   0.033  11.164  0.7433  2.5355  0.4027
 7547SOL     OW34273   0.885   1.095   4.601 -0.3187 -0.3895  0.2519
 7547SOL    HW134274   0.881   1.037   4.525  0.8933  3.2768 -2.6029
 7547SOL    HW234275   0.900   1.177   4.553 -0.6156  0.0965  0.9882
 7548SOL     OW34276   3.055   0.819   4.800  0.2977 -0.2577  0.3848
 7548SOL    HW134277   3.022   0.786   4.716 -0.2160  0.2975  0.3653
 7548SOL    HW234278   3.013   0.904   4.817 -0.0043 -0.1875 -0.6505
 7549SOL     OW34279   4.249   2.478  10.089  0.1745 -0.4033 -0.1207
 7549SOL    HW134280   4.259   2.560  10.042 -3.8047 -0.1965 -0.5692
 7549SOL    HW234281   4.162   2.448  10.063  0.6169 -0.2787 -1.7162
 7550SOL     OW34282   3.761   1.207  12.763  0.2311 -0.2960  0.5946
 7550SOL    HW134283   3.666   1.195  12.765  0.0859  0.7632 -0.0977
 7550SOL    HW234284   3.773   1.261  12.841  0.7224  0.2716  0.1261
 7551SOL     OW34285   3.136   2.052   4.814 -0.0627 -0.8381 -0.2556
 7551SOL    HW134286   3.054   2.033   4.769 -0.7561  2.0395 -0.1744
 7551SOL    HW234287   3.098   2.113   4.876 -0.1109  2.7447 -3.8149
 7552SOL     OW34288   0.368   4.486   0.114  0.3379 -0.5329  0.0940
 7552SOL    HW134289   0.334   4.416   0.059  1.7487  0.7491 -2.4519
 7552SOL    HW234290   0.287   4.537   0.114  0.8562  0.2949  0.3924
 7553SOL     OW34291   1.307   4.130   8.649 -0.2865  0.0391 -1.0294
 7553SOL    HW134292   1.268   4.215   8.628  0.8166  1.3009  2.0218
 7553SOL    HW234293   1.249   4.105   8.721 -0.8989  0.5217 -1.3537
 7554SOL     OW34294   2.510   3.317   6.239  0.0956 -0.0515  0.4215
 7554SOL    HW134295   2.427   3.275   6.219  0.2131 -0.0276 -0.1250
 7554SOL    HW234296   2.571   3.246   6.221 -2.4260 -2.2354  0.5665
 7555SOL     OW34297   2.498   3.176   8.275  0.3156  0.0887 -0.2334
 7555SOL    HW134298   2.462   3.252   8.230 -2.0109 -0.6554  0.3863
 7555SOL    HW234299   2.588   3.194   8.247  0.3208 -3.0802 -2.1844
 7556SOL     OW34300   3.916   3.281  13.349  0.1019  0.4814 -0.2207
 7556SOL    HW134301   3.848   3.258  13.412  0.9920  1.9363  1.2925
 7556SOL    HW234302   3.989   3.222  13.369  0.7194  1.4288  0.3196
 7557SOL     OW34303   4.689   0.448  14.008 -0.6096  0.2211  0.1810
 7557SOL    HW134304   0.005   0.480  14.080 -0.1939  1.3264 -0.6379
 7557SOL    HW234305   4.630   0.523  14.000  0.6044  0.9996 -1.2388
 7558SOL     OW34306   1.648   4.666  11.819  0.0218  0.0944 -0.3076
 7558SOL    HW134307   1.635   4.669  11.914  0.0324  2.4608 -0.3780
 7558SOL    HW234308   1.563   4.638  11.785  0.1875 -1.9468  0.9573
 7559SOL     OW34309   0.218   1.522   8.116  0.7776 -0.3512  0.8145
 7559SOL    HW134310   0.273   1.444   8.124 -0.0724 -0.9543  0.7602
 7559SOL    HW234311   0.195   1.532   8.208  0.4582 -0.3682  0.7373
 7560SOL     OW34312   2.750   4.136   6.577  0.5560  0.4620 -0.4744
 7560SOL    HW134313   2.731   4.060   6.522  3.8273 -0.1656 -0.7353
 7560SOL    HW234314   2.776   4.192   6.504 -0.6553  1.4413 -0.1504
 7561SOL     OW34315   2.131   0.584  11.617 -0.5260 -0.0838  0.1381
 7561SOL    HW134316   2.081   0.556  11.694 -1.7447  0.3988 -0.4712
 7561SOL    HW234317   2.170   0.662  11.656 -1.1035 -0.3371  1.2567
 7562SOL     OW34318   2.633   0.861   2.376 -0.9073 -0.1655  0.7388
 7562SOL    HW134319   2.666   0.806   2.447  0.9277  0.6435  0.4906
 7562SOL    HW234320   2.539   0.864   2.397 -1.6299 -2.4046 -2.0957
 7563SOL     OW34321   2.171   2.382   7.479  0.0091  0.1775 -0.3421
 7563SOL    HW134322   2.128   2.467   7.469  2.1832  1.2082 -0.8344
 7563SOL    HW234323   2.155   2.340   7.394 -0.8151  1.4217 -0.7959
 7564SOL     OW34324   1.686   3.888   7.911  0.1288 -0.0162 -0.0364
 7564SOL    HW134325   1.618   3.948   7.880  0.1667 -0.4019 -0.8812
 7564SOL    HW234326   1.766   3.913   7.864  1.0408 -0.6260  1.1994
 7565SOL     OW34327   1.091   2.160   2.413 -0.2412  0.7465  0.3102
 7565SOL    HW134328   1.056   2.074   2.389  0.8567  0.2438  0.5034
 7565SOL    HW234329   1.158   2.148   2.481  0.3812 -0.5255 -0.5186
 7566SOL     OW34330   4.563   4.356  11.976  0.0289 -0.1665 -0.0058
 7566SOL    HW134331   4.507   4.310  12.038 -1.6926  0.9632 -0.7390
 7566SOL    HW234332   4.520   4.434  11.941  0.7236  0.4951  0.6081
 7567SOL     OW34333   2.993   2.800  12.756  0.2087  0.0236 -0.3326
 7567SOL    HW134334   2.962   2.874  12.704 -1.8789 -0.4391  0.2696
 7567SOL    HW234335   3.085   2.824  12.764  0.7622 -1.5179 -2.0502
 7568SOL     OW34336   3.008   3.369   2.810  0.2535 -0.1943 -0.3615
 7568SOL    HW134337   2.977   3.303   2.747 -1.1470  0.6876 -0.6081
 7568SOL    HW234338   2.940   3.362   2.877  1.2059  1.3780  0.7643
 7569SOL     OW34339   1.077   0.152  14.300  0.1192  0.0044 -0.0684
 7569SOL    HW134340   1.108   0.065  14.275 -2.2620 -0.8130 -0.2369
 7569SOL    HW234341   0.985   0.153  14.273  0.1180  0.2220 -0.0521
 7570SOL     OW34342   4.681   0.387   4.591  0.2042 -0.2233  0.2261
 7570SOL    HW134343   4.718   0.409   4.505 -2.8003  0.1551 -0.9435
 7570SOL    HW234344   0.005   0.422   4.654 -0.0829 -1.2772  1.0961
 7571SOL     OW34345   1.818   3.132  11.860 -0.6708  0.0158 -0.2931
 7571SOL    HW134346   1.750   3.094  11.806 -0.8918 -1.8577  1.3105
 7571SOL    HW234347   1.814   3.083  11.942  0.2894  0.6377  0.1287
 7572SOL     OW34348   3.828   1.206   0.950 -0.5328 -0.5707 -0.2997
 7572SOL    HW134349   3.903   1.250   0.909 -0.1004  0.7697  1.9320
 7572SOL    HW234350   3.843   1.112   0.940  2.0835 -0.1773 -0.1379
 7573SOL     OW34351   1.584   0.741   5.781  0.4327 -0.6971  0.1821
 7573SOL    HW134352   1.515   0.703   5.726  1.0476 -0.3275 -0.8372
 7573SOL    HW234353   1.642   0.785   5.719 -2.4512  2.0162 -0.6569
 7574SOL     OW34354   0.785   1.690   1.915 -0.1161 -0.5798 -0.1290
 7574SOL    HW134355   0.828   1.761   1.867  0.1897 -0.5661  0.1621
 7574SOL    HW234356   0.697   1.693   1.878 -0.7426 -1.2159  1.2960
 7575SOL     OW34357   4.669   0.703   2.299  0.5399 -0.0861 -0.5636
 7575SOL    HW134358   0.017   0.714   2.337  0.9635 -1.4517 -1.1682
 7575SOL    HW234359   4.686   0.638   2.231  0.3474 -0.3304 -0.3784
 7576SOL     OW34360   0.615   3.069   4.104 -0.0591  0.2139  0.1865
 7576SOL    HW134361   0.548   3.137   4.100 -0.5995 -0.3524 -0.3591
 7576SOL    HW234362   0.575   3.004   4.046  1.9270  0.5884 -1.6075
 7577SOL     OW34363   4.536   3.944   5.012  0.5351 -0.3499 -0.1983
 7577SOL    HW134364   4.508   3.974   4.926 -0.3010 -0.7843 -0.0814
 7577SOL    HW234365   4.625   3.979   5.010  0.5283 -0.3877 -0.9348
 7578SOL     OW34366   3.905   0.302   6.006  0.2338 -0.6388  0.2068
 7578SOL    HW134367   3.985   0.354   6.017 -0.6528  0.0893  3.1992
 7578SOL    HW234368   3.894   0.256   6.089  0.4883  0.9351  1.1169
 7579SOL     OW34369   4.304   4.567  16.421  0.1119 -0.0481  0.8970
 7579SOL    HW134370   4.370   4.498  16.406 -1.2346 -0.9237 -1.1081
 7579SOL    HW234371   4.352   4.631  16.473  0.3382  1.0310 -0.6317
 7580SOL     OW34372   3.338   3.216   7.831  0.1498 -0.1146 -0.4263
 7580SOL    HW134373   3.431   3.224   7.810  0.5779  1.2546  2.0328
 7580SOL    HW234374   3.318   3.157   7.759  0.7242 -0.0740 -0.6233
 7581SOL     OW34375   1.446   2.155   6.839  0.6084 -0.6738  0.6134
 7581SOL    HW134376   1.400   2.127   6.918 -0.3717  1.1816  0.7118
 7581SOL    HW234377   1.414   2.245   6.836 -0.4366 -1.0753 -0.4221
 7582SOL     OW34378   1.495   3.978   1.104  0.6000 -0.3640  0.4647
 7582SOL    HW134379   1.468   3.984   1.195  1.2429  0.0433  0.6261
 7582SOL    HW234380   1.462   4.062   1.074 -2.7777 -1.5473  0.9634
 7583SOL     OW34381   2.476   3.757   2.705  0.3393 -0.4848  0.6905
 7583SOL    HW134382   2.383   3.744   2.685 -0.0791  3.5934 -0.0527
 7583SOL    HW234383   2.507   3.808   2.630 -0.7073  0.3821  0.8348
 7584SOL     OW34384   3.655   0.627   8.611 -0.3432 -0.6852  0.0236
 7584SOL    HW134385   3.627   0.715   8.586 -2.2068 -1.5546 -0.9778
 7584SOL    HW234386   3.687   0.604   8.524  1.5040  0.7912  0.3290
 7585SOL     OW34387   0.525   4.465  14.732  0.6227 -0.0056  0.3492
 7585SOL    HW134388   0.521   4.429  14.820  1.1995  2.1863  1.2770
 7585SOL    HW234389   0.452   4.423  14.688  0.8078  0.2035 -0.1651
 7586SOL     OW34390   1.936   0.782  12.974  0.0785 -0.1924 -0.0318
 7586SOL    HW134391   1.996   0.855  12.960  0.9877 -1.4559 -2.6566
 7586SOL    HW234392   1.956   0.728  12.898 -0.3542 -1.9703  1.1148
 7587SOL     OW34393   4.248   1.886   7.022 -0.3660 -0.0362  0.9013
 7587SOL    HW134394   4.167   1.836   7.013 -1.3740  2.0673 -1.7472
 7587SOL    HW234395   4.216   1.973   7.045  3.6303  1.1305  2.0046
 7588SOL     OW34396   2.709   4.702   5.600 -0.1039 -0.1416 -0.0628
 7588SOL    HW134397   2.673   0.008   5.676  1.7032  0.0321  0.6849
 7588SOL    HW234398   2.794   0.002   5.581 -0.9313  1.9343  0.5252
 7589SOL     OW34399   0.694   1.904   6.811 -0.0732 -0.5536 -0.4448
 7589SOL    HW134400   0.703   1.808   6.815 -0.2303 -0.5826 -0.7348
 7589SOL    HW234401   0.740   1.937   6.888 -0.0123  3.5328 -2.2265
 7590SOL     OW34402   1.431   1.633   8.098  0.9591  0.3347  0.5080
 7590SOL    HW134403   1.369   1.684   8.046 -0.2231  0.1207  1.6988
 7590SOL    HW234404   1.495   1.697   8.127  1.1835  0.0761  0.5881
 7591SOL     OW34405   1.015   3.926   3.602  0.1788  1.1498  0.5061
 7591SOL    HW134406   1.060   3.907   3.684 -1.5083 -0.0632  1.1478
 7591SOL    HW234407   1.093   3.921   3.548 -0.4064  4.0041 -0.6578
 7592SOL     OW34408   4.586   4.362  11.519  0.0242  0.6786  0.5135
 7592SOL    HW134409   4.622   4.311  11.592 -0.9409 -2.1172 -0.9766
 7592SOL    HW234410   4.665   4.359  11.464 -1.0369 -3.4406 -0.7634
 7593SOL     OW34411   1.817   3.903  16.408 -0.1328 -0.3277 -0.1701
 7593SOL    HW134412   1.899   3.934  16.446 -0.8309  2.6009 -1.0861
 7593SOL    HW234413   1.750   3.955  16.453  0.2215 -0.5023  0.5622
 7594SOL     OW34414   1.627   0.561  17.093 -0.1710 -0.2033 -0.3701
 7594SOL    HW134415   1.602   0.501  17.022 -0.5913 -0.7056  0.2101
 7594SOL    HW234416   1.542   0.603  17.106  0.4667  0.8793  0.2948
 7595SOL     OW34417   3.163   4.406   3.615  0.6383  0.1112  0.0969
 7595SOL    HW134418   3.250   4.399   3.576  1.6237  2.2913  1.8842
 7595SOL    HW234419   3.187   4.443   3.701 -0.6963 -0.2233  0.6030
 7596SOL     OW34420   0.969   4.613   4.707 -0.1433 -0.3028  0.1531
 7596SOL    HW134421   0.921   4.583   4.785  1.3486  1.2722  1.6781
 7596SOL    HW234422   0.954   4.546   4.641 -0.5673 -0.3560  0.2990
 7597SOL     OW34423   3.128   4.587   9.355  0.1293 -0.1094 -0.2815
 7597SOL    HW134424   3.202   4.527   9.345 -1.1129 -1.9705  1.7406
 7597SOL    HW234425   3.090   4.565   9.440 -2.0604 -0.2431 -1.2885
 7598SOL     OW34426   3.949   2.196   1.824  0.1532  0.0487  0.1707
 7598SOL    HW134427   4.008   2.167   1.893  0.6450 -0.2214 -0.3620
 7598SOL    HW234428   3.884   2.127   1.811 -0.2046 -0.2033  3.3078
 7599SOL     OW34429   3.185   3.876   6.039  0.3830 -0.2079 -0.1335
 7599SOL    HW134430   3.099   3.863   6.079  0.3670  3.3020  0.9131
 7599SOL    HW234431   3.209   3.791   6.001  0.6868 -1.0149  1.9064
 7600SOL     OW34432   2.493   4.306   9.485 -0.4820  0.1101 -0.1259
 7600SOL    HW134433   2.545   4.386   9.473  0.1225 -0.7963 -3.5877
 7600SOL    HW234434   2.536   4.234   9.438  0.9101  1.2061 -0.5447
 7601SOL     OW34435   1.459   3.867   8.113  0.0135  0.5806  0.3544
 7601SOL    HW134436   1.503   3.925   8.050 -0.5752 -0.2081 -0.7900
 7601SOL    HW234437   1.490   3.779   8.093  0.2374  0.5746  0.7419
 7602SOL     OW34438   2.596   0.112   8.100 -0.4133  0.4800  0.0390
 7602SOL    HW134439   2.597   0.045   8.168  0.2296 -0.0595 -0.4977
 7602SOL    HW234440   2.660   0.178   8.127 -0.0511  0.6367 -1.2088
 7603SOL     OW34441   2.626   1.268   7.117  0.4723  0.2111  0.0334
 7603SOL    HW134442   2.638   1.361   7.096  0.6099 -0.4645 -2.9549
 7603SOL    HW234443   2.713   1.262   7.157  0.2710  0.0374  0.4369
 7604SOL     OW34444   4.532   2.799   7.873 -0.3850 -0.2255 -0.1982
 7604SOL    HW134445   4.533   2.895   7.875 -2.8703 -0.2830  3.0335
 7604SOL    HW234446   4.624   2.785   7.895 -0.8521 -1.8723  0.6951
 7605SOL     OW34447   0.974   0.383   5.732  0.2238 -0.3635  0.3813
 7605SOL    HW134448   1.058   0.370   5.775  1.7359  1.0387 -2.2019
 7605SOL    HW234449   0.994   0.427   5.650 -5.0070  1.5391  0.1407
 7606SOL     OW34450   4.523   4.147   6.513 -0.2845  0.1414 -0.2813
 7606SOL    HW134451   4.550   4.064   6.552  0.0233  0.2705 -0.2194
 7606SOL    HW234452   4.429   4.137   6.498 -0.0417 -2.3417 -0.1135
 7607SOL     OW34453   1.949   3.022   3.503 -0.4025 -0.3654 -0.0868
 7607SOL    HW134454   1.930   2.944   3.556  1.1106  0.5010  1.7249
 7607SOL    HW234455   1.862   3.040   3.467 -0.3127 -1.3396 -0.8183
 7608SOL     OW34456   0.562   1.905   6.154  0.1812 -0.1269  0.2223
 7608SOL    HW134457   0.565   1.933   6.063  0.5342 -1.5589 -0.2008
 7608SOL    HW234458   0.511   1.976   6.193  0.3157 -0.1989  0.5290
 7609SOL     OW34459   0.178   0.759   8.187 -0.1342 -0.3981 -0.1972
 7609SOL    HW134460   0.225   0.820   8.244  1.8540 -0.3164 -1.9096
 7609SOL    HW234461   0.202   0.670   8.216  2.1950  0.2442 -0.1832
 7610SOL     OW34462   0.710   4.557  12.353  0.0570  0.0691  0.0430
 7610SOL    HW134463   0.712   4.640  12.400  0.3482  1.2081 -2.0028
 7610SOL    HW234464   0.741   4.493  12.418  0.9624  0.5578  0.1012
 7611SOL     OW34465   1.609   2.486   1.501 -0.0633  0.0356  0.3185
 7611SOL    HW134466   1.536   2.457   1.554 -1.0133 -0.3317 -1.1813
 7611SOL    HW234467   1.674   2.505   1.568 -1.3375  2.8430  0.7560
 7612SOL     OW34468   2.934   4.470   9.936 -0.6633 -0.1587 -0.1287
 7612SOL    HW134469   2.867   4.536   9.954 -0.7136 -0.0986 -0.5388
 7612SOL    HW234470   3.005   4.511   9.985 -1.2904 -0.1089  0.7390
 7613SOL     OW34471   2.580   0.745  10.756 -0.3640  0.0736  0.2958
 7613SOL    HW134472   2.561   0.768  10.665  0.3530  1.4815  0.5028
 7613SOL    HW234473   2.627   0.823  10.785  2.7470 -1.2015 -1.3250
 7614SOL     OW34474   3.011   2.218   8.394  0.8733  0.2811 -0.0176
 7614SOL    HW134475   3.029   2.164   8.317 -0.7780 -1.3202  0.7039
 7614SOL    HW234476   3.102   2.218   8.423  0.6291 -0.2235  0.7506
 7615SOL     OW34477   2.739   1.082  16.079  0.2299 -0.0065  0.1849
 7615SOL    HW134478   2.706   1.172  16.083 -0.1145 -0.0469 -1.8737
 7615SOL    HW234479   2.759   1.062  16.170 -0.9468 -0.7748  0.2722
 7616SOL     OW34480   3.910   2.728   4.043  0.3980 -0.3901  0.0738
 7616SOL    HW134481   3.914   2.635   4.022 -2.5577 -0.1173 -1.7345
 7616SOL    HW234482   3.868   2.723   4.129  1.3211  0.3249  0.5662
 7617SOL     OW34483   1.088   1.120   4.904  0.4296  0.1793  0.4796
 7617SOL    HW134484   1.180   1.142   4.914  0.6995  0.1647 -2.0295
 7617SOL    HW234485   1.037   1.187   4.951  1.4495  0.8996  0.5623
 7618SOL     OW34486   1.443   3.540  10.254  0.2247 -0.2600 -0.1524
 7618SOL    HW134487   1.408   3.453  10.236  2.4104 -1.0598 -0.5069
 7618SOL    HW234488   1.537   3.526  10.249  0.2323 -0.2681  0.0096
 7619SOL     OW34489   1.914   0.277   8.619  0.2441 -0.5429 -0.3339
 7619SOL    HW134490   1.987   0.273   8.681 -1.5301  0.6742  1.8533
 7619SOL    HW234491   1.914   0.366   8.582  1.5045 -0.4157 -0.0105
 7620SOL     OW34492   3.157   1.753  12.400  0.1926 -0.0426 -0.7961
 7620SOL    HW134493   3.205   1.828  12.435 -0.3853  0.2955 -0.7260
 7620SOL    HW234494   3.068   1.786  12.390  0.2920  1.0021  1.8462
 7621SOL     OW34495   1.164   2.684   0.898  0.5103 -0.6580  0.1739
 7621SOL    HW134496   1.154   2.779   0.893 -0.5152 -0.7765 -0.1169
 7621SOL    HW234497   1.242   2.667   0.949  0.5623 -0.0444  0.2965
 7622SOL     OW34498   0.092   2.354   8.953  0.9700  0.0591 -0.7653
 7622SOL    HW134499   0.068   2.447   8.956  1.1517  0.0300  1.4517
 7622SOL    HW234500   0.098   2.334   9.046 -1.2488  2.2322 -0.1438
 7623SOL     OW34501   0.490   3.470   8.577  0.2870  0.6082  0.2838
 7623SOL    HW134502   0.525   3.412   8.645 -0.0841 -1.6573 -1.4301
 7623SOL    HW234503   0.406   3.492   8.616 -0.2113  0.0383 -0.4431
 7624SOL     OW34504   0.013   1.068  15.920 -0.2634  0.2999  0.1066
 7624SOL    HW134505   0.026   1.008  15.846  0.7888  1.9850 -1.0832
 7624SOL    HW234506   0.018   0.998  15.984 -0.5251 -0.7532 -1.0159
 7625SOL     OW34507   0.062   4.518   8.757 -0.0356 -0.5042 -1.1489
 7625SOL    HW134508   0.015   4.459   8.697 -0.8642  0.9977 -1.9722
 7625SOL    HW234509   0.112   4.568   8.693  0.3501 -1.5156 -1.6388
 7626SOL     OW34510   0.526   3.170   3.037 -0.5330 -0.0203 -0.0370
 7626SOL    HW134511   0.608   3.122   3.052 -0.0681  0.0320 -2.4062
 7626SOL    HW234512   0.541   3.201   2.948 -3.6361 -0.7036 -0.8042
 7627SOL     OW34513   1.331   1.051   6.067 -0.2314  0.0778 -0.1641
 7627SOL    HW134514   1.341   1.095   5.982 -0.8874  2.9771  1.2627
 7627SOL    HW234515   1.263   1.109   6.101  1.1034  2.1924 -1.1006
 7628SOL     OW34516   3.916   1.628   4.987 -0.6047 -0.5085  0.3006
 7628SOL    HW134517   3.992   1.576   4.962  0.0114  0.8286 -0.6401
 7628SOL    HW234518   3.911   1.698   4.921  0.0437  0.6404  1.4659
 7629SOL     OW34519   0.787   0.856   8.955 -0.1706 -0.3922 -0.1649
 7629SOL    HW134520   0.846   0.841   9.030  1.4914 -0.2748 -1.4567
 7629SOL    HW234521   0.732   0.925   8.993 -0.0434 -0.3543 -0.0486
 7630SOL     OW34522   2.264   3.979   8.037  0.2408 -0.5855  0.0232
 7630SOL    HW134523   2.203   4.046   8.007  0.3720  0.3161  1.7924
 7630SOL    HW234524   2.335   4.004   7.978 -0.8117 -0.9622 -1.4067
 7631SOL     OW34525   3.020   4.372   5.258  0.0212  0.1236 -0.3942
 7631SOL    HW134526   3.100   4.355   5.207 -0.7378 -2.2175 -0.8126
 7631SOL    HW234527   2.978   4.418   5.185  1.4174  1.8344 -0.1078
 7632SOL     OW34528   3.563   3.882  13.516 -0.4817 -0.0869  0.3191
 7632SOL    HW134529   3.568   3.956  13.576  1.6294  0.9966 -1.1603
 7632SOL    HW234530   3.618   3.814  13.554 -0.9689 -1.0062 -0.5995
 7633SOL     OW34531   3.129   2.262   3.107  0.5851 -0.1428  0.8445
 7633SOL    HW134532   3.161   2.351   3.120 -1.5306  0.6067  0.8732
 7633SOL    HW234533   3.036   2.276   3.118  0.3347 -0.9584 -0.1548
 7634SOL     OW34534   4.465   0.851   4.479  0.4974 -0.1198  0.1756
 7634SOL    HW134535   4.404   0.885   4.544  0.9049  1.9009 -0.5164
 7634SOL    HW234536   4.552   0.838   4.518  1.1201  0.5237 -0.9976
 7635SOL     OW34537   3.008   1.730  11.741 -0.8708  0.0067 -0.0190
 7635SOL    HW134538   3.006   1.711  11.835  1.3152 -1.5305 -0.3096
 7635SOL    HW234539   3.042   1.819  11.736  0.3460 -0.5418 -1.3785
 7636SOL     OW34540   1.665   2.877   7.714 -0.6611  0.2037 -0.9317
 7636SOL    HW134541   1.643   2.964   7.746  1.4308  1.0078 -1.6747
 7636SOL    HW234542   1.712   2.903   7.635 -1.4004  0.0374 -1.4313
 7637SOL     OW34543   3.526   1.945   9.082  0.1919 -0.2753 -0.0152
 7637SOL    HW134544   3.620   1.966   9.077 -0.0801  0.9441  0.0423
 7637SOL    HW234545   3.495   2.035   9.073 -0.0043 -0.4571 -1.2589
 7638SOL     OW34546   2.584   0.602  16.280  0.2379  0.0936 -0.0973
 7638SOL    HW134547   2.522   0.565  16.343  1.0564 -1.5302 -0.2327
 7638SOL    HW234548   2.668   0.562  16.301  1.4193  1.2409 -2.6183
 7639SOL     OW34549   2.168   1.964   9.127  1.0735 -0.2218  0.3904
 7639SOL    HW134550   2.199   1.874   9.117  1.2809 -0.2155  0.9354
 7639SOL    HW234551   2.126   1.957   9.213  0.1563  2.7208  0.1651
 7640SOL     OW34552   2.577   3.065  15.638 -0.0455 -0.1695 -0.4218
 7640SOL    HW134553   2.669   3.041  15.634 -0.0146  0.2479 -2.1954
 7640SOL    HW234554   2.528   3.016  15.572 -0.8881  2.3088 -1.6153
 7641SOL     OW34555   1.544   0.390  11.520 -0.6625  0.4291 -0.3393
 7641SOL    HW134556   1.476   0.327  11.496 -0.6120 -0.1408  0.9993
 7641SOL    HW234557   1.568   0.334  11.594  0.3084  1.4473  0.1188
 7642SOL     OW34558   2.050   3.399   4.178  0.3292 -0.4242 -0.0389
 7642SOL    HW134559   2.019   3.429   4.264  0.7429  0.1931 -0.1042
 7642SOL    HW234560   2.010   3.467   4.125  3.4536 -1.1616 -3.3094
 7643SOL     OW34561   4.097   2.928   4.106 -0.1960 -0.1212 -0.4160
 7643SOL    HW134562   4.160   2.860   4.129  1.2374  0.4083 -2.7871
 7643SOL    HW234563   4.025   2.874   4.073  0.1991  0.0088 -1.5073
 7644SOL     OW34564   0.132   2.362  13.548  0.1600  0.0690 -0.1231
 7644SOL    HW134565   0.172   2.307  13.481 -0.2641 -0.3656 -0.0205
 7644SOL    HW234566   0.100   2.294  13.607  2.4861 -1.8441 -1.0703
 7645SOL     OW34567   0.514   0.424   3.960  0.1173  0.0698  0.5289
 7645SOL    HW134568   0.529   0.484   3.887  1.7513 -0.8638  0.0736
 7645SOL    HW234569   0.499   0.345   3.909 -0.3344  0.1645  0.5221
 7646SOL     OW34570   0.730   2.773   5.627 -0.1739  0.2860  0.2396
 7646SOL    HW134571   0.652   2.773   5.571 -0.9885  0.2975  1.3743
 7646SOL    HW234572   0.748   2.679   5.621  0.2168  0.3450  0.4721
 7647SOL     OW34573   1.655   2.249   8.609 -0.3342 -0.1740  0.2082
 7647SOL    HW134574   1.684   2.184   8.673 -1.4439 -1.1592 -0.2687
 7647SOL    HW234575   1.561   2.229   8.608 -0.2908 -0.3586 -1.1122
 7648SOL     OW34576   4.575   4.527   5.448 -0.2969 -0.2386 -0.7303
 7648SOL    HW134577   4.526   4.609   5.440 -0.9683 -0.9029 -3.3453
 7648SOL    HW234578   4.534   4.492   5.527 -2.1667  0.1900 -1.5034
 7649SOL     OW34579   2.027   1.731  16.428  0.0683  0.2838  0.3629
 7649SOL    HW134580   2.031   1.698  16.339  1.0622  4.0242 -0.9702
 7649SOL    HW234581   1.969   1.661  16.458 -0.2390  0.9021  1.2261
 7650SOL     OW34582   0.537   4.467   3.432  0.1342  0.1060  0.1046
 7650SOL    HW134583   0.595   4.497   3.362  0.8981  2.0903  1.5875
 7650SOL    HW234584   0.588   4.402   3.481  3.3281  1.8004 -0.9994
 7651SOL     OW34585   1.814   0.526   4.079  0.3818  0.2794  0.1439
 7651SOL    HW134586   1.823   0.431   4.070 -0.4961  0.4120 -1.9902
 7651SOL    HW234587   1.723   0.528   4.109  0.4593 -1.3654  0.4796
 7652SOL     OW34588   1.617   4.616   9.964  0.1439 -0.1645 -0.5771
 7652SOL    HW134589   1.570   4.692   9.998  2.7052  0.7464  0.9662
 7652SOL    HW234590   1.543   4.557   9.972  0.7377 -0.8599 -0.2113
 7653SOL     OW34591   4.461   0.432   4.938  0.4538 -0.3475  0.3824
 7653SOL    HW134592   4.380   0.452   4.985  1.7719  2.3620  1.4998
 7653SOL    HW234593   4.439   0.446   4.846  0.6907  1.3414  0.5900
 7654SOL     OW34594   2.200   2.177   8.818  0.3213 -0.3663  0.1584
 7654SOL    HW134595   2.295   2.177   8.828  0.5015 -2.4785 -1.6652
 7654SOL    HW234596   2.171   2.241   8.883  1.3958 -1.3095  1.5670
 7655SOL     OW34597   0.384   3.298   6.337  0.4185 -0.0526  0.3744
 7655SOL    HW134598   0.370   3.252   6.420 -0.3998  0.4769  0.5303
 7655SOL    HW234599   0.295   3.295   6.300  0.1765  1.6867  0.8070
 7656SOL     OW34600   3.229   1.339   6.749 -0.1863  0.3056 -0.1472
 7656SOL    HW134601   3.250   1.317   6.840  0.2310 -0.4793 -0.4274
 7656SOL    HW234602   3.239   1.434   6.748 -1.5783  0.4537  1.9503
 7657SOL     OW34603   0.679   4.620   0.422 -0.2142 -0.2038  0.4947
 7657SOL    HW134604   0.608   4.556   0.411  0.7944 -1.1620 -0.4752
 7657SOL    HW234605   0.747   4.589   0.362  1.6991  1.5205  1.7838
 7658SOL     OW34606   3.213   3.469   6.293 -0.4900 -0.5972 -0.0919
 7658SOL    HW134607   3.177   3.418   6.221 -1.7108  0.4185 -0.2082
 7658SOL    HW234608   3.268   3.537   6.254  0.6036 -1.2615  0.2861
 7659SOL     OW34609   0.111   1.966  11.934 -0.4435 -0.2949 -0.6544
 7659SOL    HW134610   0.105   2.033  11.867 -3.2818  1.7154  1.6141
 7659SOL    HW234611   0.206   1.957  11.926 -0.3279  0.8126 -0.5218
 7660SOL     OW34612   4.655   3.426   3.683  0.1459  0.1194  0.3798
 7660SOL    HW134613   4.632   3.420   3.590  2.6592  0.4922 -0.2784
 7660SOL    HW234614   4.594   3.362   3.719 -1.3755  1.8164  0.7830
 7661SOL     OW34615   1.811   2.228   7.532 -0.0673  0.6583  0.3670
 7661SOL    HW134616   1.740   2.292   7.536  1.3934  2.2228  1.0703
 7661SOL    HW234617   1.885   2.280   7.563  1.7844 -0.6784 -1.8098
 7662SOL     OW34618   3.781   1.282   4.033 -0.6649  0.3970  0.7917
 7662SOL    HW134619   3.750   1.192   4.044  1.5118 -0.3279  1.1587
 7662SOL    HW234620   3.695   1.324   4.031 -0.4804  0.6616 -1.4170
 7663SOL     OW34621   1.128   4.166   9.889 -0.2032  0.2499  0.2839
 7663SOL    HW134622   1.069   4.221   9.837 -0.8163 -1.9874 -1.3432
 7663SOL    HW234623   1.074   4.138   9.963 -0.0900  0.8015  0.5811
 7664SOL     OW34624   4.026   0.145  16.184  0.0741  0.1756 -0.4317
 7664SOL    HW134625   4.026   0.051  16.168  1.5810  0.4708 -2.2696
 7664SOL    HW234626   4.001   0.138  16.276  0.4078 -0.7758 -0.4197
 7665SOL     OW34627   0.851   2.662   6.223  0.1942 -0.4226 -0.0829
 7665SOL    HW134628   0.910   2.626   6.289 -0.0043 -0.9755 -0.2059
 7665SOL    HW234629   0.876   2.754   6.215 -0.3649 -0.0207  2.8080
 7666SOL     OW34630   1.785   0.887   3.143  0.7995 -0.2109  0.1689
 7666SOL    HW134631   1.703   0.859   3.182 -0.3799  0.4530 -1.8311
 7666SOL    HW234632   1.834   0.898   3.225  1.6126  0.9931 -0.4830
 7667SOL     OW34633   0.137   3.438  15.240 -0.1017 -0.0580  0.0636
 7667SOL    HW134634   0.094   3.412  15.158  2.0133 -0.4391 -0.9252
 7667SOL    HW234635   0.177   3.522  15.218  0.1334 -0.3397 -0.5924
 7668SOL     OW34636   1.262   4.321  15.622  0.0781  0.0654  0.1925
 7668SOL    HW134637   1.308   4.332  15.539  1.2650 -0.7829  0.7340
 7668SOL    HW234638   1.174   4.350  15.602 -0.0087  0.6637  1.4121
 7669SOL     OW34639   1.793   2.606   9.596  0.3978 -0.1563  0.5741
 7669SOL    HW134640   1.748   2.535   9.551 -2.2413  3.1219 -1.9867
 7669SOL    HW234641   1.772   2.590   9.688  1.3967  1.2243  1.0394
 7670SOL     OW34642   3.402   2.399   5.241 -0.0901 -0.0932  0.2025
 7670SOL    HW134643   3.474   2.401   5.178 -0.2234  2.9345  0.1421
 7670SOL    HW234644   3.412   2.486   5.280 -2.1774 -0.7492  2.1931
 7671SOL     OW34645   3.069   2.118  12.912 -0.6475 -0.0362 -0.0266
 7671SOL    HW134646   3.038   2.201  12.948 -0.2377 -0.5726  1.5602
 7671SOL    HW234647   3.052   2.134  12.819  2.8030 -2.6248 -1.1237
 7672SOL     OW34648   0.386   1.443   6.443  0.2956  0.1860 -0.0727
 7672SOL    HW134649   0.347   1.463   6.528  2.8524 -0.2266  1.1775
 7672SOL    HW234650   0.434   1.525   6.449  0.0995  0.2684  0.4268
 7673SOL     OW34651   0.623   4.138  14.798  0.5165 -0.1350  0.2721
 7673SOL    HW134652   0.677   4.065  14.769 -0.1987  0.1050 -1.6765
 7673SOL    HW234653   0.682   4.203  14.760  0.1504  1.2368  2.0640
 7674SOL     OW34654   3.014   1.031   8.424 -0.2632 -0.1203 -0.0225
 7674SOL    HW134655   2.988   0.982   8.502 -0.5802 -0.3904 -0.2965
 7674SOL    HW234656   3.009   1.118   8.464 -1.2018 -1.0427  1.8332
 7675SOL     OW34657   1.603   2.762   6.423 -0.1960  0.1151  0.4127
 7675SOL    HW134658   1.535   2.695   6.412 -1.6814  1.6178  0.5365
 7675SOL    HW234659   1.581   2.827   6.357  1.5702 -0.7925 -1.0774
 7676SOL     OW34660   1.669   1.153  14.795 -0.2202  0.1854 -0.4347
 7676SOL    HW134661   1.606   1.223  14.811  0.0847 -0.0553  1.8448
 7676SOL    HW234662   1.683   1.165  14.701  0.1233  1.0395 -0.2789
 7677SOL     OW34663   3.376   1.275   3.724 -0.2096 -0.2698 -1.3302
 7677SOL    HW134664   3.390   1.320   3.641 -0.0377  0.6264 -0.8094
 7677SOL    HW234665   3.285   1.247   3.716 -0.5339  1.8534 -5.1735
 7678SOL     OW34666   0.779   1.238   1.068  0.1823  0.0094 -0.3485
 7678SOL    HW134667   0.756   1.150   1.097  1.5244 -0.3976 -0.5161
 7678SOL    HW234668   0.859   1.257   1.117 -0.4776 -0.6800  0.9871
 7679SOL     OW34669   1.977   1.562   3.470  0.0762  0.1573  0.0645
 7679SOL    HW134670   2.015   1.588   3.554  1.3768  1.6395 -0.9956
 7679SOL    HW234671   1.905   1.622   3.451  0.6679  0.5486 -0.9333
 7680SOL     OW34672   3.559   3.689   5.491 -0.2795 -0.1649  0.2318
 7680SOL    HW134673   3.601   3.775   5.502 -0.3427  0.0756 -1.5506
 7680SOL    HW234674   3.631   3.626   5.484 -0.6853 -0.3594 -2.1333
 7681SOL     OW34675   3.656   4.008   5.573 -0.7799  0.1857 -0.3966
 7681SOL    HW134676   3.699   4.086   5.609 -1.3249  1.0207 -1.5696
 7681SOL    HW234677   3.565   4.033   5.589  0.2371  3.9428 -0.4148
 7682SOL     OW34678   0.831   2.238   4.444  0.2852 -0.3925 -0.2421
 7682SOL    HW134679   0.791   2.210   4.527  0.9012  0.1706  0.2393
 7682SOL    HW234680   0.891   2.307   4.472 -2.0502  1.3815  0.3842
 7683SOL     OW34681   4.728   0.439   9.228  0.1271 -0.0859 -0.2525
 7683SOL    HW134682   0.055   0.394   9.281 -0.9114 -1.0989  0.1888
 7683SOL    HW234683   4.681   0.486   9.296  1.4379  1.3877 -0.3597
 7684SOL     OW34684   0.384   2.473   8.469  0.1616 -0.1710  0.0962
 7684SOL    HW134685   0.377   2.436   8.381  0.0109 -1.4239  0.6312
 7684SOL    HW234686   0.457   2.419   8.500  1.6393  0.1526 -2.7635
 7685SOL     OW34687   2.848   3.545   4.663 -0.1310 -0.5322 -0.1857
 7685SOL    HW134688   2.880   3.621   4.712  3.1505 -2.1451  0.1537
 7685SOL    HW234689   2.920   3.483   4.672 -0.2282 -0.3425  1.9222
 7686SOL     OW34690   0.201   2.007  17.664  0.1894 -0.5221  0.5785
 7686SOL    HW134691   0.110   1.984  17.681 -0.3795  2.1784  1.2439
 7686SOL    HW234692   0.199   2.101  17.682  3.9661 -0.2007 -0.5379
 7687SOL     OW34693   1.475   4.317   3.538  0.3155 -0.3186  0.2723
 7687SOL    HW134694   1.432   4.235   3.564  0.3292 -0.9426 -1.6936
 7687SOL    HW234695   1.412   4.371   3.491 -0.4998 -1.5643 -0.0687
 7688SOL     OW34696   1.474   3.234   8.607  0.4267 -0.0938 -0.0379
 7688SOL    HW134697   1.534   3.283   8.551  0.7639 -1.6560 -1.0776
 7688SOL    HW234698   1.429   3.183   8.539  0.9872 -0.8726  0.1658
 7689SOL     OW34699   3.551   1.503  11.528 -0.6917  0.0562  0.5534
 7689SOL    HW134700   3.491   1.433  11.554 -1.6403  0.1468 -1.4098
 7689SOL    HW234701   3.500   1.546  11.460 -0.2615  0.8141  0.7090
 7690SOL     OW34702   0.294   3.404   5.804 -0.1752  0.0799  0.0095
 7690SOL    HW134703   0.337   3.453   5.734  0.8481 -0.5808  0.1647
 7690SOL    HW234704   0.222   3.464   5.822 -0.6175  0.2352 -2.3867
 7691SOL     OW34705   2.898   1.979   4.715 -0.5591 -0.3689 -0.3595
 7691SOL    HW134706   2.879   1.991   4.622 -0.0814 -0.9625 -0.5351
 7691SOL    HW234707   2.923   1.887   4.715  1.2819  0.1216  1.9266
 7692SOL     OW34708   1.798   0.356  16.747  0.5995  0.3719  0.8219
 7692SOL    HW134709   1.741   0.280  16.738  0.0386  0.7956  0.8589
 7692SOL    HW234710   1.883   0.329  16.712 -1.1382 -2.0660 -1.5303
 7693SOL     OW34711   2.237   3.167  15.603  0.1847  0.0892  0.2869
 7693SOL    HW134712   2.275   3.229  15.540 -0.4057 -1.1637 -1.3198
 7693SOL    HW234713   2.147   3.196  15.595  0.0814 -0.5639 -0.9070
 7694SOL     OW34714   3.243   2.858   4.369  0.2718  0.3113 -0.2182
 7694SOL    HW134715   3.208   2.851   4.281 -1.5910  0.7863  0.4817
 7694SOL    HW234716   3.313   2.793   4.358 -0.9637 -1.1955  0.8082
 7695SOL     OW34717   2.960   2.381  15.601  0.0338 -0.2027 -0.0578
 7695SOL    HW134718   3.039   2.390  15.548  1.7730 -1.2326  2.3280
 7695SOL    HW234719   2.943   2.473  15.623  4.3557  0.2971  1.2453
 7696SOL     OW34720   1.983   3.341   5.216 -0.1260 -0.1431  0.3693
 7696SOL    HW134721   1.915   3.276   5.235 -0.9681  0.3394 -0.9728
 7696SOL    HW234722   2.007   3.369   5.304  1.8133 -0.5337 -0.0366
 7697SOL     OW34723   0.331   0.577   2.528 -0.1343 -0.0174  0.0133
 7697SOL    HW134724   0.369   0.537   2.450 -0.8690 -0.5357 -0.0787
 7697SOL    HW234725   0.281   0.504   2.564  0.0966 -1.3922 -2.4608
 7698SOL     OW34726   3.101   2.316   9.559  0.3917 -0.2038 -0.2194
 7698SOL    HW134727   3.137   2.234   9.592 -2.3641 -1.4357 -0.2250
 7698SOL    HW234728   3.184   2.357   9.535 -0.3763  0.6934 -1.3575
 7699SOL     OW34729   3.829   4.366  11.306 -0.1720 -0.4766 -0.5017
 7699SOL    HW134730   3.753   4.309  11.296 -0.1046 -0.3604 -1.6851
 7699SOL    HW234731   3.840   4.410  11.222 -0.8755  0.9311  0.1405
 7700SOL     OW34732   3.573   1.537   5.659  0.3561 -0.4821  0.2054
 7700SOL    HW134733   3.522   1.526   5.578  0.6874  0.2041 -0.0952
 7700SOL    HW234734   3.508   1.486   5.707  0.8313 -2.4153 -1.1964
 7701SOL     OW34735   0.925   4.602  11.694  0.4818 -0.3670  0.3199
 7701SOL    HW134736   0.912   4.582  11.786  2.2641  1.1845  0.9205
 7701SOL    HW234737   0.886   4.529  11.647 -0.5122  0.7183 -0.5643
 7702SOL     OW34738   4.476   0.834  11.585 -0.5234  0.1827  0.0564
 7702SOL    HW134739   4.543   0.859  11.648 -0.5898 -0.6987  0.4830
 7702SOL    HW234740   4.442   0.756  11.629 -1.0034  0.8469  0.8693
 7703SOL     OW34741   2.255   3.816   3.188 -0.7283 -0.1532  0.1351
 7703SOL    HW134742   2.248   3.776   3.101 -0.2166  1.3132 -0.5767
 7703SOL    HW234743   2.332   3.772   3.226 -0.1122 -0.1404 -1.0681
 7704SOL     OW34744   0.003   1.676  12.737 -0.6917  0.2761 -0.7106
 7704SOL    HW134745   4.665   1.732  12.729  0.2257  1.8769  1.8147
 7704SOL    HW234746   4.698   1.600  12.775  0.1469  0.0845 -0.1320
 7705SOL     OW34747   3.153   2.500  13.653 -0.4618  0.3199 -0.4154
 7705SOL    HW134748   3.162   2.457  13.568  0.5189 -2.6820  1.1809
 7705SOL    HW234749   3.077   2.453  13.687 -0.9091  0.5541 -1.1207
 7706SOL     OW34750   0.667   0.825   6.472  0.0776 -0.1983  0.5548
 7706SOL    HW134751   0.573   0.827   6.492  0.1976  1.2661  1.0073
 7706SOL    HW234752   0.686   0.732   6.478  2.0640  0.1488 -0.3160
 7707SOL     OW34753   3.671   1.717   1.764  0.1836 -0.1592 -0.3460
 7707SOL    HW134754   3.733   1.645   1.773  0.4872  0.1314 -0.1430
 7707SOL    HW234755   3.587   1.684   1.797 -0.2721 -0.7518 -2.0975
 7708SOL     OW34756   0.702   3.177   5.001 -0.0384  0.0632 -0.3823
 7708SOL    HW134757   0.723   3.259   5.046  4.3022 -0.7466 -0.9413
 7708SOL    HW234758   0.648   3.134   5.068 -0.2397  0.4200 -0.3189
 7709SOL     OW34759   2.989   2.169   5.965  0.0539 -0.4653  0.2621
 7709SOL    HW134760   2.916   2.107   5.972 -1.5540  1.3171 -0.9093
 7709SOL    HW234761   2.946   2.244   6.007 -1.0025 -1.2485  0.5921
 7710SOL     OW34762   0.970   3.147   0.854 -0.2183 -0.3946 -0.1747
 7710SOL    HW134763   0.915   3.170   0.779  1.6134 -0.1031 -1.4296
 7710SOL    HW234764   0.928   3.203   0.920  0.3041  1.8226 -1.7152
 7711SOL     OW34765   2.525   1.924  15.375  0.4290 -0.2816  0.1320
 7711SOL    HW134766   2.579   1.984  15.324  1.7795  0.8645  2.9149
 7711SOL    HW234767   2.440   1.939  15.334  0.7508  0.4631 -0.2561
 7712SOL     OW34768   3.535   1.207  13.784 -0.4480 -0.6514  0.2661
 7712SOL    HW134769   3.598   1.186  13.853  1.8652 -2.7621 -2.5055
 7712SOL    HW234770   3.583   1.267  13.728 -2.2918  0.0947 -0.5220
 7713SOL     OW34771   2.688   2.229   4.474 -0.2463 -0.1370  0.4540
 7713SOL    HW134772   2.616   2.214   4.536  0.7266  1.4286  1.9527
 7713SOL    HW234773   2.643   2.242   4.390 -0.0912 -0.3738  0.3350
 7714SOL     OW34774   2.397   2.506   8.174 -0.1358  0.7439 -0.0370
 7714SOL    HW134775   2.485   2.543   8.165 -0.5660  1.2480 -2.1656
 7714SOL    HW234776   2.358   2.564   8.109  2.2609 -0.4326 -2.5507
 7715SOL     OW34777   2.501   4.362  12.982  0.4491 -0.1404 -0.1322
 7715SOL    HW134778   2.589   4.383  13.015  0.7996 -4.0856  1.4540
 7715SOL    HW234779   2.445   4.421  13.033  0.1590 -0.3379 -0.2257
 7716SOL     OW34780   3.447   0.870   5.664  0.5788  0.2344 -0.5468
 7716SOL    HW134781   3.413   0.827   5.585 -0.9124 -0.7461  0.6287
 7716SOL    HW234782   3.522   0.812   5.677 -0.6242 -1.5211 -1.3828
 7717SOL     OW34783   3.459   0.442   2.585  0.4280  0.3637 -0.1755
 7717SOL    HW134784   3.509   0.411   2.509 -0.2953 -0.3203 -0.3687
 7717SOL    HW234785   3.396   0.505   2.548 -1.2833 -2.0318 -1.3184
 7718SOL     OW34786   2.053   2.650  17.319  0.4068 -0.2912  0.2691
 7718SOL    HW134787   2.071   2.632  17.227 -1.2615 -1.5469  0.1936
 7718SOL    HW234788   2.135   2.645  17.367  0.3091 -2.2675  0.2318
 7719SOL     OW34789   0.478   0.163   0.412  0.2507 -0.2039 -0.0460
 7719SOL    HW134790   0.446   0.249   0.386 -0.1304 -0.0532  0.9100
 7719SOL    HW234791   0.487   0.128   0.324  0.3726 -1.1739  0.3573
 7720SOL     OW34792   4.071   4.683  15.028 -0.1331 -0.0348 -0.5086
 7720SOL    HW134793   3.983   4.694  15.065 -0.2900  1.6833 -1.3962
 7720SOL    HW234794   4.116   0.010  15.081 -0.2900 -0.5816  0.3126
 7721SOL     OW34795   0.411   0.406   0.342  0.4611  0.2463  0.4398
 7721SOL    HW134796   0.359   0.485   0.356  0.9699  1.1066 -2.5820
 7721SOL    HW234797   0.477   0.440   0.282  1.9969 -0.6249  1.6212
 7722SOL     OW34798   4.503   3.658   8.372 -0.6665 -0.3803 -0.1693
 7722SOL    HW134799   4.471   3.676   8.460  0.0999 -0.2881  0.0945
 7722SOL    HW234800   4.569   3.726   8.358  1.0778 -1.8448  0.9966
 7723SOL     OW34801   4.159   3.653   2.555  0.6462 -0.2862 -0.0389
 7723SOL    HW134802   4.186   3.629   2.466  0.9549  0.0173 -0.0262
 7723SOL    HW234803   4.115   3.574   2.588 -0.6489 -0.4013 -2.0375
 7724SOL     OW34804   0.894   2.803   6.525 -0.2154  0.1039  0.1885
 7724SOL    HW134805   0.919   2.849   6.605 -2.5434 -0.7138  1.3581
 7724SOL    HW234806   0.981   2.767   6.507 -0.0943 -0.6843  2.4058
 7725SOL     OW34807   4.569   4.010   8.732  0.1651 -0.0798 -0.0281
 7725SOL    HW134808   4.513   3.951   8.782  0.8316  1.9743  3.0998
 7725SOL    HW234809   4.567   4.092   8.781 -1.1814 -0.6302  0.8381
 7726SOL     OW34810   1.059   4.214   9.606 -0.4348  0.1442 -0.3356
 7726SOL    HW134811   1.020   4.132   9.637 -2.9408  1.6640  0.4678
 7726SOL    HW234812   1.100   4.172   9.530  0.4402 -1.7464  1.1706
 7727SOL     OW34813   3.254   2.541  12.435  0.6092  0.1630 -0.6028
 7727SOL    HW134814   3.239   2.601  12.508 -1.5435 -3.4855  2.0002
 7727SOL    HW234815   3.164   2.514  12.418 -0.1776  2.1676  0.4200
 7728SOL     OW34816   2.893   2.699   8.487 -0.7001 -0.3020 -0.5921
 7728SOL    HW134817   2.912   2.786   8.523 -0.8723 -0.6836  0.4378
 7728SOL    HW234818   2.970   2.677   8.435 -0.8311 -1.1334 -0.4289
 7729SOL     OW34819   3.077   4.194   4.038 -0.5507 -0.4251  0.5529
 7729SOL    HW134820   3.050   4.280   4.006 -1.6574 -1.0438 -0.1799
 7729SOL    HW234821   3.056   4.213   4.129 -0.1930 -1.7716  0.9104
 7730SOL     OW34822   0.166   2.930   8.916 -0.3669  0.1759  0.3085
 7730SOL    HW134823   0.190   2.839   8.903 -1.7034 -0.3392  1.4678
 7730SOL    HW234824   0.077   2.923   8.950 -0.8133 -1.5846 -1.2381
 7731SOL     OW34825   4.725   3.614   9.318  0.4794 -0.5829 -0.2146
 7731SOL    HW134826   0.045   3.539   9.306 -0.5660 -1.2998 -0.9448
 7731SOL    HW234827   0.022   3.644   9.401  1.8107 -2.6837 -0.0280
 7732SOL     OW34828   0.229   4.256   9.360  0.0478 -0.0577 -0.8097
 7732SOL    HW134829   0.256   4.173   9.320  0.9913 -0.3822  0.4826
 7732SOL    HW234830   0.273   4.257   9.445  1.3189  1.5667 -1.4942
 7733SOL     OW34831   2.966   0.118  10.255 -0.6838 -0.0789  0.6431
 7733SOL    HW134832   3.043   0.113  10.198 -0.7056  0.7052  0.5526
 7733SOL    HW234833   3.004   0.078  10.333 -0.6140  0.5922  0.9518
 7734SOL     OW34834   3.079   2.486   7.196 -0.0450  0.5069  0.6751
 7734SOL    HW134835   3.076   2.581   7.184 -2.3266  0.3899  0.3343
 7734SOL    HW234836   3.044   2.455   7.112  2.5081  1.9969 -0.9764
 7735SOL     OW34837   3.934   0.918   5.975 -0.0795 -0.8293 -0.3507
 7735SOL    HW134838   4.013   0.924   6.029 -0.8588 -1.2535  0.8343
 7735SOL    HW234839   3.926   1.001   5.930 -1.5863 -0.1744  1.1491
 7736SOL     OW34840   0.469   1.108  15.251 -0.1238  0.6831 -0.0549
 7736SOL    HW134841   0.420   1.086  15.172 -1.9771 -1.2381  1.6432
 7736SOL    HW234842   0.415   1.177  15.290 -0.9668  0.5560 -0.9967
 7737SOL     OW34843   1.213   3.555   2.615 -0.7827  0.3414  0.4178
 7737SOL    HW134844   1.272   3.611   2.666 -0.0772 -0.2834  0.2897
 7737SOL    HW234845   1.126   3.591   2.630 -0.8962  1.4226 -2.8436
 7738SOL     OW34846   2.527   3.435   5.576 -0.1695 -0.0464 -0.5507
 7738SOL    HW134847   2.530   3.417   5.670  0.3420 -1.2254 -0.7946
 7738SOL    HW234848   2.476   3.364   5.537  0.7083 -1.5249  0.9945
 7739SOL     OW34849   2.320   1.957   8.553  0.1156 -0.5878 -0.2239
 7739SOL    HW134850   2.405   1.973   8.511 -0.0249  1.3030  0.2018
 7739SOL    HW234851   2.289   1.878   8.509  1.7725 -2.6726  2.3884
 7740SOL     OW34852   0.060   1.129  10.691 -0.0230 -0.4077  0.7338
 7740SOL    HW134853   0.151   1.128  10.660 -0.8043 -1.6752 -1.4992
 7740SOL    HW234854   0.062   1.144  10.785  0.3864  2.1887  0.3267
 7741SOL     OW34855   0.642   1.385   8.342 -0.2758 -0.4128  0.0820
 7741SOL    HW134856   0.705   1.324   8.302 -0.5606 -0.0252 -0.9539
 7741SOL    HW234857   0.579   1.400   8.272  1.7921 -0.0632 -1.6778
 7742SOL     OW34858   3.799   4.583   8.292  0.3102  0.0262  0.0189
 7742SOL    HW134859   3.894   4.593   8.282  0.6512  0.1260  3.0899
 7742SOL    HW234860   3.775   4.660   8.344  0.0980  0.0156 -0.0631
 7743SOL     OW34861   4.469   4.027  13.083  0.0016 -0.0074  0.4841
 7743SOL    HW134862   4.439   4.083  13.154  2.6021  1.3799  0.4549
 7743SOL    HW234863   4.407   4.047  13.012  1.2537 -0.5762 -0.7712
 7744SOL     OW34864   3.307   1.066  16.668 -0.0008 -0.2497  0.2450
 7744SOL    HW134865   3.311   1.021  16.584  1.5827  1.9701 -0.8840
 7744SOL    HW234866   3.220   1.038  16.695  0.6337 -0.2585  2.2618
 7745SOL     OW34867   3.836   2.442   7.008 -0.0472 -0.2517  0.3447
 7745SOL    HW134868   3.863   2.483   7.090 -2.3425  0.3362  0.8040
 7745SOL    HW234869   3.769   2.376   7.027  0.2365 -0.8659 -0.7752
 7746SOL     OW34870   1.826   3.561   9.077  0.0637  0.3312  0.3741
 7746SOL    HW134871   1.766   3.505   9.029  1.2033 -1.2871  0.8479
 7746SOL    HW234872   1.835   3.624   9.006  0.8765 -1.6573 -1.2706
 7747SOL     OW34873   2.585   0.346   1.314 -0.0315 -0.0123 -0.0773
 7747SOL    HW134874   2.653   0.406   1.344  0.1412  0.2799 -1.0691
 7747SOL    HW234875   2.537   0.345   1.397 -2.5348 -1.2265 -1.5210
 7748SOL     OW34876   2.585   1.955   2.959 -0.3130  0.2144 -0.8514
 7748SOL    HW134877   2.500   1.910   2.956  0.8359 -2.1982  2.7816
 7748SOL    HW234878   2.555   2.035   2.915 -1.4289  0.4297  0.2815
 7749SOL     OW34879   1.878   1.271   5.727  0.1351 -0.0880  0.1649
 7749SOL    HW134880   1.812   1.275   5.659 -0.5982 -0.7602  0.8380
 7749SOL    HW234881   1.838   1.324   5.796  1.6116  0.7022  0.4198
 7750SOL     OW34882   3.830   4.277   2.446  0.3791 -0.8309  0.0263
 7750SOL    HW134883   3.842   4.338   2.518 -1.1465 -1.0563  0.4677
 7750SOL    HW234884   3.833   4.325   2.363 -0.2319 -0.2165  0.3657
 7751SOL     OW34885   2.904   4.329   1.431  0.1444 -0.2364  0.0314
 7751SOL    HW134886   2.861   4.268   1.371 -2.2569  0.6696  0.8373
 7751SOL    HW234887   2.838   4.330   1.500  0.0671  1.3780 -0.0590
 7752SOL     OW34888   2.702   4.506   6.798 -0.3646 -0.2148 -0.0778
 7752SOL    HW134889   2.749   4.534   6.720  1.5150 -2.2520  0.3299
 7752SOL    HW234890   2.615   4.478   6.767 -1.2167  2.5793 -0.1706
 7753SOL     OW34891   1.793   0.264  10.459  0.0450 -0.6542  0.3833
 7753SOL    HW134892   1.862   0.208  10.494  0.0883 -1.7005 -1.3706
 7753SOL    HW234893   1.797   0.233  10.368  1.1163 -0.5980  0.4099
 7754SOL     OW34894   3.327   0.951   5.916 -0.4388  0.5425  0.3386
 7754SOL    HW134895   3.386   1.020   5.947  0.0877  0.8416 -1.3255
 7754SOL    HW234896   3.380   0.917   5.844  1.1560  0.6978  1.4365
 7755SOL     OW34897   3.166   0.255   6.251  0.2556 -0.3571 -0.2115
 7755SOL    HW134898   3.233   0.243   6.318 -1.8164  0.7293  2.0320
 7755SOL    HW234899   3.196   0.335   6.208  0.4517 -0.3509 -0.0600
 7756SOL     OW34900   1.802   3.157   5.301 -1.0034  0.0118  0.2960
 7756SOL    HW134901   1.708   3.157   5.318 -1.2559  3.4143 -1.1241
 7756SOL    HW234902   1.830   3.152   5.393 -0.0352 -2.3082 -0.1083
 7757SOL     OW34903   4.131   1.499   2.303  0.2822  0.3438 -0.7162
 7757SOL    HW134904   4.059   1.554   2.334  0.3046 -0.7000  1.1933
 7757SOL    HW234905   4.103   1.410   2.325  1.9664 -0.0849 -0.2646
 7758SOL     OW34906   4.132   0.513   2.711  0.0685  0.4987  0.2492
 7758SOL    HW134907   4.144   0.520   2.805  1.9578  2.4166 -0.1511
 7758SOL    HW234908   4.129   0.604   2.682 -1.4405  0.6390  0.8225
 7759SOL     OW34909   2.002   3.081   8.640 -0.3619 -0.4128 -0.2145
 7759SOL    HW134910   2.022   2.991   8.666 -1.0893 -0.0079  1.8061
 7759SOL    HW234911   1.918   3.055   8.602 -1.5020  0.5245  1.6622
 7760SOL     OW34912   2.473   3.679   4.300 -0.2800 -0.2933 -0.3607
 7760SOL    HW134913   2.546   3.619   4.314  0.0458 -0.3400 -2.1909
 7760SOL    HW234914   2.403   3.629   4.340  1.4297 -1.8779  0.6427
 7761SOL     OW34915   4.515   2.539  13.664 -0.1556 -0.2667 -0.0864
 7761SOL    HW134916   4.527   2.540  13.569  0.7256  1.5331  0.0479
 7761SOL    HW234917   4.423   2.558  13.680 -0.0991  0.5080 -0.6674
 7762SOL     OW34918   2.909   3.640   5.943 -0.1794  0.2387 -0.1696
 7762SOL    HW134919   2.814   3.648   5.948 -0.3053 -0.3403 -1.5023
 7762SOL    HW234920   2.939   3.708   6.003 -3.8330  0.4945  1.3748
 7763SOL     OW34921   2.809   1.130   8.675 -0.2544  0.1832  0.3199
 7763SOL    HW134922   2.813   1.100   8.765 -0.5859  1.4982  0.7769
 7763SOL    HW234923   2.797   1.055   8.618  1.6397 -0.4727  0.7846
 7764SOL     OW34924   4.552   1.288   5.475 -0.6882  0.3056 -0.1517
 7764SOL    HW134925   4.489   1.265   5.406  0.1581 -1.5763 -0.2648
 7764SOL    HW234926   4.509   1.250   5.551 -1.9372 -0.5761 -1.2775
 7765SOL     OW34927   4.182   1.219   4.929  0.2456 -0.8384 -0.5026
 7765SOL    HW134928   4.239   1.180   4.996  2.0509  3.0429  0.2200
 7765SOL    HW234929   4.180   1.311   4.956  2.3435 -0.5926 -1.2047
 7766SOL     OW34930   1.926   4.107   8.662  0.2507  0.5874 -0.1314
 7766SOL    HW134931   1.912   4.093   8.568 -3.3756 -2.5621  0.8867
 7766SOL    HW234932   1.972   4.027   8.690 -0.6867 -0.2303 -0.9186
 7767SOL     OW34933   4.398   0.624   0.690 -0.5695  0.3239 -0.0881
 7767SOL    HW134934   4.345   0.586   0.760  0.7557  0.8237  1.1953
 7767SOL    HW234935   4.408   0.712   0.727  0.8061  0.4264 -0.7032
 7768SOL     OW34936   2.749   3.832  14.986  0.5466  0.4540  0.6143
 7768SOL    HW134937   2.746   3.923  14.954 -2.7105  0.0007 -0.4354
 7768SOL    HW234938   2.683   3.794  14.928 -0.6629  0.3728  2.0413
 7769SOL     OW34939   1.345   0.623   5.677  0.1259 -0.6443  0.1074
 7769SOL    HW134940   1.368   0.571   5.601  0.3895 -1.7158  0.9186
 7769SOL    HW234941   1.302   0.559   5.733 -1.1430 -0.5497 -0.7603
 7770SOL     OW34942   3.112   1.708   3.398  0.2690  0.6589 -0.5054
 7770SOL    HW134943   3.045   1.669   3.454  0.8283 -1.4385 -1.2847
 7770SOL    HW234944   3.131   1.786   3.449 -1.0691 -1.9313  3.9829
 7771SOL     OW34945   4.615   0.013   8.842  0.1746  0.2778 -0.0627
 7771SOL    HW134946   4.665   0.094   8.857  0.7406 -0.5670  2.6950
 7771SOL    HW234947   4.667   4.683   8.884  0.8631  1.9701  1.9035
 7772SOL     OW34948   4.054   2.389   7.272  0.3060  0.0130 -0.3516
 7772SOL    HW134949   4.101   2.417   7.350  0.7356  0.5288 -0.7936
 7772SOL    HW234950   3.986   2.456   7.278  0.8824  0.4746  1.1713
 7773SOL     OW34951   2.459   1.432   9.834  0.4830  0.0192 -0.2480
 7773SOL    HW134952   2.368   1.403   9.838  0.7750 -1.0630 -1.4928
 7773SOL    HW234953   2.514   1.356   9.850  1.9639  1.0081 -0.6829
 7774SOL     OW34954   1.388   0.114   6.580 -0.6146  0.0464  0.1769
 7774SOL    HW134955   1.471   0.143   6.617  0.6498 -2.3665 -0.7540
 7774SOL    HW234956   1.393   0.019   6.590  0.0276 -0.0354 -0.9431
 7775SOL     OW34957   0.182   4.390   1.398 -0.2356  0.2712  0.1225
 7775SOL    HW134958   0.230   4.466   1.365  0.2700  0.5756  1.5654
 7775SOL    HW234959   0.114   4.433   1.450  0.2486 -0.2165  1.1439
 7776SOL     OW34960   1.966   1.846   2.941 -0.1757 -0.3681 -0.3481
 7776SOL    HW134961   1.920   1.826   3.022  2.5917  0.5222  1.4772
 7776SOL    HW234962   1.974   1.939   2.963  0.3164 -0.5796  0.3397
 7777SOL     OW34963   2.800   4.240   3.608 -0.2994  0.2420 -0.4300
 7777SOL    HW134964   2.780   4.320   3.559 -4.3144  0.4093  1.5001
 7777SOL    HW234965   2.862   4.269   3.675  0.0319 -0.4518 -0.4424
 7778SOL     OW34966   1.703   3.657   9.310  0.2357 -0.6666  0.0512
 7778SOL    HW134967   1.696   3.590   9.242 -1.0963  0.1955 -0.6764
 7778SOL    HW234968   1.794   3.659   9.338  0.7114  0.5933 -1.6076
 7779SOL     OW34969   0.660   4.486   9.332  0.5303  0.6157  0.6833
 7779SOL    HW134970   0.640   4.405   9.379  0.3940  0.7219  0.8061
 7779SOL    HW234971   0.705   4.532   9.402  0.4631 -0.4028  1.3912
 7780SOL     OW34972   3.177   4.420   7.177 -0.5212 -0.0966  0.1442
 7780SOL    HW134973   3.248   4.479   7.151 -0.4706  0.4352  1.5180
 7780SOL    HW234974   3.142   4.478   7.244  1.5897  2.8414 -1.2862
 7781SOL     OW34975   0.679   3.782   0.492 -0.0011 -0.0038 -0.4042
 7781SOL    HW134976   0.671   3.704   0.547 -0.6605 -0.8918 -1.7434
 7781SOL    HW234977   0.630   3.850   0.539  0.4593  0.1593 -0.1601
 7782SOL     OW34978   3.432   4.553   6.878 -0.3709 -0.2406  0.1692
 7782SOL    HW134979   3.487   4.546   6.800  1.0410 -0.2469  1.1763
 7782SOL    HW234980   3.488   4.598   6.941 -0.9909  0.9515 -0.1335
 7783SOL     OW34981   4.569   3.143   2.746  0.1708  0.2123  0.4347
 7783SOL    HW134982   4.591   3.236   2.738  0.3004  0.1567  0.1532
 7783SOL    HW234983   4.537   3.123   2.658 -2.1585  0.5343  1.2110
 7784SOL     OW34984   0.471   3.738   2.762  0.0200 -0.5022 -0.0130
 7784SOL    HW134985   0.404   3.806   2.769 -1.8425 -2.3990  0.1479
 7784SOL    HW234986   0.478   3.721   2.668  0.5808 -2.7583  0.4446
 7785SOL     OW34987   2.601   0.122   3.575 -0.0009  0.0493 -0.2269
 7785SOL    HW134988   2.666   0.159   3.516 -1.0172  1.7765 -0.2764
 7785SOL    HW234989   2.615   0.174   3.654  1.3147 -0.5562 -0.0625
 7786SOL     OW34990   2.913   3.820   6.153  0.1641 -0.1773 -0.1696
 7786SOL    HW134991   2.841   3.784   6.205 -0.3568  2.1482  0.7389
 7786SOL    HW234992   2.942   3.879   6.223  0.0607 -0.2838 -0.0371
 7787SOL     OW34993   4.508   1.528   5.792  0.5004 -0.3132  0.2151
 7787SOL    HW134994   4.535   1.604   5.740  0.2186  0.3613  1.0366
 7787SOL    HW234995   4.572   1.536   5.863  0.4807 -0.1693  0.2169
 7788SOL     OW34996   1.597   3.563   6.097  0.1606  0.3897  0.0463
 7788SOL    HW134997   1.637   3.609   6.023  0.2294 -0.3919 -0.4040
 7788SOL    HW234998   1.504   3.559   6.078  0.6403  2.8968 -2.8258
 7789SOL     OW34999   1.811   2.284   4.975 -0.2814 -0.1653  0.2371
 7789SOL    HW135000   1.876   2.348   4.948 -1.9076  1.0202 -0.8931
 7789SOL    HW235001   1.850   2.213   4.924 -1.4480 -0.3060 -0.4827
 7790SOL     OW35002   0.506   3.313   2.777 -0.5126  0.4560 -0.3816
 7790SOL    HW135003   0.594   3.288   2.749 -0.5389 -0.7613  0.6629
 7790SOL    HW235004   0.524   3.384   2.838 -0.5680 -0.0991  0.2860
 7791SOL     OW35005   4.310   3.515   0.440 -0.1170  0.6728  0.1780
 7791SOL    HW135006   4.389   3.569   0.453  1.0846 -0.9227 -0.5125
 7791SOL    HW235007   4.241   3.577   0.417 -0.7583 -0.7622 -1.7534
 7792SOL     OW35008   3.970   3.288   3.734 -0.1643 -0.2312  0.3885
 7792SOL    HW135009   3.955   3.324   3.647 -0.8395 -2.2140 -0.3179
 7792SOL    HW235010   3.907   3.345   3.778 -1.0234  0.4231 -1.7073
 7793SOL     OW35011   3.578   2.300   4.814  0.0471  0.0882 -0.0558
 7793SOL    HW135012   3.508   2.250   4.856  0.4931 -0.1369  0.4330
 7793SOL    HW235013   3.649   2.236   4.811 -0.3357 -0.4680  2.4968
 7794SOL     OW35014   3.291   4.283   5.256  0.2754 -0.3725  0.1753
 7794SOL    HW135015   3.357   4.310   5.320 -0.1370  0.5641  0.1967
 7794SOL    HW235016   3.263   4.194   5.279 -0.9414  0.0445  0.2877
 7795SOL     OW35017   3.011   2.851   3.516 -0.0382  0.1927 -0.4825
 7795SOL    HW135018   2.967   2.856   3.601  1.2996  0.4815  0.1849
 7795SOL    HW235019   3.004   2.945   3.502  1.2633  0.2133 -0.9760
 7796SOL     OW35020   2.350   2.178   9.145 -0.4173 -0.2958 -0.7981
 7796SOL    HW135021   2.371   2.210   9.057 -3.1559  1.7085 -0.7241
 7796SOL    HW235022   2.306   2.096   9.125 -2.1602  0.1332  1.2763
 7797SOL     OW35023   4.562   0.917   1.358  0.3034 -0.9380 -0.2669
 7797SOL    HW135024   4.571   0.937   1.452  1.0688 -0.8531 -0.3545
 7797SOL    HW235025   4.563   1.006   1.322  2.4880 -1.2222 -0.9191
 7798SOL     OW35026   1.691   3.504   1.080 -0.0857 -0.2264 -0.0405
 7798SOL    HW135027   1.625   3.496   1.012  0.5397  0.7523 -0.7492
 7798SOL    HW235028   1.682   3.596   1.106  0.2090 -0.0966 -0.3911
 7799SOL     OW35029   3.778   2.082  10.044 -0.5492 -0.1907 -0.0014
 7799SOL    HW135030   3.734   1.998  10.051 -1.3269 -0.0106 -2.6141
 7799SOL    HW235031   3.825   2.082  10.127 -0.9591  1.4281  0.2368
 7800SOL     OW35032   4.102   3.458   4.037  0.0502 -0.4673 -0.0677
 7800SOL    HW135033   4.089   3.374   4.080 -2.4578 -0.9047 -1.6340
 7800SOL    HW235034   4.017   3.461   3.993  0.3402  0.8002 -0.5492
 7801SOL     OW35035   2.965   4.225  15.930 -0.6149 -0.5764 -0.7694
 7801SOL    HW135036   3.052   4.188  15.917  0.1259  0.3354  1.5921
 7801SOL    HW235037   2.921   4.146  15.961  1.2626 -1.8330 -1.3408
 7802SOL     OW35038   1.809   0.451  11.471  0.5199  0.4863  0.0631
 7802SOL    HW135039   1.722   0.436  11.509  2.0196 -2.1714  2.4645
 7802SOL    HW235040   1.826   0.400  11.392  2.4341  0.1062  0.7261
 7803SOL     OW35041   3.941   0.644   4.383 -0.1551 -0.2391  0.3814
 7803SOL    HW135042   3.858   0.691   4.380 -1.0266 -1.9027 -1.6448
 7803SOL    HW235043   3.995   0.719   4.410  2.1002 -1.4832 -0.6472
 7804SOL     OW35044   0.015   1.672  13.118  0.4301 -0.7753  0.7717
 7804SOL    HW135045   0.099   1.710  13.147 -1.6251  2.2476  2.8194
 7804SOL    HW235046   0.048   1.596  13.071 -1.0783 -1.7386  1.2635
 7805SOL     OW35047   0.245   0.927   4.593  0.3188  0.2491 -0.0374
 7805SOL    HW135048   0.254   1.012   4.638  2.0807 -0.0362  0.1457
 7805SOL    HW235049   0.263   0.964   4.506 -2.1002  0.0830 -0.6232
 7806SOL     OW35050   3.624   4.713   6.992  0.4943  0.0436 -0.3965
 7806SOL    HW135051   3.639   0.059   7.035 -2.4371 -0.2134  1.1355
 7806SOL    HW235052   3.706   4.692   6.947  0.8800 -2.6446  1.5084
 7807SOL     OW35053   3.710   0.998   3.158 -0.1317  0.4897  0.0826
 7807SOL    HW135054   3.772   1.068   3.177  0.1731 -0.2728  1.7820
 7807SOL    HW235055   3.647   1.040   3.099  2.8406  1.5556 -2.3507
 7808SOL     OW35056   3.507   1.535   9.126 -0.4093 -0.2271 -0.6335
 7808SOL    HW135057   3.455   1.615   9.117  3.1110  2.0139 -0.9397
 7808SOL    HW235058   3.453   1.476   9.179  0.3125  0.7913  1.2541
 7809SOL     OW35059   0.296   2.406   6.860 -0.2879  0.0132  0.1420
 7809SOL    HW135060   0.280   2.474   6.794  0.1729  0.7261  0.7532
 7809SOL    HW235061   0.381   2.433   6.897 -0.5097  1.6999 -0.5533
 7810SOL     OW35062   2.717   2.560   4.142  0.2064  0.0622  0.4401
 7810SOL    HW135063   2.732   2.603   4.226 -0.1662 -1.3670  1.2505
 7810SOL    HW235064   2.621   2.567   4.139 -0.0954 -3.6278  0.3246
 7811SOL     OW35065   4.271   3.310   5.753 -0.2649  0.0748 -0.1442
 7811SOL    HW135066   4.255   3.331   5.845 -0.9495  1.0594 -0.4927
 7811SOL    HW235067   4.330   3.382   5.729  0.3424 -0.6208 -0.7468
 7812SOL     OW35068   1.332   4.089   3.677 -0.5352 -0.2176  0.6562
 7812SOL    HW135069   1.237   4.099   3.674 -0.0244  3.9591 -0.7478
 7812SOL    HW235070   1.357   4.083   3.769 -3.6917 -3.0648  1.3500
 7813SOL     OW35071   3.182   1.246  13.317 -0.1129  0.0499 -0.0311
 7813SOL    HW135072   3.147   1.281  13.235 -0.0693  1.7389  0.6737
 7813SOL    HW235073   3.250   1.308  13.341 -2.5785  2.3089  0.9931
 7814SOL     OW35074   0.478   1.834   5.271 -0.0412 -0.0802 -0.4773
 7814SOL    HW135075   0.539   1.804   5.338 -1.8531 -0.5719  0.9430
 7814SOL    HW235076   0.421   1.895   5.318 -1.6831  0.2035 -2.8097
 7815SOL     OW35077   4.483   0.660  14.012  0.5399 -0.7930 -0.7067
 7815SOL    HW135078   4.441   0.743  13.990  0.3113 -0.5364  0.6650
 7815SOL    HW235079   4.403   0.607  14.004  0.7100 -1.4207  1.7177
 7816SOL     OW35080   0.995   0.093   7.579 -0.0733  0.8923  0.3203
 7816SOL    HW135081   0.957   0.110   7.493  0.6518 -1.0386 -0.3653
 7816SOL    HW235082   1.089   0.101   7.558  0.6256 -1.6100  2.5364
 7817SOL     OW35083   3.441   0.315  14.104 -0.1727  0.7182 -0.4314
 7817SOL    HW135084   3.359   0.331  14.057  0.0260  3.2124  0.0707
 7817SOL    HW235085   3.499   0.290  14.032 -0.7710 -0.8096 -0.3743
 7818SOL     OW35086   1.209   2.453   3.062 -0.8836 -0.4778 -0.1507
 7818SOL    HW135087   1.178   2.408   3.140  3.4229 -2.8309  0.1962
 7818SOL    HW235088   1.184   2.545   3.074  0.7671  0.1824 -1.7476
 7819SOL     OW35089   3.476   0.009   1.361 -0.0271 -0.4993 -0.2893
 7819SOL    HW135090   3.437   4.693   1.293  1.0871 -2.4320  0.6483
 7819SOL    HW235091   3.415   0.018   1.435  0.1115 -0.0813 -0.2255
 7820SOL     OW35092   0.003   2.253  17.687  0.0152 -0.0014 -0.3752
 7820SOL    HW135093   4.713   2.161  17.688  1.2253 -0.3932 -1.5340
 7820SOL    HW235094   4.722   2.275  17.596  1.0066  0.3935 -0.4987
 7821SOL     OW35095   1.987   0.560   7.227 -0.1831  0.2911  0.0305
 7821SOL    HW135096   1.942   0.477   7.241 -0.9092  0.2623 -2.6231
 7821SOL    HW235097   1.913   0.620   7.242  0.1668  0.9451 -0.8744
 7822SOL     OW35098   0.260   1.834  14.744  0.7569  0.2419  0.1355
 7822SOL    HW135099   0.331   1.868  14.799  1.2370 -2.1118  0.9861
 7822SOL    HW235100   0.277   1.740  14.744 -0.5879  0.0045  1.8089
 7823SOL     OW35101   3.309   1.002   6.990  0.4702  0.5708  0.3624
 7823SOL    HW135102   3.326   0.950   6.911 -1.9551  1.7627 -0.9474
 7823SOL    HW235103   3.238   0.949   7.028 -0.1635  1.2209  0.0963
 7824SOL     OW35104   0.046   1.363   9.175  0.0054 -0.1378 -0.5744
 7824SOL    HW135105   0.008   1.411   9.248  1.7722 -0.8487  0.7986
 7824SOL    HW235106   0.135   1.392   9.190  0.2171 -0.4535 -1.2045
 7825SOL     OW35107   4.181   4.558   3.033 -0.2943  0.3157  0.3935
 7825SOL    HW135108   4.201   4.498   3.106  0.4480 -0.0220 -0.0953
 7825SOL    HW235109   4.269   4.586   3.009  0.5886 -1.8120  1.0895
 7826SOL     OW35110   2.201   2.352   9.534  0.1208 -0.3259  0.2326
 7826SOL    HW135111   2.252   2.417   9.486  1.4466 -0.4444  1.4651
 7826SOL    HW235112   2.178   2.299   9.457  2.2700  1.1504 -1.4149
 7827SOL     OW35113   2.152   4.393   6.206  0.1075  0.2840 -0.2689
 7827SOL    HW135114   2.143   4.329   6.136 -1.0452  1.6276 -1.3677
 7827SOL    HW235115   2.177   4.337   6.280  1.7674  1.0308 -0.2839
 7828SOL     OW35116   1.546   0.496   3.862 -0.4249  0.0694  0.4804
 7828SOL    HW135117   1.561   0.590   3.873 -0.5253  0.0363  0.9006
 7828SOL    HW235118   1.551   0.472   3.955  3.0172 -0.4060  0.1629
 7829SOL     OW35119   2.300   2.720   6.822 -0.0903 -0.3139 -0.0469
 7829SOL    HW135120   2.249   2.679   6.892 -0.3284  0.8272  0.4498
 7829SOL    HW235121   2.383   2.702   6.866  0.1897 -1.3621 -1.0063
 7830SOL     OW35122   3.572   3.247   0.204  0.3392  0.0763  0.2295
 7830SOL    HW135123   3.483   3.265   0.175  0.4272  0.7506  0.3696
 7830SOL    HW235124   3.604   3.211   0.122 -1.3423  1.2448 -0.9328
 7831SOL     OW35125   0.638   0.134   3.925 -0.0681  0.1974 -0.3344
 7831SOL    HW135126   0.665   0.064   3.865 -0.7173 -0.7267  0.4453
 7831SOL    HW235127   0.709   0.197   3.916  0.6941 -0.6691 -0.3229
 7832SOL     OW35128   2.602   3.781  15.205  0.1076 -0.2654 -0.2162
 7832SOL    HW135129   2.691   3.779  15.242 -0.0263  1.1833  0.1874
 7832SOL    HW235130   2.632   3.813  15.120 -0.4765 -0.5519 -0.5267
 7833SOL     OW35131   1.696   4.100   0.914  0.5789 -0.1053 -0.2130
 7833SOL    HW135132   1.777   4.077   0.959  1.5020  0.5077 -1.5466
 7833SOL    HW235133   1.631   4.090   0.984  1.1800 -0.3872  0.3053
 7834SOL     OW35134   1.585   1.728   1.643  0.3155 -0.0807 -0.3150
 7834SOL    HW135135   1.626   1.676   1.712  0.7425 -0.0296 -0.5305
 7834SOL    HW235136   1.621   1.690   1.563  2.0576  2.3747 -0.7084
 7835SOL     OW35137   2.205   4.078   6.568  0.0491  0.1210 -0.2611
 7835SOL    HW135138   2.229   4.168   6.589 -1.5989  0.4069  0.4370
 7835SOL    HW235139   2.275   4.063   6.504  0.6415  0.2374  0.3627
 7836SOL     OW35140   3.057   1.718   7.757  0.4940 -0.0709  0.4477
 7836SOL    HW135141   2.976   1.679   7.792  0.9589 -0.1235  1.4639
 7836SOL    HW235142   3.117   1.690   7.826  0.6923 -2.0606 -0.5464
 7837SOL     OW35143   3.803   0.575   8.403 -0.5036  0.4165 -0.3752
 7837SOL    HW135144   3.879   0.628   8.382  0.0829 -0.0074  0.7046
 7837SOL    HW235145   3.788   0.534   8.318 -0.3767 -0.7254  0.1593
 7838SOL     OW35146   1.895   3.639   5.383  0.0157  0.0877  0.0013
 7838SOL    HW135147   1.800   3.629   5.390 -0.0130  1.5987  1.8206
 7838SOL    HW235148   1.910   3.721   5.337 -1.8853 -0.0670 -0.9064
 7839SOL     OW35149   1.764   3.869   4.145 -0.3886 -0.2289 -0.8053
 7839SOL    HW135150   1.690   3.891   4.201 -0.5684 -0.1034 -1.0930
 7839SOL    HW235151   1.830   3.891   4.211  1.7772  0.1653 -3.0996
 7840SOL     OW35152   4.072   4.309  15.394  0.1662  0.1822 -0.2762
 7840SOL    HW135153   4.001   4.269  15.443 -1.1119  0.7270 -1.6790
 7840SOL    HW235154   4.020   4.344  15.321  0.7704 -0.4487 -1.0115
 7841SOL     OW35155   3.051   2.193   3.577  0.2829  0.4086 -0.2705
 7841SOL    HW135156   2.970   2.242   3.568 -0.5907 -0.5409  2.4719
 7841SOL    HW235157   3.079   2.179   3.487 -0.9387 -2.6255 -0.1755
 7842SOL     OW35158   4.337   4.575   1.683 -0.1629  0.3273 -0.3358
 7842SOL    HW135159   4.262   4.518   1.664  0.4170 -0.9199  1.1222
 7842SOL    HW235160   4.382   4.554   1.601  1.2913  0.3187  0.4794
 7843SOL     OW35161   0.634   4.252   8.957  0.1675  0.1419 -0.1067
 7843SOL    HW135162   0.659   4.322   9.016  0.2068 -0.1715  0.2478
 7843SOL    HW235163   0.643   4.304   8.877  0.4341 -2.1534 -1.6049
 7844SOL     OW35164   0.771   3.705   9.991 -0.1298 -0.1723  0.4126
 7844SOL    HW135165   0.860   3.726  10.018 -0.0800 -1.2531  1.0612
 7844SOL    HW235166   0.716   3.770  10.035  0.9675  1.8043 -1.0889
 7845SOL     OW35167   0.547   0.360   4.199 -0.1134 -0.3212  0.4293
 7845SOL    HW135168   0.639   0.334   4.193 -0.3741 -0.6536 -1.7975
 7845SOL    HW235169   0.532   0.403   4.115 -0.0108 -2.2246 -0.5608
 7846SOL     OW35170   2.891   2.568   4.436  0.1076 -0.6166 -0.2501
 7846SOL    HW135171   2.859   2.478   4.430 -0.7808 -0.2741 -0.6997
 7846SOL    HW235172   2.812   2.622   4.430  0.4031 -0.1481  0.0099
 7847SOL     OW35173   2.291   2.987   8.067  0.1411  0.5155 -0.5106
 7847SOL    HW135174   2.283   2.964   7.975  1.0866 -0.7877 -0.2670
 7847SOL    HW235175   2.325   3.074   8.048  1.8081  0.0140  0.1485
 7848SOL     OW35176   1.551   4.632   5.637  0.3184  0.0820 -0.4481
 7848SOL    HW135177   1.570   4.697   5.705  0.1822  0.5799 -0.8903
 7848SOL    HW235178   1.459   4.641   5.614  0.4944  0.1408 -1.1250
 7849SOL     OW35179   1.323   0.570   9.266  0.1018  0.3758  0.2351
 7849SOL    HW135180   1.317   0.475   9.275  2.5157 -0.1254 -3.2797
 7849SOL    HW235181   1.332   0.582   9.171  1.7480 -1.2269  0.1938
 7850SOL     OW35182   1.171   3.156   4.604 -0.0362 -1.0208 -0.4427
 7850SOL    HW135183   1.201   3.237   4.645 -0.2486 -1.3543  0.3818
 7850SOL    HW235184   1.218   3.091   4.656  1.5212 -1.3519 -2.2567
 7851SOL     OW35185   0.676   2.779   3.034  0.4296 -0.1682 -0.0538
 7851SOL    HW135186   0.707   2.695   3.000 -0.0561 -0.6205  0.6164
 7851SOL    HW235187   0.589   2.754   3.067  1.4607  0.7578  3.3869
 7852SOL     OW35188   1.885   0.278   5.986 -0.1965 -0.3075 -0.3674
 7852SOL    HW135189   1.849   0.221   6.054 -0.4209  1.1218  0.7067
 7852SOL    HW235190   1.839   0.240   5.911 -0.6656 -0.7239  0.1249
 7853SOL     OW35191   4.699   3.805  17.460 -0.2962 -0.0862 -0.1582
 7853SOL    HW135192   4.605   3.821  17.463 -0.1274  0.8523  0.1271
 7853SOL    HW235193   4.703   3.710  17.471 -1.4962 -0.1919 -0.6773
 7854SOL     OW35194   1.478   1.788  12.473 -0.1168 -0.4424  0.7146
 7854SOL    HW135195   1.559   1.840  12.476  0.3125 -1.0109 -1.1744
 7854SOL    HW235196   1.468   1.759  12.564 -0.0646 -0.2972  0.7677
 7855SOL     OW35197   2.131   1.161   3.016 -0.2359 -0.3613 -0.3713
 7855SOL    HW135198   2.084   1.209   3.085 -1.0315  0.2026 -1.3012
 7855SOL    HW235199   2.206   1.217   2.994 -0.1131 -0.9764 -1.5170
 7856SOL     OW35200   2.262   2.414  15.397 -0.0449  0.1739  0.3079
 7856SOL    HW135201   2.173   2.445  15.410 -0.5564 -1.0386 -0.2427
 7856SOL    HW235202   2.280   2.378  15.484 -0.0256  0.1116  0.2782
 7857SOL     OW35203   2.863   4.120   4.728 -0.5006 -0.1156  0.3620
 7857SOL    HW135204   2.922   4.072   4.786  0.3003  1.1435  0.5863
 7857SOL    HW235205   2.789   4.060   4.717 -0.4371  0.1772 -1.6135
 7858SOL     OW35206   4.067   4.017   6.104 -0.1638  0.4511 -0.1071
 7858SOL    HW135207   4.021   3.936   6.129 -1.0568  1.0173  0.0736
 7858SOL    HW235208   4.110   4.039   6.186 -2.0233 -3.6254  1.9610
 7859SOL     OW35209   0.033   0.454   2.889  0.3183 -0.5081 -0.2362
 7859SOL    HW135210   4.730   0.431   2.806  1.8740 -2.5977 -0.4538
 7859SOL    HW235211   4.719   0.411   2.956  0.0359 -1.0179 -0.7903
 7860SOL     OW35212   0.274   0.232   4.897 -0.2049 -0.0665 -0.7949
 7860SOL    HW135213   0.232   0.292   4.836 -0.2970  0.8378  0.1603
 7860SOL    HW235214   0.205   0.172   4.925 -0.9050  1.4626  0.7471
 7861SOL     OW35215   0.689   2.458   9.974  0.4980  0.2731 -0.3394
 7861SOL    HW135216   0.785   2.456   9.977  0.4459 -0.1429  1.0173
 7861SOL    HW235217   0.670   2.411  10.055 -0.7960  3.0406  0.9334
 7862SOL     OW35218   4.436   0.664  17.687  0.5107 -0.1016  0.3358
 7862SOL    HW135219   4.352   0.701  17.661 -0.2866  0.8204  4.1937
 7862SOL    HW235220   4.412   0.615   0.012  0.9284 -0.0538  0.4917
 7863SOL     OW35221   2.029   3.450   4.900  0.5592 -0.3912 -0.1007
 7863SOL    HW135222   2.023   3.355   4.907 -1.4578 -0.3834 -1.5894
 7863SOL    HW235223   1.985   3.479   4.980 -0.9228 -0.5646 -0.8435
 7864SOL     OW35224   3.479   4.504   8.138  0.7636  0.0329 -0.2907
 7864SOL    HW135225   3.548   4.442   8.159 -0.0510 -1.1055 -0.9927
 7864SOL    HW235226   3.402   4.492   8.194  1.9446 -2.1814  0.8577
 7865SOL     OW35227   1.522   1.301   6.103  0.2366  0.0109 -0.0491
 7865SOL    HW135228   1.494   1.380   6.148 -0.2728  0.1538 -0.6249
 7865SOL    HW235229   1.521   1.242   6.178 -2.1355 -0.7623 -0.6879
 7866SOL     OW35230   1.429   0.790   6.341 -0.5557 -0.5173  0.0999
 7866SOL    HW135231   1.501   0.837   6.298  0.0048 -0.0473  1.5346
 7866SOL    HW235232   1.353   0.816   6.289 -0.5116 -1.5891 -0.4948
 7867SOL     OW35233   2.667   3.757   5.673  0.3759 -0.1312 -1.0307
 7867SOL    HW135234   2.666   3.845   5.710  0.1324 -0.8752  0.7417
 7867SOL    HW235235   2.647   3.708   5.753  0.4598  1.2247 -0.1737
 7868SOL     OW35236   3.391   2.848   9.709 -0.3030  0.0461 -0.1664
 7868SOL    HW135237   3.442   2.928   9.724 -0.1633  0.4023 -2.5109
 7868SOL    HW235238   3.307   2.876   9.673 -1.0136  0.5439  1.8624
 7869SOL     OW35239   1.586   1.904   6.518  0.1849 -0.5166  0.2900
 7869SOL    HW135240   1.586   1.828   6.576  0.7599  0.8018  2.0104
 7869SOL    HW235241   1.504   1.950   6.535  0.0131 -0.3760 -0.8963
 7870SOL     OW35242   1.687   2.574  16.411  0.1722 -0.2328 -0.2581
 7870SOL    HW135243   1.737   2.604  16.335  0.2217 -0.9700 -0.5207
 7870SOL    HW235244   1.597   2.598  16.390  0.2689  2.0821  1.9443
 7871SOL     OW35245   1.353   3.083   0.981  0.4451  0.1672  0.0095
 7871SOL    HW135246   1.342   3.135   1.060 -2.7807 -0.1743 -0.2123
 7871SOL    HW235247   1.437   3.043   1.004 -0.8743 -1.3858  2.0566
 7872SOL     OW35248   0.667   2.983   8.023 -0.0570  0.4549  0.1358
 7872SOL    HW135249   0.687   3.014   7.935 -0.3463 -1.2119 -0.5243
 7872SOL    HW235250   0.739   3.021   8.073 -0.2104  0.5778  0.2633
 7873SOL     OW35251   4.162   3.861   7.170  0.1639 -0.3495  0.2713
 7873SOL    HW135252   4.211   3.935   7.206 -0.8080  0.9071 -0.9649
 7873SOL    HW235253   4.209   3.800   7.225 -0.0282  0.4478  1.3176
 7874SOL     OW35254   0.467   2.375   3.930  0.3230 -0.5875  1.0458
 7874SOL    HW135255   0.541   2.359   3.872 -0.1255  0.4747  0.1979
 7874SOL    HW235256   0.512   2.367   4.014  1.4312  1.0442  0.5986
 7875SOL     OW35257   3.463   1.366   2.828  0.5651 -0.5637 -0.2807
 7875SOL    HW135258   3.372   1.339   2.836  0.8958 -1.5362  0.1351
 7875SOL    HW235259   3.452   1.456   2.861  1.1706 -0.5173 -0.2141
 7876SOL     OW35260   2.640   0.305   2.374  0.0651 -0.2158 -0.0266
 7876SOL    HW135261   2.726   0.288   2.336  0.2277  1.2128 -0.2905
 7876SOL    HW235262   2.592   0.319   2.292  0.8255  0.6806 -0.3143
 7877SOL     OW35263   4.053   4.222   0.242 -0.2591 -0.2081 -0.1547
 7877SOL    HW135264   4.032   4.309   0.275 -0.6661 -1.7042  3.5502
 7877SOL    HW235265   3.973   4.177   0.272 -0.8437 -1.5173 -3.7061
 7878SOL     OW35266   3.907   0.128   8.163  0.4804 -0.0485  0.1331
 7878SOL    HW135267   3.918   0.223   8.165 -0.5546  0.0848 -0.5284
 7878SOL    HW235268   3.814   0.123   8.184 -0.3639  0.9606 -3.2432
 7879SOL     OW35269   0.099   3.111   2.128 -0.6876 -0.6762  0.7005
 7879SOL    HW135270   0.150   3.191   2.115 -1.8271 -0.0877 -0.1060
 7879SOL    HW235271   0.022   3.138   2.079  0.8039 -0.9094 -1.7804
 7880SOL     OW35272   1.130   3.921   2.769  0.5268 -0.5143 -0.4481
 7880SOL    HW135273   1.182   3.842   2.783  1.1735 -0.3993 -2.1925
 7880SOL    HW235274   1.113   3.924   2.675 -0.4008  0.4328 -0.2456
 7881SOL     OW35275   3.492   4.724  16.145 -0.3051  0.2383  0.1848
 7881SOL    HW135276   3.554   0.047  16.107  1.2124 -2.2186 -1.3745
 7881SOL    HW235277   3.514   4.659  16.078 -1.6628 -0.0070 -0.0150
 7882SOL     OW35278   4.018   1.451   5.785 -0.2072 -0.0714  0.2020
 7882SOL    HW135279   3.959   1.474   5.857  1.0067  0.8770  0.8798
 7882SOL    HW235280   3.959   1.451   5.710 -0.4722 -0.6075  0.4060
 7883SOL     OW35281   2.602   4.388   5.102 -0.6705  0.4537  0.0319
 7883SOL    HW135282   2.603   4.432   5.017 -1.4493 -0.9542 -0.7032
 7883SOL    HW235283   2.683   4.427   5.135  0.2299 -1.3330 -0.0679
 7884SOL     OW35284   3.315   1.862   2.690 -0.0701  0.2864 -0.1989
 7884SOL    HW135285   3.264   1.836   2.613  0.8085  3.0270 -1.6826
 7884SOL    HW235286   3.392   1.905   2.652 -1.1276 -0.0944 -2.8219
 7885SOL     OW35287   0.116   3.499   5.295  0.1602  0.1662  0.0346
 7885SOL    HW135288   0.204   3.504   5.257  0.1393  1.4107  0.1291
 7885SOL    HW235289   0.112   3.579   5.348 -2.0516 -0.4055  0.6957
 7886SOL     OW35290   1.632   1.288   7.172 -0.2420  0.2080 -0.0388
 7886SOL    HW135291   1.595   1.366   7.130  0.6381 -0.5350 -2.1522
 7886SOL    HW235292   1.553   1.234   7.174 -1.0718  1.4249  0.2331
 7887SOL     OW35293   4.127   3.759   3.178  0.1353  0.1263  0.5698
 7887SOL    HW135294   4.034   3.758   3.154  0.3183  1.0557 -0.1731
 7887SOL    HW235295   4.160   3.735   3.092  0.8898  0.3749  0.7915
 7888SOL     OW35296   0.958   1.748   2.729  0.2524 -0.3546 -0.8220
 7888SOL    HW135297   0.887   1.808   2.711 -0.9135 -0.3956  3.6383
 7888SOL    HW235298   0.923   1.673   2.681 -1.4712  1.1653 -1.8890
 7889SOL     OW35299   1.764   3.161   3.969 -0.2862  0.0693  0.7134
 7889SOL    HW135300   1.723   3.247   3.976  0.5213  0.2675  3.1524
 7889SOL    HW235301   1.854   3.190   3.954  0.9025 -3.8531  0.1441
 7890SOL     OW35302   2.794   2.071   4.215 -0.5787  0.1191  0.0342
 7890SOL    HW135303   2.890   2.071   4.218 -0.6300  1.3635  1.8732
 7890SOL    HW235304   2.780   2.161   4.185 -0.6636 -0.2807 -1.1187
 7891SOL     OW35305   3.857   4.391  15.229 -0.1033 -0.0792 -0.7198
 7891SOL    HW135306   3.855   4.409  15.136 -0.4765 -0.3426 -0.7618
 7891SOL    HW235307   3.814   4.306  15.240  0.3038 -0.4533 -2.0441
 7892SOL     OW35308   1.348   2.696   4.599  0.6226  0.5997  0.5151
 7892SOL    HW135309   1.366   2.608   4.633 -1.6712  0.6375  1.8451
 7892SOL    HW235310   1.301   2.738   4.671  0.5537  0.1599  0.7280
 7893SOL     OW35311   3.458   0.048  14.685  0.3728  0.2493 -0.2648
 7893SOL    HW135312   3.383   0.048  14.625  0.9060 -2.1621 -0.9495
 7893SOL    HW235313   3.425   0.037  14.774  0.7283 -2.2235 -0.4454
 7894SOL     OW35314   0.191   3.195   8.571  0.2446  0.2119  0.1567
 7894SOL    HW135315   0.121   3.237   8.521 -0.9704 -3.0104 -0.8480
 7894SOL    HW235316   0.200   3.112   8.524 -1.2490 -0.8834  1.7453
 7895SOL     OW35317   3.455   0.841   2.951  0.6465 -0.5769  0.6325
 7895SOL    HW135318   3.535   0.861   2.902 -1.1377 -0.2931 -2.1763
 7895SOL    HW235319   3.399   0.906   2.910  0.4393 -1.4967 -0.5592
 7896SOL     OW35320   3.454   2.669   3.112 -0.0565  0.4781 -0.0194
 7896SOL    HW135321   3.387   2.737   3.109 -0.4590  0.1166  0.7321
 7896SOL    HW235322   3.518   2.699   3.047  0.3531  0.2657  0.2834
 7897SOL     OW35323   4.620   0.811   5.488 -0.0126 -0.0825  0.1314
 7897SOL    HW135324   4.577   0.864   5.421  2.8389  0.1929 -1.4891
 7897SOL    HW235325   4.654   0.885   5.538 -1.2597 -0.0551  0.9300
 7898SOL     OW35326   3.243   4.582   2.000 -0.2797  0.0353 -0.0084
 7898SOL    HW135327   3.334   4.611   1.998  0.1391 -1.1324  1.9923
 7898SOL    HW235328   3.194   4.659   1.969 -1.1048  0.2941  1.9216
 7899SOL     OW35329   3.678   0.451   2.131 -0.8448  0.2230  0.0883
 7899SOL    HW135330   3.660   0.517   2.197  0.8037  0.3677  0.3986
 7899SOL    HW235331   3.594   0.438   2.088  0.3253  2.5728 -2.9072
 7900SOL     OW35332   2.158   0.332   0.080  0.1859 -0.3907  0.8625
 7900SOL    HW135333   2.182   0.276   0.006 -0.5441  1.9143 -1.1143
 7900SOL    HW235334   2.085   0.275   0.104 -0.5952  0.2855  0.1102
 7901SOL     OW35335   1.163   0.131   9.371 -0.3040  0.9385 -0.4889
 7901SOL    HW135336   1.219   0.138   9.449 -1.2543 -2.7965  0.5388
 7901SOL    HW235337   1.074   0.139   9.406 -0.4180  2.2518 -1.0716
 7902SOL     OW35338   1.086   2.557   6.918 -0.5697 -0.0669  0.4078
 7902SOL    HW135339   1.179   2.564   6.899 -0.6635 -0.3305 -0.1330
 7902SOL    HW235340   1.089   2.549   7.014 -1.2152 -1.3392  0.3290
 7903SOL     OW35341   1.502   3.660   9.013 -0.1483 -0.1531  0.0688
 7903SOL    HW135342   1.541   3.731   8.963 -0.0175 -0.7329 -0.6553
 7903SOL    HW235343   1.566   3.589   9.008 -2.3654 -1.9606 -2.6369
 7904SOL     OW35344   3.368   0.194   1.836  0.4145 -0.4613 -0.0411
 7904SOL    HW135345   3.422   0.250   1.779 -1.1373  0.2657 -0.8124
 7904SOL    HW235346   3.431   0.167   1.902  1.3102 -0.1736 -0.7863
 7905SOL     OW35347   1.223   3.810   2.129 -0.1040 -0.1911  0.1572
 7905SOL    HW135348   1.258   3.888   2.086  1.2236 -2.7291 -3.2427
 7905SOL    HW235349   1.128   3.823   2.131  0.1734  2.1524 -2.2724
 7906SOL     OW35350   1.384   4.215   9.783  0.5606 -0.1442  0.0878
 7906SOL    HW135351   1.415   4.126   9.799  2.5251  0.8897  1.9493
 7906SOL    HW235352   1.298   4.198   9.821  0.2273  2.0193  0.3008
 7907SOL     OW35353   3.340   3.089   5.975 -0.6532  0.1061  0.2081
 7907SOL    HW135354   3.391   3.122   5.901 -0.6153  1.3240  0.7835
 7907SOL    HW235355   3.356   3.150   6.047  1.0982  0.6117 -0.6162
 7908SOL     OW35356   2.473   4.233   8.686 -0.1717 -0.4927  0.2792
 7908SOL    HW135357   2.397   4.184   8.716  2.9288 -4.9720  0.7703
 7908SOL    HW235358   2.435   4.306   8.637 -0.1548  0.4376  1.6472
 7909SOL     OW35359   2.336   0.477   7.893 -0.3470  0.1604 -0.6536
 7909SOL    HW135360   2.253   0.434   7.870  1.5940 -2.3846 -2.7885
 7909SOL    HW235361   2.340   0.552   7.834 -1.3703 -0.9260 -2.1200
 7910SOL     OW35362   2.025   3.853   7.357 -0.4224 -0.4380  0.4899
 7910SOL    HW135363   1.999   3.938   7.321 -0.1950 -0.4035  0.4106
 7910SOL    HW235364   2.042   3.799   7.279 -1.6165  0.6979 -0.5707
 7911SOL     OW35365   3.932   1.564   6.236 -0.4637  0.0360 -0.4840
 7911SOL    HW135366   3.913   1.572   6.330 -0.8451 -0.3065 -0.5317
 7911SOL    HW235367   3.844   1.562   6.198 -0.2477  0.0752 -0.9808
 7912SOL     OW35368   0.051   3.908   4.511  0.9470  0.0931  0.3418
 7912SOL    HW135369   0.006   3.941   4.433  1.9485 -0.7332 -0.5657
 7912SOL    HW235370   0.130   3.871   4.473 -0.3399 -0.9991 -1.2652
 7913SOL     OW35371   3.034   0.469   1.043  0.4446 -0.4944  0.3812
 7913SOL    HW135372   3.019   0.513   0.960 -0.1972  0.8770  1.2301
 7913SOL    HW235373   3.000   0.379   1.037  1.4345 -0.7347 -1.5234
 7914SOL     OW35374   1.109   1.694   9.248  0.6933  0.8875  0.5324
 7914SOL    HW135375   1.185   1.734   9.291 -0.3112  0.4019  2.7805
 7914SOL    HW235376   1.148   1.611   9.221  0.0837  0.7427  0.1172
 7915SOL     OW35377   0.697   3.531   5.590  0.4071 -0.2079 -0.5816
 7915SOL    HW135378   0.766   3.526   5.656 -0.2951  1.9507  0.3072
 7915SOL    HW235379   0.723   3.464   5.527 -0.3612 -0.4556 -0.6334
 7916SOL     OW35380   1.967   1.296   0.967 -0.2241  0.5724 -0.0153
 7916SOL    HW135381   1.890   1.269   1.017  0.7468 -2.9404 -0.4221
 7916SOL    HW235382   1.954   1.390   0.971  0.4555  0.7997 -2.6237
 7917SOL     OW35383   2.293   4.617   4.211 -0.6804  0.1561 -0.3403
 7917SOL    HW135384   2.333   4.682   4.153 -1.1866 -0.4104 -1.3326
 7917SOL    HW235385   2.219   4.669   4.241 -0.1866 -0.1319  1.3666
 7918SOL     OW35386   1.492   0.822   4.699  0.1396  0.3062 -0.2080
 7918SOL    HW135387   1.504   0.728   4.706  0.3983  0.4284  0.9253
 7918SOL    HW235388   1.492   0.848   4.791 -1.3087 -0.8624  0.1299
 7919SOL     OW35389   0.589   2.428   7.819 -0.1698 -0.1928  0.4810
 7919SOL    HW135390   0.562   2.409   7.729  2.6464 -1.4762 -0.0951
 7919SOL    HW235391   0.609   2.521   7.808  2.3574 -0.9647 -1.3769
 7920SOL     OW35392   3.035   3.481  17.230 -0.3743  0.2462  0.0532
 7920SOL    HW135393   3.024   3.401  17.281 -1.7159 -0.6684 -1.6830
 7920SOL    HW235394   3.067   3.439  17.150  1.1035  2.1727 -0.3821
 7921SOL     OW35395   0.588   0.352   3.534 -0.2490 -0.1741 -0.3913
 7921SOL    HW135396   0.677   0.323   3.553  0.0493 -0.3871 -2.1321
 7921SOL    HW235397   0.591   0.446   3.551 -1.9458 -0.2204  0.1302
 7922SOL     OW35398   0.587   3.408  13.876 -0.2560 -0.0758  0.2696
 7922SOL    HW135399   0.657   3.396  13.812 -0.3308  3.5247 -0.4841
 7922SOL    HW235400   0.613   3.491  13.914 -1.0714 -0.1543  0.9884
 7923SOL     OW35401   3.375   2.481   8.336 -0.1239  0.8104  0.1349
 7923SOL    HW135402   3.449   2.478   8.275 -1.2351 -2.9979 -1.0693
 7923SOL    HW235403   3.412   2.417   8.396  0.3330  1.0834  0.1383
 7924SOL     OW35404   4.015   3.210   6.001  0.1711 -0.7488  0.3241
 7924SOL    HW135405   4.103   3.233   6.030 -0.1260 -0.2373  0.8361
 7924SOL    HW235406   3.968   3.245   6.077 -1.2719  1.1262 -1.4249
 7925SOL     OW35407   1.931   1.373   6.374  0.3732 -0.0521 -0.0884
 7925SOL    HW135408   1.942   1.370   6.469 -2.2070  2.0797  0.2869
 7925SOL    HW235409   2.006   1.317   6.352 -1.1820 -2.0243 -0.3726
 7926SOL     OW35410   1.530   1.065   3.040 -0.3354 -0.0946  0.0267
 7926SOL    HW135411   1.624   1.069   3.023  0.1614  1.2356  3.0602
 7926SOL    HW235412   1.527   0.982   3.087  0.3277 -0.2306 -0.1748
 7927SOL     OW35413   3.363   1.639   7.318 -0.1612  0.3240  0.0478
 7927SOL    HW135414   3.281   1.661   7.362 -1.2329 -0.0772 -1.7775
 7927SOL    HW235415   3.398   1.584   7.388  0.9390 -1.3782 -1.8339
 7928SOL     OW35416   0.771   1.607   9.055 -0.2410  0.4730  0.5434
 7928SOL    HW135417   0.799   1.676   9.115  1.7069 -0.2407  0.4858
 7928SOL    HW235418   0.750   1.539   9.120 -0.9663  0.2403  0.0618
 7929SOL     OW35419   2.545   0.844   1.906 -0.0941  0.8329 -0.1729
 7929SOL    HW135420   2.607   0.909   1.873  0.0612 -0.5616 -2.6131
 7929SOL    HW235421   2.483   0.900   1.952  1.3173  0.0998  2.6412
 7930SOL     OW35422   4.082   3.146   8.785  0.7768  0.0224  0.4318
 7930SOL    HW135423   4.159   3.134   8.841  0.3223  0.2419  1.1069
 7930SOL    HW235424   4.044   3.222   8.830  0.2916 -0.2169  0.4298
 7931SOL     OW35425   1.166   3.462   7.075  0.2361 -0.1568  0.2484
 7931SOL    HW135426   1.081   3.444   7.036  0.7532  0.6071 -1.2255
 7931SOL    HW235427   1.153   3.555   7.089  0.5634  0.1363 -1.3768
 7932SOL     OW35428   0.315   2.730  10.198 -0.7390 -0.2492  0.4360
 7932SOL    HW135429   0.276   2.643  10.192 -0.4970 -0.2409 -1.1938
 7932SOL    HW235430   0.381   2.706  10.133  0.1323 -1.5176  1.7774
 7933SOL     OW35431   1.354   0.165   2.892  0.3466  0.2736 -0.0531
 7933SOL    HW135432   1.313   0.078   2.887 -1.0222  0.7787  2.0698
 7933SOL    HW235433   1.330   0.205   2.809 -0.6569 -0.1764  0.0162
 7934SOL     OW35434   0.825   4.693  14.246  0.0013 -0.2252 -0.0292
 7934SOL    HW135435   0.755   4.684  14.311 -0.2196 -1.6144 -0.4769
 7934SOL    HW235436   0.873   4.614  14.267 -1.2866 -0.8934  0.3847
 7935SOL     OW35437   1.969   3.965   9.525  0.1676 -0.6189 -0.0967
 7935SOL    HW135438   1.887   3.960   9.574  0.2561 -2.6997 -0.1318
 7935SOL    HW235439   2.031   3.944   9.595 -0.4140 -0.7258  0.3876
 7936SOL     OW35440   1.799   4.403   5.156 -0.4144 -0.1602  0.3972
 7936SOL    HW135441   1.851   4.452   5.092  0.6553 -0.6662  0.8814
 7936SOL    HW235442   1.735   4.468   5.184 -3.0965 -3.0633  0.8967
 7937SOL     OW35443   3.259   4.451   0.147  0.1631 -0.3692  0.5547
 7937SOL    HW135444   3.353   4.467   0.137  0.3545 -0.6009  1.8584
 7937SOL    HW235445   3.247   4.477   0.238 -2.1782  2.9270 -0.7410
 7938SOL     OW35446   3.257   4.486   8.308 -0.0621 -0.1054 -0.2914
 7938SOL    HW135447   3.249   4.485   8.403 -0.6600  3.5623 -0.2777
 7938SOL    HW235448   3.169   4.454   8.290  0.7157 -3.2075  1.6042
 7939SOL     OW35449   3.922   1.279   7.590  0.2546  0.1245 -0.4452
 7939SOL    HW135450   3.929   1.280   7.685  2.8564  0.5813 -0.6504
 7939SOL    HW235451   3.857   1.210   7.584  0.3929  0.0603 -1.2241
 7940SOL     OW35452   1.158   3.416  15.001  0.2732 -0.2619 -0.3029
 7940SOL    HW135453   1.156   3.509  15.024 -1.9840 -0.0605 -1.2339
 7940SOL    HW235454   1.248   3.387  14.988  0.7409  1.2905 -0.6157
 7941SOL     OW35455   1.527   1.905  10.680  0.4395  0.0329  0.5447
 7941SOL    HW135456   1.450   1.891  10.734  0.2153 -1.2688 -0.1221
 7941SOL    HW235457   1.506   1.995  10.655  0.1990 -0.5855 -1.4927
 7942SOL     OW35458   4.520   1.870   0.498 -0.2934  0.6671  0.1068
 7942SOL    HW135459   4.481   1.929   0.434 -3.0252 -0.8605  0.3373
 7942SOL    HW235460   4.468   1.886   0.577 -0.1017  1.1284  0.1382
 7943SOL     OW35461   2.622   1.624  16.102 -0.1427 -0.1038  0.2352
 7943SOL    HW135462   2.654   1.700  16.054  1.7061 -1.8492 -1.3451
 7943SOL    HW235463   2.567   1.664  16.169  0.6002 -0.3797  1.0042
 7944SOL     OW35464   3.868   0.587  14.145 -0.0041  0.3330 -0.1981
 7944SOL    HW135465   3.773   0.590  14.149  0.0328  2.7483 -0.8947
 7944SOL    HW235466   3.902   0.600  14.234  0.5745 -4.6844  0.2974
 7945SOL     OW35467   2.709   2.287   8.988 -0.2981  1.1814  0.0651
 7945SOL    HW135468   2.709   2.207   9.040  0.5574  1.8370  1.0787
 7945SOL    HW235469   2.793   2.288   8.943  1.1540 -2.5591  2.7246
 7946SOL     OW35470   1.849   1.215  16.034 -0.0949 -0.3378 -0.2181
 7946SOL    HW135471   1.784   1.270  15.991  0.5020  1.9001  1.7531
 7946SOL    HW235472   1.927   1.219  15.979  0.3912 -1.8793  0.3457
 7947SOL     OW35473   4.437   1.387   8.839  0.0646  0.2388  0.5435
 7947SOL    HW135474   4.386   1.353   8.765  1.2902 -1.2706  0.4069
 7947SOL    HW235475   4.500   1.323   8.869  0.8620  1.8529  2.3067
 7948SOL     OW35476   4.224   1.279   5.420  0.1395 -0.3505  0.0582
 7948SOL    HW135477   4.232   1.220   5.495 -1.2203  1.9391  2.0031
 7948SOL    HW235478   4.129   1.283   5.433 -0.1393 -2.7106 -1.2863
 7949SOL     OW35479   3.491   1.682  13.210  0.3514  0.3879 -0.4542
 7949SOL    HW135480   3.585   1.668  13.199  0.4612 -0.1060  1.2051
 7949SOL    HW235481   3.495   1.777  13.220  0.8926  0.3989 -0.7830
 7950SOL     OW35482   3.092   2.047   4.264  0.9776  0.6313  0.0320
 7950SOL    HW135483   3.067   2.120   4.321 -0.9711  0.7565 -0.9985
 7950SOL    HW235484   3.168   2.009   4.309  0.4905  0.6690  0.9059
 7951SOL     OW35485   4.283   0.864   3.156 -0.3987 -0.6991 -0.0484
 7951SOL    HW135486   4.346   0.906   3.215 -0.1114  0.0646 -0.8981
 7951SOL    HW235487   4.289   0.769   3.169 -1.0192 -0.3353  2.8654
 7952SOL     OW35488   1.925   1.347  15.417  0.4918 -0.5158  0.1459
 7952SOL    HW135489   1.961   1.285  15.353  0.7693 -2.0011  1.7345
 7952SOL    HW235490   1.989   1.418  15.415  1.7253 -1.5388  2.1465
 7953SOL     OW35491   1.605   3.669   5.080 -0.4921  0.2386 -0.3721
 7953SOL    HW135492   1.511   3.689   5.087 -0.7168 -0.7330 -0.5223
 7953SOL    HW235493   1.651   3.752   5.083 -0.4071  0.1731  0.1625
 7954SOL     OW35494   1.348   0.516   7.673  0.7408 -0.2779  0.7727
 7954SOL    HW135495   1.393   0.464   7.607  2.4717  0.7987  1.0994
 7954SOL    HW235496   1.386   0.602   7.657  1.3793 -0.0277  3.7215
 7955SOL     OW35497   0.582   4.236  14.497 -0.4795 -0.4006 -0.0391
 7955SOL    HW135498   0.572   4.327  14.525 -0.3127 -0.7864  1.2695
 7955SOL    HW235499   0.503   4.226  14.443 -1.1378  2.2133  0.4606
 7956SOL     OW35500   1.780   3.711   7.100  0.1369 -0.5580 -0.2866
 7956SOL    HW135501   1.714   3.664   7.050 -0.2092  1.1126 -1.4159
 7956SOL    HW235502   1.783   3.670   7.186  1.7409  0.0506 -0.0477
 7957SOL     OW35503   3.429   2.783  15.112 -0.2633  0.1327  0.6336
 7957SOL    HW135504   3.412   2.867  15.155 -1.3993  0.7602 -1.0614
 7957SOL    HW235505   3.441   2.815  15.023 -1.5243  0.8058  0.7052
 7958SOL     OW35506   2.690   2.630   7.539  0.3217 -0.4151 -0.0212
 7958SOL    HW135507   2.686   2.646   7.445 -1.0489 -0.2882  0.0554
 7958SOL    HW235508   2.748   2.704   7.561  0.1289 -0.6592  1.3144
 7959SOL     OW35509   1.768   4.579  14.641  0.1689 -0.3603  0.0810
 7959SOL    HW135510   1.715   4.502  14.621 -0.3979  0.4428 -1.5248
 7959SOL    HW235511   1.738   4.606  14.728 -0.4983 -0.1912 -0.2026
 7960SOL     OW35512   4.585   1.023   6.385 -0.6723  0.2693  0.2231
 7960SOL    HW135513   4.574   0.998   6.477 -0.6080  0.4756  0.2860
 7960SOL    HW235514   4.607   1.115   6.399  0.0707  0.2825 -1.0842
 7961SOL     OW35515   1.973   3.862   5.238 -0.0344 -0.2523 -0.1673
 7961SOL    HW135516   2.043   3.797   5.237 -0.9438 -1.2461  1.7274
 7961SOL    HW235517   2.015   3.944   5.211 -2.1023  0.4726 -1.1889
 7962SOL     OW35518   4.392   1.693   8.068 -0.1262 -0.2776  0.0782
 7962SOL    HW135519   4.312   1.746   8.076 -0.0815 -0.3501  0.9946
 7962SOL    HW235520   4.430   1.716   8.153 -3.3524  1.0069  1.1895
 7963SOL     OW35521   4.203   0.378   5.535  0.1630  0.0385  0.4624
 7963SOL    HW135522   4.268   0.344   5.596 -0.3028 -1.1715  0.2855
 7963SOL    HW235523   4.254   0.446   5.491  1.1006 -1.6490 -1.0657
 7964SOL     OW35524   1.412   0.056   8.868  0.1045 -0.0659  0.5412
 7964SOL    HW135525   1.385   0.079   8.780  0.8418  0.6191  0.4900
 7964SOL    HW235526   1.430   4.703   8.849 -0.4079  0.3573 -1.9028
 7965SOL     OW35527   4.246   1.684  17.443  0.4537 -0.2788  0.1942
 7965SOL    HW135528   4.339   1.664  17.459  0.8881  0.9149 -0.8878
 7965SOL    HW235529   4.219   1.626  17.372 -0.5168 -0.9188  1.0871
 7966SOL     OW35530   1.609   1.914   7.878 -0.4829 -0.2120 -0.1602
 7966SOL    HW135531   1.644   1.958   7.801 -1.6882 -0.9598 -1.1419
 7966SOL    HW235532   1.517   1.909   7.852 -1.2220  0.5805  2.2814
 7967SOL     OW35533   1.223   2.600  14.948 -0.6020 -0.0128 -0.2192
 7967SOL    HW135534   1.241   2.510  14.923 -4.4721 -0.4437 -1.4857
 7967SOL    HW235535   1.281   2.642  14.885  1.6976  0.0054  1.9198
 7968SOL     OW35536   2.785   1.101   5.522  0.2441  0.2691 -0.2456
 7968SOL    HW135537   2.821   1.015   5.500  1.7861  0.8458  0.1009
 7968SOL    HW235538   2.708   1.105   5.464 -0.7269 -1.3237  0.9312
 7969SOL     OW35539   2.560   1.445  16.916 -0.0015  0.0749 -0.3853
 7969SOL    HW135540   2.547   1.373  16.854 -1.4768  0.4627 -0.5229
 7969SOL    HW235541   2.651   1.429  16.940  0.3181  0.8536 -1.0851
 7970SOL     OW35542   0.161   1.225   7.361 -0.5594 -0.3427 -0.3087
 7970SOL    HW135543   0.081   1.241   7.411  0.0883  3.5577 -0.5571
 7970SOL    HW235544   0.165   1.314   7.326  1.3397 -0.8454 -1.3874
 7971SOL     OW35545   0.111   0.671  12.317 -0.2019  0.5118  0.5478
 7971SOL    HW135546   0.203   0.692  12.331 -0.3324  0.2001  1.9173
 7971SOL    HW235547   0.108   0.581  12.286  0.6696  0.0582  1.7787
 7972SOL     OW35548   1.437   0.311   7.477 -0.4706  0.0564 -0.6684
 7972SOL    HW135549   1.508   0.287   7.417 -2.1925  0.1592 -2.7739
 7972SOL    HW235550   1.394   0.374   7.419  3.2706  1.3497 -2.0421
 7973SOL     OW35551   3.586   0.852   9.182 -0.2919 -0.0996 -0.1589
 7973SOL    HW135552   3.498   0.830   9.212  0.1769 -1.7114  0.0268
 7973SOL    HW235553   3.570   0.880   9.091  0.3537  0.5069 -0.0842
 7974SOL     OW35554   0.703   2.484   5.585  0.4808 -0.0100 -0.3135
 7974SOL    HW135555   0.610   2.508   5.591  0.6253  0.2123  0.9952
 7974SOL    HW235556   0.702   2.404   5.637 -2.5491  0.3409  0.2042
 7975SOL     OW35557   4.596   0.433  15.782 -0.0691  0.4788 -0.7019
 7975SOL    HW135558   4.574   0.365  15.718 -1.1403  0.3983 -0.2588
 7975SOL    HW235559   4.526   0.495  15.761  0.5360  1.6576  0.7846
 7976SOL     OW35560   3.658   3.965  15.057  0.4075  0.0427  0.3219
 7976SOL    HW135561   3.695   3.933  14.975 -1.3040 -0.1338 -0.3687
 7976SOL    HW235562   3.568   3.933  15.050  1.3268 -2.7319  1.2007
 7977SOL     OW35563   3.276   0.043   3.478 -0.8209 -0.1680 -0.1001
 7977SOL    HW135564   3.288   4.698   3.433  1.3512  0.5153 -0.7751
 7977SOL    HW235565   3.306   0.105   3.412  2.2493 -0.3300  1.1818
 7978SOL     OW35566   4.458   2.813   3.652 -0.2551  0.2110 -0.1660
 7978SOL    HW135567   4.494   2.873   3.587 -0.3179 -0.8235 -1.1667
 7978SOL    HW235568   4.521   2.840   3.718 -2.0476  0.3835  1.4490
 7979SOL     OW35569   3.420   0.353  15.994 -0.1295  0.2539 -0.1252
 7979SOL    HW135570   3.402   0.403  15.915 -1.4066  0.0618  0.0569
 7979SOL    HW235571   3.515   0.364  16.007 -0.5024  1.5037  1.4801
 7980SOL     OW35572   1.582   3.994  11.229 -0.4971  0.0773 -0.6019
 7980SOL    HW135573   1.662   3.970  11.182 -0.5648 -1.6978  0.1994
 7980SOL    HW235574   1.615   4.041  11.305 -2.0449 -0.2447  0.2775
 7981SOL     OW35575   0.603   1.515   4.166 -0.5472 -0.1546  0.2315
 7981SOL    HW135576   0.639   1.583   4.223 -0.1603 -1.7815  1.9207
 7981SOL    HW235577   0.630   1.434   4.210  1.1837  0.7001  0.7359
 7982SOL     OW35578   1.263   0.558  15.365  0.1872  0.2934  0.1452
 7982SOL    HW135579   1.281   0.468  15.392 -0.3340 -0.1641 -1.0400
 7982SOL    HW235580   1.168   0.557  15.358  0.0740 -0.8425  1.9289
 7983SOL     OW35581   0.055   4.165   3.328  0.2412 -0.1511  0.2966
 7983SOL    HW135582   0.086   4.214   3.252 -1.1555 -2.4359 -1.7503
 7983SOL    HW235583   0.142   4.150   3.366 -0.0104  0.2373  1.0354
 7984SOL     OW35584   3.705   2.939   8.320 -0.4817 -0.2982  0.0560
 7984SOL    HW135585   3.667   2.872   8.263  1.1637  0.2148 -1.6275
 7984SOL    HW235586   3.632   2.982   8.364 -0.9370  0.2034 -1.2086
 7985SOL     OW35587   4.278   0.295   2.792 -0.6237 -0.2869  0.2734
 7985SOL    HW135588   4.240   0.376   2.757  0.6774 -0.0788 -0.6390
 7985SOL    HW235589   4.203   0.238   2.776  0.0740 -0.9790 -0.4927
 7986SOL     OW35590   3.806   4.615   7.419 -0.5341  0.2662  0.1004
 7986SOL    HW135591   3.763   4.577   7.496 -0.4127  0.8512  0.4561
 7986SOL    HW235592   3.782   4.707   7.428  3.8689  1.5400 -1.3345
 7987SOL     OW35593   3.872   3.201  10.257  0.4298  0.5133  0.4122
 7987SOL    HW135594   3.794   3.242  10.295  0.3766  2.0401 -1.3993
 7987SOL    HW235595   3.931   3.244  10.318 -0.2379  3.2136 -0.8700
 7988SOL     OW35596   3.508   3.476  12.447 -0.1682 -0.3220  0.1294
 7988SOL    HW135597   3.589   3.448  12.405 -0.4922 -0.6984 -0.2540
 7988SOL    HW235598   3.451   3.488  12.371  1.4953  2.7195 -0.6213
 7989SOL     OW35599   1.548   4.635   4.705  0.2689 -0.2123  0.3952
 7989SOL    HW135600   1.591   4.596   4.781 -3.7504  2.3023  3.9646
 7989SOL    HW235601   1.520   4.721   4.738 -1.2023 -0.7022  0.4197
 7990SOL     OW35602   0.946   2.579   7.974 -0.2482  0.5867  0.5239
 7990SOL    HW135603   0.973   2.580   8.065 -1.0585  0.6469  0.7649
 7990SOL    HW235604   1.016   2.625   7.927  0.4004  0.2710  1.2035
 7991SOL     OW35605   1.695   3.247   4.514 -0.1392  0.8292 -0.4425
 7991SOL    HW135606   1.736   3.262   4.599 -0.9136  0.1571  0.0484
 7991SOL    HW235607   1.734   3.324   4.473 -2.0190  1.9043 -0.2206
 7992SOL     OW35608   1.567   0.293   6.230 -0.2044  0.1684 -0.0802
 7992SOL    HW135609   1.574   0.387   6.212 -1.1665  0.3768  0.6108
 7992SOL    HW235610   1.643   0.283   6.286 -0.9241 -0.9519  0.6757
 7993SOL     OW35611   2.233   2.572   3.531 -0.3308 -0.3502 -0.5552
 7993SOL    HW135612   2.322   2.588   3.499  0.1923 -1.2374  0.4508
 7993SOL    HW235613   2.223   2.663   3.559  0.2939 -0.1065 -1.1285
 7994SOL     OW35614   3.555   3.548   2.740  0.4464 -0.2428  0.5274
 7994SOL    HW135615   3.530   3.638   2.758  1.1934  0.1148 -0.2343
 7994SOL    HW235616   3.494   3.519   2.673 -1.0967  4.1372  0.0690
 7995SOL     OW35617   0.456   3.313   1.392  0.0509  0.2016 -0.2800
 7995SOL    HW135618   0.465   3.341   1.301 -1.9192  2.7857  0.3276
 7995SOL    HW235619   0.415   3.227   1.380 -1.2627  0.1868  4.1430
 7996SOL     OW35620   4.279   3.340  14.282  0.1138  0.3389 -0.3172
 7996SOL    HW135621   4.256   3.414  14.337 -0.1795 -0.6005  0.8272
 7996SOL    HW235622   4.367   3.355  14.249  0.1225 -2.4744 -1.6002
 7997SOL     OW35623   3.476   0.598  16.132  0.2473  0.1075  0.3279
 7997SOL    HW135624   3.471   0.502  16.130 -1.0930  0.1896 -0.2601
 7997SOL    HW235625   3.500   0.623  16.043  0.0312 -2.8419 -0.5686
 7998SOL     OW35626   0.630   4.642   6.381  0.3073  0.4768 -0.5141
 7998SOL    HW135627   0.667   4.565   6.338  0.3336  0.8019 -1.0777
 7998SOL    HW235628   0.667   4.721   6.340 -0.6853  0.3714 -1.6109
 7999SOL     OW35629   3.758   1.940  10.525  0.3424  0.6552 -0.3335
 7999SOL    HW135630   3.679   1.889  10.508 -0.4809  1.2814  1.6088
 7999SOL    HW235631   3.793   1.936  10.614  1.3252 -1.7027 -0.8255
 8000SOL     OW35632   3.713   0.223   7.815  0.3904  0.3855 -0.4309
 8000SOL    HW135633   3.664   0.256   7.739  0.5747  2.3174  0.2802
 8000SOL    HW235634   3.702   0.296   7.876  2.9771  0.0733  0.4002
 8001SOL     OW35635   0.647   1.701  14.301  0.1463  0.2051  0.6539
 8001SOL    HW135636   0.737   1.719  14.331  1.6413 -0.0091 -3.8043
 8001SOL    HW235637   0.589   1.757  14.354  2.2363  2.0117  1.0503
 8002SOL     OW35638   1.233   0.121   7.205  0.1500 -0.6668  0.5864
 8002SOL    HW135639   1.297   0.118   7.134 -0.1253  0.4053  0.2917
 8002SOL    HW235640   1.280   0.097   7.285  1.1355  0.8199  0.4492
 8003SOL     OW35641   1.364   3.065  10.207  0.3529  0.1477  0.6329
 8003SOL    HW135642   1.457   3.051  10.187  0.6663  0.2945  1.9602
 8003SOL    HW235643   1.325   3.080  10.121 -0.3696  2.2124  1.3235
 8004SOL     OW35644   4.691   2.961   6.236  0.2581 -0.1932 -0.3448
 8004SOL    HW135645   4.611   3.011   6.252  0.7122  0.5830 -0.4659
 8004SOL    HW235646   4.715   2.927   6.323 -1.3035 -0.4550 -0.0249
 8005SOL     OW35647   2.260   0.514   3.109  0.0343 -0.5372  0.0122
 8005SOL    HW135648   2.232   0.486   3.196  0.1529  0.3715  0.3434
 8005SOL    HW235649   2.242   0.433   3.062 -2.4429 -0.4679  0.8573
 8006SOL     OW35650   0.199   4.059   4.750  0.1534 -0.0844  0.7257
 8006SOL    HW135651   0.173   3.967   4.759 -4.7361  1.0109 -1.8207
 8006SOL    HW235652   0.243   4.050   4.665 -1.9850  2.6417 -0.6694
 8007SOL     OW35653   0.653   3.390   8.003 -0.0786  0.6877 -1.0162
 8007SOL    HW135654   0.726   3.411   8.060 -0.4499 -1.2252  0.1292
 8007SOL    HW235655   0.688   3.398   7.914 -0.9518  2.7468 -1.1864
 8008SOL     OW35656   0.590   1.379   5.965  0.0234 -0.3613 -0.5270
 8008SOL    HW135657   0.656   1.310   5.960  0.8216  0.3684  0.1838
 8008SOL    HW235658   0.553   1.359   6.051 -0.4836 -1.3010 -0.9669
 8009SOL     OW35659   2.004   1.447   4.529  0.3558 -0.0258  0.4521
 8009SOL    HW135660   1.934   1.495   4.485 -0.2691  1.3812  2.9280
 8009SOL    HW235661   2.038   1.510   4.593  1.5333  0.0393 -0.2449
 8010SOL     OW35662   1.567   1.140  13.443  0.5114  0.4359  0.7012
 8010SOL    HW135663   1.585   1.227  13.479 -1.0591  1.6101 -1.3452
 8010SOL    HW235664   1.640   1.091  13.480  0.6779 -1.3541 -1.9642
 8011SOL     OW35665   0.175   0.024   6.959  0.7467 -0.2654  0.3293
 8011SOL    HW135666   0.086   0.016   6.995  0.6125  0.3358  0.1277
 8011SOL    HW235667   0.230   0.060   7.028 -1.3416  1.2987  1.1757
 8012SOL     OW35668   2.994   0.326   8.327 -0.6123  0.4589 -0.8373
 8012SOL    HW135669   2.901   0.325   8.350 -0.3054 -3.3097  0.2047
 8012SOL    HW235670   3.024   0.383   8.398  0.1016 -0.2661 -0.5632
 8013SOL     OW35671   3.503   0.002  12.423 -0.0007 -0.0831 -0.7643
 8013SOL    HW135672   3.540   4.655  12.404 -2.3456 -0.7607 -2.2215
 8013SOL    HW235673   3.445   4.717  12.495 -0.1475  2.1273 -0.1264
 8014SOL     OW35674   2.783   0.477   1.949  0.6989  0.3700 -0.6239
 8014SOL    HW135675   2.720   0.486   2.021  1.4242 -1.1039  0.1885
 8014SOL    HW235676   2.835   0.403   1.980  1.5926  0.7115 -1.2983
 8015SOL     OW35677   0.403   2.543   5.240  0.2086 -0.0111 -0.2170
 8015SOL    HW135678   0.454   2.608   5.192 -0.1590 -0.7301 -1.5865
 8015SOL    HW235679   0.446   2.460   5.219  1.8847  0.9885 -0.6558
 8016SOL     OW35680   4.291   1.342   6.223  0.3275 -0.2367 -0.6422
 8016SOL    HW135681   4.333   1.427   6.239 -1.1148  0.4234 -0.4256
 8016SOL    HW235682   4.293   1.296   6.307  2.0476  1.1404  0.0809
 8017SOL     OW35683   1.477   4.117  10.760  0.3651 -0.0523 -0.0840
 8017SOL    HW135684   1.491   4.025  10.782  0.0522 -0.2167 -0.5586
 8017SOL    HW235685   1.565   4.126  10.723  0.4333  1.3724  0.4108
 8018SOL     OW35686   2.122   2.684   4.017 -0.3849 -0.7990  0.9780
 8018SOL    HW135687   2.052   2.748   4.019  1.3493  1.1411 -0.8279
 8018SOL    HW235688   2.183   2.722   3.954 -0.3325 -0.9443  0.9403
 8019SOL     OW35689   0.740   1.850   7.127  0.2413 -0.4711  0.3727
 8019SOL    HW135690   0.823   1.873   7.085  0.5923 -0.3148  1.1486
 8019SOL    HW235691   0.771   1.864   7.216 -0.2042 -0.4317  0.5201
 8020SOL     OW35692   3.306   0.747   9.196  0.0487 -0.3786  0.2246
 8020SOL    HW135693   3.265   0.800   9.264  0.3368 -3.6852  2.9974
 8020SOL    HW235694   3.236   0.695   9.158 -0.0996  0.5993 -0.8342
 8021SOL     OW35695   1.780   0.787   4.688 -0.2994  0.2884 -0.2158
 8021SOL    HW135696   1.688   0.763   4.682 -0.3917  0.4286  0.6257
 8021SOL    HW235697   1.786   0.874   4.649 -3.2310 -0.1305 -1.5692
 8022SOL     OW35698   3.183   0.975   8.195  0.7624 -0.5818 -0.5629
 8022SOL    HW135699   3.270   0.986   8.232 -0.4663  0.2792  2.0849
 8022SOL    HW235700   3.129   1.007   8.268  0.1471  0.1571 -1.3453
 8023SOL     OW35701   3.373   1.023   8.952 -0.1209  0.2629  0.1246
 8023SOL    HW135702   3.288   1.012   8.994  1.3074 -1.7396  2.4617
 8023SOL    HW235703   3.406   0.933   8.950 -1.0288 -0.0681  0.0761
 8024SOL     OW35704   1.728   2.905   2.725 -0.2422 -0.3677 -0.5098
 8024SOL    HW135705   1.636   2.927   2.743 -0.0216  1.5136 -1.5667
 8024SOL    HW235706   1.767   2.962   2.791 -0.3803 -0.4322 -0.3721
 8025SOL     OW35707   3.818   0.349   9.622  0.6894  0.3220  0.3578
 8025SOL    HW135708   3.785   0.410   9.555  0.2898  1.7720  1.8482
 8025SOL    HW235709   3.755   0.357   9.694  0.2773 -0.1007  0.0435
 8026SOL     OW35710   3.387   0.618   4.472  0.3072 -0.4653 -0.0919
 8026SOL    HW135711   3.309   0.662   4.504  0.2743 -1.1751  0.7959
 8026SOL    HW235712   3.451   0.685   4.494 -1.4468  1.4495 -0.7859
 8027SOL     OW35713   1.032   1.662   1.614 -0.0211  0.2360  0.2120
 8027SOL    HW135714   1.045   1.755   1.596  1.2980  0.5430  2.7076
 8027SOL    HW235715   1.056   1.668   1.706  1.5904 -0.3321 -0.1599
 8028SOL     OW35716   1.951   4.531   6.102  0.2420 -0.4073 -0.0606
 8028SOL    HW135717   2.024   4.498   6.154  0.8560  0.0745 -0.6135
 8028SOL    HW235718   1.886   4.495   6.163 -1.5273  1.0109 -1.0998
 8029SOL     OW35719   1.913   0.492   1.421  0.0812 -0.5278 -0.4320
 8029SOL    HW135720   1.890   0.583   1.439  1.9281 -0.2719  0.7220
 8029SOL    HW235721   1.871   0.474   1.337 -2.1142  1.4526  0.2434
 8030SOL     OW35722   1.073   0.673   8.589  0.2068 -0.1192  0.1443
 8030SOL    HW135723   1.039   0.653   8.676  2.0998 -1.6661  0.5106
 8030SOL    HW235724   1.167   0.669   8.604  0.3118  0.7743 -0.2561
 8031SOL     OW35725   1.163   1.895   2.960 -0.3084 -0.0866  0.3306
 8031SOL    HW135726   1.070   1.882   2.980 -0.8114  0.6405 -1.5400
 8031SOL    HW235727   1.199   1.812   2.993 -1.5984  0.1621  2.3598
 8032SOL     OW35728   4.295   2.126   8.187  0.4872  0.1794  0.1676
 8032SOL    HW135729   4.285   2.209   8.234 -2.0999  0.1758 -0.3880
 8032SOL    HW235730   4.344   2.080   8.256 -0.8886  0.4971  1.3532
 8033SOL     OW35731   0.740   2.517  16.224 -0.2482 -0.3486  0.1644
 8033SOL    HW135732   0.702   2.431  16.243  1.2341 -0.8773  0.7457
 8033SOL    HW235733   0.678   2.560  16.165 -0.1795  1.9555  1.7716
 8034SOL     OW35734   4.478   2.813   4.534 -0.2305 -0.1172 -0.2657
 8034SOL    HW135735   4.456   2.815   4.441  1.4800 -1.4314 -0.6827
 8034SOL    HW235736   4.412   2.753   4.569 -0.0740 -0.4916 -0.6168
 8035SOL     OW35737   3.614   0.109   8.154 -0.1551 -0.2855 -0.2721
 8035SOL    HW135738   3.621   0.054   8.077  3.6042 -1.3018  0.8207
 8035SOL    HW235739   3.527   0.081   8.185  0.0652 -2.3999 -1.5656
 8036SOL     OW35740   3.065   4.608   9.645  0.3326  0.1958 -0.5643
 8036SOL    HW135741   3.042   4.678   9.705  2.7926  0.5254  0.0037
 8036SOL    HW235742   3.151   4.576   9.672 -0.1238 -0.0597  0.5611
 8037SOL     OW35743   2.112   3.575   3.759 -0.0793  0.2104  0.3306
 8037SOL    HW135744   2.196   3.554   3.718 -1.5089 -2.5851 -1.1507
 8037SOL    HW235745   2.080   3.651   3.709 -0.3647 -0.0351  0.1383
 8038SOL     OW35746   0.897   1.208  12.231 -0.2559  0.1691 -0.2025
 8038SOL    HW135747   0.806   1.183  12.250 -0.4405 -0.1825 -1.4845
 8038SOL    HW235748   0.906   1.281  12.292  0.9301  0.2453 -0.4844
 8039SOL     OW35749   4.687   3.472  16.938 -0.2024  0.3562 -0.1195
 8039SOL    HW135750   4.621   3.494  16.872 -1.9886 -0.1959  1.5197
 8039SOL    HW235751   0.021   3.459  16.877 -0.0767  1.5122 -0.2084
 8040SOL     OW35752   2.628   2.163   6.166 -0.5086 -0.1838  0.0226
 8040SOL    HW135753   2.718   2.140   6.141 -1.0537  0.6816 -2.7329
 8040SOL    HW235754   2.599   2.080   6.204 -0.8067  0.1216  0.4623
 8041SOL     OW35755   0.958   4.182   6.548 -0.0900 -0.0794  0.1959
 8041SOL    HW135756   0.989   4.129   6.621 -1.9043 -0.9265  0.3559
 8041SOL    HW235757   0.958   4.110   6.484 -2.1365  0.1963 -0.1120
 8042SOL     OW35758   3.357   1.537   2.314  0.3898  0.3007  0.3981
 8042SOL    HW135759   3.433   1.580   2.274 -0.7711  0.1522 -1.9575
 8042SOL    HW235760   3.293   1.523   2.245 -0.1769 -0.7089  1.1188
 8043SOL     OW35761   3.651   0.615   2.335 -0.0401  0.2002 -0.3263
 8043SOL    HW135762   3.733   0.663   2.341  0.1344  0.0949 -1.7858
 8043SOL    HW235763   3.595   0.691   2.349  0.8380  1.5733 -4.2155
 8044SOL     OW35764   0.715   3.581  10.722 -0.3531 -0.3946 -0.0702
 8044SOL    HW135765   0.755   3.636  10.789  0.6852 -0.5120 -0.5942
 8044SOL    HW235766   0.627   3.616  10.712 -0.5389 -0.9581 -0.4228
 8045SOL     OW35767   1.934   3.477   7.569  0.2337  0.6364 -0.1221
 8045SOL    HW135768   1.954   3.419   7.642  3.1950  1.7226 -0.0890
 8045SOL    HW235769   1.994   3.440   7.504  0.9025 -3.3454  2.7509
 8046SOL     OW35770   3.943   2.451   1.908  0.0133  0.0213  0.3210
 8046SOL    HW135771   3.952   2.490   1.821 -0.7019  0.8696  0.6287
 8046SOL    HW235772   3.942   2.358   1.886  1.3287 -0.0778  0.7048
 8047SOL     OW35773   4.401   1.947   7.745  0.4443  0.1656  0.0728
 8047SOL    HW135774   4.478   1.900   7.776 -1.4299 -0.9328  3.0743
 8047SOL    HW235775   4.384   2.007   7.818 -0.5531  3.0458 -2.5086
 8048SOL     OW35776   0.100   4.341   5.085  0.1241  0.8506  0.2094
 8048SOL    HW135777   0.013   4.369   5.112  0.1741  0.7238  0.4921
 8048SOL    HW235778   0.141   4.354   5.171 -0.3219 -1.9906  0.8186
 8049SOL     OW35779   0.440   0.240   8.605 -0.3063 -0.5149 -0.1917
 8049SOL    HW135780   0.392   0.186   8.542  0.4242 -1.3234 -0.0525
 8049SOL    HW235781   0.496   0.273   8.535 -0.4805 -1.4626 -0.7711
 8050SOL     OW35782   4.589   1.207   9.039  0.4489 -0.3357 -0.4470
 8050SOL    HW135783   4.683   1.225   9.035  0.0615  1.7806 -0.1759
 8050SOL    HW235784   4.567   1.238   9.126  2.1974  1.5214 -0.6637
 8051SOL     OW35785   3.897   4.013   4.090 -0.3838 -0.8131 -0.0320
 8051SOL    HW135786   3.984   4.052   4.096 -2.5312  3.5743  2.6509
 8051SOL    HW235787   3.888   3.998   3.996  0.6399  1.4214 -0.4922
 8052SOL     OW35788   3.565   2.648   4.121  0.8216  0.1811 -0.0294
 8052SOL    HW135789   3.579   2.601   4.039  2.1174 -0.8041  0.7533
 8052SOL    HW235790   3.503   2.590   4.164 -0.2341  1.2370 -0.1283
 8053SOL     OW35791   3.967   4.686  13.784  0.1092 -0.6530 -0.0424
 8053SOL    HW135792   4.057   4.654  13.795  0.4891 -1.1072 -4.8222
 8053SOL    HW235793   3.981   0.041  13.778  0.9061 -0.7415  0.4185
 8054SOL     OW35794   3.940   4.101   9.372 -0.4015  0.0900 -0.0970
 8054SOL    HW135795   3.907   4.018   9.338  2.1959  0.0928 -2.7031
 8054SOL    HW235796   3.957   4.134   9.283  0.1394 -0.3115 -0.1420
 8055SOL     OW35797   2.619   2.131   7.828  0.0456  0.3183  0.2320
 8055SOL    HW135798   2.591   2.078   7.903 -2.1872 -0.0760 -0.8699
 8055SOL    HW235799   2.697   2.174   7.863 -0.4581  0.3600  1.3160
 8056SOL     OW35800   2.968   1.728   5.083 -0.4261  0.0931  0.1290
 8056SOL    HW135801   2.956   1.816   5.119 -0.7772  0.5056 -0.9889
 8056SOL    HW235802   3.019   1.680   5.147  0.5208 -0.2738 -0.9149
 8057SOL     OW35803   1.879   0.880  16.181  0.4731  0.5120  0.2672
 8057SOL    HW135804   1.841   0.793  16.177  2.7829 -0.5595  1.8967
 8057SOL    HW235805   1.962   0.860  16.137 -0.5276 -2.2377 -0.3422
 8058SOL     OW35806   3.925   4.717   6.993  0.3430 -0.2843 -0.1182
 8058SOL    HW135807   3.957   0.056   6.948  3.1510 -0.8369  0.9501
 8058SOL    HW235808   3.975   4.721   7.074  0.6341  1.9847 -0.4116
 8059SOL     OW35809   3.049   2.433   2.511 -0.5581 -0.2510  0.3012
 8059SOL    HW135810   3.129   2.381   2.505 -0.1787  0.3779 -0.1312
 8059SOL    HW235811   2.986   2.373   2.551 -0.2388 -1.3519 -0.8525
 8060SOL     OW35812   2.956   1.965   9.627 -1.2923  0.4294 -0.1691
 8060SOL    HW135813   2.964   1.869   9.629  0.1610  0.5369 -0.6903
 8060SOL    HW235814   3.031   1.991   9.573 -0.4391 -1.0589  0.2807
 8061SOL     OW35815   2.196   4.639   1.673 -0.3581  0.5564 -0.7323
 8061SOL    HW135816   2.114   4.678   1.703 -0.2590  1.7859 -2.0190
 8061SOL    HW235817   2.253   4.711   1.645 -0.1560  0.5562 -0.3143
 8062SOL     OW35818   0.617   3.269   1.641  0.1416  0.0667  0.0060
 8062SOL    HW135819   0.566   3.303   1.567  2.0458  3.3017  0.1901
 8062SOL    HW235820   0.704   3.260   1.602 -0.0910  1.5476 -0.8451
 8063SOL     OW35821   1.915   1.070   1.430  0.0357 -0.0347 -0.1873
 8063SOL    HW135822   1.828   1.110   1.437 -0.4050 -1.1865  1.0005
 8063SOL    HW235823   1.954   1.140   1.378  0.1599  0.9381  1.2132
 8064SOL     OW35824   1.529   3.555   9.883 -0.5098  0.4120 -0.9056
 8064SOL    HW135825   1.471   3.507   9.823 -0.6164 -1.1884  0.4737
 8064SOL    HW235826   1.535   3.490   9.953  0.4545  0.7635 -0.6597
 8065SOL     OW35827   3.098   0.131  14.122  0.5230  0.5428  0.2142
 8065SOL    HW135828   3.165   0.116  14.054 -1.0081  1.8336 -1.5869
 8065SOL    HW235829   3.041   0.183  14.066  0.0652  0.6218  0.7549
 8066SOL     OW35830   4.294   1.418  10.335  0.1635 -0.4938  0.2348
 8066SOL    HW135831   4.295   1.505  10.375  0.5351 -0.7365  0.7615
 8066SOL    HW235832   4.339   1.369  10.405  0.1040 -1.3588 -0.3397
 8067SOL     OW35833   2.752   4.232   9.455  0.3812  0.2516 -0.3635
 8067SOL    HW135834   2.769   4.301   9.519  1.2489 -0.6538  0.3904
 8067SOL    HW235835   2.770   4.156   9.511  0.2466 -1.0208 -2.0601
 8068SOL     OW35836   0.791   3.723   5.273 -0.1939 -0.3429  0.2681
 8068SOL    HW135837   0.864   3.704   5.331  0.6463  0.5850 -0.4839
 8068SOL    HW235838   0.726   3.752   5.337 -0.1758 -0.4785  0.3461
 8069SOL     OW35839   3.531   0.093  13.050  0.1831 -0.3009 -0.2335
 8069SOL    HW135840   3.620   0.063  13.071 -0.4024 -1.4785  0.5490
 8069SOL    HW235841   3.486   0.010  13.035 -2.1540  0.7820  0.8025
 8070SOL     OW35842   3.749   3.423  15.634  0.0474 -0.1569  0.1833
 8070SOL    HW135843   3.840   3.401  15.615  0.3812  1.4754 -0.1445
 8070SOL    HW235844   3.770   3.464  15.718  1.4862 -1.3286  0.3852
 8071SOL     OW35845   3.309   0.004   3.946 -0.0700 -0.0734 -0.0759
 8071SOL    HW135846   3.272   4.672   3.892  0.4759  0.5013 -1.2173
 8071SOL    HW235847   3.320   0.067   3.875 -3.3499 -0.3039 -0.7757
 8072SOL     OW35848   1.148   3.086  15.188  0.0811  0.1685  0.1370
 8072SOL    HW135849   1.084   3.041  15.134 -1.3882  3.0471 -0.5191
 8072SOL    HW235850   1.095   3.093  15.268  0.3883 -1.9447  0.5026
 8073SOL     OW35851   2.935   4.680   6.962  0.1388 -0.1222 -0.1182
 8073SOL    HW135852   2.957   4.733   7.039  1.5895  0.6783 -1.1029
 8073SOL    HW235853   3.016   4.677   6.911  0.0554 -2.7698 -0.1364
 8074SOL     OW35854   3.747   3.733   4.005 -0.7793 -0.0497 -0.0684
 8074SOL    HW135855   3.811   3.791   3.964  0.8383 -0.6187  1.6406
 8074SOL    HW235856   3.664   3.774   3.981  0.6620  1.3157 -2.7178
 8075SOL     OW35857   1.757   4.309   0.551  0.3086  0.0596  0.4474
 8075SOL    HW135858   1.835   4.341   0.506  0.8837 -0.4400  1.1022
 8075SOL    HW235859   1.687   4.342   0.494 -0.4336 -1.8376  0.2788
 8076SOL     OW35860   0.184   1.935   9.260  0.5175 -0.2511  0.6094
 8076SOL    HW135861   0.271   1.929   9.299  0.0847 -0.7218  1.4919
 8076SOL    HW235862   0.121   1.934   9.333 -0.0065  0.5051  0.1686
 8077SOL     OW35863   3.708   2.585   9.100 -0.0730  0.2319 -1.0363
 8077SOL    HW135864   3.626   2.623   9.131 -1.8620 -3.7827 -0.8845
 8077SOL    HW235865   3.714   2.637   9.020  1.5508 -2.2832 -2.5562
 8078SOL     OW35866   3.942   1.937  17.103 -0.0478  0.8338 -0.0325
 8078SOL    HW135867   3.965   1.990  17.027  2.7628 -0.6909 -0.2419
 8078SOL    HW235868   3.962   1.995  17.177 -0.3955  0.9488 -0.0272
 8079SOL     OW35869   2.302   0.412  11.485  0.1872 -0.5210  0.6261
 8079SOL    HW135870   2.245   0.460  11.544  0.0133  2.0009 -1.6036
 8079SOL    HW235871   2.327   0.340  11.542 -0.6090  0.1350  1.7949
 8080SOL     OW35872   0.826   4.643   4.125  0.1075  0.3172  0.1050
 8080SOL    HW135873   0.907   4.657   4.077  0.0882 -0.5572 -0.1663
 8080SOL    HW235874   0.772   4.649   4.047  0.2404 -0.2793 -0.0272
 8081SOL     OW35875   1.596   4.083   4.252 -0.3940  0.2596  0.1092
 8081SOL    HW135876   1.518   4.133   4.278 -1.0155 -0.9750  0.6260
 8081SOL    HW235877   1.630   4.139   4.183 -2.0922  2.8239  1.3486
 8082SOL     OW35878   2.567   4.721   6.035  0.2507  0.1168  0.6136
 8082SOL    HW135879   2.494   4.660   6.048 -0.1947  0.9586  2.0646
 8082SOL    HW235880   2.611   4.708   6.119 -0.0854 -1.3456  0.5617
 8083SOL     OW35881   1.421   4.505  16.413 -0.1293  0.4123  0.1051
 8083SOL    HW135882   1.502   4.528  16.368  0.3773  1.1540  1.4061
 8083SOL    HW235883   1.350   4.539  16.359 -0.2696 -1.3363 -0.8470
 8084SOL     OW35884   2.121   3.873   1.219 -0.0669 -0.2190 -0.7278
 8084SOL    HW135885   2.082   3.888   1.305 -1.2514 -3.2207 -0.7177
 8084SOL    HW235886   2.093   3.785   1.191 -1.2565 -0.1121  0.1200
 8085SOL     OW35887   1.698   1.553  16.987  0.3466 -0.1357  0.3282
 8085SOL    HW135888   1.713   1.567  17.080  0.3516 -0.3943  0.3668
 8085SOL    HW235889   1.622   1.494  16.987 -0.6823  1.1952  0.8584
 8086SOL     OW35890   0.840   0.456   8.400  0.2844 -0.2360 -0.1544
 8086SOL    HW135891   0.834   0.504   8.317  0.4512  2.4350  1.3752
 8086SOL    HW235892   0.932   0.468   8.421 -0.0417  0.9032  0.6660
 8087SOL     OW35893   3.675   0.224   2.442 -0.5272  0.2174 -0.5666
 8087SOL    HW135894   3.701   0.207   2.351 -2.4722 -1.6970 -0.7621
 8087SOL    HW235895   3.611   0.154   2.449  0.3720 -0.4512  1.0360
 8088SOL     OW35896   1.717   0.714   8.825 -0.6557 -0.3444 -0.0467
 8088SOL    HW135897   1.765   0.650   8.878  2.2481  2.5851  0.8440
 8088SOL    HW235898   1.792   0.736   8.771 -0.3645  0.1529  0.5549
 8089SOL     OW35899   1.506   0.256   8.582 -0.5355  0.0376 -0.3567
 8089SOL    HW135900   1.446   0.314   8.628  0.5785 -0.7135  2.0572
 8089SOL    HW235901   1.549   0.304   8.511  1.3699 -1.5026 -0.2432
 8090SOL     OW35902   2.341   1.688  13.481  0.5453 -0.4188 -0.0425
 8090SOL    HW135903   2.365   1.609  13.528 -0.5802  0.2165  1.6404
 8090SOL    HW235904   2.380   1.755  13.537 -1.2430  1.2752 -0.7989
 8091SOL     OW35905   3.046   0.151   5.312  0.1535 -0.0555  0.1040
 8091SOL    HW135906   3.091   0.225   5.352 -2.0953  2.0209 -1.1829
 8091SOL    HW235907   3.113   0.111   5.257  0.0591  0.6025 -0.4963
 8092SOL     OW35908   0.808   1.994   6.576  0.5352  0.0383  0.2923
 8092SOL    HW135909   0.747   1.970   6.646  0.8866  0.9613  0.9184
 8092SOL    HW235910   0.807   1.923   6.513 -0.2018  0.0671  0.2661
 8093SOL     OW35911   1.928   2.526   8.766 -0.1162 -0.2210 -0.0613
 8093SOL    HW135912   1.983   2.508   8.689 -0.2031  1.9535 -0.6568
 8093SOL    HW235913   1.968   2.473   8.834 -0.0581 -0.3344 -0.1834
 8094SOL     OW35914   2.337   2.599   5.997  0.2888  0.1676  0.0419
 8094SOL    HW135915   2.317   2.527   6.058  1.0660  0.2198  0.3538
 8094SOL    HW235916   2.429   2.588   5.974  0.5673 -1.5541  1.9957
 8095SOL     OW35917   4.323   4.195   1.768  0.1855  0.1948  0.0568
 8095SOL    HW135918   4.320   4.173   1.861 -1.9289 -0.3206 -0.1423
 8095SOL    HW235919   4.235   4.232   1.769 -0.3645 -1.2122  4.8045
 8096SOL     OW35920   4.278   3.734   4.691 -0.0180  0.1423 -0.2439
 8096SOL    HW135921   4.334   3.702   4.761 -0.0457  0.1095 -0.2370
 8096SOL    HW235922   4.337   3.787   4.637  2.1852 -1.3632  0.6870
 8097SOL     OW35923   1.316   1.987   1.807 -0.5428  0.2539  0.0661
 8097SOL    HW135924   1.248   1.976   1.873 -0.1491 -0.1539  0.4046
 8097SOL    HW235925   1.349   1.898   1.795  0.6075  1.0506 -2.7565
 8098SOL     OW35926   2.212   1.299  13.042  0.1248  0.0280 -0.5665
 8098SOL    HW135927   2.202   1.235  13.112 -1.7215 -0.9788 -1.7519
 8098SOL    HW235928   2.119   1.302  13.020  0.0780  0.5898 -0.2828
 8099SOL     OW35929   3.571   4.579  15.294 -0.3380  0.0829  0.4730
 8099SOL    HW135930   3.625   4.657  15.289  1.1416 -0.8162  2.6150
 8099SOL    HW235931   3.625   4.511  15.254 -2.1375  0.0358 -1.8927
 8100SOL     OW35932   1.522   3.282  17.701 -0.2538 -0.2562 -0.1156
 8100SOL    HW135933   1.504   3.216  17.635 -0.8157 -3.1875  2.9973
 8100SOL    HW235934   1.446   3.268   0.003 -0.2567 -1.5376 -0.4522
 8101SOL     OW35935   0.552   2.743  17.311  0.4921 -0.0910 -0.0045
 8101SOL    HW135936   0.500   2.778  17.383  0.3743 -0.6844  0.2037
 8101SOL    HW235937   0.505   2.777  17.235  2.4615  0.2652 -1.0597
 8102SOL     OW35938   2.060   3.044   7.332 -0.0697 -0.0490  0.3375
 8102SOL    HW135939   2.151   3.022   7.314 -0.0071  0.4117  0.0731
 8102SOL    HW235940   2.015   2.965   7.301  0.6366 -0.3256  0.0222
 8103SOL     OW35941   1.893   3.014   4.986 -0.0832  0.6183  0.3758
 8103SOL    HW135942   1.829   3.077   5.019 -0.5109  0.2920  0.1662
 8103SOL    HW235943   1.834   2.941   4.970  0.7823  0.2708 -1.1732
 8104SOL     OW35944   3.074   1.343   3.213 -0.0187 -0.0392  0.4945
 8104SOL    HW135945   3.007   1.300   3.160  0.3124 -1.4459  1.2204
 8104SOL    HW235946   3.130   1.268   3.234 -0.3057 -0.5299 -0.4959
 8105SOL     OW35947   4.609   2.345  11.981 -0.2621  0.7202  0.0262
 8105SOL    HW135948   4.589   2.404  11.909 -3.5040  2.1712  2.0940
 8105SOL    HW235949   4.624   2.403  12.056  1.6892  0.9869 -0.5955
 8106SOL     OW35950   4.385   0.137   3.586  0.3970 -0.2157 -0.1256
 8106SOL    HW135951   4.296   0.133   3.621 -0.1299 -1.6592 -1.6174
 8106SOL    HW235952   4.365   0.101   3.499  1.7226  1.0251 -0.9515
 8107SOL     OW35953   2.494   2.833   9.329  0.2286  0.0753 -0.0370
 8107SOL    HW135954   2.436   2.900   9.293  2.5661  1.3638 -1.4125
 8107SOL    HW235955   2.439   2.792   9.396  1.3157 -0.3289  0.6044
 8108SOL     OW35956   1.834   3.089   2.894 -0.0055 -0.7888  0.3992
 8108SOL    HW135957   1.880   3.070   2.976 -0.2741 -0.2415  0.6802
 8108SOL    HW235958   1.760   3.136   2.932 -0.2975  1.3917 -2.9263
 8109SOL     OW35959   2.827   4.590  17.695  0.0962 -0.2566 -0.0043
 8109SOL    HW135960   2.867   4.503  17.704 -1.3552 -0.9473 -0.1242
 8109SOL    HW235961   2.890   4.636  17.640 -1.4113  0.9923 -0.6745
 8110SOL     OW35962   1.242   2.954   4.391 -0.4763  0.2712  0.1745
 8110SOL    HW135963   1.325   2.931   4.432  0.5083  0.9541 -1.4304
 8110SOL    HW235964   1.209   3.014   4.458 -0.9862 -0.2019  0.3406
 8111SOL     OW35965   1.466   4.498   7.602  0.0815  0.0631  0.6639
 8111SOL    HW135966   1.477   4.490   7.507 -0.1037  1.8072  0.4855
 8111SOL    HW235967   1.552   4.467   7.627 -0.4436 -1.5970  0.3833
 8112SOL     OW35968   3.059   4.342   9.090  0.1456  0.1940 -0.6499
 8112SOL    HW135969   2.997   4.381   9.153  0.3175 -0.7833  0.1266
 8112SOL    HW235970   3.100   4.274   9.143  0.7417  0.5539 -0.6579
 8113SOL     OW35971   2.103   0.076   4.267  0.1079 -0.2353 -0.0486
 8113SOL    HW135972   2.088   0.155   4.215 -1.2984 -2.0061 -2.2854
 8113SOL    HW235973   2.020   0.071   4.314  0.2134  1.2538  0.3183
 8114SOL     OW35974   3.459   2.000   6.270  0.1951 -0.0736  0.0414
 8114SOL    HW135975   3.496   2.080   6.232 -2.8662  1.4947  0.3545
 8114SOL    HW235976   3.458   2.021   6.363  1.0149  1.5899 -0.3143
 8115SOL     OW35977   4.352   2.951   2.026 -0.2689 -0.0013  0.2665
 8115SOL    HW135978   4.313   2.875   1.983 -0.9451 -0.0091  0.8916
 8115SOL    HW235979   4.335   3.024   1.967 -0.3478 -0.1211  0.1406
 8116SOL     OW35980   3.670   3.739   9.905  0.5743  0.1667  0.3866
 8116SOL    HW135981   3.591   3.768   9.951 -0.5104 -2.1762  0.0389
 8116SOL    HW235982   3.639   3.706   9.821 -1.4016 -1.3035  1.6890
 8117SOL     OW35983   4.110   4.317   5.495 -0.4544 -0.1820 -0.9862
 8117SOL    HW135984   4.097   4.296   5.403 -0.3036  2.1159 -1.5189
 8117SOL    HW235985   4.107   4.412   5.498  0.8515 -0.1586 -0.5415
 8118SOL     OW35986   1.981   0.314  17.380 -0.0690 -0.3202 -0.2741
 8118SOL    HW135987   1.944   0.395  17.345  2.5448  0.4427 -1.2998
 8118SOL    HW235988   2.001   0.340  17.470 -0.7261  0.0228 -0.2283
 8119SOL     OW35989   0.833   1.341   7.629  0.5665  0.2269 -0.1535
 8119SOL    HW135990   0.768   1.361   7.561 -0.7004  0.9243  1.2539
 8119SOL    HW235991   0.911   1.321   7.577 -0.7479  0.4653 -2.2401
 8120SOL     OW35992   2.356   1.666   7.297  0.2573  0.4500 -0.3936
 8120SOL    HW135993   2.435   1.715   7.320  0.4386 -0.4714  0.9480
 8120SOL    HW235994   2.326   1.614   7.371  2.9290 -0.1341  0.3083
 8121SOL     OW35995   4.488   3.742  16.926  0.2311 -0.7238 -0.9886
 8121SOL    HW135996   4.480   3.653  16.891  1.8235 -1.0716 -0.4441
 8121SOL    HW235997   4.410   3.787  16.893  1.0835  1.4512 -0.0244
 8122SOL     OW35998   2.006   0.668   3.043  0.5293 -0.4208 -0.3919
 8122SOL    HW135999   2.093   0.640   3.071 -0.6081 -0.0438  3.5311
 8122SOL    HW236000   1.978   0.727   3.113  1.4395 -0.2360 -0.1843
 8123SOL     OW36001   2.388   2.727   0.758  0.4479 -0.3912 -0.3289
 8123SOL    HW136002   2.366   2.801   0.702 -1.4735  0.2944  1.3365
 8123SOL    HW236003   2.359   2.658   0.698 -1.4996 -0.2052  0.3994
 8124SOL     OW36004   3.208   4.039   5.829 -0.0954 -0.1483  0.3319
 8124SOL    HW136005   3.120   4.029   5.793  0.1196 -2.7678  0.5028
 8124SOL    HW236006   3.203   3.981   5.906  0.2544 -0.8115 -0.1439
 8125SOL     OW36007   1.762   0.728  15.711 -0.7801 -0.5403  0.1220
 8125SOL    HW136008   1.748   0.805  15.766  0.5316  1.6479 -2.5335
 8125SOL    HW236009   1.856   0.747  15.706 -1.0680  0.7824 -0.4275
 8126SOL     OW36010   3.379   1.101  13.520  0.0838 -0.4171  0.2992
 8126SOL    HW136011   3.410   1.181  13.478  0.8594 -1.1441 -0.5130
 8126SOL    HW236012   3.436   1.098  13.598 -0.0698 -0.8818  0.3896
 8127SOL     OW36013   0.213   3.332   9.027 -0.9467  0.2851 -0.1405
 8127SOL    HW136014   0.223   3.367   8.938 -1.3474 -2.0609 -1.1055
 8127SOL    HW236015   0.252   3.246   9.009 -0.9515 -0.3931  3.1550
 8128SOL     OW36016   4.027   3.328   4.884  0.0208 -0.3076  0.1591
 8128SOL    HW136017   3.998   3.387   4.814 -1.2042  0.8104  1.6201
 8128SOL    HW236018   4.107   3.374   4.911  0.6564 -0.0457 -2.1274
 8129SOL     OW36019   4.486   1.729   5.250 -0.7079  0.4306  0.5497
 8129SOL    HW136020   4.455   1.664   5.313 -0.7249 -1.7732 -1.7396
 8129SOL    HW236021   4.580   1.710   5.255 -0.6768  0.7111  1.0980
 8130SOL     OW36022   1.935   0.616   4.301 -0.0839 -0.3200 -0.1694
 8130SOL    HW136023   1.931   0.537   4.355  4.1811 -0.7179 -0.3995
 8130SOL    HW236024   1.902   0.586   4.216 -1.6444 -1.8163  0.9600
 8131SOL     OW36025   2.340   2.043  17.251 -0.2364  0.0260  0.1898
 8131SOL    HW136026   2.268   2.092  17.291 -0.1294 -0.5119  1.0274
 8131SOL    HW236027   2.373   1.980  17.315  0.3179 -0.6641 -0.7786
 8132SOL     OW36028   0.441   1.142  15.628 -0.1727  0.3073 -0.0569
 8132SOL    HW136029   0.421   1.052  15.604  1.6694 -0.1551  0.1048
 8132SOL    HW236030   0.427   1.132  15.722  0.7009 -0.2911  0.0110
 8133SOL     OW36031   4.018   1.718   8.341  0.2075  0.0534 -0.2049
 8133SOL    HW136032   3.930   1.755   8.333  0.1476  0.7063  3.4131
 8133SOL    HW236033   4.051   1.792   8.392  0.4030 -0.3700  0.2845
 8134SOL     OW36034   2.792   0.858   7.475  0.3592  0.3441  0.0951
 8134SOL    HW136035   2.726   0.920   7.443  0.5628  0.7614  0.4813
 8134SOL    HW236036   2.775   0.858   7.570 -1.1930 -0.5742 -0.1747
 8135SOL     OW36037   2.189   4.132  16.056  0.9430 -0.3055 -0.3028
 8135SOL    HW136038   2.180   4.184  16.136 -0.8315 -1.2238  0.0945
 8135SOL    HW236039   2.115   4.071  16.053  0.8236 -0.1703 -0.1469
 8136SOL     OW36040   0.710   3.622  12.743  0.1143 -0.3757  0.1212
 8136SOL    HW136041   0.632   3.676  12.751 -0.6973 -1.4467 -0.5966
 8136SOL    HW236042   0.777   3.689  12.761 -1.2383  0.6449  1.3305
 8137SOL     OW36043   3.115   0.651   9.915  0.4801  0.6006 -0.9055
 8137SOL    HW136044   3.076   0.668   9.828  0.6613 -0.9209 -1.2726
 8137SOL    HW236045   3.192   0.601   9.890  1.5448  1.8753 -0.1758
 8138SOL     OW36046   2.111   4.099   5.329 -0.1489 -0.4336 -0.2653
 8138SOL    HW136047   2.078   4.054   5.407 -0.9955 -0.3745 -0.5922
 8138SOL    HW236048   2.193   4.050   5.321  0.0709 -0.0199 -0.5616
 8139SOL     OW36049   1.403   4.321  11.600  0.2398 -0.8785  0.6229
 8139SOL    HW136050   1.498   4.330  11.601  0.2397 -1.1488  2.9647
 8139SOL    HW236051   1.385   4.307  11.508  0.7344 -0.4824  0.4652
 8140SOL     OW36052   3.180   4.014   2.231 -0.7756 -0.1550  0.5751
 8140SOL    HW136053   3.169   4.065   2.311 -1.3871 -0.3078  0.5900
 8140SOL    HW236054   3.267   4.034   2.198 -0.9470  2.0576  1.4750
 8141SOL     OW36055   1.874   4.380   6.358 -0.2453 -0.3853 -0.5162
 8141SOL    HW136056   1.822   4.311   6.398  2.4970 -2.2129 -0.0522
 8141SOL    HW236057   1.951   4.324   6.343  0.4094  0.1090  1.0260
 8142SOL     OW36058   2.275   1.094  16.038 -0.1693  0.3149 -0.0732
 8142SOL    HW136059   2.355   1.080  16.088  1.2731  3.3654 -1.5171
 8142SOL    HW236060   2.208   1.123  16.100  1.0720  1.3024  0.8020
 8143SOL     OW36061   2.967   1.502  14.171 -0.6576 -0.3131 -0.0456
 8143SOL    HW136062   2.921   1.562  14.112  1.2882  0.1386 -1.1406
 8143SOL    HW236063   3.058   1.494  14.142 -0.6101 -1.4563  0.4438
 8144SOL     OW36064   2.678   2.510  15.403 -0.1810 -0.0907 -0.5185
 8144SOL    HW136065   2.729   2.529  15.481  2.2528  0.9881 -2.3882
 8144SOL    HW236066   2.745   2.536  15.340 -1.0812  2.6154 -0.3674
 8145SOL     OW36067   2.350   3.000   2.505 -0.1493  0.9354 -0.6307
 8145SOL    HW136068   2.284   2.934   2.484 -0.7837  0.6765  2.2237
 8145SOL    HW236069   2.409   2.944   2.555 -0.6697  1.0821  0.1484
 8146SOL     OW36070   0.371   1.350   3.688  0.1630 -0.9157  0.6853
 8146SOL    HW136071   0.280   1.323   3.701  0.3000 -1.3266  0.7601
 8146SOL    HW236072   0.402   1.372   3.776 -1.9126 -1.6409  1.6153
 8147SOL     OW36073   4.653   0.562   5.158 -0.7500  0.2167 -0.2092
 8147SOL    HW136074   4.680   0.504   5.087  0.0802  0.6773 -0.2699
 8147SOL    HW236075   4.628   0.642   5.111 -1.4165 -0.0453 -0.3060
 8148SOL     OW36076   0.160   3.599   3.731 -0.2848  0.2601 -0.1421
 8148SOL    HW136077   0.139   3.636   3.817 -1.4607  0.0737 -0.3591
 8148SOL    HW236078   0.078   3.552   3.721  0.0983 -0.0032 -2.1772
 8149SOL     OW36079   2.813   1.227   2.453 -0.2036 -0.1311  0.1904
 8149SOL    HW136080   2.884   1.175   2.415  0.1852  0.2331  0.4084
 8149SOL    HW236081   2.806   1.300   2.392  0.0530 -0.0183  0.2943
 8150SOL     OW36082   0.183   1.563   8.378 -0.0357  0.2549 -0.2377
 8150SOL    HW136083   0.219   1.652   8.379 -0.2340  0.3258  1.0768
 8150SOL    HW236084   0.193   1.539   8.470 -1.8192 -0.8441 -0.3363
 8151SOL     OW36085   3.605   2.261  16.015 -0.1674 -0.0608  0.0959
 8151SOL    HW136086   3.589   2.263  15.921 -0.7250 -0.2011  0.1857
 8151SOL    HW236087   3.666   2.192  16.040 -2.3323 -1.2570  2.1485
 8152SOL     OW36088   0.222   0.838   0.851  0.4844 -0.3960  0.3662
 8152SOL    HW136089   0.176   0.888   0.784 -2.1498  0.3819  2.7484
 8152SOL    HW236090   0.227   0.753   0.807  1.1610  0.1470 -0.6017
 8153SOL     OW36091   2.779   2.292   3.506  0.7487  0.4723 -0.2167
 8153SOL    HW136092   2.753   2.348   3.579 -1.4894  1.0237 -1.4474
 8153SOL    HW236093   2.701   2.240   3.493  0.6335  0.2723  1.2760
 8154SOL     OW36094   2.066   1.380  13.748  0.2217 -0.0988  0.1250
 8154SOL    HW136095   2.079   1.474  13.752  0.0995 -0.1580  1.7692
 8154SOL    HW236096   1.980   1.368  13.708  0.5554  2.6189 -1.3691
 8155SOL     OW36097   4.085   1.963   4.097  0.1151 -0.0232  0.5432
 8155SOL    HW136098   3.996   1.965   4.062 -0.2893  1.0977  1.6159
 8155SOL    HW236099   4.118   1.890   4.046 -0.5829 -1.0899  1.6228
 8156SOL     OW36100   3.294   2.450   2.891 -0.3253 -0.3617 -0.3760
 8156SOL    HW136101   3.315   2.512   2.821  1.5700 -0.7899 -0.1877
 8156SOL    HW236102   3.240   2.504   2.950 -0.2143 -0.4415 -0.2023
 8157SOL     OW36103   1.464   1.504  15.894  0.2547  0.1750  0.0056
 8157SOL    HW136104   1.438   1.415  15.917  0.2234  0.0290 -0.5786
 8157SOL    HW236105   1.393   1.558  15.929  0.5913 -0.4699  1.6461
 8158SOL     OW36106   4.231   0.254   4.129 -0.1609  0.7165  0.6241
 8158SOL    HW136107   4.318   0.293   4.137  0.7248 -1.4647  1.4915
 8158SOL    HW236108   4.177   0.301   4.193  0.1883 -1.4065  2.4744
 8159SOL     OW36109   3.399   3.023  12.238 -0.1295 -0.4670 -0.3175
 8159SOL    HW136110   3.401   2.934  12.274 -0.1144  0.3587  1.7607
 8159SOL    HW236111   3.378   2.999  12.148 -1.1596 -1.2452  0.1353
 8160SOL     OW36112   3.703   3.082   7.812 -0.2029  0.2291 -0.0669
 8160SOL    HW136113   3.793   3.054   7.830  0.4191  0.9507 -1.9631
 8160SOL    HW236114   3.660   3.068   7.896  1.7234  0.5271  0.9604
 8161SOL     OW36115   0.266   4.566   4.333 -0.6050 -0.3013  0.4336
 8161SOL    HW136116   0.317   4.557   4.413  0.7319  0.2594 -0.3434
 8161SOL    HW236117   0.190   4.524   4.373 -1.3849 -0.9746 -1.7855
 8162SOL     OW36118   0.540   0.977   5.035  0.1771  0.6452 -0.3481
 8162SOL    HW136119   0.552   0.883   5.028 -0.5336  0.3316  2.6714
 8162SOL    HW236120   0.516   1.004   4.946 -1.4851  1.0296  0.2292
 8163SOL     OW36121   2.547   2.315   3.087  0.1225  0.4367 -0.2932
 8163SOL    HW136122   2.481   2.384   3.079 -0.3153 -0.0231 -0.6242
 8163SOL    HW236123   2.532   2.251   3.018  2.4615 -0.9978  0.5084
 8164SOL     OW36124   2.358   2.890   0.548  0.4757 -0.2931  0.0959
 8164SOL    HW136125   2.383   2.873   0.457 -2.8431  0.9269 -1.0310
 8164SOL    HW236126   2.320   2.977   0.545  0.5503 -0.2450  0.5078
 8165SOL     OW36127   2.972   3.631  15.020 -0.1168  0.7433  0.1463
 8165SOL    HW136128   2.926   3.714  15.034 -1.3262 -0.2515  2.0806
 8165SOL    HW236129   2.991   3.625  14.926  0.4441 -0.5801  0.3370
 8166SOL     OW36130   3.943   2.260   2.510 -0.2913 -0.6369 -0.2964
 8166SOL    HW136131   3.878   2.327   2.487  1.4819  0.6436 -1.4800
 8166SOL    HW236132   4.002   2.299   2.574 -0.8166  0.7022 -0.6183
 8167SOL     OW36133   0.685   4.031   4.468 -0.2567 -0.6133 -0.5512
 8167SOL    HW136134   0.676   3.941   4.436 -1.4975  0.3391 -2.8639
 8167SOL    HW236135   0.611   4.027   4.528 -1.0743 -0.2680 -1.5356
 8168SOL     OW36136   3.820   3.635   2.662 -1.2008  0.8254  0.1535
 8168SOL    HW136137   3.765   3.560   2.639 -1.4101  1.0648 -0.1309
 8168SOL    HW236138   3.831   3.654   2.569 -1.1143 -2.9311 -0.5827
 8169SOL     OW36139   1.562   0.203   7.261 -0.3130  0.0415  0.2891
 8169SOL    HW136140   1.532   0.168   7.177 -0.5517 -0.6346  0.6554
 8169SOL    HW236141   1.615   0.129   7.291  0.6189  0.8139  0.5264
 8170SOL     OW36142   3.966   2.984   0.778 -0.6322 -0.3423  1.0482
 8170SOL    HW136143   3.995   3.050   0.841  0.3289 -0.0535  0.3087
 8170SOL    HW236144   4.050   2.950   0.748 -0.3029  0.6030  0.9037
 8171SOL     OW36145   2.830   2.198   7.990  0.1359  0.6334  0.1455
 8171SOL    HW136146   2.831   2.275   8.047 -2.8005 -0.2906  1.4181
 8171SOL    HW236147   2.918   2.195   7.951  1.0183  0.2285  2.1574
 8172SOL     OW36148   2.233   3.480   3.386  0.0086 -0.4499  0.0900
 8172SOL    HW136149   2.255   3.496   3.478 -0.3237  1.8064 -0.2155
 8172SOL    HW236150   2.179   3.403   3.402 -1.1836  0.3540 -0.0854
 8173SOL     OW36151   3.835   0.173   7.226  0.3457 -0.2681  0.5454
 8173SOL    HW136152   3.800   0.235   7.162  2.8692  1.0858  0.4888
 8173SOL    HW236153   3.775   0.168   7.300 -1.1829  0.0376 -0.6693
 8174SOL     OW36154   1.116   2.593  15.422  0.0788  0.1213 -0.1739
 8174SOL    HW136155   1.050   2.658  15.399 -0.6583 -1.8622 -3.6407
 8174SOL    HW236156   1.085   2.518  15.370  0.1479  0.5849 -0.8912
 8175SOL     OW36157   2.713   1.405   6.559 -0.0089  0.1757 -0.8360
 8175SOL    HW136158   2.769   1.456   6.617  0.3079 -2.9196  1.5761
 8175SOL    HW236159   2.685   1.332   6.615  0.9313 -0.7338 -1.5552
 8176SOL     OW36160   1.093   0.932   4.213 -0.2713  0.1168 -0.8545
 8176SOL    HW136161   1.165   0.881   4.249 -0.3968 -0.7600 -1.8438
 8176SOL    HW236162   1.082   0.899   4.123 -1.4956 -0.1839 -0.5959
 8177SOL     OW36163   1.909   4.011   9.980  0.1138 -0.6391 -0.0561
 8177SOL    HW136164   1.819   4.017  10.014 -0.2875 -1.6244 -0.9371
 8177SOL    HW236165   1.895   4.053   9.895  1.1579 -0.1699  0.0082
 8178SOL     OW36166   2.653   1.335  16.073 -0.4092 -0.3760  0.4668
 8178SOL    HW136167   2.650   1.430  16.056 -0.3633 -0.1475  1.7243
 8178SOL    HW236168   2.575   1.316  16.022  0.2875 -1.0502 -0.3375
 8179SOL     OW36169   0.937   4.298   2.501 -0.9562 -0.0768  0.4420
 8179SOL    HW136170   0.847   4.266   2.499 -0.5399 -1.3435  2.7554
 8179SOL    HW236171   0.950   4.320   2.408  0.1349 -0.1264  0.5831
 8180SOL     OW36172   0.977   3.415   1.839  0.0663  0.4471  0.5100
 8180SOL    HW136173   0.907   3.466   1.880  0.2135  2.0313 -1.2292
 8180SOL    HW236174   1.042   3.481   1.863 -1.0189  1.4868  0.5737
 8181SOL     OW36175   1.652   2.729  13.037  0.2767  0.3397  0.0400
 8181SOL    HW136176   1.601   2.803  13.002  1.3479  0.5461 -1.0558
 8181SOL    HW236177   1.695   2.705  12.955 -0.2792 -0.5346  0.0082
 8182SOL     OW36178   2.449   2.296   3.400  0.3142 -0.0224 -0.4828
 8182SOL    HW136179   2.418   2.371   3.350  1.5854  0.1916 -0.9325
 8182SOL    HW236180   2.434   2.326   3.490  4.1046  0.6735 -0.0983
 8183SOL     OW36181   0.604   4.660   4.997  0.3911 -0.2035 -0.6424
 8183SOL    HW136182   0.560   4.703   4.924 -1.3952  2.0719  1.7383
 8183SOL    HW236183   0.535   4.605   5.033  0.2545  0.9074  0.7946
 8184SOL     OW36184   0.915   0.310   0.705 -0.4888 -0.5015  0.1262
 8184SOL    HW136185   0.971   0.254   0.760 -0.1868 -0.5657 -0.2465
 8184SOL    HW236186   0.864   0.235   0.675 -0.0933 -0.8040  0.2044
 8185SOL     OW36187   2.626   2.176   2.519 -0.4464 -0.1544  0.4255
 8185SOL    HW136188   2.557   2.124   2.561 -2.0749  0.7039 -1.2078
 8185SOL    HW236189   2.619   2.160   2.425 -1.7160  0.4582  0.4109
 8186SOL     OW36190   3.879   1.326  17.690 -0.0163  0.5084  0.2357
 8186SOL    HW136191   3.792   1.352  17.718  0.4759  0.6388  1.6614
 8186SOL    HW236192   3.921   1.411  17.676 -0.2668  0.8656  1.7370
 8187SOL     OW36193   3.215   2.309   0.021  0.8094  0.0748 -0.6587
 8187SOL    HW136194   3.235   2.219  17.748  1.7484 -0.1496  0.8026
 8187SOL    HW236195   3.306   2.339   0.026  0.8791 -0.3759  0.7272
 8188SOL     OW36196   3.949   4.353  13.839  0.1351  0.3677  0.1939
 8188SOL    HW136197   4.021   4.416  13.833  0.4659 -0.0045  0.1762
 8188SOL    HW236198   3.951   4.315  13.751  0.3672  0.8962 -0.0295
 8189SOL     OW36199   4.243   2.883   8.406 -0.1747 -0.4834  0.4310
 8189SOL    HW136200   4.164   2.901   8.356 -1.0212 -1.9793  1.2306
 8189SOL    HW236201   4.301   2.878   8.330 -0.1357 -0.0252  0.4304
 8190SOL     OW36202   1.724   4.266  16.227 -0.4007 -0.0839  0.3105
 8190SOL    HW136203   1.747   4.176  16.205  0.6275  0.5181 -1.0935
 8190SOL    HW236204   1.633   4.268  16.199 -0.2840  0.2026 -0.0652
 8191SOL     OW36205   1.454   2.186   7.568  0.2223 -0.2960 -0.4534
 8191SOL    HW136206   1.434   2.216   7.656 -0.2377  0.5020 -0.8340
 8191SOL    HW236207   1.525   2.244   7.540 -0.8047  1.5703  0.7924
 8192SOL     OW36208   0.095   0.245  11.872 -0.0278 -0.1899 -0.1192
 8192SOL    HW136209   0.077   0.287  11.956 -0.7548 -1.5349  0.4000
 8192SOL    HW236210   0.055   0.160  11.891  2.6670 -1.8870 -2.0846
 8193SOL     OW36211   2.971   3.166   9.302 -0.1596  0.0238 -0.4601
 8193SOL    HW136212   2.964   3.260   9.321 -0.6557 -0.1616  0.2853
 8193SOL    HW236213   2.889   3.138   9.343  0.7464 -1.0514  0.6010
 8194SOL     OW36214   1.069   0.134   3.530 -0.6370 -0.1865  0.4438
 8194SOL    HW136215   1.065   0.047   3.571  2.6718  0.5839  2.3647
 8194SOL    HW236216   1.163   0.151   3.535 -0.3872 -1.3651 -0.2808
 8195SOL     OW36217   2.115   0.594   4.998 -0.2273  0.0014  0.8234
 8195SOL    HW136218   2.109   0.544   5.080  2.7808 -0.5432  0.7151
 8195SOL    HW236219   2.029   0.635   4.998 -1.9459 -3.6883  1.2008
 8196SOL     OW36220   2.519   4.202   5.626  0.6112 -0.1294 -0.3301
 8196SOL    HW136221   2.547   4.145   5.555  0.4204 -0.5737 -0.0520
 8196SOL    HW236222   2.565   4.281   5.598  2.2681 -0.7105  0.7759
 8197SOL     OW36223   2.918   2.743   8.931  0.1984  0.2161  0.2081
 8197SOL    HW136224   2.826   2.719   8.924  0.6271 -1.0361 -1.2315
 8197SOL    HW236225   2.914   2.790   9.014 -0.7710  1.3885 -0.5024
 8198SOL     OW36226   0.311   3.270   5.086 -0.1324  0.5677  0.4905
 8198SOL    HW136227   0.296   3.217   5.008 -2.2612  2.9786 -0.7471
 8198SOL    HW236228   0.269   3.209   5.147 -0.3557  0.7601  0.5321
 8199SOL     OW36229   2.016   1.796   6.638  0.3012 -0.3731  0.1682
 8199SOL    HW136230   1.948   1.809   6.704  0.2191  0.4407 -0.0801
 8199SOL    HW236231   1.975   1.725   6.589 -1.0176  1.9957 -2.1647
 8200SOL     OW36232   3.812   1.858  14.254 -0.2031 -0.0316 -0.4022
 8200SOL    HW136233   3.729   1.904  14.267  0.0810  0.0688  1.1682
 8200SOL    HW236234   3.818   1.813  14.339  0.3840  0.0871 -0.3797
 8201SOL     OW36235   3.739   1.756   7.204 -0.7262  0.0732 -0.0955
 8201SOL    HW136236   3.832   1.769   7.222 -0.8267  0.5207  0.1011
 8201SOL    HW236237   3.726   1.671   7.246 -0.0477  0.3343  0.6571
 8202SOL     OW36238   1.427   4.402   2.448 -0.3379 -0.1233 -0.1482
 8202SOL    HW136239   1.338   4.368   2.444 -0.8267  0.6949  3.6836
 8202SOL    HW236240   1.462   4.342   2.382 -0.9241 -1.4374  0.7490
 8203SOL     OW36241   3.394   0.091   7.328 -0.2459  0.2414  0.2109
 8203SOL    HW136242   3.431   0.133   7.250  0.2187 -1.0587 -0.2732
 8203SOL    HW236243   3.387   0.171   7.380 -1.1976 -0.5428  1.2725
 8204SOL     OW36244   2.584   3.332   5.841 -0.0441  0.4271 -0.0548
 8204SOL    HW136245   2.521   3.265   5.869 -0.7756  0.3138 -2.0354
 8204SOL    HW236246   2.658   3.292   5.887 -1.5213 -1.6020  0.5650
 8205SOL     OW36247   3.647   2.169   1.944 -0.3083 -0.4928  0.4021
 8205SOL    HW136248   3.691   2.114   2.009  0.1714  0.4189  0.8450
 8205SOL    HW236249   3.674   2.129   1.861  0.1806 -1.5998  1.0938
 8206SOL     OW36250   4.695   3.338   5.094  0.8544  0.7200  0.1333
 8206SOL    HW136251   4.722   3.406   5.156  0.7116 -0.6919  1.7448
 8206SOL    HW236252   4.623   3.308   5.149  1.6872 -0.3435  0.6351
 8207SOL     OW36253   3.669   0.391  16.103  0.7096 -0.2667  0.1271
 8207SOL    HW136254   3.678   0.356  16.192 -2.0852  0.8887  0.8656
 8207SOL    HW236255   3.724   0.468  16.115  0.1726 -0.0204  1.0263
 8208SOL     OW36256   4.544   2.292   8.112 -0.1841  0.2871 -0.3229
 8208SOL    HW136257   4.634   2.261   8.124  0.1430  1.5020  0.4430
 8208SOL    HW236258   4.526   2.335   8.196  0.0841 -0.8262  0.3157
 8209SOL     OW36259   4.175   3.390   7.076  0.3269 -0.0021 -0.2674
 8209SOL    HW136260   4.134   3.406   7.160 -2.3094 -4.1748 -0.7638
 8209SOL    HW236261   4.159   3.474   7.031 -1.8404 -0.7349 -0.8801
 8210SOL     OW36262   1.302   3.425   4.546  0.7796 -0.6068  0.1342
 8210SOL    HW136263   1.208   3.427   4.526  1.2108 -1.0970 -1.9527
 8210SOL    HW236264   1.347   3.426   4.461 -1.1519  0.6673 -0.8895
 8211SOL     OW36265   2.285   2.705   5.413 -0.4519  0.4102  0.3583
 8211SOL    HW136266   2.204   2.684   5.366 -0.1728 -0.1612  0.1411
 8211SOL    HW236267   2.277   2.798   5.437 -0.3677  0.7028 -0.7629
 8212SOL     OW36268   2.113   0.019   5.151  0.1653  0.4408  0.4219
 8212SOL    HW136269   2.088   0.035   5.242 -0.3010  0.0933  0.3534
 8212SOL    HW236270   2.206   4.736   5.156 -0.0002  0.0862  1.9551
 8213SOL     OW36271   1.790   0.991   0.060 -0.0291 -0.1205  0.1292
 8213SOL    HW136272   1.817   1.018  17.726 -1.1916 -0.4185 -0.3216
 8213SOL    HW236273   1.831   0.906   0.071 -0.7467 -0.3058  1.4045
 8214SOL     OW36274   3.346   2.895   4.903 -0.6164 -0.7522 -0.2828
 8214SOL    HW136275   3.439   2.915   4.910 -0.6817 -0.2971 -0.7598
 8214SOL    HW236276   3.334   2.865   4.813  0.5017  0.1553 -0.7402
 8215SOL     OW36277   2.234   2.238  10.471 -0.2431  0.3563 -0.0584
 8215SOL    HW136278   2.160   2.179  10.458 -0.4127  0.8752 -1.4379
 8215SOL    HW236279   2.309   2.179  10.461 -0.4234  0.3440 -1.3751
 8216SOL     OW36280   3.480   1.060   6.258 -0.1339  0.8206 -0.4188
 8216SOL    HW136281   3.400   1.084   6.304  0.0209  0.2265  0.1686
 8216SOL    HW236282   3.481   0.966   6.279 -0.3907  0.2924 -2.7390
 8217SOL     OW36283   2.211   4.309   4.455  0.6735  0.0722  0.4227
 8217SOL    HW136284   2.222   4.301   4.549  0.9362 -0.4444  0.3542
 8217SOL    HW236285   2.167   4.229   4.425 -1.0834  0.5171  1.8704
 8218SOL     OW36286   2.647   2.486  16.029  0.1595  0.6027  0.2536
 8218SOL    HW136287   2.591   2.518  16.100  0.8288 -0.1472  1.1279
 8218SOL    HW236288   2.722   2.442  16.069  0.5423  0.9346 -0.1002
 8219SOL     OW36289   2.426   3.143   5.926 -0.5064 -0.0041  0.4188
 8219SOL    HW136290   2.446   3.076   5.861  2.3593 -0.5288  1.8163
 8219SOL    HW236291   2.434   3.092   6.007 -0.7962  1.3307  1.2738
 8220SOL     OW36292   3.996   3.077  12.713 -0.4200 -0.1046  0.1721
 8220SOL    HW136293   4.038   3.008  12.765 -0.8868 -1.3452 -1.0793
 8220SOL    HW236294   3.974   3.019  12.640 -1.1417  2.4510 -1.6240
 8221SOL     OW36295   2.275   1.113  16.398  0.7198  0.0453  0.0530
 8221SOL    HW136296   2.296   1.200  16.431  0.7113  0.7563 -1.8678
 8221SOL    HW236297   2.195   1.132  16.349  1.7746  2.5291 -0.6969
 8222SOL     OW36298   4.701   3.163   9.359  0.4674  0.1194  0.8574
 8222SOL    HW136299   0.011   3.238   9.324 -1.0912  0.1006 -1.3954
 8222SOL    HW236300   0.031   3.098   9.371 -0.2216 -0.9945 -1.1336
 8223SOL     OW36301   3.185   1.881   3.622 -0.8932 -0.1931  0.0527
 8223SOL    HW136302   3.272   1.896   3.661 -0.5276  0.6468 -1.1177
 8223SOL    HW236303   3.142   1.828   3.690 -1.0558 -0.7576 -0.4861
 8224SOL     OW36304   1.611   2.080   5.928  0.0445  1.2010  0.0061
 8224SOL    HW136305   1.679   2.111   5.869  0.2745  0.7375  0.0296
 8224SOL    HW236306   1.659   2.086   6.010 -0.9037  0.8683  0.5981
 8225SOL     OW36307   3.332   4.549   7.382 -0.0950  0.0008  0.1395
 8225SOL    HW136308   3.420   4.552   7.344 -0.3317 -1.0278 -0.4909
 8225SOL    HW236309   3.310   4.641   7.366 -0.4735 -0.1154  0.0085
 8226SOL     OW36310   1.317   1.762   6.891  0.5860 -0.1974 -0.6240
 8226SOL    HW136311   1.257   1.786   6.820  0.0931 -0.9644 -0.4645
 8226SOL    HW236312   1.260   1.757   6.967  1.9557 -0.9375  0.3539
 8227SOL     OW36313   1.797   2.806   8.631 -0.2944 -0.0048  0.6016
 8227SOL    HW136314   1.834   2.851   8.554 -1.9512  0.9537  0.3679
 8227SOL    HW236315   1.866   2.746   8.659 -1.4127 -1.6510 -0.1792
 8228SOL     OW36316   2.341   3.790   6.742  0.6663 -0.0738  0.5846
 8228SOL    HW136317   2.321   3.745   6.824  1.9171  1.9882  2.0288
 8228SOL    HW236318   2.421   3.842   6.752  0.0727  0.7935  0.8539
 8229SOL     OW36319   4.104   0.344   2.501  0.7386 -0.2539 -0.0776
 8229SOL    HW136320   4.046   0.399   2.449 -0.9563 -0.2020  1.8460
 8229SOL    HW236321   4.126   0.409   2.568 -3.5214  0.7978  0.3014
 8230SOL     OW36322   1.114   1.685   5.553 -0.2716  0.1767  0.3221
 8230SOL    HW136323   1.148   1.597   5.534 -0.8256 -0.2103  1.1319
 8230SOL    HW236324   1.192   1.735   5.529 -0.1982  0.6030  1.4456
 8231SOL     OW36325   4.238   3.814   5.430 -0.2856 -0.3644  0.2113
 8231SOL    HW136326   4.322   3.821   5.384 -0.0264  0.6845  0.8321
 8231SOL    HW236327   4.187   3.884   5.389 -0.5319  0.3163  1.7095
 8232SOL     OW36328   2.025   4.218   2.868 -0.3889 -0.1247  0.1320
 8232SOL    HW136329   2.055   4.234   2.957 -0.5157 -1.7953  0.4766
 8232SOL    HW236330   1.964   4.144   2.876  1.1173 -1.2062  1.5121
 8233SOL     OW36331   0.805   0.026   6.912 -0.8466 -0.1906 -0.1672
 8233SOL    HW136332   0.739   0.007   6.845 -0.8549  2.3702 -0.8808
 8233SOL    HW236333   0.881   4.716   6.880  0.1260  0.3983  1.2225
 8234SOL     OW36334   2.760   3.697   3.056  0.0433  0.2427  0.0691
 8234SOL    HW136335   2.854   3.715   3.060  0.1342 -0.4932  1.3958
 8234SOL    HW236336   2.730   3.696   3.147 -0.1113 -3.1113 -0.0298
 8235SOL     OW36337   4.462   4.237   0.940 -0.1870  0.7705 -0.4681
 8235SOL    HW136338   4.511   4.212   1.018  1.1450  0.0795 -1.5161
 8235SOL    HW236339   4.411   4.315   0.964 -2.7183 -1.9680  3.0220
 8236SOL     OW36340   1.456   2.437   2.949  0.1719 -0.2206 -0.1418
 8236SOL    HW136341   1.371   2.423   2.991  1.8090 -0.3360  3.1349
 8236SOL    HW236342   1.445   2.410   2.858 -2.1149 -0.8364  0.3159
 8237SOL     OW36343   2.151   4.289  11.179  0.6569  0.2227  0.0270
 8237SOL    HW136344   2.125   4.331  11.260  0.1202 -0.1093  0.0190
 8237SOL    HW236345   2.201   4.361  11.139 -0.7389  0.6417 -0.9598
 8238SOL     OW36346   3.111   2.593   7.624  0.0781 -0.5522 -0.2779
 8238SOL    HW136347   3.074   2.541   7.696  1.6994  0.2683  1.1413
 8238SOL    HW236348   3.105   2.527   7.555  1.1909 -2.4273  1.3965
 8239SOL     OW36349   1.629   0.691   7.040 -0.0673  0.1583  0.3805
 8239SOL    HW136350   1.655   0.696   6.948  0.2992  3.2362  0.6625
 8239SOL    HW236351   1.553   0.634   7.025  0.2316 -0.7502  2.3374
 8240SOL     OW36352   0.907   1.352  12.493  0.4249 -0.4255  0.5232
 8240SOL    HW136353   0.863   1.413  12.552 -0.3309 -0.8128  0.3551
 8240SOL    HW236354   0.946   1.416  12.432  0.6640 -0.0636  1.0507
 8241SOL     OW36355   2.319   0.021  12.429  0.4864 -0.2135 -0.3074
 8241SOL    HW136356   2.396   0.075  12.412  0.0882  0.5357  0.2728
 8241SOL    HW236357   2.284   0.016  12.340 -0.5758 -0.9622  0.1495
 8242SOL     OW36358   0.001   1.765   8.232 -0.2701  0.0452 -0.2934
 8242SOL    HW136359   0.048   1.848   8.241 -0.6669  0.3680 -1.1681
 8242SOL    HW236360   0.041   1.721   8.307 -3.5827  1.2600  2.1581
 8243SOL     OW36361   3.131   3.851   5.542 -0.1214 -0.3031  0.3915
 8243SOL    HW136362   3.064   3.906   5.581 -2.7897 -1.8214 -2.0646
 8243SOL    HW236363   3.108   3.766   5.580  1.9610 -1.3033 -0.5498
 8244SOL     OW36364   1.522   1.233  15.060 -0.0519  0.1436 -0.4495
 8244SOL    HW136365   1.510   1.317  15.015  0.3377  1.5226  2.0479
 8244SOL    HW236366   1.614   1.229  15.032 -0.2837  1.5599 -1.4499
 8245SOL     OW36367   4.363   2.272  16.818 -0.3340  0.0360  0.2104
 8245SOL    HW136368   4.418   2.203  16.782 -0.1484 -0.7688  2.0801
 8245SOL    HW236369   4.311   2.300  16.742  1.9396 -1.2013 -1.7639
 8246SOL     OW36370   0.182   0.301  15.043  0.0638  0.2177  0.0155
 8246SOL    HW136371   0.184   0.290  14.948 -2.1280 -1.1237  0.1342
 8246SOL    HW236372   0.277   0.311  15.053 -0.1173  0.5005  1.4808
 8247SOL     OW36373   3.882   0.235   1.438 -0.3998 -0.2910  1.1384
 8247SOL    HW136374   3.844   0.152   1.468 -1.6481 -0.7888 -1.7733
 8247SOL    HW236375   3.806   0.271   1.393  0.1854  0.4184  0.7258
 8248SOL     OW36376   0.348   2.760   3.001 -0.1087 -0.1021 -0.2401
 8248SOL    HW136377   0.348   2.810   2.920 -0.6835 -0.9587 -0.7661
 8248SOL    HW236378   0.375   2.674   2.969 -0.8835 -0.2040 -0.6104
 8249SOL     OW36379   2.096   2.145   8.558  0.3249 -0.0741 -0.2032
 8249SOL    HW136380   2.113   2.152   8.652  0.7227  2.4116 -0.4634
 8249SOL    HW236381   2.168   2.091   8.525 -0.5203 -1.2291 -0.1797
 8250SOL     OW36382   1.374   3.669   6.650  0.4238 -0.6351  0.9180
 8250SOL    HW136383   1.318   3.666   6.727 -2.3948  0.7127 -1.0768
 8250SOL    HW236384   1.310   3.703   6.587  1.4715 -0.1636  0.1206
 8251SOL     OW36385   3.910   2.264   6.607  0.0744  0.2351 -0.2268
 8251SOL    HW136386   3.975   2.201   6.638 -0.6938  0.4216  1.7601
 8251SOL    HW236387   3.866   2.209   6.541  1.2953  1.0469 -1.7121
 8252SOL     OW36388   4.263   3.864   0.101  0.1712  0.6398 -0.6349
 8252SOL    HW136389   4.356   3.867   0.079  0.1588  1.4501 -0.5901
 8252SOL    HW236390   4.257   3.951   0.140  0.6432  0.7587 -0.8299
 8253SOL     OW36391   3.608   0.243  13.893  0.0578  0.8319  0.3723
 8253SOL    HW136392   3.669   0.180  13.931  0.0776 -0.1688 -1.3401
 8253SOL    HW236393   3.619   0.226  13.799 -0.0579 -1.1579  0.7387
 8254SOL     OW36394   2.823   4.246   2.832 -0.1946 -0.0915 -0.4679
 8254SOL    HW136395   2.841   4.231   2.925  0.8065  2.1755 -0.3121
 8254SOL    HW236396   2.878   4.323   2.818 -2.2462  1.3566 -0.5945
 8255SOL     OW36397   3.326   3.557   8.150 -0.7660  0.4747 -1.0541
 8255SOL    HW136398   3.272   3.631   8.123 -0.6728  0.0464 -2.4128
 8255SOL    HW236399   3.278   3.521   8.225  0.5203 -0.0029 -0.4665
 8256SOL     OW36400   4.541   3.715   7.797  0.2022  0.3897 -0.2185
 8256SOL    HW136401   4.620   3.762   7.770 -1.0025  2.2211 -0.6073
 8256SOL    HW236402   4.549   3.727   7.892 -1.4666  2.7741 -0.3699
 8257SOL     OW36403   0.648   3.719  13.103  0.1703 -0.3905 -0.8470
 8257SOL    HW136404   0.702   3.798  13.097 -0.8467  0.3024 -1.0457
 8257SOL    HW236405   0.720   3.659  13.121  0.5086  0.6650  1.3325
 8258SOL     OW36406   0.553   2.076  17.648  0.5116  0.2481 -0.1882
 8258SOL    HW136407   0.631   2.122  17.618  0.1448  0.8661 -0.1950
 8258SOL    HW236408   0.491   2.098  17.579 -1.3596 -0.4342  1.2866
 8259SOL     OW36409   2.482   4.448   1.265  0.0087  0.4694 -0.1875
 8259SOL    HW136410   2.516   4.361   1.249  1.3219  0.8130  0.8138
 8259SOL    HW236411   2.423   4.441   1.340 -0.6479  0.1503 -0.7294
 8260SOL     OW36412   1.681   0.642   5.417 -0.5118 -0.2495  0.5519
 8260SOL    HW136413   1.713   0.590   5.342 -3.4877  0.7607 -1.4110
 8260SOL    HW236414   1.767   0.668   5.449 -1.5340 -0.5160  3.4664
 8261SOL     OW36415   1.938   2.725   4.879 -0.0956 -0.0898 -0.1466
 8261SOL    HW136416   1.947   2.678   4.796  1.7785 -0.7898  0.4621
 8261SOL    HW236417   2.022   2.770   4.884 -0.7122  1.0170  0.3589
 8262SOL     OW36418   0.290   1.641   5.281  0.3853  0.6603  0.3253
 8262SOL    HW136419   0.334   1.561   5.308 -0.7295 -0.2976 -0.6761
 8262SOL    HW236420   0.369   1.695   5.272 -0.4120  1.7421 -0.3270
 8263SOL     OW36421   2.271   4.458   5.300 -0.4880  0.5160 -0.0573
 8263SOL    HW136422   2.274   4.517   5.224  1.0915 -1.3326 -1.4626
 8263SOL    HW236423   2.195   4.409   5.270  1.5206 -2.0693 -0.9256
 8264SOL     OW36424   0.880   2.878   4.880 -0.0839  0.1708 -0.1172
 8264SOL    HW136425   0.967   2.875   4.918 -2.0984 -1.6062  4.4203
 8264SOL    HW236426   0.888   2.813   4.810 -3.5797 -1.5287  1.0385
 8265SOL     OW36427   4.550   2.602  14.421 -0.5041  0.4589  0.2753
 8265SOL    HW136428   4.473   2.545  14.430 -2.1039  2.6582  0.4878
 8265SOL    HW236429   4.601   2.573  14.497 -3.2835 -3.5602  0.6504
 8266SOL     OW36430   0.177   4.572   2.781 -0.5852 -0.4295 -0.8775
 8266SOL    HW136431   0.109   4.620   2.735 -2.5150 -1.3490  1.0405
 8266SOL    HW236432   0.206   4.645   2.836 -1.7735 -0.6981  0.1102
 8267SOL     OW36433   3.953   3.196   3.333 -0.4386  0.6474  0.4010
 8267SOL    HW136434   4.034   3.183   3.283 -0.8800 -2.6518  0.5818
 8267SOL    HW236435   3.950   3.115   3.384 -0.7344  0.6589  0.4015
 8268SOL     OW36436   1.866   4.472   0.163 -0.0658  0.0262 -0.1832
 8268SOL    HW136437   1.891   4.433   0.246 -0.8287 -0.1491 -0.0341
 8268SOL    HW236438   1.937   4.455   0.100 -0.6164 -1.9283 -0.2729
 8269SOL     OW36439   2.954   0.607   5.819  0.1559 -0.1232  0.4059
 8269SOL    HW136440   2.925   0.670   5.885  0.1872 -1.1651  1.4249
 8269SOL    HW236441   2.987   0.667   5.752 -0.6876  1.0622  1.0524
 8270SOL     OW36442   0.294   3.052  17.560  0.6046 -0.4035 -0.1156
 8270SOL    HW136443   0.301   3.089  17.648 -3.0342 -0.8665  0.3636
 8270SOL    HW236444   0.304   3.130  17.505 -1.5543  0.2536  0.4502
 8271SOL     OW36445   2.030   2.921   6.560  0.4597 -0.1502  0.0049
 8271SOL    HW136446   2.113   2.945   6.601  1.2361 -0.4071 -1.4240
 8271SOL    HW236447   1.983   2.998   6.592 -0.3072 -0.5536 -0.1610
 8272SOL     OW36448   0.151   3.871   2.651 -0.1736 -0.6233  0.2823
 8272SOL    HW136449   0.198   3.935   2.705 -0.3676 -0.1949 -0.0523
 8272SOL    HW236450   0.067   3.881   2.695 -0.1724 -1.9965  0.5904
 8273SOL     OW36451   0.095   2.651   6.860 -0.0450 -0.2227  0.0790
 8273SOL    HW136452   0.153   2.710   6.908 -1.7858 -0.4101  2.3839
 8273SOL    HW236453   0.081   2.587   6.930  1.7068 -3.3284 -2.3945
 8274SOL     OW36454   0.478   3.931   9.694  0.1622  0.2314  0.6398
 8274SOL    HW136455   0.540   3.874   9.648  0.9137  0.5334  1.2656
 8274SOL    HW236456   0.516   3.946   9.781 -2.0172  2.2937  1.2349
 8275SOL     OW36457   2.722   0.506  10.285 -0.6249 -0.2484  0.3235
 8275SOL    HW136458   2.750   0.497  10.376  0.9070  3.6429  0.2546
 8275SOL    HW236459   2.795   0.558  10.250 -0.1532 -0.4425  1.0129
 8276SOL     OW36460   2.977   3.045   7.007 -0.4668  0.4270 -0.2277
 8276SOL    HW136461   3.014   3.013   6.925  0.3465  0.6772  0.0444
 8276SOL    HW236462   2.900   3.080   6.963 -0.3806  1.0690  0.1299
 8277SOL     OW36463   0.335   1.998   8.947  0.1240  0.2021  0.1710
 8277SOL    HW136464   0.335   2.094   8.949  0.0083  0.2053  0.0036
 8277SOL    HW236465   0.290   1.985   9.031 -0.3958  2.9829  0.3233
 8278SOL     OW36466   2.880   1.992   5.140 -0.0132 -0.2613 -0.0339
 8278SOL    HW136467   2.899   2.039   5.221 -1.4788 -1.3159  0.9240
 8278SOL    HW236468   2.901   2.057   5.074 -0.9472 -0.0123 -0.0911
 8279SOL     OW36469   1.944   2.130   4.199  0.1427  0.0480 -0.0967
 8279SOL    HW136470   1.903   2.216   4.186  1.1616  0.1260 -2.5979
 8279SOL    HW236471   1.898   2.078   4.133  0.7856 -0.1009 -0.4246
 8280SOL     OW36472   0.063   3.064   3.620  0.4031  0.5326  0.6604
 8280SOL    HW136473   0.120   3.134   3.588 -0.0021  0.0973 -1.0098
 8280SOL    HW236474   0.056   3.093   3.712 -2.2068  2.2933 -0.0663
 8281SOL     OW36475   2.065   1.161   2.757 -0.3843 -0.1215 -0.4964
 8281SOL    HW136476   2.083   1.144   2.849  2.1698  1.3602 -0.7090
 8281SOL    HW236477   2.084   1.255   2.753  1.5305 -0.5138 -0.9675
 8282SOL     OW36478   4.261   4.188   8.913  0.1363 -0.0972 -0.1228
 8282SOL    HW136479   4.354   4.200   8.896 -0.2891  2.8024 -0.3759
 8282SOL    HW236480   4.226   4.251   8.850  2.9417  0.5432 -1.0526
 8283SOL     OW36481   4.585   1.913   6.688 -0.1907 -0.0665 -0.3702
 8283SOL    HW136482   4.553   1.829   6.656  1.2150 -0.6314 -0.3290
 8283SOL    HW236483   4.505   1.960   6.709  0.2678  0.3006  0.5562
 8284SOL     OW36484   2.705   2.013   2.003 -0.2317 -0.2952 -0.8189
 8284SOL    HW136485   2.662   2.021   1.917 -1.8943 -0.5904 -0.0113
 8284SOL    HW236486   2.725   2.105   2.020 -2.6968  0.1538 -0.3866
 8285SOL     OW36487   0.380   2.482  10.162 -0.1162  0.3052  0.4006
 8285SOL    HW136488   0.462   2.432  10.157 -0.2952  0.1115 -0.6629
 8285SOL    HW236489   0.360   2.480  10.069  0.7721 -2.5955  0.2539
 8286SOL     OW36490   2.110   0.330   6.400 -0.5294 -0.0704 -0.4540
 8286SOL    HW136491   2.092   0.241   6.369 -1.9066  0.2614 -0.6221
 8286SOL    HW236492   2.089   0.311   6.491 -0.2953  0.9717 -0.1814
 8287SOL     OW36493   2.748   4.676   2.539  0.0452 -0.3123 -0.2038
 8287SOL    HW136494   2.677   4.616   2.561  0.6926 -1.6355 -1.6932
 8287SOL    HW236495   2.760   4.663   2.445  2.8987  1.9937 -0.1614
 8288SOL     OW36496   4.454   0.984   5.361 -0.5113  0.3334 -0.0346
 8288SOL    HW136497   4.420   1.049   5.299  0.0244 -1.2269 -1.9625
 8288SOL    HW236498   4.425   1.018   5.445  0.3860  2.3674 -0.5274
 8289SOL     OW36499   2.381   1.415   8.464 -0.1101  0.1498 -0.9873
 8289SOL    HW136500   2.469   1.451   8.477  0.4023 -1.2628 -0.6298
 8289SOL    HW236501   2.380   1.340   8.523  0.1054 -0.7077 -2.0910
 8290SOL     OW36502   4.443   3.384   0.109  0.4100  0.4014 -0.4388
 8290SOL    HW136503   4.353   3.379   0.078  0.6958  0.3879 -1.2463
 8290SOL    HW236504   4.421   3.447   0.178  0.1906  0.2480 -0.3660
 8291SOL     OW36505   2.959   4.608   1.445 -0.3721 -0.1450  0.2769
 8291SOL    HW136506   2.934   4.519   1.470 -1.2661  0.4117  1.3465
 8291SOL    HW236507   2.997   4.648   1.522 -2.0695  0.0248  1.0151
 8292SOL     OW36508   0.410   0.915   5.422  0.1221  0.1411 -0.7740
 8292SOL    HW136509   0.405   0.836   5.370  2.1848  0.1608 -1.0004
 8292SOL    HW236510   0.430   0.873   5.506 -1.2876  0.2179 -0.3983
 8293SOL     OW36511   1.286   3.619  12.194  0.1063  0.0224  0.3208
 8293SOL    HW136512   1.279   3.529  12.224  1.8983 -0.7260 -1.5861
 8293SOL    HW236513   1.367   3.645  12.239 -0.1421  1.0850  0.1501
 8294SOL     OW36514   0.717   4.096  11.908 -0.2137 -0.2830 -0.0547
 8294SOL    HW136515   0.731   4.004  11.886 -3.0015 -0.6275 -0.4007
 8294SOL    HW236516   0.734   4.134  11.822 -1.0899  0.7739  0.2366
 8295SOL     OW36517   2.856   3.656  16.967 -0.1451 -0.2252 -0.5798
 8295SOL    HW136518   2.767   3.662  16.935 -0.1916  1.8714 -0.0371
 8295SOL    HW236519   2.884   3.566  16.948  2.4034  0.5372 -0.5458
 8296SOL     OW36520   3.040   2.753   9.362 -0.0403 -0.4017 -0.2909
 8296SOL    HW136521   2.968   2.709   9.407  0.9299 -0.4757  1.1602
 8296SOL    HW236522   3.093   2.788   9.434 -1.0529  1.9471 -0.6892
 8297SOL     OW36523   4.295   3.963   6.257  0.0162  0.2023 -0.2079
 8297SOL    HW136524   4.281   3.995   6.346 -0.8178 -0.9023  0.0535
 8297SOL    HW236525   4.376   3.912   6.258  0.9978  1.7545 -1.0251
 8298SOL     OW36526   4.036   3.028  17.597 -0.2293  0.0439  0.8766
 8298SOL    HW136527   4.130   3.033  17.578 -0.5209 -0.6917 -0.7043
 8298SOL    HW236528   4.040   2.976  17.677  2.0671  0.1624  0.8303
 8299SOL     OW36529   0.677   1.272   4.703  0.6534 -0.0158  0.1656
 8299SOL    HW136530   0.756   1.234   4.665  1.3914  1.0742  0.6100
 8299SOL    HW236531   0.689   1.255   4.796 -0.8243  1.1481  0.5713
 8300SOL     OW36532   2.733   3.083   0.377  0.0822 -0.0463  0.2779
 8300SOL    HW136533   2.707   3.164   0.334  0.9671 -0.0222 -0.2204
 8300SOL    HW236534   2.821   3.100   0.410  0.6483 -1.9571 -0.2464
 8301SOL     OW36535   3.511   4.086  12.780 -0.4898 -0.3577 -0.4665
 8301SOL    HW136536   3.417   4.087  12.761 -0.5767  1.9849  0.0604
 8301SOL    HW236537   3.508   4.048  12.867 -0.2447  0.3874 -0.1355
 8302SOL     OW36538   0.100   4.194   7.095  0.3230 -0.1086  0.0140
 8302SOL    HW136539   0.183   4.162   7.132 -0.6315 -0.8410  1.5180
 8302SOL    HW236540   0.043   4.203   7.171  2.1652 -3.7576  1.8460
 8303SOL     OW36541   0.241   3.067   7.943  0.0217  0.1052 -0.8832
 8303SOL    HW136542   0.262   3.116   7.863  1.4967  0.3403 -0.3463
 8303SOL    HW236543   0.319   3.081   7.996 -1.2101  0.8733  0.7103
 8304SOL     OW36544   1.330   0.575  12.686 -0.4984  0.0036 -0.2604
 8304SOL    HW136545   1.302   0.495  12.729 -0.0605 -0.5613 -1.0363
 8304SOL    HW236546   1.352   0.554  12.596 -1.4308 -1.6311 -0.0853
 8305SOL     OW36547   2.816   2.712   7.911 -0.2800  0.1662 -0.3160
 8305SOL    HW136548   2.905   2.744   7.924 -0.8298  1.1659  0.9882
 8305SOL    HW236549   2.822   2.622   7.941  0.4309  0.6123  0.8800
 8306SOL     OW36550   2.939   4.697   3.815  0.1865 -0.1962  0.6962
 8306SOL    HW136551   2.892   0.037   3.842  0.9784 -0.0406  1.6313
 8306SOL    HW236552   3.008   0.003   3.765  0.3147  0.0391  1.0800
 8307SOL     OW36553   1.646   0.545  16.649 -0.3003 -0.4176 -0.0407
 8307SOL    HW136554   1.670   0.563  16.558  1.0836 -2.0547  0.0051
 8307SOL    HW236555   1.708   0.482  16.684  1.2656  0.9617 -0.3241
 8308SOL     OW36556   0.112   4.543   5.544  0.3705 -0.0532 -0.1227
 8308SOL    HW136557   0.102   4.636   5.524 -0.1424  0.1517  1.0517
 8308SOL    HW236558   0.033   4.496   5.517  0.9272 -1.7181  1.1822
 8309SOL     OW36559   2.158   1.374  15.784 -0.4714  0.1746  0.3766
 8309SOL    HW136560   2.142   1.385  15.878  1.4885 -0.2104  0.7643
 8309SOL    HW236561   2.225   1.441  15.772 -1.2244  0.5127 -2.0365
 8310SOL     OW36562   2.615   4.024   8.477 -0.0208 -0.0540  0.7915
 8310SOL    HW136563   2.575   4.019   8.390  1.5927 -0.3710  0.0652
 8310SOL    HW236564   2.691   4.079   8.461  0.5500 -0.6144  1.5204
 8311SOL     OW36565   2.165   4.030   9.983  0.0576  0.6093  0.0177
 8311SOL    HW136566   2.069   4.034   9.991 -0.2725 -0.8962 -3.3143
 8311SOL    HW236567   2.188   4.120  10.006 -0.5584  1.0037 -0.9099
 8312SOL     OW36568   0.597   2.414  11.633 -0.7114  0.4047  0.0196
 8312SOL    HW136569   0.667   2.400  11.697 -1.5273 -2.0360  0.4035
 8312SOL    HW236570   0.614   2.337  11.578  2.3539  0.1742  1.2822
 8313SOL     OW36571   2.144   0.475   2.707  0.2072  0.3659 -0.0862
 8313SOL    HW136572   2.061   0.522   2.704 -1.9014 -3.3320  0.2309
 8313SOL    HW236573   2.199   0.545   2.674  0.2717  0.1133 -0.5227
 8314SOL     OW36574   4.209   0.184   7.365 -0.6691 -0.7425 -0.2750
 8314SOL    HW136575   4.259   0.115   7.409 -0.3411 -0.6189 -0.4497
 8314SOL    HW236576   4.242   0.263   7.408 -0.5314 -1.0139  0.1248
 8315SOL     OW36577   2.117   2.571   2.941 -0.5128  0.6976 -0.2333
 8315SOL    HW136578   2.160   2.623   2.872 -0.5188 -0.0996 -0.8369
 8315SOL    HW236579   2.073   2.632   3.000 -0.2572 -1.1013  1.7813
 8316SOL     OW36580   0.428   2.236  14.542 -0.5817 -0.0279  0.1602
 8316SOL    HW136581   0.353   2.210  14.489  0.1849  0.4927 -1.1934
 8316SOL    HW236582   0.500   2.190  14.497  1.8110  2.3582  1.5571
 8317SOL     OW36583   3.548   0.109   2.034 -0.0641 -0.0152 -0.1542
 8317SOL    HW136584   3.555   0.017   2.009  0.2288 -0.1037  0.2562
 8317SOL    HW236585   3.637   0.123   2.067  0.0560 -1.1991  0.0010
 8318SOL     OW36586   3.277   2.583   1.586 -0.5161  0.1779 -0.5450
 8318SOL    HW136587   3.231   2.532   1.520 -0.5631  0.2594 -0.5747
 8318SOL    HW236588   3.350   2.526   1.613  0.6893  1.0804 -1.8870
 8319SOL     OW36589   3.894   1.052   2.865 -0.0506  0.2673  0.5774
 8319SOL    HW136590   3.928   1.141   2.852 -1.6594  0.8173  0.0763
 8319SOL    HW236591   3.928   1.023   2.949 -1.3964 -0.4893  0.8522
 8320SOL     OW36592   1.610   2.546   8.956 -0.3195  0.5879  0.3090
 8320SOL    HW136593   1.691   2.501   8.977 -0.6244 -0.0606  0.0807
 8320SOL    HW236594   1.605   2.582   9.045 -0.9450 -0.5047  0.7089
 8321SOL     OW36595   4.389   0.604  15.721  0.0672  0.1869  0.1625
 8321SOL    HW136596   4.343   0.558  15.791 -0.6695  1.0022  0.2142
 8321SOL    HW236597   4.359   0.548  15.650 -0.7189  0.6424  0.1385
 8322SOL     OW36598   0.622   3.106   6.715 -0.2715 -0.2011  0.2117
 8322SOL    HW136599   0.610   3.056   6.796 -2.4214 -1.1107 -0.6706
 8322SOL    HW236600   0.668   3.049   6.654 -2.9166 -1.4153 -0.6488
 8323SOL     OW36601   4.087   0.892   8.201 -0.5410  0.1897  0.0073
 8323SOL    HW136602   4.104   0.973   8.153 -1.4526 -1.1231 -2.5261
 8323SOL    HW236603   4.039   0.839   8.137  0.7507 -2.6242  1.3871
 8324SOL     OW36604   3.881   3.471   9.993  0.0605  0.4581  0.6322
 8324SOL    HW136605   3.922   3.386   9.974  1.0876  0.4470  2.9570
 8324SOL    HW236606   3.871   3.499   9.902  0.7295  0.9744  0.7232
 8325SOL     OW36607   4.687   1.626   9.894 -1.0420  0.6792 -0.2380
 8325SOL    HW136608   4.698   1.596   9.984 -1.0807  0.0896 -0.4317
 8325SOL    HW236609   4.592   1.617   9.888 -1.0340 -0.2580  0.9654
 8326SOL     OW36610   2.858   1.927   7.297 -0.3146 -1.1149  0.5086
 8326SOL    HW136611   2.891   1.980   7.225 -0.6664  1.5197  2.2635
 8326SOL    HW236612   2.933   1.880   7.333  0.5024 -0.1578  0.0575
 8327SOL     OW36613   0.619   0.425   4.928 -0.8219 -0.0134 -0.0187
 8327SOL    HW136614   0.546   0.395   4.984 -1.5388 -0.0565 -0.9783
 8327SOL    HW236615   0.659   0.339   4.912  1.0994  0.5269  1.9123
 8328SOL     OW36616   1.278   3.860   4.751  0.2207  0.6601  0.0488
 8328SOL    HW136617   1.245   3.824   4.668  0.3797  0.1384  0.2145
 8328SOL    HW236618   1.229   3.942   4.751  0.5772  0.9033 -3.5970
 8329SOL     OW36619   2.290   4.201  13.814  0.0889  0.4734 -0.3594
 8329SOL    HW136620   2.252   4.182  13.900 -1.1098 -0.4921 -1.0839
 8329SOL    HW236621   2.268   4.119  13.769  0.2759  1.1717 -1.7332
 8330SOL     OW36622   1.984   1.029   2.071  0.4875  0.0104  0.0262
 8330SOL    HW136623   2.032   1.092   2.126  0.1086  0.1443  0.2000
 8330SOL    HW236624   2.059   0.970   2.060 -0.7495 -1.3332 -1.0709
 8331SOL     OW36625   4.207   0.537   5.058 -0.2929 -0.5840 -0.6870
 8331SOL    HW136626   4.119   0.501   5.072 -0.0972 -1.1510 -0.9011
 8331SOL    HW236627   4.222   0.578   5.143 -0.2523 -0.9058 -0.5374
 8332SOL     OW36628   4.389   2.238  16.127  0.3608 -0.0236 -0.9430
 8332SOL    HW136629   4.388   2.287  16.045 -0.8213  1.0963 -0.2652
 8332SOL    HW236630   4.381   2.310  16.190 -1.3552  0.0549 -1.2321
 8333SOL     OW36631   1.992   0.575  14.668  0.6781  0.1840 -0.1013
 8333SOL    HW136632   1.924   0.513  14.693 -0.3807  1.2403 -0.3426
 8333SOL    HW236633   2.050   0.560  14.743 -1.8163  0.0818  1.8006
 8334SOL     OW36634   1.300   4.139  14.914  0.2429  0.2624 -0.2287
 8334SOL    HW136635   1.286   4.047  14.934  1.1004 -0.0969 -1.2498
 8334SOL    HW236636   1.245   4.180  14.981  1.2880  0.7230  0.3438
 8335SOL     OW36637   1.588   3.083   4.329  0.0905  0.4676  0.2348
 8335SOL    HW136638   1.557   3.005   4.375  2.6144 -1.1971 -0.9425
 8335SOL    HW236639   1.613   3.132   4.406  2.7113  1.7748 -1.4529
 8336SOL     OW36640   0.281   0.491   9.222 -0.7501 -0.3362  0.0773
 8336SOL    HW136641   0.270   0.406   9.179  2.3986 -0.4077 -0.5907
 8336SOL    HW236642   0.251   0.477   9.312  1.5225 -0.7210  0.7848
 8337SOL     OW36643   4.362   1.865   6.062  0.4874  0.2541 -0.0811
 8337SOL    HW136644   4.393   1.899   5.978 -0.8890 -1.2426 -1.1845
 8337SOL    HW236645   4.305   1.939   6.086 -0.4492 -0.5451  0.1662
 8338SOL     OW36646   0.239   0.488   3.665 -0.2249  0.2945  0.4360
 8338SOL    HW136647   0.192   0.507   3.583  0.3725 -0.9423 -0.1915
 8338SOL    HW236648   0.183   0.422   3.706 -0.4557 -0.6650 -1.4103
 8339SOL     OW36649   2.329   2.421   8.439  0.3001  0.0018 -0.3700
 8339SOL    HW136650   2.364   2.337   8.407 -1.8241 -1.1237  0.2688
 8339SOL    HW236651   2.335   2.471   8.358 -0.5802  0.5430 -0.0937
 8340SOL     OW36652   4.026   3.517  10.464 -0.0791  0.1075 -0.6707
 8340SOL    HW136653   4.021   3.516  10.368 -0.0707  0.3780 -0.6738
 8340SOL    HW236654   4.045   3.611  10.473  0.7593 -0.1479  0.1965
 8341SOL     OW36655   3.895   3.195  17.439 -0.2961  0.0082  0.4978
 8341SOL    HW136656   3.962   3.255  17.407  0.7995 -0.9192  1.0675
 8341SOL    HW236657   3.944   3.119  17.471  2.5325  1.2024 -0.9434
 8342SOL     OW36658   4.710   0.126   4.108 -0.1979  0.5826  0.0811
 8342SOL    HW136659   0.020   0.091   4.034 -2.3592 -0.5073 -0.8122
 8342SOL    HW236660   0.021   0.100   4.185 -0.5567  0.7778  0.3798
 8343SOL     OW36661   3.922   0.515   5.604  0.3444 -0.1484 -0.1722
 8343SOL    HW136662   3.999   0.524   5.547  0.6639  2.4532  0.6441
 8343SOL    HW236663   3.908   0.599   5.649  0.8367 -0.8434  1.2841
 8344SOL     OW36664   0.327   2.618  13.448  0.1464 -0.2028  0.4661
 8344SOL    HW136665   0.389   2.657  13.510  1.1448  0.0043 -0.6591
 8344SOL    HW236666   0.244   2.660  13.468 -1.1803 -1.8169 -1.6930
 8345SOL     OW36667   3.098   0.114   7.485 -0.0129  0.3926  0.1723
 8345SOL    HW136668   3.019   0.146   7.441  0.5463 -1.3090 -2.0661
 8345SOL    HW236669   3.147   0.195   7.500 -0.7133  1.2848 -2.4178
 8346SOL     OW36670   3.003   1.882   2.204 -0.1472  0.2033 -0.3770
 8346SOL    HW136671   3.038   1.863   2.291  1.1494  0.5740 -0.8197
 8346SOL    HW236672   2.917   1.922   2.221 -1.8708 -3.1751 -1.3339
 8347SOL     OW36673   2.441   0.774   4.992 -0.2048 -0.4566 -0.1527
 8347SOL    HW136674   2.463   0.810   4.906 -2.3929  0.9650 -0.1184
 8347SOL    HW236675   2.353   0.810   5.004 -0.1739 -0.1571 -0.8373
 8348SOL     OW36676   0.692   2.594   8.851 -0.3321 -0.5922 -0.1732
 8348SOL    HW136677   0.752   2.668   8.855 -0.4960 -0.6348  3.0932
 8348SOL    HW236678   0.623   2.628   8.908  0.5980 -1.2542  1.3503
 8349SOL     OW36679   2.382   1.350  16.236 -0.1165 -0.0112  0.3490
 8349SOL    HW136680   2.446   1.368  16.306 -1.3188  4.0894  0.3846
 8349SOL    HW236681   2.432   1.297  16.174 -0.1966 -0.5395  0.7337
 8350SOL     OW36682   0.856   4.221  12.112  0.1392 -0.3735  0.1014
 8350SOL    HW136683   0.799   4.173  12.052 -0.8593  0.8093  0.1034
 8350SOL    HW236684   0.937   4.191  12.072  0.2631 -1.4381  1.1552
 8351SOL     OW36685   1.011   1.823   6.371 -0.6026 -0.2417 -0.9131
 8351SOL    HW136686   0.922   1.855   6.361 -0.6747  0.4530  2.1326
 8351SOL    HW236687   1.056   1.900   6.337  2.2404 -1.3964  0.1776
 8352SOL     OW36688   2.323   1.459  12.839  0.1194 -0.0694  0.0405
 8352SOL    HW136689   2.303   1.380  12.889 -1.4219 -1.1512 -2.3255
 8352SOL    HW236690   2.355   1.415  12.761  1.3634  0.0952  0.4558
 8353SOL     OW36691   0.954   3.079   5.495 -0.5910 -0.3437 -0.6324
 8353SOL    HW136692   1.027   3.021   5.473  0.3721  0.4622  0.4247
 8353SOL    HW236693   0.879   3.036   5.455 -2.1355  0.2408  1.6111
 8354SOL     OW36694   0.768   3.928  12.960  0.3404  0.1538 -0.3254
 8354SOL    HW136695   0.783   3.893  12.873 -0.8805 -0.1556 -0.4092
 8354SOL    HW236696   0.836   3.996  12.966  0.1429  0.2368  1.1701
 8355SOL     OW36697   1.966   3.813   2.275  0.4664  0.0739  0.2028
 8355SOL    HW136698   1.952   3.774   2.361  0.4111 -0.2800  0.0337
 8355SOL    HW236699   2.023   3.888   2.294  0.9925  0.0117 -1.1260
 8356SOL     OW36700   0.626   4.395   0.650 -0.1356  0.5294  0.0220
 8356SOL    HW136701   0.578   4.312   0.645  0.9376 -0.1470  0.9696
 8356SOL    HW236702   0.610   4.434   0.564  2.7549 -0.0995 -0.8026
 8357SOL     OW36703   1.958   1.252  11.986  0.6319 -0.1411 -0.0171
 8357SOL    HW136704   1.931   1.164  11.959  2.6958 -1.0136  0.7704
 8357SOL    HW236705   1.907   1.252  12.067 -0.3104  1.4305 -0.6068
 8358SOL     OW36706   3.042   3.102   6.206 -0.0489  0.2406  1.1903
 8358SOL    HW136707   2.982   3.097   6.281 -0.2625  3.4395  1.2412
 8358SOL    HW236708   3.003   3.029   6.157  1.7867 -0.0465  0.1727
 8359SOL     OW36709   0.273   4.711   7.477  0.3428  0.0253  0.4298
 8359SOL    HW136710   0.271   0.055   7.429  0.2406  1.3094  2.6337
 8359SOL    HW236711   0.246   4.651   7.408 -2.5058 -0.7144  2.2157
 8360SOL     OW36712   1.187   1.448   4.159 -0.7687 -0.1058 -0.9692
 8360SOL    HW136713   1.149   1.446   4.072  0.9683 -0.2783 -1.7287
 8360SOL    HW236714   1.115   1.490   4.205  0.6184  1.0302  0.1888
 8361SOL     OW36715   3.122   2.758   6.538  0.1837 -0.3330 -0.5610
 8361SOL    HW136716   3.174   2.784   6.461  1.2145  1.9604  0.9199
 8361SOL    HW236717   3.185   2.719   6.598 -1.1766 -1.1718  0.3122
 8362SOL     OW36718   3.375   1.849   5.202 -0.0437  0.0144 -0.4510
 8362SOL    HW136719   3.388   1.758   5.228  1.0033 -0.0972 -1.3945
 8362SOL    HW236720   3.319   1.846   5.124 -0.6117 -2.4543  0.0541
 8363SOL     OW36721   3.593   2.071   7.314 -0.0555  0.1917  0.2907
 8363SOL    HW136722   3.661   2.124   7.273 -0.7175  2.2063  1.8177
 8363SOL    HW236723   3.649   2.001   7.350 -0.7711  1.2217  3.4145
 8364SOL     OW36724   2.646   3.649  14.360 -0.0470 -0.0759  0.1032
 8364SOL    HW136725   2.731   3.640  14.402 -0.0126 -1.2809 -0.2100
 8364SOL    HW236726   2.607   3.572  14.401  2.8095 -1.4947  0.1479
 8365SOL     OW36727   2.415   2.465   7.180 -0.4475  0.0738 -0.3053
 8365SOL    HW136728   2.505   2.447   7.154 -1.4003 -3.2439 -1.2920
 8365SOL    HW236729   2.431   2.463   7.274 -0.1833  0.2002 -0.3479
 8366SOL     OW36730   1.378   2.868   8.944 -0.0062 -0.0662  0.7072
 8366SOL    HW136731   1.439   2.935   8.913 -0.0793  0.3881  1.5529
 8366SOL    HW236732   1.345   2.908   9.024 -0.8973  3.3876 -1.3872
 8367SOL     OW36733   1.213   0.218   3.835  0.4151  0.4004  0.9677
 8367SOL    HW136734   1.243   0.213   3.744 -1.6853  1.6646  0.2101
 8367SOL    HW236735   1.242   0.131   3.865  0.1724  0.2305  0.7147
 8368SOL     OW36736   0.888   0.564   4.784 -0.3639 -0.0359  0.1763
 8368SOL    HW136737   0.799   0.530   4.785  1.0310 -3.5717  2.5419
 8368SOL    HW236738   0.929   0.514   4.713  2.1145  1.1143  0.7866
 8369SOL     OW36739   4.625   0.452   8.259 -0.1376  0.1405  0.2962
 8369SOL    HW136740   4.580   0.536   8.263 -0.4390  0.0629 -1.6749
 8369SOL    HW236741   4.713   0.477   8.285  0.3935 -1.6888  0.2513
 8370SOL     OW36742   1.263   4.036   6.497 -0.0395 -0.0666  0.1029
 8370SOL    HW136743   1.212   4.018   6.419  1.4585  0.9276 -1.1032
 8370SOL    HW236744   1.283   4.122   6.460  3.6040 -1.9881 -2.3721
 8371SOL     OW36745   0.486   4.115  15.402 -0.0542  0.2424 -0.0659
 8371SOL    HW136746   0.525   4.111  15.315 -1.0577 -1.0203 -0.4728
 8371SOL    HW236747   0.396   4.120  15.369  0.5913 -0.1301 -1.9181
 8372SOL     OW36748   0.832   3.250   0.655  0.1627 -0.2950 -0.0503
 8372SOL    HW136749   0.916   3.245   0.610  0.8254  1.6513  0.9394
 8372SOL    HW236750   0.789   3.320   0.605  0.3091  1.0743  1.7398
 8373SOL     OW36751   4.336   4.553   4.289  0.1210  0.6415 -0.0243
 8373SOL    HW136752   4.373   4.575   4.204  0.3398  0.1703 -0.0504
 8373SOL    HW236753   4.256   4.605   4.286 -0.0126  0.4396 -0.0295
 8374SOL     OW36754   4.702   1.903   1.846 -0.1395 -0.2017 -0.0297
 8374SOL    HW136755   0.050   1.912   1.807 -0.0894  2.1589  0.5908
 8374SOL    HW236756   4.698   1.990   1.885  1.9126  0.5730 -1.5363
 8375SOL     OW36757   1.285   3.584   5.552 -0.2414 -0.5071 -0.0914
 8375SOL    HW136758   1.208   3.639   5.567 -0.7954 -1.3230  0.0412
 8375SOL    HW236759   1.344   3.617   5.620 -1.6484  2.8838 -0.5015
 8376SOL     OW36760   0.763   0.783  15.776 -0.3217  0.0224 -0.7270
 8376SOL    HW136761   0.715   0.843  15.833  0.6396 -0.4507  0.5816
 8376SOL    HW236762   0.772   0.844  15.703 -0.0491 -0.7500 -1.3389
 8377SOL     OW36763   4.500   1.678   4.888  0.1766  0.5751 -0.2706
 8377SOL    HW136764   4.515   1.612   4.821  1.2493  0.5797 -0.0344
 8377SOL    HW236765   4.529   1.763   4.854 -0.3461  0.1633 -1.7211
 8378SOL     OW36766   2.669   1.838   4.126  0.5301  0.0622  0.3039
 8378SOL    HW136767   2.693   1.928   4.146  0.9179  0.6722 -2.8227
 8378SOL    HW236768   2.648   1.843   4.033  3.1528  0.3441 -0.2757
 8379SOL     OW36769   3.425   1.873   8.214 -0.1468  0.3566 -0.5541
 8379SOL    HW136770   3.450   1.809   8.147  0.1506 -0.4571  0.3421
 8379SOL    HW236771   3.388   1.950   8.170  0.3606  1.5701  1.1681
 8380SOL     OW36772   3.870   0.039   6.114  0.1496  0.3933  0.2691
 8380SOL    HW136773   3.889   4.701   6.062 -0.8954  0.6545 -0.4983
 8380SOL    HW236774   3.780   0.056   6.087  0.0736  0.7408  0.7323
 8381SOL     OW36775   0.992   3.737   9.014 -0.1305  0.5304 -0.3105
 8381SOL    HW136776   0.959   3.789   9.087 -1.2811 -2.8861  1.6044
 8381SOL    HW236777   0.953   3.785   8.941 -0.4743  0.8087  0.0565
 8382SOL     OW36778   0.077   1.079   2.265  0.0429 -0.1272 -0.3587
 8382SOL    HW136779   0.099   1.104   2.355  1.7138 -2.7726 -0.0136
 8382SOL    HW236780   0.053   0.987   2.268  0.4283 -0.2506 -1.0475
 8383SOL     OW36781   0.092   0.707   3.812  0.3124 -0.2795  0.0410
 8383SOL    HW136782   0.022   0.641   3.816  0.0437  0.0096  0.1495
 8383SOL    HW236783   0.040   0.773   3.765  1.8511  1.5656  0.9499
 8384SOL     OW36784   4.014   1.737   7.256  0.1946 -0.4315  0.3568
 8384SOL    HW136785   4.073   1.661   7.255 -0.6462 -1.0843  0.5148
 8384SOL    HW236786   4.065   1.801   7.306 -0.0802  0.3775 -0.4136
 8385SOL     OW36787   0.226   3.911  14.065 -0.0060  0.5076  0.3107
 8385SOL    HW136788   0.245   3.832  14.015 -3.9245  0.2812 -0.8385
 8385SOL    HW236789   0.209   3.966  13.989  1.4058 -0.4525 -0.6978
 8386SOL     OW36790   3.898   3.440   4.639 -0.3848  0.4326 -0.0569
 8386SOL    HW136791   3.947   3.372   4.592 -0.4128 -0.5384  1.3058
 8386SOL    HW236792   3.950   3.514   4.607 -1.2539  0.4314 -1.4437
 8387SOL     OW36793   0.669   4.468   7.195 -0.0247 -0.1655 -0.1055
 8387SOL    HW136794   0.676   4.442   7.103 -0.6248 -2.9833  0.6431
 8387SOL    HW236795   0.573   4.465   7.202  0.0307 -0.6361  0.3807
 8388SOL     OW36796   1.678   1.418   2.805 -0.5183  0.3610  0.2514
 8388SOL    HW136797   1.608   1.370   2.851 -0.2667 -1.6803 -1.4946
 8388SOL    HW236798   1.632   1.494   2.771  0.2767 -0.2464 -2.1883
 8389SOL     OW36799   1.057   1.173   7.694  0.0011  0.3684 -0.4126
 8389SOL    HW136800   1.054   1.243   7.629  1.9580  0.4294 -0.4323
 8389SOL    HW236801   1.015   1.221   7.766  0.3783 -2.4127  1.6863
 8390SOL     OW36802   0.065   3.341   2.942  0.0334 -0.1884 -0.5488
 8390SOL    HW136803   0.123   3.268   2.966 -0.7978 -0.4163  0.7832
 8390SOL    HW236804   0.080   3.336   2.848 -1.5441  0.1725 -0.8159
 8391SOL     OW36805   2.412   2.987   9.880  0.0893  0.3856 -0.2474
 8391SOL    HW136806   2.448   3.044   9.948 -1.5221 -0.4677  1.3140
 8391SOL    HW236807   2.317   2.999   9.880  0.1333  0.7310  0.5526
 8392SOL     OW36808   1.375   4.691   4.429  0.3279  1.2472  0.3186
 8392SOL    HW136809   1.435   4.704   4.502  1.1741  1.0161 -0.3308
 8392SOL    HW236810   1.435   4.704   4.355 -0.0376 -0.1358 -0.2142
 8393SOL     OW36811   1.887   0.803   1.418  0.0116  0.0991  0.1599
 8393SOL    HW136812   1.915   0.895   1.421 -0.9831  0.4211 -0.3868
 8393SOL    HW236813   1.794   0.807   1.442 -0.0515 -1.5832  0.1771
 8394SOL     OW36814   3.488   0.800  15.829  0.0331 -0.5279 -0.5059
 8394SOL    HW136815   3.416   0.857  15.854  1.9332  1.4322  0.5426
 8394SOL    HW236816   3.548   0.872  15.808 -0.9518  0.6335  0.7024
 8395SOL     OW36817   4.429   4.079  12.553 -0.5407 -0.5600 -0.5336
 8395SOL    HW136818   4.343   4.067  12.511 -1.0830  0.3503  0.3131
 8395SOL    HW236819   4.482   4.031  12.489  1.9023 -1.3688  2.1037
 8396SOL     OW36820   4.221   3.821   5.715  0.0950  0.3728  0.4564
 8396SOL    HW136821   4.151   3.874   5.753  1.6270  1.8685  1.1943
 8396SOL    HW236822   4.189   3.814   5.625 -0.1273  1.4388  0.4527
 8397SOL     OW36823   3.147   4.564  15.486  0.4118 -0.8175 -0.2489
 8397SOL    HW136824   3.148   4.496  15.418  0.0759 -0.4441 -0.6281
 8397SOL    HW236825   3.191   4.515  15.555 -1.5683 -0.9452  0.9322
 8398SOL     OW36826   3.547   0.783  10.911  0.0147  0.8358 -0.2607
 8398SOL    HW136827   3.614   0.773  10.844 -1.2710 -0.3998 -1.3684
 8398SOL    HW236828   3.559   0.873  10.942  0.8743  0.5147  0.3328
 8399SOL     OW36829   4.396   0.863  15.749 -0.2912 -0.1413  0.2357
 8399SOL    HW136830   4.353   0.838  15.831  1.0623 -0.3382  0.8893
 8399SOL    HW236831   4.418   0.774  15.722  0.4730 -0.3762  1.5933
 8400SOL     OW36832   3.276   3.596   8.588  0.2816 -0.4975  0.2575
 8400SOL    HW136833   3.341   3.653   8.628 -1.5441 -1.1025  4.1488
 8400SOL    HW236834   3.300   3.513   8.629 -2.2703 -0.0195  2.7742
 8401SOL     OW36835   0.808   2.454   8.622 -0.0857  0.0997 -0.0697
 8401SOL    HW136836   0.756   2.511   8.679  2.5761  0.8057  1.6521
 8401SOL    HW236837   0.856   2.413   8.694 -1.2017  0.1748  0.7140
 8402SOL     OW36838   2.444   4.131  12.863 -0.0486 -0.2678 -0.2219
 8402SOL    HW136839   2.491   4.204  12.904 -1.8563  2.4821 -3.0023
 8402SOL    HW236840   2.489   4.053  12.894  0.6327  0.4219  0.5075
 8403SOL     OW36841   3.367   2.590   4.960  0.2047  0.3287  0.4323
 8403SOL    HW136842   3.367   2.680   4.928  4.0915 -0.4303 -1.6281
 8403SOL    HW236843   3.452   2.581   5.002 -0.0020  3.3283  1.4318
 8404SOL     OW36844   2.893   3.161   4.424  0.1332  0.4112  0.1642
 8404SOL    HW136845   2.894   3.114   4.508 -4.2327  2.4997  1.3934
 8404SOL    HW236846   2.805   3.199   4.430 -0.2490 -0.0285 -2.7417
 8405SOL     OW36847   2.605   3.315   7.901 -0.3868 -0.0014  0.1184
 8405SOL    HW136848   2.592   3.314   7.995 -0.5891  0.3656  0.0947
 8405SOL    HW236849   2.616   3.410   7.893  0.9704 -0.0710  1.2001
 8406SOL     OW36850   3.131   1.027   9.078  0.1179  0.3367 -0.0532
 8406SOL    HW136851   3.049   1.068   9.103 -0.8873 -2.4910  1.3157
 8406SOL    HW236852   3.118   0.936   9.105  1.2232  0.3510  0.5254
 8407SOL     OW36853   0.439   1.907   8.658  0.3677 -0.0512 -0.0917
 8407SOL    HW136854   0.442   1.917   8.753  0.4678 -1.0066  0.0022
 8407SOL    HW236855   0.426   1.998   8.632 -1.0084 -1.0103 -2.7077
 8408SOL     OW36856   2.203   3.475   1.285 -0.1698  0.3355  0.5182
 8408SOL    HW136857   2.136   3.525   1.238  1.2013  1.9672  0.2904
 8408SOL    HW236858   2.238   3.423   1.213 -1.7158 -1.0191  0.7610
 8409SOL     OW36859   1.810   0.060   2.308  0.3900 -0.5549 -0.1079
 8409SOL    HW136860   1.748   0.084   2.240 -0.4960 -2.0671  0.1761
 8409SOL    HW236861   1.753   0.062   2.385  0.5988 -1.0566  0.0635
 8410SOL     OW36862   1.546   0.639  10.449  0.0053  0.4468  0.7346
 8410SOL    HW136863   1.552   0.719  10.501  2.9684  0.1511  0.8232
 8410SOL    HW236864   1.450   0.636  10.446  0.1525 -1.8306 -1.3056
 8411SOL     OW36865   2.207   3.717   5.205 -0.1135 -0.1352 -0.1833
 8411SOL    HW136866   2.206   3.705   5.110  0.3180  0.3054 -0.2456
 8411SOL    HW236867   2.219   3.631   5.245 -0.7572 -0.8137 -1.4424
 8412SOL     OW36868   1.898   0.766   7.486  0.3516  0.5986  0.0974
 8412SOL    HW136869   1.842   0.780   7.409 -0.0266  2.4150  0.7087
 8412SOL    HW236870   1.870   0.685   7.527 -1.1436  1.6363  1.1149
 8413SOL     OW36871   2.434   3.260   2.460 -0.2150  0.0469  0.7075
 8413SOL    HW136872   2.422   3.188   2.521  1.2049  0.2873  1.2747
 8413SOL    HW236873   2.396   3.216   2.385  1.0141 -0.7936  0.5815
 8414SOL     OW36874   2.184   1.699   9.165 -0.2616 -0.1967 -0.3091
 8414SOL    HW136875   2.189   1.664   9.254  0.0880  0.0853 -0.2210
 8414SOL    HW236876   2.133   1.634   9.116  1.3456 -0.4907 -1.5757
 8415SOL     OW36877   3.584   1.128  16.013 -0.2467 -0.9763  0.5086
 8415SOL    HW136878   3.507   1.072  16.020 -1.4522  0.3567 -2.0899
 8415SOL    HW236879   3.563   1.182  15.937  1.8129 -2.2977 -0.9993
 8416SOL     OW36880   4.568   0.084   2.374 -0.3917 -0.6188  0.5624
 8416SOL    HW136881   4.505   0.152   2.399 -1.3163 -1.4318  0.4419
 8416SOL    HW236882   4.518   0.058   2.297 -1.9648  2.0925  0.6753
 8417SOL     OW36883   2.329   4.431   8.585  0.5246 -0.6170 -0.2852
 8417SOL    HW136884   2.293   4.516   8.560  0.6665 -0.6619 -0.6439
 8417SOL    HW236885   2.270   4.410   8.657  0.8562  0.5099  0.3189
 8418SOL     OW36886   1.381   4.412   4.689  0.6335  0.6310  0.3031
 8418SOL    HW136887   1.458   4.356   4.682 -0.2331 -0.6143  0.7444
 8418SOL    HW236888   1.417   4.501   4.686 -1.2986  1.4286  0.8014
 8419SOL     OW36889   0.115   0.580   5.666  0.1363 -0.0652 -0.1350
 8419SOL    HW136890   0.078   0.571   5.578 -0.4538  1.9897 -0.1131
 8419SOL    HW236891   0.113   0.676   5.669  0.7183 -0.0377 -0.5532
 8420SOL     OW36892   2.881   2.704  14.071 -0.2281 -0.7033 -0.1464
 8420SOL    HW136893   2.859   2.658  13.991  1.4626 -0.5163 -0.7172
 8420SOL    HW236894   2.932   2.783  14.054 -0.1217 -0.2745  2.1248
 8421SOL     OW36895   1.451   1.677  12.710 -0.5902 -0.4348  0.2343
 8421SOL    HW136896   1.421   1.718  12.791  1.5205 -0.9861  1.2854
 8421SOL    HW236897   1.525   1.632  12.752 -0.6755  1.4677  2.4161
 8422SOL     OW36898   0.405   2.928   0.718  0.2353 -0.1587 -0.3926
 8422SOL    HW136899   0.341   2.992   0.750  0.1135 -0.3223 -0.3115
 8422SOL    HW236900   0.490   2.960   0.750  0.8117 -2.3956  0.3406
 8423SOL     OW36901   2.857   2.452   6.602 -0.3662  0.2025  0.0965
 8423SOL    HW136902   2.839   2.383   6.539  2.3991  0.3658 -0.8541
 8423SOL    HW236903   2.946   2.430   6.629 -0.6748  0.5707  1.4340
 8424SOL     OW36904   3.055   1.732   2.000 -0.5057 -0.0659  0.5442
 8424SOL    HW136905   3.018   1.794   1.937  0.0655  0.6140  0.8780
 8424SOL    HW236906   3.032   1.776   2.082 -1.6517  0.9152 -0.3094
 8425SOL     OW36907   4.078   2.595   6.697  0.1239  0.1647  0.2990
 8425SOL    HW136908   4.074   2.681   6.656  0.0055  0.4857  0.9794
 8425SOL    HW236909   3.993   2.600   6.740  0.0866  1.1450  0.1045
 8426SOL     OW36910   1.399   0.112  12.408 -0.1814 -0.7202  0.0334
 8426SOL    HW136911   1.452   0.133  12.332 -3.1135 -1.0837 -2.0863
 8426SOL    HW236912   1.458   0.073  12.474 -0.1687  1.1516  1.1291
 8427SOL     OW36913   1.895   4.336   3.164 -0.2860 -0.1632 -0.2279
 8427SOL    HW136914   1.981   4.347   3.205 -0.4956  1.6270 -0.2739
 8427SOL    HW236915   1.870   4.420   3.124 -1.1477 -0.7125 -0.8595
 8428SOL     OW36916   2.308   4.690   8.097  0.4445 -0.0209 -0.7689
 8428SOL    HW136917   2.216   4.680   8.119 -0.0202  1.7604 -1.8953
 8428SOL    HW236918   2.311   4.717   8.005  2.5570  1.5317 -0.2529
 8429SOL     OW36919   1.884   0.869   6.428 -0.3093 -0.0255  0.2520
 8429SOL    HW136920   1.973   0.904   6.419 -0.9389  1.8321  1.1582
 8429SOL    HW236921   1.823   0.943   6.419 -0.2476 -0.0554 -0.3839
 8430SOL     OW36922   2.435   4.526   8.867  0.4549 -0.0255  0.1720
 8430SOL    HW136923   2.469   4.460   8.808 -2.4185 -1.0777 -0.3030
 8430SOL    HW236924   2.445   4.482   8.952  1.3802 -0.5023 -0.1935
 8431SOL     OW36925   1.503   1.451   4.965  0.3732  0.1511 -0.9610
 8431SOL    HW136926   1.451   1.532   4.966  1.4041  0.7369  2.8235
 8431SOL    HW236927   1.434   1.389   4.989  1.1268  0.1395  1.1296
 8432SOL     OW36928   2.747   2.748  14.595  0.5808 -0.1816 -0.1543
 8432SOL    HW136929   2.752   2.805  14.518 -2.7277  0.2828 -0.0392
 8432SOL    HW236930   2.812   2.682  14.575 -0.1271 -0.7336 -0.6109
 8433SOL     OW36931   2.442   0.046   4.016 -0.3503 -0.1533  0.4646
 8433SOL    HW136932   2.415   0.053   3.924 -1.3425 -0.4374  0.7264
 8433SOL    HW236933   2.485   0.132   4.021  0.4026 -0.5673  0.9762
 8434SOL     OW36934   0.453   4.307  15.870 -0.1306  0.0276 -0.3010
 8434SOL    HW136935   0.445   4.399  15.847 -0.2285 -0.0456 -0.5587
 8434SOL    HW236936   0.361   4.279  15.864 -0.3096  0.8938 -1.3684
 8435SOL     OW36937   4.317   1.059   7.883  0.5045 -0.9211  0.9632
 8435SOL    HW136938   4.337   1.145   7.921 -0.3230 -0.4775  0.4077
 8435SOL    HW236939   4.316   1.079   7.789 -0.7438 -1.7577  0.7982
 8436SOL     OW36940   3.453   2.507  12.152  0.2186  0.2027  0.5304
 8436SOL    HW136941   3.465   2.562  12.075  2.5494 -1.3053 -0.1895
 8436SOL    HW236942   3.427   2.565  12.223 -1.0720  0.2148  0.0538
 8437SOL     OW36943   4.281   4.062   0.267  0.0332 -0.3273 -0.1463
 8437SOL    HW136944   4.320   4.090   0.350  0.2443  1.0633 -0.7076
 8437SOL    HW236945   4.214   4.129   0.255 -1.7486 -1.7385  2.1180
 8438SOL     OW36946   1.996   2.566   7.886 -0.1600 -0.0577 -0.0381
 8438SOL    HW136947   2.091   2.569   7.892 -0.1437  1.4658 -1.0658
 8438SOL    HW236948   1.980   2.640   7.946  1.8113  0.5607 -0.3016
 8439SOL     OW36949   0.483   4.072   5.202 -0.1872  0.5981 -0.2553
 8439SOL    HW136950   0.455   4.052   5.291 -0.0340 -2.6004 -0.9579
 8439SOL    HW236951   0.574   4.097   5.219 -0.9339  2.4872  1.0019
 8440SOL     OW36952   3.090   1.584   6.194  0.5574 -0.0108  0.2677
 8440SOL    HW136953   3.011   1.574   6.247 -0.0964  2.3747 -0.2467
 8440SOL    HW236954   3.072   1.656   6.134  0.5273  0.4261  0.8007
 8441SOL     OW36955   2.697   3.574   1.726 -0.2961  0.2432  0.6008
 8441SOL    HW136956   2.657   3.623   1.799  1.0031  1.4416  0.5029
 8441SOL    HW236957   2.645   3.608   1.653  0.8502 -0.5273 -0.5595
 8442SOL     OW36958   1.284   2.061   7.069 -0.1733  0.3632 -0.6027
 8442SOL    HW136959   1.342   1.988   7.091  1.0581  0.7947 -2.4143
 8442SOL    HW236960   1.207   2.033   7.119  0.9130 -1.8340 -0.1423
 8443SOL     OW36961   4.463   0.172   9.157 -0.0795 -0.0608 -0.5269
 8443SOL    HW136962   4.416   0.162   9.074 -1.6769  1.7705  0.1496
 8443SOL    HW236963   4.389   0.195   9.214  0.1718  0.2106 -0.3060
 8444SOL     OW36964   0.742   3.867   3.496  0.5745  0.2448 -0.1539
 8444SOL    HW136965   0.822   3.915   3.516  0.2361  1.0606 -0.7339
 8444SOL    HW236966   0.733   3.807   3.570 -0.1911 -0.5203 -0.8589
 8445SOL     OW36967   1.930   4.066   1.100 -0.2285 -0.3030  0.0257
 8445SOL    HW136968   1.984   4.145   1.095  0.1203 -0.4268  1.9845
 8445SOL    HW236969   1.981   3.987   1.082  0.5719  0.9286 -3.1846
 8446SOL     OW36970   3.610   1.381   7.712  0.0084  0.5597  0.1765
 8446SOL    HW136971   3.693   1.402   7.755 -0.7345  0.1204  1.8207
 8446SOL    HW236972   3.627   1.287   7.704  2.3977  1.0022  0.2333
 8447SOL     OW36973   4.058   2.821   6.485  0.5684  0.2929  0.5067
 8447SOL    HW136974   4.064   2.860   6.572 -1.6838 -0.3444  0.9483
 8447SOL    HW236975   3.976   2.861   6.456  0.8754  2.1272  2.1922
 8448SOL     OW36976   3.066   4.067  12.894  0.0115 -0.1397  0.1930
 8448SOL    HW136977   3.114   4.135  12.942  0.3459 -0.0899 -0.2080
 8448SOL    HW236978   2.985   4.055  12.943 -1.2811  0.0525 -1.9008
 8449SOL     OW36979   1.097   3.133  16.097 -0.0744 -0.1554 -0.4131
 8449SOL    HW136980   1.149   3.105  16.173  0.4129 -0.8563 -1.0077
 8449SOL    HW236981   1.159   3.133  16.025  0.7701 -1.1634  0.3047
 8450SOL     OW36982   2.561   0.590   0.349 -0.1265 -0.9509 -0.2871
 8450SOL    HW136983   2.513   0.509   0.363 -2.8419  0.4560 -1.4592
 8450SOL    HW236984   2.598   0.597   0.437  0.3842  3.1221 -0.8256
 8451SOL     OW36985   0.703   1.196   3.326 -0.2390  0.0243  0.3277
 8451SOL    HW136986   0.659   1.182   3.410 -3.5768  0.2833 -1.4044
 8451SOL    HW236987   0.755   1.116   3.330  0.8919  0.8757  2.3808
 8452SOL     OW36988   0.489   3.406   2.526  0.7668  0.5047 -0.0792
 8452SOL    HW136989   0.446   3.341   2.469 -0.8197 -0.7642  2.5766
 8452SOL    HW236990   0.491   3.358   2.609 -1.2411  0.3792 -0.0999
 8453SOL     OW36991   2.939   4.526   5.065 -0.4763 -0.1631  0.4985
 8453SOL    HW136992   2.898   4.574   5.137 -0.3690  2.1688 -1.0069
 8453SOL    HW236993   2.991   4.579   5.005  0.8403 -1.6470  0.3457
 8454SOL     OW36994   3.695   1.134   9.912 -0.0164 -0.9572 -0.1494
 8454SOL    HW136995   3.611   1.164   9.876  0.8973  0.6904 -0.8994
 8454SOL    HW236996   3.757   1.147   9.840  1.2227 -1.0955  0.9030
 8455SOL     OW36997   4.060   2.348   1.611 -0.3436 -0.4407  0.1289
 8455SOL    HW136998   3.998   2.421   1.609  0.4883  0.1894 -2.5315
 8455SOL    HW236999   4.031   2.311   1.694 -2.7466 -0.1421 -0.5903
 8456SOL     OW37000   1.544   3.746   9.514  0.8841  0.1735  0.0416
 8456SOL    HW137001   1.552   3.691   9.436 -0.6787 -0.0565  0.0326
 8456SOL    HW237002   1.451   3.729   9.529  0.7645 -0.2922 -1.2765
 8457SOL     OW37003   4.472   3.113   5.802 -0.3047 -0.0738  0.6416
 8457SOL    HW137004   4.396   3.170   5.809 -0.9856 -1.3157  3.6623
 8457SOL    HW237005   4.526   3.156   5.869 -2.1468 -0.6735  2.5273
 8458SOL     OW37006   4.053   2.708   4.448 -0.1737 -0.2777  0.4000
 8458SOL    HW137007   3.972   2.683   4.404  0.0658 -0.6604  0.1799
 8458SOL    HW237008   4.023   2.785   4.498  0.5634 -0.6599  1.4339
 8459SOL     OW37009   2.365   0.989   8.719  0.1533  0.1707 -0.4834
 8459SOL    HW137010   2.301   1.060   8.722  2.1896  1.9051  1.9871
 8459SOL    HW237011   2.384   1.012   8.628  0.0922  2.0263 -0.0135
 8460SOL     OW37012   0.203   3.378  14.429  0.2702  0.2092  0.8443
 8460SOL    HW137013   0.242   3.421  14.352  0.7926  0.2135  1.1092
 8460SOL    HW237014   0.157   3.453  14.467 -0.5999 -0.2947  0.7804
 8461SOL     OW37015   2.370   1.567   3.109  0.1916 -0.1729 -0.5731
 8461SOL    HW137016   2.285   1.596   3.141  0.2940  0.1411 -0.5906
 8461SOL    HW237017   2.387   1.492   3.166 -0.6215  0.0029 -0.1145
 8462SOL     OW37018   0.377   0.418   7.004  0.1841  0.0395  0.5666
 8462SOL    HW137019   0.309   0.453   6.946 -0.5187 -1.7734  0.3166
 8462SOL    HW237020   0.427   0.499   7.014  1.5227 -0.7322  0.1153
 8463SOL     OW37021   2.474   2.975   6.469 -0.5251  0.4782  0.5645
 8463SOL    HW137022   2.447   2.961   6.378 -1.2939  2.6127  0.4844
 8463SOL    HW237023   2.511   2.891   6.499  1.5848  0.9354 -0.7336
 8464SOL     OW37024   1.569   1.885   6.936 -0.0713  0.1518  0.2370
 8464SOL    HW137025   1.532   1.894   7.024 -1.2566 -0.7339 -0.1603
 8464SOL    HW237026   1.495   1.837   6.897  1.3784 -1.4722 -0.4974
 8465SOL     OW37027   1.768   2.598   6.200 -0.1380  0.1962 -0.2647
 8465SOL    HW137028   1.856   2.590   6.236 -0.4158 -3.0742 -0.3100
 8465SOL    HW237029   1.743   2.674   6.253  1.7975 -0.2981  1.3406
 8466SOL     OW37030   2.476   2.923   7.562 -0.0959 -0.9942  0.8579
 8466SOL    HW137031   2.495   2.866   7.636  2.3528  0.7858  1.6025
 8466SOL    HW237032   2.440   2.853   7.507 -1.6873  0.7546 -0.3535
 8467SOL     OW37033   0.952   0.013   3.294 -0.6666  0.1510  0.9906
 8467SOL    HW137034   1.003   0.029   3.374  0.0390 -0.5641  0.6869
 8467SOL    HW237035   0.894   0.089   3.287  0.8211  1.4495  2.6205
 8468SOL     OW37036   0.691   0.115  13.923 -0.4648 -0.4683  0.0430
 8468SOL    HW137037   0.760   0.142  13.983  0.5255 -1.9003 -0.4522
 8468SOL    HW237038   0.651   0.198  13.897  1.8453  0.8300  0.7240
 8469SOL     OW37039   2.175   1.019  10.800  0.0284 -0.1351 -0.4236
 8469SOL    HW137040   2.252   1.032  10.855 -0.3422  1.2465 -0.2298
 8469SOL    HW237041   2.154   1.112  10.792 -1.6650 -0.1348  3.9741
 8470SOL     OW37042   2.319   2.050   1.791  0.3603  0.0914 -0.1069
 8470SOL    HW137043   2.309   2.140   1.822  3.6958  0.7003 -0.8653
 8470SOL    HW237044   2.414   2.047   1.792  0.3258 -1.6713 -0.9980
 8471SOL     OW37045   0.821   4.444  14.452  0.0235  0.1961 -0.1473
 8471SOL    HW137046   0.913   4.451  14.477 -1.0539  1.0177  3.5957
 8471SOL    HW237047   0.802   4.356  14.483  1.7628 -0.9492 -2.3235
 8472SOL     OW37048   3.742   0.412  15.806  0.5505 -0.5836  0.4803
 8472SOL    HW137049   3.682   0.463  15.751 -0.7302  0.0821  2.4890
 8472SOL    HW237050   3.714   0.438  15.894 -0.7042 -0.4163  0.0304
 8473SOL     OW37051   2.815   3.204   8.711  0.3720  0.0628 -0.0317
 8473SOL    HW137052   2.763   3.143   8.660 -1.5168 -0.7345  2.8425
 8473SOL    HW237053   2.750   3.268   8.740 -0.1613 -0.9169  0.9329
 8474SOL     OW37054   3.434   2.599  15.786 -0.6136  0.6748 -0.4202
 8474SOL    HW137055   3.403   2.688  15.804 -1.0700  0.1353  1.4161
 8474SOL    HW237056   3.491   2.567  15.856 -0.3646  0.2314 -0.8239
 8475SOL     OW37057   2.721   1.596   0.208 -0.1201  0.2108  0.1200
 8475SOL    HW137058   2.733   1.690   0.193 -2.8678  0.6077  0.5532
 8475SOL    HW237059   2.644   1.581   0.153  0.7186  0.0468 -1.0283
 8476SOL     OW37060   4.467   1.515   7.587  0.2973 -0.0555  0.0485
 8476SOL    HW137061   4.423   1.542   7.667  0.5139 -1.5649  0.6728
 8476SOL    HW237062   4.397   1.467   7.542 -1.9630 -0.0992  3.6126
 8477SOL     OW37063   0.386   1.959  11.840 -0.0147  0.7930  0.2578
 8477SOL    HW137064   0.482   1.958  11.845 -0.0020 -0.6823 -0.3842
 8477SOL    HW237065   0.379   1.969  11.745  1.0904  1.0116  0.1940
 8478SOL     OW37066   2.745   2.532   1.276 -0.6415  0.4961  0.2349
 8478SOL    HW137067   2.792   2.453   1.304  0.3029  1.0391  0.1837
 8478SOL    HW237068   2.677   2.492   1.222  0.6886 -0.1732 -0.9281
 8479SOL     OW37069   0.332   3.030   3.301 -0.4476  0.3196  0.1215
 8479SOL    HW137070   0.402   2.966   3.288  1.4360  1.9952  2.0454
 8479SOL    HW237071   0.288   2.985   3.373  0.0329  0.4163  0.4709
 8480SOL     OW37072   1.174   1.463   4.920 -0.6121  0.2850 -0.8773
 8480SOL    HW137073   1.153   1.404   4.848  1.2687  0.8246 -1.8565
 8480SOL    HW237074   1.087   1.461   4.960  0.0305 -0.3529  0.5183
 8481SOL     OW37075   3.006   4.377   6.328  0.1457  0.5326 -0.6140
 8481SOL    HW137076   3.088   4.383   6.378  1.2934 -2.1292 -2.1404
 8481SOL    HW237077   3.015   4.457   6.276  3.1877  0.5794 -0.0186
 8482SOL     OW37078   3.078   2.012   8.760 -0.4208  0.3076  0.1153
 8482SOL    HW137079   3.019   1.980   8.692 -0.1098 -0.5277  0.2369
 8482SOL    HW237080   3.062   1.936   8.817 -0.3886  1.0882  1.1591
 8483SOL     OW37081   4.719   2.717  14.237  0.7094  0.7654  0.4424
 8483SOL    HW137082   4.705   2.666  14.317  2.1493 -1.9302 -1.0151
 8483SOL    HW237083   0.006   2.653  14.172 -0.0171 -0.2507  1.1481
 8484SOL     OW37084   1.766   3.619   7.357 -0.1109  0.4733  0.1238
 8484SOL    HW137085   1.709   3.567   7.414  0.0456  1.7250  1.4260
 8484SOL    HW237086   1.853   3.597   7.391 -0.4802 -0.2195  0.6444
 8485SOL     OW37087   4.020   2.287   3.587  0.0890 -0.0859  0.3155
 8485SOL    HW137088   3.958   2.215   3.593  0.2785 -0.2316  0.5558
 8485SOL    HW237089   3.978   2.354   3.533  0.0076  0.5882  1.2128
 8486SOL     OW37090   3.427   1.300   4.516 -0.1185 -0.6597  0.1090
 8486SOL    HW137091   3.411   1.368   4.582  1.2993 -0.5384  0.3093
 8486SOL    HW237092   3.350   1.313   4.460  0.8076  1.8380 -0.5749
 8487SOL     OW37093   0.722   2.928  17.196  0.1605  0.2144  0.6133
 8487SOL    HW137094   0.672   2.873  17.257 -1.6317  0.2165 -0.8542
 8487SOL    HW237095   0.674   2.932  17.114  1.9345 -0.8758 -0.4777
 8488SOL     OW37096   2.834   3.658   2.425 -0.0548  0.2609 -0.1791
 8488SOL    HW137097   2.906   3.595   2.420  0.9899  1.4383 -0.0131
 8488SOL    HW237098   2.872   3.723   2.484 -0.9489  0.4525  0.1806
 8489SOL     OW37099   2.134   3.334   2.188  0.3647 -0.5089 -0.2638
 8489SOL    HW137100   2.211   3.278   2.179  0.4268 -0.1371 -2.0295
 8489SOL    HW237101   2.066   3.274   2.221 -0.1049 -0.7138 -1.6175
 8490SOL     OW37102   3.350   2.060  12.469  0.4580 -0.3286 -0.1372
 8490SOL    HW137103   3.337   2.113  12.391 -0.7384 -0.6557 -0.1580
 8490SOL    HW237104   3.261   2.039  12.498  1.2655 -2.2539  0.9319
 8491SOL     OW37105   0.824   4.378  11.469  0.3742  0.1550  0.1290
 8491SOL    HW137106   0.894   4.428  11.426  1.4365  0.2251  1.9386
 8491SOL    HW237107   0.805   4.317  11.398 -2.7716 -1.1323  2.1020
 8492SOL     OW37108   2.307   4.479   1.026  0.2161 -0.5381 -0.6207
 8492SOL    HW137109   2.359   4.448   1.101 -3.7168 -0.0619  2.2820
 8492SOL    HW237110   2.377   4.509   0.968  0.6701  2.7118  1.5594
 8493SOL     OW37111   2.340   2.610   4.525 -0.6799 -0.7364 -0.5835
 8493SOL    HW137112   2.283   2.639   4.453 -0.3129  0.5364 -0.3671
 8493SOL    HW237113   2.281   2.577   4.592 -1.1107  1.1060 -0.0350
 8494SOL     OW37114   4.591   4.610  12.171  0.0261 -0.6199  0.2481
 8494SOL    HW137115   4.620   4.526  12.138  0.4853 -1.0726  1.8145
 8494SOL    HW237116   4.639   4.663  12.107  0.2853 -0.2516  0.7490
 8495SOL     OW37117   3.234   0.848   2.333 -0.2412  0.3155 -0.3849
 8495SOL    HW137118   3.190   0.765   2.315  1.1675 -0.2927 -1.0814
 8495SOL    HW237119   3.279   0.827   2.415  0.1630 -1.2259 -0.9843
 8496SOL     OW37120   2.654   2.330  12.990 -0.3103  0.1268  0.3567
 8496SOL    HW137121   2.595   2.321  13.066  1.6439 -0.1336  1.8555
 8496SOL    HW237122   2.597   2.352  12.917 -0.2124  1.0853  0.5743
 8497SOL     OW37123   1.197   0.094   6.221  0.7212  0.1351 -0.2840
 8497SOL    HW137124   1.192   0.186   6.245 -2.4695  0.1823 -1.1499
 8497SOL    HW237125   1.291   0.078   6.223  0.9174  1.4038  1.1701
 8498SOL     OW37126   3.639   2.701   8.202 -0.1269 -0.8419  0.3265
 8498SOL    HW137127   3.554   2.706   8.160 -0.4613  1.9754  1.2849
 8498SOL    HW237128   3.654   2.607   8.208 -1.7036 -1.1286 -0.3658
 8499SOL     OW37129   0.187   4.018   2.415 -0.4340 -0.2581  0.0475
 8499SOL    HW137130   0.101   4.013   2.375 -0.5281 -2.9619  0.6182
 8499SOL    HW237131   0.181   3.954   2.486 -1.3447  0.4318  0.5905
 8500SOL     OW37132   3.050   3.821   1.393  0.1278 -0.2353  0.7548
 8500SOL    HW137133   2.976   3.856   1.343 -0.1806 -3.5151 -1.0514
 8500SOL    HW237134   3.064   3.732   1.360  2.1810  0.5374 -0.4390
 8501SOL     OW37135   4.701   1.337   7.664 -0.8187  0.0397 -0.2822
 8501SOL    HW137136   4.631   1.398   7.641 -1.3782 -0.7619 -0.7522
 8501SOL    HW237137   4.714   1.364   7.755 -1.2652  0.2679 -0.2869
 8502SOL     OW37138   4.219   4.166  13.198  0.0304  0.1387 -0.0975
 8502SOL    HW137139   4.128   4.158  13.226 -0.9479  1.4219 -2.9283
 8502SOL    HW237140   4.226   4.111  13.120 -0.8036  0.8681 -0.6847
 8503SOL     OW37141   4.114   4.199  17.730 -0.5283  0.2662 -0.0035
 8503SOL    HW137142   4.027   4.161  17.718 -0.0222 -0.6464 -0.8138
 8503SOL    HW237143   4.112   4.235   0.065  0.5461  0.8932 -0.2407
 8504SOL     OW37144   3.295   0.197   6.995  0.0162  0.0959  0.5767
 8504SOL    HW137145   3.359   0.193   7.066 -0.0677 -1.7508  0.5632
 8504SOL    HW237146   3.274   0.290   7.000 -0.4760  0.0570 -0.6420
 8505SOL     OW37147   2.431   4.345   6.079 -0.2550  0.7852  0.2366
 8505SOL    HW137148   2.400   4.269   6.029 -1.8687  0.8815  1.0754
 8505SOL    HW237149   2.520   4.351   6.044 -0.7891  1.2179 -1.0681
 8506SOL     OW37150   1.152   1.361   7.902 -0.5897 -0.0530 -0.2874
 8506SOL    HW137151   1.233   1.404   7.927 -0.6348  0.8329 -1.6495
 8506SOL    HW237152   1.137   1.303   7.977 -1.2403  1.6156  0.8924
 8507SOL     OW37153   0.715   2.431   1.709 -0.0949 -0.2338  0.5663
 8507SOL    HW137154   0.752   2.448   1.796 -1.7399  0.5129  1.1055
 8507SOL    HW237155   0.794   2.432   1.653 -0.3221 -0.7582  0.2348
 8508SOL     OW37156   0.615   0.528   2.997  0.4928  0.1571 -0.1838
 8508SOL    HW137157   0.576   0.597   3.050 -1.5616 -0.0029 -1.5043
 8508SOL    HW237158   0.576   0.549   2.912 -1.3748  1.6968  1.0624
 8509SOL     OW37159   2.722   1.140   4.549 -0.8162  0.3508 -0.1568
 8509SOL    HW137160   2.680   1.211   4.596 -1.8843 -0.3430 -0.0663
 8509SOL    HW237161   2.720   1.175   4.460  1.8438 -1.0014 -0.7595
 8510SOL     OW37162   1.397   1.940  16.836 -0.4751  0.1131 -0.1989
 8510SOL    HW137163   1.460   1.929  16.907 -2.3921  0.4148  1.5668
 8510SOL    HW237164   1.319   1.968  16.884 -1.3899  1.2841 -2.3424
 8511SOL     OW37165   0.089   4.553   8.393 -0.1319 -0.2863 -0.2992
 8511SOL    HW137166   0.075   4.622   8.459 -0.9662 -0.3421 -0.4195
 8511SOL    HW237167   0.040   4.481   8.431 -0.6083  0.3557  0.3003
 8512SOL     OW37168   1.720   3.629   5.849 -0.1042 -0.2133  1.1766
 8512SOL    HW137169   1.719   3.720   5.819 -2.3023  0.7533  4.2407
 8512SOL    HW237170   1.810   3.602   5.829 -0.7776 -0.9734 -0.8339
 8513SOL     OW37171   2.543   4.403   5.355  0.7239  0.3366 -0.3244
 8513SOL    HW137172   2.450   4.426   5.360  0.7341  0.6393 -1.6206
 8513SOL    HW237173   2.554   4.396   5.260 -1.1333  0.1633 -0.5355
 8514SOL     OW37174   4.281   4.652   8.186 -0.4991  0.0683 -0.6140
 8514SOL    HW137175   4.327   4.589   8.241 -2.2521 -1.3475 -0.7396
 8514SOL    HW237176   4.352   4.695   8.138  1.0306 -0.9925  0.7326
 8515SOL     OW37177   0.961   0.574   4.271 -0.2991 -0.1393 -0.0477
 8515SOL    HW137178   1.035   0.551   4.215  0.4620 -1.1135  1.3490
 8515SOL    HW237179   1.011   0.615   4.342  1.3787  1.7933 -2.3472
 8516SOL     OW37180   1.728   3.984   7.200  0.7244 -0.2543  0.0021
 8516SOL    HW137181   1.680   3.944   7.273  0.9818 -0.1029  0.2536
 8516SOL    HW237182   1.757   3.904   7.157  0.1211 -0.2510 -0.4140
 8517SOL     OW37183   3.311   1.797  14.731  0.0992 -0.2366  0.7591
 8517SOL    HW137184   3.392   1.779  14.780 -0.5896 -2.8700  0.9113
 8517SOL    HW237185   3.317   1.884  14.691  0.1060  0.5839  2.5036
 8518SOL     OW37186   0.847   1.873   7.376  0.0406  0.3890 -0.1412
 8518SOL    HW137187   0.887   1.795   7.413  1.2887  1.6418  1.1636
 8518SOL    HW237188   0.785   1.898   7.445 -1.0141 -0.2849 -0.8370
 8519SOL     OW37189   2.944   2.975   8.574  0.0305  0.2296  0.3856
 8519SOL    HW137190   2.965   3.027   8.497 -1.6880 -2.6013 -1.9768
 8519SOL    HW237191   2.851   2.997   8.585 -0.6455 -2.1687 -0.5677
 8520SOL     OW37192   3.219   2.895  10.875  0.3156 -0.0517  0.0035
 8520SOL    HW137193   3.275   2.843  10.933  1.3134 -0.1277 -1.0344
 8520SOL    HW237194   3.267   2.977  10.890  0.5572  0.1829 -2.1133
 8521SOL     OW37195   2.044   2.167   0.413 -0.1312  0.4146  0.2297
 8521SOL    HW137196   1.977   2.172   0.345 -1.5075 -0.3752  1.5346
 8521SOL    HW237197   2.088   2.086   0.386  1.0486  1.2964 -0.4961
 8522SOL     OW37198   1.778   1.400   3.998  0.6088 -0.4299 -0.0778
 8522SOL    HW137199   1.825   1.317   4.007  0.5537 -0.3673  0.7413
 8522SOL    HW237200   1.708   1.371   3.940  1.1127  0.6237 -1.2142
 8523SOL     OW37201   0.404   4.067   6.278  0.3654 -0.8305  0.0386
 8523SOL    HW137202   0.362   4.041   6.196  1.0801  0.5783 -0.7623
 8523SOL    HW237203   0.321   4.089   6.320  1.1053 -1.4843  1.8307
 8524SOL     OW37204   4.279   4.202   2.794  0.2403 -0.2724  0.0102
 8524SOL    HW137205   4.329   4.141   2.740 -1.9587 -0.4916 -1.7728
 8524SOL    HW237206   4.309   4.284   2.753  1.7979 -0.7246  0.2526
 8525SOL     OW37207   2.557   2.173  14.989 -0.4149 -0.2566  0.5560
 8525SOL    HW137208   2.499   2.171  15.065 -1.1445 -1.2639 -0.0411
 8525SOL    HW237209   2.552   2.264  14.957  1.0589 -0.4499 -0.2177
 8526SOL     OW37210   1.145   1.723   9.685 -0.0359 -1.0100 -0.0988
 8526SOL    HW137211   1.220   1.730   9.745 -1.4714 -0.5040  1.6361
 8526SOL    HW237212   1.105   1.639   9.707 -1.9586 -0.1141 -0.2201
 8527SOL     OW37213   0.832   0.841   8.690 -0.1198  0.0301 -0.1652
 8527SOL    HW137214   0.827   0.830   8.785 -0.2551 -1.2652 -0.3311
 8527SOL    HW237215   0.793   0.759   8.659  0.3381 -0.1238 -0.3356
 8528SOL     OW37216   3.173   3.336   8.021 -0.1393 -0.2709 -0.3800
 8528SOL    HW137217   3.210   3.287   7.947  0.7717 -2.3769  1.4723
 8528SOL    HW237218   3.245   3.392   8.049 -0.1513 -1.0948  1.2566
 8529SOL     OW37219   0.800   0.136  10.741  0.3485  0.0699 -0.2277
 8529SOL    HW137220   0.828   0.218  10.781 -1.0563 -0.8602  2.6354
 8529SOL    HW237221   0.862   0.143  10.668 -0.5096  2.4232 -0.7221
 8530SOL     OW37222   4.081   0.273   2.163  1.0113  0.3776 -0.1286
 8530SOL    HW137223   4.127   0.343   2.117  2.4471 -0.1191  0.5746
 8530SOL    HW237224   4.106   0.196   2.112 -0.6101 -0.7152  0.7169
 8531SOL     OW37225   4.610   2.528  12.168  0.2827  0.0880 -0.3681
 8531SOL    HW137226   4.560   2.583  12.230  1.5255  1.4612 -0.5919
 8531SOL    HW237227   4.699   2.536  12.201 -0.1140  0.8915  0.5226
 8532SOL     OW37228   2.958   4.305   5.494  0.1534  0.3034 -0.7541
 8532SOL    HW137229   2.865   4.328   5.501 -0.4253 -2.3900  0.5117
 8532SOL    HW237230   2.977   4.321   5.401 -0.5949  2.5047 -0.5217
 8533SOL     OW37231   4.216   3.079  13.773  0.3921  0.1119  0.6062
 8533SOL    HW137232   4.247   2.993  13.800  2.2662  0.6182  0.1084
 8533SOL    HW237233   4.201   3.120  13.858  0.8623 -1.0471  1.2378
 8534SOL     OW37234   2.879   4.287   6.814  0.1010  0.3620 -0.0777
 8534SOL    HW137235   2.827   4.364   6.838 -0.9775 -0.1842 -0.7067
 8534SOL    HW237236   2.840   4.258   6.732  0.5881  0.2719 -0.2798
 8535SOL     OW37237   1.609   0.729  17.382 -0.7928  0.3220 -0.3886
 8535SOL    HW137238   1.658   0.782  17.445  0.5569 -2.7836  1.2007
 8535SOL    HW237239   1.577   0.794  17.320  1.1767 -1.3085 -3.0933
 8536SOL     OW37240   2.815   2.401   5.026  0.4015 -0.1163  0.2669
 8536SOL    HW137241   2.785   2.482   5.067  1.6444  0.4935 -0.0441
 8536SOL    HW237242   2.738   2.344   5.036  0.1346  0.1012 -0.5559
 8537SOL     OW37243   1.065   2.583   8.232  0.3316 -0.0147  0.2485
 8537SOL    HW137244   1.064   2.591   8.327  0.6034  0.6391  0.1926
 8537SOL    HW237245   1.145   2.534   8.215 -0.4822 -0.6259 -1.8914
 8538SOL     OW37246   4.019   3.007  12.197  0.7314 -0.0463 -0.4525
 8538SOL    HW137247   3.964   3.084  12.182  1.2295  0.4669  0.3911
 8538SOL    HW237248   3.954   2.943  12.225 -0.7014  0.9343 -1.5248
 8539SOL     OW37249   2.473   0.466  11.850 -0.5167 -0.3592 -0.3291
 8539SOL    HW137250   2.548   0.428  11.896  0.3282  0.5980 -0.9210
 8539SOL    HW237251   2.486   0.424  11.765 -2.0506  0.3364 -0.9053
 8540SOL     OW37252   3.876   1.070  17.658  0.3794  0.6151  0.1223
 8540SOL    HW137253   3.938   1.033  17.721 -1.4239 -0.4221  1.2858
 8540SOL    HW237254   3.890   1.163  17.678  4.0123 -0.1823  1.4260
 8541SOL     OW37255   2.367   3.527   7.602 -0.1836 -0.8414  0.0219
 8541SOL    HW137256   2.346   3.547   7.693 -0.3299 -0.8644 -0.0067
 8541SOL    HW237257   2.407   3.442   7.620 -0.0779 -0.8611 -0.3153
 8542SOL     OW37258   0.141   3.146  16.738 -0.5160 -0.2873 -0.3912
 8542SOL    HW137259   0.073   3.213  16.735 -0.7072 -0.5078 -1.2726
 8542SOL    HW237260   0.090   3.066  16.724 -2.8547  0.7137  2.4355
 8543SOL     OW37261   0.194   3.390  10.930  0.2557 -0.0187  0.0100
 8543SOL    HW137262   0.101   3.381  10.951  0.1999  0.0362 -0.2175
 8543SOL    HW237263   0.207   3.330  10.856 -1.1814 -1.3061  0.7913
 8544SOL     OW37264   1.831   0.857  12.334  0.5257 -0.2943  0.6627
 8544SOL    HW137265   1.919   0.858  12.297  0.6987  0.5917  1.1057
 8544SOL    HW237266   1.840   0.913  12.411  0.7499  0.9797 -0.2959
 8545SOL     OW37267   2.823   1.978   4.466  0.0654  0.1031 -0.0445
 8545SOL    HW137268   2.823   1.988   4.371 -0.4894  0.3212 -0.0215
 8545SOL    HW237269   2.841   1.884   4.466 -0.5608 -0.0167  0.3179
 8546SOL     OW37270   0.151   0.506   8.919  0.1541  0.6017  0.0683
 8546SOL    HW137271   0.147   0.499   9.014 -0.5052  0.0088 -0.0029
 8546SOL    HW237272   0.231   0.461   8.891  0.1519  0.6381  0.0037
 8547SOL     OW37273   2.340   1.745   6.303 -0.6905 -0.5098 -0.3827
 8547SOL    HW137274   2.392   1.665   6.294 -0.0449 -0.1908  0.5091
 8547SOL    HW237275   2.251   1.711   6.314 -0.3559 -0.7149  1.6554
 8548SOL     OW37276   1.034   0.772  11.071 -0.2615  0.0753 -0.1639
 8548SOL    HW137277   0.947   0.808  11.056  0.4120  1.9008  0.3323
 8548SOL    HW237278   1.007   0.703  11.133  1.4391 -2.4363 -2.2156
 8549SOL     OW37279   2.038   0.783   2.406  0.1025  0.2999  0.4891
 8549SOL    HW137280   1.986   0.848   2.452 -1.5247  0.1528 -1.1565
 8549SOL    HW237281   2.110   0.833   2.367 -0.6184 -0.2731 -1.5889
 8550SOL     OW37282   2.824   3.519  15.226  0.3444 -0.0132 -0.1955
 8550SOL    HW137283   2.866   3.530  15.141 -1.5068  0.4649 -1.0271
 8550SOL    HW237284   2.827   3.611  15.252  0.7659 -0.4865  1.4916
 8551SOL     OW37285   0.142   2.078   4.676 -0.0644  0.0811 -0.2907
 8551SOL    HW137286   0.109   1.989   4.665  2.3605 -0.9826  0.9566
 8551SOL    HW237287   0.196   2.079   4.597  1.7437 -0.5224  0.9446
 8552SOL     OW37288   4.194   0.392   5.868  0.4855  0.3153  0.0697
 8552SOL    HW137289   4.124   0.353   5.816  1.3003 -1.3451  0.2340
 8552SOL    HW237290   4.260   0.412   5.801  1.9839  1.4131  1.8569
 8553SOL     OW37291   4.657   0.612  12.149  0.1717  0.0402 -0.1452
 8553SOL    HW137292   4.587   0.672  12.125  1.1804  1.7086  1.1372
 8553SOL    HW237293   4.727   0.669  12.181 -0.1545  0.3513  0.0182
 8554SOL     OW37294   0.446   0.023   4.797 -0.0307  0.1059  0.6631
 8554SOL    HW137295   0.406   0.094   4.848  0.3708  2.2219 -1.9764
 8554SOL    HW237296   0.372   4.702   4.795 -0.5672  0.7898 -0.1644
 8555SOL     OW37297   0.852   2.612   4.714 -0.3365  0.0402  0.6538
 8555SOL    HW137298   0.891   2.559   4.645  0.8009 -0.2779  1.5400
 8555SOL    HW237299   0.777   2.650   4.669  0.0074  0.9344  0.8425
 8556SOL     OW37300   2.996   1.672   9.666 -0.2922  0.2419  0.4751
 8556SOL    HW137301   3.047   1.689   9.745 -0.2556 -1.3621  0.8000
 8556SOL    HW237302   2.991   1.576   9.671 -1.1783  0.4504  3.5559
 8557SOL     OW37303   2.599   4.227   1.978 -0.3530  0.1554  0.2952
 8557SOL    HW137304   2.689   4.230   2.010  0.8569  2.5978 -3.2851
 8557SOL    HW237305   2.593   4.134   1.955  1.4329 -0.1874  1.2089
 8558SOL     OW37306   3.862   0.043   8.588  0.2887 -0.4380 -0.5140
 8558SOL    HW137307   3.865   4.687   8.601  0.2197 -0.3847 -0.1386
 8558SOL    HW237308   3.949   0.056   8.550 -1.0580  1.0659 -3.1210
 8559SOL     OW37309   0.892   2.878   2.358  0.2091 -0.2940  0.3476
 8559SOL    HW137310   0.911   2.930   2.436  0.7517  0.5186 -0.3303
 8559SOL    HW237311   0.872   2.950   2.298  0.3318 -0.0740  0.5697
 8560SOL     OW37312   4.680   0.818   8.064  0.3124 -0.0393 -0.1116
 8560SOL    HW137313   0.017   0.777   8.107  0.3903  0.2953  0.0707
 8560SOL    HW237314   4.681   0.764   7.985  0.8839 -0.5784  0.2577
 8561SOL     OW37315   1.050   3.269   2.196  0.6631  0.2239  0.4447
 8561SOL    HW137316   1.105   3.333   2.151  2.2308 -0.2454  1.7150
 8561SOL    HW237317   1.068   3.304   2.284  0.7000  1.1610  0.0643
 8562SOL     OW37318   4.119   4.629  16.220 -0.0988 -0.2082 -0.0876
 8562SOL    HW137319   4.035   4.595  16.251  0.4567 -0.8834  0.6775
 8562SOL    HW237320   4.176   4.634  16.297  1.9330  0.6361 -1.6289
 8563SOL     OW37321   4.321   2.850  15.998  0.1331  0.0454  0.1901
 8563SOL    HW137322   4.307   2.928  16.052  2.6613  0.8434 -0.3396
 8563SOL    HW237323   4.404   2.871  15.956  1.1637 -2.8408  0.7863
 8564SOL     OW37324   3.846   2.281   5.108 -0.5330  0.0118  0.0296
 8564SOL    HW137325   3.872   2.198   5.149  2.0345  0.1151 -1.4444
 8564SOL    HW237326   3.837   2.257   5.016 -0.7448 -1.3733  0.4110
 8565SOL     OW37327   2.730   4.094   8.051  0.3777  0.8642  1.3493
 8565SOL    HW137328   2.787   4.018   8.045  1.7304  1.8620  1.6652
 8565SOL    HW237329   2.798   4.158   8.034  2.4361 -1.8287 -0.4858
 8566SOL     OW37330   2.431   3.132   3.579 -0.1990 -0.7381 -0.2593
 8566SOL    HW137331   2.422   3.067   3.649  0.7997 -0.0348  0.5225
 8566SOL    HW237332   2.480   3.205   3.617  0.3137 -2.4769  2.3960
 8567SOL     OW37333   2.982   3.129  16.694 -0.1680 -0.3321 -0.1999
 8567SOL    HW137334   2.940   3.209  16.725 -1.5152 -0.8652 -0.6127
 8567SOL    HW237335   3.025   3.101  16.774 -2.8292  2.5161  2.2264
 8568SOL     OW37336   0.069   0.931   7.819  0.0187 -0.4841  0.0823
 8568SOL    HW137337   4.733   0.912   7.876 -1.0353  1.7221 -0.5897
 8568SOL    HW237338   0.029   0.962   7.738  0.4044 -0.5767 -0.1434
 8569SOL     OW37339   1.413   3.921   0.589  0.0788  0.5563 -0.3027
 8569SOL    HW137340   1.344   3.859   0.610 -0.5851  0.3820 -2.9943
 8569SOL    HW237341   1.487   3.878   0.631 -0.8135  0.1788  0.8985
 8570SOL     OW37342   2.480   4.492   3.895  0.4274 -0.4550  0.3919
 8570SOL    HW137343   2.547   4.560   3.886 -0.0461  0.1462  1.4492
 8570SOL    HW237344   2.432   4.487   3.813 -2.0702  0.8968  1.7656
 8571SOL     OW37345   1.024   3.349   4.133 -0.0767 -0.0571 -0.3028
 8571SOL    HW137346   1.013   3.254   4.124  1.3919 -0.3384  0.9185
 8571SOL    HW237347   1.023   3.373   4.226 -0.1317 -0.0955 -0.2930
 8572SOL     OW37348   2.174   2.336   2.668  0.3224  0.3231 -0.0754
 8572SOL    HW137349   2.225   2.380   2.735  1.8325 -0.1172 -0.9277
 8572SOL    HW237350   2.188   2.387   2.589 -0.8013  0.0145 -0.4791
 8573SOL     OW37351   1.911   3.765  15.484  0.5937  0.0618 -1.0042
 8573SOL    HW137352   1.998   3.764  15.522  0.1964 -2.0438 -0.1352
 8573SOL    HW237353   1.923   3.693  15.422 -1.4402 -0.1817 -1.1130
 8574SOL     OW37354   4.149   1.787   7.963  0.1040 -0.0650 -0.0294
 8574SOL    HW137355   4.124   1.866   8.010  0.6532  0.2886 -0.3350
 8574SOL    HW237356   4.147   1.818   7.872 -0.0108  1.6047  0.5450
 8575SOL     OW37357   4.546   2.611   2.566 -0.0730 -0.1381 -0.2516
 8575SOL    HW137358   4.622   2.553   2.564 -0.7169 -1.0472  2.1010
 8575SOL    HW237359   4.481   2.548   2.598 -3.8526  2.7194 -2.2939
 8576SOL     OW37360   0.048   2.836   9.260 -0.6629 -0.2732 -0.0762
 8576SOL    HW137361   0.084   2.925   9.268 -2.3306  0.1479  2.9549
 8576SOL    HW237362   4.702   2.853   9.218 -0.8361 -2.1073 -0.4441
 8577SOL     OW37363   2.770   0.271   5.367  0.0496 -0.0231  0.5208
 8577SOL    HW137364   2.794   0.341   5.428  0.6583 -1.9920  2.5464
 8577SOL    HW237365   2.858   0.265   5.331  0.0363  0.7870  0.3585
 8578SOL     OW37366   2.787   4.448   7.421  0.0023 -0.1842 -0.0031
 8578SOL    HW137367   2.857   4.490   7.370  0.5230 -0.8208  0.1778
 8578SOL    HW237368   2.703   4.475   7.386 -0.7524  0.9727  2.6949
 8579SOL     OW37369   2.689   0.772   3.720  0.2327 -0.0524 -0.6626
 8579SOL    HW137370   2.683   0.864   3.697 -1.9079  0.1364  0.6833
 8579SOL    HW237371   2.737   0.729   3.649  1.2478  1.8405 -1.1234
 8580SOL     OW37372   3.671   0.299  13.596 -0.1266 -0.2601 -0.1177
 8580SOL    HW137373   3.579   0.286  13.572  0.2244  0.7426 -1.9566
 8580SOL    HW237374   3.708   0.213  13.576 -0.6933 -0.2530 -1.2002
 8581SOL     OW37375   2.287   1.752  11.059  0.6284  0.5059  0.3536
 8581SOL    HW137376   2.212   1.799  11.093  0.1985 -0.3214  0.5617
 8581SOL    HW237377   2.293   1.798  10.975  0.7770 -1.3559 -0.6685
 8582SOL     OW37378   2.732   0.796   8.038 -0.0139 -0.1123  0.3609
 8582SOL    HW137379   2.720   0.822   8.129 -3.2030 -1.2297  0.2459
 8582SOL    HW237380   2.803   0.733   8.050 -0.0761 -0.1476  0.5465
 8583SOL     OW37381   4.482   0.502   0.198 -0.3461 -0.2597  0.1451
 8583SOL    HW137382   4.459   0.414   0.170  0.2014 -1.0114  2.0456
 8583SOL    HW237383   4.563   0.510   0.149 -0.9209 -1.0881 -0.9306
 8584SOL     OW37384   3.935   1.082   5.227  0.6849  0.0545  0.5110
 8584SOL    HW137385   3.943   1.158   5.170 -1.0951 -1.1712 -1.4044
 8584SOL    HW237386   3.879   1.022   5.177  0.0251  1.5612 -0.5654
 8585SOL     OW37387   3.833   4.451   5.145 -0.2434 -0.2213 -0.8413
 8585SOL    HW137388   3.800   4.501   5.070  2.2570  1.8771 -0.5527
 8585SOL    HW237389   3.891   4.391   5.098 -0.8238 -0.2085 -1.5658
 8586SOL     OW37390   4.677   3.632   4.028  0.2564 -1.1263 -0.1375
 8586SOL    HW137391   4.627   3.714   4.033 -0.4870 -1.8353  4.0393
 8586SOL    HW237392   4.606   3.569   4.039  0.0312 -0.7159  0.7760
 8587SOL     OW37393   3.727   3.465   5.564  0.0863  0.3388 -0.3670
 8587SOL    HW137394   3.635   3.447   5.542 -0.2993 -0.1751  1.6752
 8587SOL    HW237395   3.737   3.420   5.648 -1.0439 -0.7264 -0.7876
 8588SOL     OW37396   3.181   2.020   7.277 -0.3843  0.3001  0.0455
 8588SOL    HW137397   3.258   1.977   7.239 -0.6653 -0.7359  0.6657
 8588SOL    HW237398   3.150   2.074   7.204  0.4925  0.7643  0.0221
 8589SOL     OW37399   1.339   2.664   9.342 -0.3356  0.2677 -0.2107
 8589SOL    HW137400   1.352   2.756   9.319 -0.8981  0.3843 -0.0693
 8589SOL    HW237401   1.297   2.677   9.427  1.4633 -0.9842  0.8584
 8590SOL     OW37402   3.675   4.716   2.823  0.6586  0.2161 -0.2025
 8590SOL    HW137403   3.622   0.037   2.770 -0.2032 -0.2226  0.1635
 8590SOL    HW237404   3.679   0.021   2.908  3.3690  1.6180 -1.0414
 8591SOL     OW37405   0.054   4.133   5.705 -0.1574 -0.1870 -0.0918
 8591SOL    HW137406   0.057   4.210   5.762  0.7349 -1.7227  1.9828
 8591SOL    HW237407   4.703   4.106   5.721 -0.3984  1.5081  1.4579
 8592SOL     OW37408   2.031   2.095   3.011  0.0810 -0.6139 -0.0715
 8592SOL    HW137409   1.950   2.126   3.053  1.4802  0.9985  1.3962
 8592SOL    HW237410   2.098   2.146   3.055 -0.1132 -0.4178 -0.0043
 8593SOL     OW37411   4.240   3.951   6.799  0.6013  0.4131 -0.5468
 8593SOL    HW137412   4.212   4.010   6.869  0.2230 -0.2559 -0.1269
 8593SOL    HW237413   4.160   3.902   6.779  0.4198  0.1220  0.8829
 8594SOL     OW37414   1.642   0.318  10.678 -0.1198 -0.7843  0.8813
 8594SOL    HW137415   1.702   0.306  10.605  0.5352  1.9044  0.9584
 8594SOL    HW237416   1.668   0.407  10.704  0.0397  0.0742 -2.1779
 8595SOL     OW37417   2.087   1.500   7.884 -0.0081 -0.0682  0.3105
 8595SOL    HW137418   2.054   1.499   7.974  0.8791 -0.9123  0.6247
 8595SOL    HW237419   2.176   1.533   7.895 -0.4522  1.2457 -0.0083
 8596SOL     OW37420   4.016   0.911   7.438  0.0188 -0.5405 -0.0230
 8596SOL    HW137421   3.928   0.877   7.424  0.5926 -2.2189  0.4967
 8596SOL    HW237422   4.057   0.830   7.467  1.4960  0.3317  0.3324
 8597SOL     OW37423   3.682   3.474   7.937 -0.5184  0.4676 -0.4843
 8597SOL    HW137424   3.644   3.510   8.017 -0.0778  0.7565 -0.4088
 8597SOL    HW237425   3.750   3.416   7.971 -1.1504  0.1036  0.1556
 8598SOL     OW37426   3.942   1.144   3.658 -0.2879 -0.3684  0.4584
 8598SOL    HW137427   3.959   1.060   3.702 -1.5418 -0.2598  1.1754
 8598SOL    HW237428   3.910   1.108   3.575  0.9586  0.7364 -0.4823
 8599SOL     OW37429   1.059   2.634   3.935  0.1156  0.2991 -0.1427
 8599SOL    HW137430   0.984   2.602   3.884 -0.6619  1.4151  0.2890
 8599SOL    HW237431   1.027   2.644   4.024  0.3776  1.7342 -0.2029
 8600SOL     OW37432   1.759   4.313   5.951  0.2115  0.2371 -0.1862
 8600SOL    HW137433   1.747   4.220   5.971  1.1914  0.6588  2.3989
 8600SOL    HW237434   1.853   4.327   5.960  0.4015 -1.0444 -0.2423
 8601SOL     OW37435   3.609   4.238   7.238 -0.0156  0.4489 -0.0713
 8601SOL    HW137436   3.584   4.330   7.241  1.0616  0.7983 -2.0287
 8601SOL    HW237437   3.545   4.197   7.296  0.8358 -0.8188 -0.0277
 8602SOL     OW37438   2.854   0.616   1.725 -0.1770 -0.2045  0.3980
 8602SOL    HW137439   2.804   0.560   1.784 -0.3848  1.9709  2.2934
 8602SOL    HW237440   2.944   0.587   1.734 -0.8481 -2.8198 -1.5347
 8603SOL     OW37441   3.000   2.218  12.337  0.1810  0.4181 -0.1349
 8603SOL    HW137442   2.952   2.139  12.364  0.3242  0.0150 -1.0512
 8603SOL    HW237443   3.035   2.189  12.253  2.1293  1.6374  0.2766
 8604SOL     OW37444   3.217   1.636  10.437 -0.2545 -0.0314 -0.1090
 8604SOL    HW137445   3.139   1.647  10.383 -0.9937  1.1311  1.2278
 8604SOL    HW237446   3.197   1.664  10.526 -3.2681  0.9742 -1.1043
 8605SOL     OW37447   3.229   3.152   9.417 -0.4351  0.8464 -0.0814
 8605SOL    HW137448   3.241   3.244   9.393  1.8073  0.1601 -1.6800
 8605SOL    HW237449   3.142   3.138   9.379  0.2096 -2.3181 -0.4216
 8606SOL     OW37450   3.263   1.729  13.051  0.0144 -0.4863  0.4415
 8606SOL    HW137451   3.333   1.689  13.103 -1.1409 -0.4330  2.0795
 8606SOL    HW237452   3.284   1.814  13.089  0.4162  0.3299 -1.6155
 8607SOL     OW37453   3.497   2.470   3.310 -0.2591 -0.9747 -0.1857
 8607SOL    HW137454   3.449   2.531   3.367  0.2643 -1.8245  1.1635
 8607SOL    HW237455   3.498   2.522   3.229  0.9129  2.1834  1.8439
 8608SOL     OW37456   2.588   3.617   9.758 -0.5364  0.2031 -0.2720
 8608SOL    HW137457   2.552   3.570   9.833 -0.8325  1.0516  0.1224
 8608SOL    HW237458   2.538   3.696   9.776  0.4590  0.7635  0.0760
 8609SOL     OW37459   1.144   4.562   4.981  0.3060 -0.4899  0.5191
 8609SOL    HW137460   1.226   4.532   5.019  1.3494 -0.0517 -1.3799
 8609SOL    HW237461   1.123   4.500   4.911 -0.8116  1.8000 -1.1597
 8610SOL     OW37462   1.294   1.462  17.422  0.1147  0.7100  0.4457
 8610SOL    HW137463   1.211   1.423  17.393 -0.8757  1.2042  2.6013
 8610SOL    HW237464   1.279   1.441  17.515 -0.9116  2.4717  0.6821
 8611SOL     OW37465   4.332   2.751  11.246  0.1967 -0.0399  0.4096
 8611SOL    HW137466   4.387   2.763  11.323  1.8833 -0.2771 -0.7484
 8611SOL    HW237467   4.283   2.833  11.244 -1.2302 -0.8892  0.2753
 8612SOL     OW37468   4.383   0.374   7.460  0.1021  0.2431  0.1376
 8612SOL    HW137469   4.466   0.411   7.430  0.0888  0.3386  0.2236
 8612SOL    HW237470   4.367   0.426   7.538  0.6615 -0.6001  0.8123
 8613SOL     OW37471   2.942   1.399   6.982 -0.3601 -0.1738  0.4083
 8613SOL    HW137472   2.939   1.304   6.974 -0.1515 -0.0920 -0.6403
 8613SOL    HW237473   3.032   1.410   7.012 -0.1831 -0.0216 -0.1791
 8614SOL     OW37474   0.884   3.966   6.121 -0.2507  0.3259 -0.7947
 8614SOL    HW137475   0.829   3.988   6.197  1.0371 -0.1970  0.2815
 8614SOL    HW237476   0.875   4.048   6.072  1.5642 -0.6841 -2.7808
 8615SOL     OW37477   1.160   0.883   3.681 -0.1812 -0.1700  1.1703
 8615SOL    HW137478   1.126   0.794   3.670  1.6618 -0.3108 -3.5828
 8615SOL    HW237479   1.201   0.882   3.767  0.6040  0.6310  0.8142
 8616SOL     OW37480   0.127   3.453  15.514  0.2278 -0.2010 -0.4084
 8616SOL    HW137481   0.100   3.422  15.427  0.3683  0.7187 -0.7745
 8616SOL    HW237482   0.201   3.503  15.479 -1.0107  2.9624  1.5575
 8617SOL     OW37483   2.517   1.436   2.204  0.8775  0.0471 -0.1145
 8617SOL    HW137484   2.446   1.445   2.140  1.5880  0.3585 -0.8502
 8617SOL    HW237485   2.515   1.525   2.241  1.2045 -0.0829  0.2016
 8618SOL     OW37486   0.868   1.386   9.763  0.3271  0.1745  0.2104
 8618SOL    HW137487   0.861   1.372   9.857 -0.6292  1.2402  0.3009
 8618SOL    HW237488   0.884   1.299   9.728  0.7660  0.0330  0.7653
 8619SOL     OW37489   0.475   4.158   3.127  0.4317 -0.2792  0.2749
 8619SOL    HW137490   0.570   4.172   3.119  0.6036 -1.5826 -0.1018
 8619SOL    HW237491   0.473   4.063   3.115 -0.8382 -0.3280  0.9079
 8620SOL     OW37492   3.647   1.053   1.218 -0.3591  0.2709  0.4594
 8620SOL    HW137493   3.689   1.020   1.297 -2.7681 -0.4629  1.4279
 8620SOL    HW237494   3.612   0.974   1.177  0.3057 -0.5827  1.5479
 8621SOL     OW37495   3.659   3.492   3.202 -1.2458 -0.1978 -0.0739
 8621SOL    HW137496   3.572   3.504   3.163 -0.7117 -0.8885 -1.4932
 8621SOL    HW237497   3.709   3.524   3.127 -2.0488  0.9603 -0.1085
 8622SOL     OW37498   0.978   1.442   5.260  0.0534 -0.2644  0.2479
 8622SOL    HW137499   0.950   1.394   5.338  2.4390  1.2678  2.0305
 8622SOL    HW237500   1.072   1.446   5.273  0.1952 -0.6230 -0.6481
 8623SOL     OW37501   2.822   0.150   6.804 -0.2976 -0.6940 -0.0071
 8623SOL    HW137502   2.853   0.070   6.846  3.2094  1.3241  1.1789
 8623SOL    HW237503   2.898   0.164   6.748 -1.6176  0.3742 -1.5767
 8624SOL     OW37504   0.251   0.940  16.143 -0.1647 -0.3982 -0.4380
 8624SOL    HW137505   0.191   0.906  16.210 -0.5997 -0.4020 -0.8269
 8624SOL    HW237506   0.243   1.034  16.155 -0.6621 -0.6271  1.0190
 8625SOL     OW37507   2.953   2.171   6.281 -0.1642  0.1705 -0.3709
 8625SOL    HW137508   2.927   2.089   6.240  2.2447 -1.0374  0.5266
 8625SOL    HW237509   3.047   2.175   6.263 -0.0050 -1.2008  0.0987
 8626SOL     OW37510   4.046   4.620   7.600 -0.0714 -1.1519  0.8116
 8626SOL    HW137511   3.982   4.645   7.667  0.8731  1.9100  0.5640
 8626SOL    HW237512   3.996   4.632   7.519 -1.4438 -3.4499  1.3229
 8627SOL     OW37513   4.367   1.675   4.417  0.0676  0.4177 -0.0292
 8627SOL    HW137514   4.305   1.642   4.482  1.1454 -0.6047  0.4776
 8627SOL    HW237515   4.334   1.765   4.414 -2.0284 -0.3715 -1.1027
 8628SOL     OW37516   0.182   1.958   6.096  0.1180  0.1170  0.5362
 8628SOL    HW137517   0.266   2.003   6.092 -0.9248  1.7696 -3.2877
 8628SOL    HW237518   0.124   2.034   6.091  0.8330  0.5154 -1.4880
 8629SOL     OW37519   2.227   1.812  13.249  0.0952 -0.6287  0.4261
 8629SOL    HW137520   2.278   1.829  13.170  1.3788  0.3909  1.4562
 8629SOL    HW237521   2.289   1.757  13.299  0.4825  1.2086  1.9838
 8630SOL     OW37522   3.563   1.956   4.875 -0.2135 -0.9459  0.7722
 8630SOL    HW137523   3.547   2.028   4.937  1.4351  1.3294 -1.4291
 8630SOL    HW237524   3.488   1.903   4.901 -0.3307 -0.6609  1.0314
 8631SOL     OW37525   1.354   3.399   1.123  0.0546  0.4878  0.0886
 8631SOL    HW137526   1.299   3.345   1.179  4.4172 -2.0921  1.8734
 8631SOL    HW237527   1.327   3.382   1.033  0.9571 -0.6437  0.0324
 8632SOL     OW37528   3.382   3.823   8.387 -1.0007  0.2304  0.4361
 8632SOL    HW137529   3.471   3.819   8.352 -1.3825  0.0342 -0.5122
 8632SOL    HW237530   3.392   3.810   8.481  1.7891 -0.1750  0.0941
 8633SOL     OW37531   3.955   3.468   7.717 -0.2650  0.3207 -0.1181
 8633SOL    HW137532   4.043   3.432   7.706 -1.3587 -3.5801  3.9198
 8633SOL    HW237533   3.952   3.519   7.636 -1.1329  0.0219 -0.2798
 8634SOL     OW37534   2.255   2.339   4.264 -0.1003 -0.1435 -0.0655
 8634SOL    HW137535   2.305   2.275   4.315  2.3002  0.0119 -2.1913
 8634SOL    HW237536   2.243   2.289   4.183 -0.4049  1.2124 -0.8571
 8635SOL     OW37537   4.266   2.793   2.389 -0.0623 -0.2312  0.2517
 8635SOL    HW137538   4.360   2.785   2.374 -0.4112  0.2294 -2.1987
 8635SOL    HW237539   4.270   2.838   2.474  4.4522  0.1742 -0.1753
 8636SOL     OW37540   4.682   1.017   3.931 -0.1473  0.3986  0.1052
 8636SOL    HW137541   4.700   1.011   3.837 -0.7750 -1.3044  0.0915
 8636SOL    HW237542   4.683   0.924   3.956  1.5825  0.2730 -0.4037
 8637SOL     OW37543   2.834   3.820   4.356  0.4912 -0.0755  0.0310
 8637SOL    HW137544   2.821   3.812   4.261 -1.8692  2.0394  0.1865
 8637SOL    HW237545   2.755   3.872   4.372 -0.0370 -0.4590 -1.3247
 8638SOL     OW37546   0.854   3.501   3.322 -0.3865 -0.3633  0.1635
 8638SOL    HW137547   0.911   3.536   3.391 -0.8932  1.3386 -0.2911
 8638SOL    HW237548   0.801   3.576   3.295  0.0539 -0.6069 -1.3516
 8639SOL     OW37549   2.720   1.872   1.136  0.1600  0.0243  0.6601
 8639SOL    HW137550   2.645   1.839   1.087  1.1059 -0.1615 -0.6814
 8639SOL    HW237551   2.778   1.802   1.106  0.8180  0.9130 -0.1634
 8640SOL     OW37552   3.516   3.882  14.340  0.7260 -0.1641  0.3291
 8640SOL    HW137553   3.524   3.846  14.251 -1.7099  3.3637 -1.3133
 8640SOL    HW237554   3.438   3.938  14.340  2.4172  2.1959 -0.5543
 8641SOL     OW37555   2.540   1.972  13.419 -0.0423 -1.0752 -0.4026
 8641SOL    HW137556   2.534   1.903  13.486  2.4823 -3.5555 -2.7225
 8641SOL    HW237557   2.571   1.918  13.347 -0.2807 -1.0416 -0.5310
 8642SOL     OW37558   0.393   4.483   7.073  0.6449  0.4267 -0.0633
 8642SOL    HW137559   0.389   4.546   7.001 -1.3846  0.7127  0.2970
 8642SOL    HW237560   0.412   4.402   7.026  1.8280  1.2942 -1.0689
 8643SOL     OW37561   2.832   1.909   3.735 -0.0305 -0.0663  0.1628
 8643SOL    HW137562   2.786   1.974   3.788  1.2995  0.1819  1.0086
 8643SOL    HW237563   2.804   1.930   3.646  0.2708 -0.3363  0.0034
 8644SOL     OW37564   4.043   0.003   7.227  0.1172  0.1198  0.0054
 8644SOL    HW137565   3.965   0.057   7.240  0.8783  1.2182  0.0451
 8644SOL    HW237566   4.104   0.053   7.282  0.4001  1.7493 -1.7941
 8645SOL     OW37567   3.623   0.507  13.820  0.5045  0.3077 -0.2680
 8645SOL    HW137568   3.618   0.414  13.843 -1.3950  0.8984  1.7744
 8645SOL    HW237569   3.640   0.542  13.908 -0.2412  2.1704 -0.8754
 8646SOL     OW37570   4.035   3.402  10.698  0.3235 -0.3358 -0.2118
 8646SOL    HW137571   3.945   3.383  10.722  0.3122 -1.5290 -1.2267
 8646SOL    HW237572   4.026   3.437  10.610  0.4690 -1.0861 -0.5197
 8647SOL     OW37573   2.678   1.532   3.504 -0.2798  0.7252  0.1426
 8647SOL    HW137574   2.700   1.506   3.414 -0.1089  0.4825  0.2551
 8647SOL    HW237575   2.583   1.521   3.501 -0.6071  3.0034  2.2451
 8648SOL     OW37576   3.137   0.704   8.215  0.5780  0.8877  0.0392
 8648SOL    HW137577   3.228   0.686   8.240  0.7432  1.0509 -0.4367
 8648SOL    HW237578   3.141   0.799   8.203 -0.4391  0.9694  0.3837
 8649SOL     OW37579   3.978   0.055   9.812  0.6344  0.1605  0.2243
 8649SOL    HW137580   4.003   0.139   9.773  0.7695  0.0566  0.0860
 8649SOL    HW237581   3.884   0.068   9.825  0.3619 -1.3900 -0.2376
 8650SOL     OW37582   0.717   1.822   6.374  0.1091 -0.1287  0.3920
 8650SOL    HW137583   0.665   1.851   6.300 -1.1904 -1.3502  0.8237
 8650SOL    HW237584   0.679   1.738   6.400 -0.1037 -0.7559 -1.9400
 8651SOL     OW37585   4.724   3.108   8.122 -0.2063  0.1069 -0.2116
 8651SOL    HW137586   4.703   3.198   8.096 -0.5373  0.5530  1.6186
 8651SOL    HW237587   0.072   3.092   8.086 -0.3233  0.5474 -0.6895
 8652SOL     OW37588   3.541   2.668   4.655  0.3686  0.2649  0.1510
 8652SOL    HW137589   3.578   2.716   4.729  2.6159  0.0194 -0.8070
 8652SOL    HW237590   3.611   2.610   4.626 -0.9254 -0.9934 -0.4451
 8653SOL     OW37591   4.077   1.286   0.286  0.3783  0.6557  0.4150
 8653SOL    HW137592   4.074   1.242   0.371  0.1394 -0.8218 -0.3585
 8653SOL    HW237593   4.021   1.361   0.305 -1.2410 -0.3094 -0.6095
 8654SOL     OW37594   2.371   4.025   4.725 -0.6994 -0.6259 -0.6115
 8654SOL    HW137595   2.324   4.097   4.682  1.9245  1.1475 -0.4810
 8654SOL    HW237596   2.308   3.959   4.695 -0.7297 -1.2146  0.7806
 8655SOL     OW37597   3.535   0.406  14.547 -0.3501 -0.0513 -0.3691
 8655SOL    HW137598   3.477   0.481  14.535 -3.1663 -2.2179 -0.3609
 8655SOL    HW237599   3.515   0.355  14.469  0.2422 -1.0037  0.0986
 8656SOL     OW37600   4.569   4.065  12.767 -0.3146 -0.0178 -0.1488
 8656SOL    HW137601   4.495   4.052  12.708 -1.0236 -2.1064  1.1729
 8656SOL    HW237602   4.595   3.974  12.781  0.2466 -0.0281 -1.3349
 8657SOL     OW37603   0.290   2.658   7.870  0.1954 -0.1431  0.6267
 8657SOL    HW137604   0.277   2.603   7.948  0.5246  2.5865  2.6045
 8657SOL    HW237605   0.349   2.729   7.896 -0.8344  1.1191 -0.5183
 8658SOL     OW37606   1.431   1.119   7.221  0.2719 -0.1538 -0.4157
 8658SOL    HW137607   1.369   1.186   7.249 -2.9153 -3.0928 -0.5172
 8658SOL    HW237608   1.378   1.040   7.216 -0.6880  0.3229  2.2591
 8659SOL     OW37609   2.537   3.744   1.571 -0.1720  0.7467 -0.5145
 8659SOL    HW137610   2.462   3.736   1.630  1.3622  0.2601  1.3662
 8659SOL    HW237611   2.490   3.713   1.494 -0.7950 -2.0794  0.9877
 8660SOL     OW37612   3.231   2.179   9.282  0.0829  0.3954  0.1852
 8660SOL    HW137613   3.309   2.192   9.228 -0.6588 -0.5364 -1.1066
 8660SOL    HW237614   3.189   2.259   9.249 -1.3291 -0.0503  0.9098
 8661SOL     OW37615   1.107   4.273   3.020  0.5510 -0.1714  0.6004
 8661SOL    HW137616   1.045   4.335   2.982  2.2118  1.2630  0.1912
 8661SOL    HW237617   1.063   4.191   2.996 -0.3793  0.2571  0.8317
 8662SOL     OW37618   4.560   1.237  15.890 -0.3113 -0.0661 -0.4573
 8662SOL    HW137619   4.627   1.169  15.897 -0.6529 -0.3157  0.4794
 8662SOL    HW237620   4.509   1.202  15.817 -1.3209 -2.1412  1.2441
 8663SOL     OW37621   3.433   4.033   2.142 -0.1747  0.2098 -0.0366
 8663SOL    HW137622   3.455   3.943   2.117 -1.8707 -0.2617  0.1446
 8663SOL    HW237623   3.473   4.080   2.070 -1.0165 -0.2067 -0.7805
 8664SOL     OW37624   3.755   2.720   6.255 -0.0282 -0.3964  0.1527
 8664SOL    HW137625   3.840   2.685   6.282  0.3307  2.5649  2.8757
 8664SOL    HW237626   3.750   2.774   6.333  2.2302  0.8522 -0.5558
 8665SOL     OW37627   0.819   0.150   1.709 -0.3333  0.5630  0.2517
 8665SOL    HW137628   0.830   0.182   1.620  2.0300  1.5112  0.8882
 8665SOL    HW237629   0.883   0.208   1.750  0.5376 -0.6328  0.5806
 8666SOL     OW37630   0.874   0.283   7.987  0.2743 -0.2458  0.2037
 8666SOL    HW137631   0.959   0.243   8.005  1.2958  2.1480  0.6592
 8666SOL    HW237632   0.843   0.228   7.914 -1.0963  0.6736  0.0929
 8667SOL     OW37633   1.347   3.746   5.064 -0.3388  0.2568  0.0041
 8667SOL    HW137634   1.299   3.790   4.994  0.9473 -0.0580 -1.0624
 8667SOL    HW237635   1.285   3.765   5.135 -0.5920  0.2613 -0.2214
 8668SOL     OW37636   1.155   1.229   8.137 -0.1704 -0.1456 -0.3962
 8668SOL    HW137637   1.090   1.160   8.155 -1.3467  1.0136 -0.1966
 8668SOL    HW237638   1.186   1.245   8.226  2.1273 -0.1937 -1.2024
 8669SOL     OW37639   3.120   2.675   4.517  0.6292 -0.5780 -0.1160
 8669SOL    HW137640   3.100   2.769   4.514  2.8447 -0.2116 -2.6988
 8669SOL    HW237641   3.041   2.636   4.480 -1.1570  3.0719 -0.2014
 8670SOL     OW37642   1.963   3.527   8.671 -0.5867 -0.2068 -0.7381
 8670SOL    HW137643   1.875   3.545   8.636 -0.5296  0.7725 -0.3771
 8670SOL    HW237644   1.927   3.451   8.716 -1.1368  0.0513 -0.7345
 8671SOL     OW37645   0.305   0.153   5.582  0.6194  0.3033  0.0957
 8671SOL    HW137646   0.218   0.170   5.547 -0.1023 -0.3683  1.5811
 8671SOL    HW237647   0.324   0.070   5.538 -2.4007  0.4121 -1.3736
 8672SOL     OW37648   3.932   0.641  15.288  0.3239 -0.2993 -0.2395
 8672SOL    HW137649   3.878   0.580  15.338  0.6615  0.8690  1.5192
 8672SOL    HW237650   3.875   0.667  15.215 -0.5232 -1.6239 -0.0482
 8673SOL     OW37651   2.682   4.597   7.042 -0.1399  0.4057 -0.4571
 8673SOL    HW137652   2.777   4.586   7.030 -0.4200  1.4735 -3.5952
 8673SOL    HW237653   2.665   4.552   6.959  3.8027 -0.3587 -0.8962
 8674SOL     OW37654   0.497   2.312   1.344 -0.5939 -0.4698  1.0141
 8674SOL    HW137655   0.548   2.261   1.281  0.2374 -0.6366  1.8181
 8674SOL    HW237656   0.519   2.265   1.425 -2.5703 -2.4174  0.4122
 8675SOL     OW37657   4.495   1.673   2.566  0.0521 -0.2850 -0.3102
 8675SOL    HW137658   4.578   1.626   2.555  0.2035 -0.1492  0.2564
 8675SOL    HW237659   4.464   1.674   2.476 -0.8380 -0.2748 -0.0011
 8676SOL     OW37660   0.402   0.580   5.701 -0.1323  0.3059  0.7909
 8676SOL    HW137661   0.309   0.566   5.686  0.0304 -1.7235  1.6504
 8676SOL    HW237662   0.441   0.493   5.687  0.2708  1.0094 -2.5431
 8677SOL     OW37663   0.757   1.249  17.692 -0.3572  0.2625 -0.0813
 8677SOL    HW137664   0.794   1.329  17.654  1.0191 -0.4549 -0.2570
 8677SOL    HW237665   0.831   1.190  17.678  0.2438  0.6895  1.2193
 8678SOL     OW37666   0.957   2.981  15.033  0.1963 -0.2734 -0.2886
 8678SOL    HW137667   0.998   2.902  15.069  0.6044  0.3242  0.5832
 8678SOL    HW237668   0.923   2.962  14.946  0.8785  1.2187 -0.8758
 8679SOL     OW37669   3.959   1.171   3.170  0.3381  0.0273  0.4871
 8679SOL    HW137670   4.037   1.163   3.115 -1.5116  0.9158 -2.2381
 8679SOL    HW237671   3.935   1.261   3.147 -0.8904 -0.3570  0.2954
 8680SOL     OW37672   2.239   4.431   2.868 -0.4642 -0.3784 -0.3944
 8680SOL    HW137673   2.151   4.418   2.903 -0.2220  0.8958  0.6782
 8680SOL    HW237674   2.246   4.370   2.794 -0.5925  0.5771 -1.1820
 8681SOL     OW37675   3.916   4.589   0.648  0.1177  0.5429  0.1016
 8681SOL    HW137676   4.002   4.557   0.672  0.6038  0.4707 -1.7306
 8681SOL    HW237677   3.936   4.676   0.612  3.8361  0.2971  1.5889
 8682SOL     OW37678   3.690   2.941   0.486  0.4578 -0.2589  0.1814
 8682SOL    HW137679   3.777   2.975   0.463  0.0471  1.3028  0.8967
 8682SOL    HW237680   3.708   2.857   0.528  1.4879 -0.0297  0.2108
 8683SOL     OW37681   3.225   2.003   2.917 -0.2287 -0.2872 -0.3183
 8683SOL    HW137682   3.261   1.965   2.836 -1.8107  0.0836 -1.2061
 8683SOL    HW237683   3.243   1.929   2.974  2.0406  1.7936  1.6244
 8684SOL     OW37684   1.153   4.053   8.891  0.4524 -0.1671  0.1349
 8684SOL    HW137685   1.167   4.055   8.986 -0.9871  0.2778  0.3384
 8684SOL    HW237686   1.058   4.045   8.892  0.6631 -2.7401  0.2018
 8685SOL     OW37687   2.701   1.258   4.235 -0.3901 -0.0407  0.1009
 8685SOL    HW137688   2.671   1.176   4.196 -2.1582  0.4047  0.5130
 8685SOL    HW237689   2.675   1.323   4.170  1.4549  0.6849  0.0978
 8686SOL     OW37690   4.600   0.776   0.548 -0.2733  0.2373  0.2510
 8686SOL    HW137691   4.562   0.845   0.602 -3.1148 -0.5781 -0.7073
 8686SOL    HW237692   4.522   0.733   0.513 -0.8848  1.4604  0.1187
 8687SOL     OW37693   4.390   4.642  11.549 -0.2249  0.8152  0.2413
 8687SOL    HW137694   4.308   4.603  11.520  1.1335 -0.4588 -1.8538
 8687SOL    HW237695   4.399   4.727  11.505 -2.6772  0.4119 -1.0293
 8688SOL     OW37696   4.397   4.468   0.732  0.4194 -0.1718  0.3989
 8688SOL    HW137697   4.396   4.485   0.826 -0.9874 -2.1065  0.7349
 8688SOL    HW237698   4.486   4.434   0.728 -0.5695 -2.8186  0.4075
 8689SOL     OW37699   3.793   2.205   7.542  0.1566  0.4748  0.1700
 8689SOL    HW137700   3.855   2.195   7.614  1.1715  2.0654 -0.4880
 8689SOL    HW237701   3.720   2.254   7.581 -1.9350 -3.2934  1.0356
 8690SOL     OW37702   0.416   4.600   8.818  0.2769  0.0224 -0.2924
 8690SOL    HW137703   0.447   4.635   8.902 -1.6309  2.2730 -0.5370
 8690SOL    HW237704   0.366   4.676   8.788 -2.1660 -0.5514  2.3836
 8691SOL     OW37705   3.383   1.079   2.236  0.5389  0.3279 -0.5356
 8691SOL    HW137706   3.332   0.999   2.253  0.5301  0.3239 -0.5814
 8691SOL    HW237707   3.339   1.113   2.158  1.3945  2.6237 -0.0123
 8692SOL     OW37708   3.185   0.384   3.620 -0.2083  0.0168 -0.1031
 8692SOL    HW137709   3.174   0.458   3.679 -0.5092  0.3288 -0.5562
 8692SOL    HW237710   3.267   0.349   3.656  0.2691 -0.7768 -1.9604
 8693SOL     OW37711   4.058   1.402  10.091 -0.1082  0.1820 -0.6681
 8693SOL    HW137712   4.068   1.489  10.051 -0.1220 -0.1402 -1.3816
 8693SOL    HW237713   4.046   1.423  10.183  1.0844 -0.8454 -0.2701
 8694SOL     OW37714   1.132   3.284   9.813 -0.1191  1.0122  0.0962
 8694SOL    HW137715   1.052   3.245   9.778 -0.1094 -2.4913  3.9607
 8694SOL    HW237716   1.132   3.253   9.904  3.5304  0.6202 -0.0396
 8695SOL     OW37717   4.567   1.059   5.760 -0.3755 -0.4644 -0.3928
 8695SOL    HW137718   4.554   1.119   5.834 -1.9830 -2.3366  0.8505
 8695SOL    HW237719   4.578   0.974   5.804 -3.9865 -0.5730  0.2852
 8696SOL     OW37720   0.148   2.243   5.173 -0.3015 -0.0810  0.3603
 8696SOL    HW137721   0.152   2.198   5.088 -0.9651  2.2242 -0.8745
 8696SOL    HW237722   0.079   2.190   5.212 -0.4558 -1.0119 -1.1815
 8697SOL     OW37723   0.818   2.151   8.349  0.2421 -0.0561 -0.4042
 8697SOL    HW137724   0.907   2.178   8.327  0.1009 -0.3883 -1.3714
 8697SOL    HW237725   0.832   2.141   8.443  1.5010  1.1661 -0.4522
 8698SOL     OW37726   0.401   0.039  10.571 -0.0213 -0.6742 -0.2934
 8698SOL    HW137727   0.373   4.706  10.628  0.4470 -0.4623  0.1990
 8698SOL    HW237728   0.406   0.094  10.649  0.7721 -1.7983  0.4370
 8699SOL     OW37729   2.052   4.334  14.333  0.2530 -0.1888  0.4254
 8699SOL    HW137730   2.065   4.428  14.321 -0.9403 -0.0972 -0.2244
 8699SOL    HW237731   2.102   4.304  14.257  0.8183 -0.0208  0.7394
 8700SOL     OW37732   2.567   2.600  13.084 -0.1781  0.0234 -0.3927
 8700SOL    HW137733   2.652   2.634  13.111 -1.2938  1.4759  1.2892
 8700SOL    HW237734   2.589   2.515  13.046  0.7776 -1.0710  2.5652
 8701SOL     OW37735   0.332   0.610   1.912  0.0689 -0.7470  0.3980
 8701SOL    HW137736   0.381   0.600   1.830  1.7557  0.7412  1.2145
 8701SOL    HW237737   0.305   0.523   1.942 -1.0217  0.1947  2.1417
 8702SOL     OW37738   2.001   1.901   7.632 -0.1831 -0.8083 -0.0471
 8702SOL    HW137739   2.056   1.979   7.625  1.3675 -1.8171  0.7179
 8702SOL    HW237740   2.062   1.848   7.685  0.9861 -0.0969 -0.6912
 8703SOL     OW37741   3.485   1.168   7.918  0.1284 -0.4794 -0.5949
 8703SOL    HW137742   3.391   1.181   7.921  0.1778 -0.8048  2.0800
 8703SOL    HW237743   3.506   1.184   8.010  2.0943  1.2976 -1.3445
 8704SOL     OW37744   4.581   0.782  16.086  0.0222 -0.7254 -0.2513
 8704SOL    HW137745   4.636   0.750  16.015  0.7082 -0.4090  0.1289
 8704SOL    HW237746   4.488   0.782  16.066  0.0005  1.7433 -0.1529
 8705SOL     OW37747   3.065   0.349   5.939  0.3640 -0.4792  0.0896
 8705SOL    HW137748   3.040   0.433   5.901 -1.1998  0.0861  2.3663
 8705SOL    HW237749   3.157   0.361   5.962  1.0523  1.6117 -3.6508
 8706SOL     OW37750   2.829   0.124   4.001 -1.0122 -0.0278  0.3218
 8706SOL    HW137751   2.783   0.055   4.048 -2.1037  1.0431  0.8569
 8706SOL    HW237752   2.858   0.180   4.073 -1.8788  1.5810 -0.5500
 8707SOL     OW37753   0.819   2.543   7.481 -0.7491 -0.0355 -0.1203
 8707SOL    HW137754   0.780   2.468   7.436 -1.0440  0.6363 -0.9792
 8707SOL    HW237755   0.906   2.542   7.442  0.0136 -1.1421  1.5724
 8708SOL     OW37756   0.895   4.463   8.782 -0.1686  0.1256 -0.1009
 8708SOL    HW137757   0.903   4.525   8.855  1.5093  0.4461 -0.5561
 8708SOL    HW237758   0.867   4.524   8.714 -2.2969 -1.9011 -1.0303
 8709SOL     OW37759   1.354   1.804  14.472 -0.2871 -0.0126  0.2033
 8709SOL    HW137760   1.448   1.817  14.455 -0.4499 -1.0336 -1.5560
 8709SOL    HW237761   1.310   1.801  14.387 -0.3767  1.1404  0.2173
 8710SOL     OW37762   3.562   2.661  11.946  0.0693 -0.3283 -0.3346
 8710SOL    HW137763   3.626   2.591  11.961 -1.0709 -1.3777 -0.3351
 8710SOL    HW237764   3.614   2.734  11.913 -0.3243  1.8502  3.9078
 8711SOL     OW37765   0.771   4.373   4.078 -0.1342 -0.1787  0.3328
 8711SOL    HW137766   0.809   4.450   4.120  0.3855 -1.7906  2.7692
 8711SOL    HW237767   0.710   4.410   4.014  0.6184  0.0849 -0.2436
 8712SOL     OW37768   1.878   2.329   5.556 -0.0492  0.1441 -0.2701
 8712SOL    HW137769   1.952   2.345   5.497  0.2575 -2.1108 -0.4885
 8712SOL    HW237770   1.837   2.414   5.543  2.7413  1.2953 -1.5559
 8713SOL     OW37771   4.427   1.432   3.648  0.3217 -0.3581  0.1875
 8713SOL    HW137772   4.443   1.387   3.565 -1.1611 -0.0566 -0.2629
 8713SOL    HW237773   4.356   1.375   3.679  0.6848 -2.1919 -2.3862
 8714SOL     OW37774   1.015   4.430  11.227 -0.6708  0.4401  0.0963
 8714SOL    HW137775   1.031   4.504  11.285  0.2535 -0.7645  1.3500
 8714SOL    HW237776   0.996   4.465  11.139 -0.6678 -0.4617 -0.2615
 8715SOL     OW37777   0.425   1.301   5.567  0.4346 -0.1284  0.4334
 8715SOL    HW137778   0.401   1.370   5.630  1.2590  2.5798 -2.2073
 8715SOL    HW237779   0.507   1.267   5.602 -0.2772 -0.1660  2.0493
 8716SOL     OW37780   1.138   1.933   9.504 -0.0753  0.5181 -0.3145
 8716SOL    HW137781   1.218   1.897   9.465  0.0351  0.2288  0.1873
 8716SOL    HW237782   1.144   1.871   9.576  1.9684 -1.5770 -2.2607
 8717SOL     OW37783   4.619   1.614   8.833  0.1192  0.3815 -0.9803
 8717SOL    HW137784   4.562   1.539   8.848 -0.5716  0.7345 -1.8769
 8717SOL    HW237785   4.664   1.628   8.916 -0.8782  2.9916 -0.8515
 8718SOL     OW37786   0.475   4.687   5.662 -0.0574 -0.1121 -0.0727
 8718SOL    HW137787   0.533   4.729   5.599  0.1496 -0.0189  0.1803
 8718SOL    HW237788   0.453   0.028   5.710  0.3958 -1.0465  1.6863
 8719SOL     OW37789   0.828   0.542   8.121 -0.1247  0.2846  0.5511
 8719SOL    HW137790   0.897   0.568   8.060 -0.1234 -1.4256 -0.1804
 8719SOL    HW237791   0.828   0.447   8.113 -0.5032  0.4829 -1.9332
 8720SOL     OW37792   4.229   1.847   3.720 -0.5329 -0.3435 -0.3453
 8720SOL    HW137793   4.297   1.908   3.750 -1.6281  1.1987 -0.9544
 8720SOL    HW237794   4.253   1.852   3.627 -0.0360  0.2709 -0.1847
 8721SOL     OW37795   3.011   3.226   6.678 -0.4485  0.7331  0.0198
 8721SOL    HW137796   3.016   3.305   6.732 -1.7078  0.3957  0.6436
 8721SOL    HW237797   3.104   3.214   6.659 -0.5848 -0.3712  0.0139
 8722SOL     OW37798   1.626   4.247   6.795  0.0806 -0.1045 -0.2315
 8722SOL    HW137799   1.555   4.195   6.757  0.3083  0.0043 -0.7945
 8722SOL    HW237800   1.700   4.190   6.775  1.6155  1.3562  1.3828
 8723SOL     OW37801   2.533   4.615  17.374 -0.2385 -0.2001 -0.0142
 8723SOL    HW137802   2.553   4.557  17.300  2.0099 -1.8140  1.8692
 8723SOL    HW237803   2.627   4.635  17.381 -0.3555 -0.3981  1.9097
 8724SOL     OW37804   3.260   1.809   3.089  0.5380 -0.4096 -0.1113
 8724SOL    HW137805   3.239   1.798   3.182 -0.6605  0.8057 -0.2450
 8724SOL    HW237806   3.234   1.721   3.063 -2.0196  0.4652 -0.4783
 8725SOL     OW37807   1.796   1.652   1.451 -0.0658 -0.3718 -0.6660
 8725SOL    HW137808   1.876   1.649   1.504 -0.8336 -3.0789  0.3366
 8725SOL    HW237809   1.838   1.625   1.370 -0.6556 -3.4165  0.0139
 8726SOL     OW37810   1.092   2.471  17.716 -0.1939 -0.7717  0.1778
 8726SOL    HW137811   1.019   2.527  17.692 -0.8912 -1.2201  1.2642
 8726SOL    HW237812   1.048   2.391  17.687 -0.8651 -0.3320 -0.0148
 8727SOL     OW37813   2.987   3.087  16.417  0.5228  0.3681  0.2721
 8727SOL    HW137814   2.984   3.090  16.512 -2.5158 -3.0855  0.3090
 8727SOL    HW237815   2.939   3.008  16.392 -1.0777  1.3853  0.1357
 8728SOL     OW37816   1.783   1.445   4.947 -0.3784  0.1645 -0.3710
 8728SOL    HW137817   1.688   1.451   4.950 -0.2950  0.9922  0.5900
 8728SOL    HW237818   1.819   1.495   5.021 -0.0295 -1.0912  0.3023
 8729SOL     OW37819   2.283   3.470   5.308  0.2070 -0.0022 -0.5149
 8729SOL    HW137820   2.251   3.410   5.376 -0.0336  0.7263  0.0096
 8729SOL    HW237821   2.278   3.412   5.232 -0.9215  0.2355 -0.6259
 8730SOL     OW37822   4.189   2.613   8.255  0.0626 -0.0306 -0.1942
 8730SOL    HW137823   4.119   2.655   8.204  0.8901  1.8436  0.2098
 8730SOL    HW237824   4.215   2.677   8.321  1.1206 -0.2482 -0.4020
 8731SOL     OW37825   2.382   1.011   6.809  0.0120 -0.0895 -0.3689
 8731SOL    HW137826   2.467   1.039   6.844  1.6219 -1.0238 -3.5123
 8731SOL    HW237827   2.366   0.956   6.886  2.1258 -2.5595 -1.6757
 8732SOL     OW37828   4.575   0.778   5.026 -0.3867  0.2869 -0.4672
 8732SOL    HW137829   4.628   0.844   5.071 -2.9278  1.9941  0.0359
 8732SOL    HW237830   4.495   0.828   5.009 -0.3434  0.0293 -1.4304
 8733SOL     OW37831   0.747   3.902   3.246 -0.1031  0.2087 -0.5357
 8733SOL    HW137832   0.744   3.870   3.336  0.3553  0.8053 -0.3123
 8733SOL    HW237833   0.714   3.991   3.259  1.4166  0.3668  2.1785
 8734SOL     OW37834   2.967   2.519   6.926  0.1949 -0.1019 -0.6580
 8734SOL    HW137835   2.962   2.451   6.858  0.5044 -0.2716 -0.5115
 8734SOL    HW237836   3.058   2.546   6.913  1.0628 -3.2971 -1.4087
 8735SOL     OW37837   3.385   2.806  11.081  0.0118  0.2218  0.5898
 8735SOL    HW137838   3.411   2.720  11.048 -4.7060 -1.8152  2.2101
 8735SOL    HW237839   3.388   2.797  11.176  1.0936 -1.4202  0.3868
 8736SOL     OW37840   4.400   0.124   4.768 -0.4150 -0.0172 -0.0182
 8736SOL    HW137841   4.386   0.083   4.683 -0.1178  0.0928 -0.1198
 8736SOL    HW237842   4.378   0.217   4.756  1.4070  0.5063  0.7353
 8737SOL     OW37843   2.962   1.325   3.487 -0.1074 -0.2331  0.1800
 8737SOL    HW137844   3.024   1.377   3.435  0.3084  0.6612  1.5789
 8737SOL    HW237845   2.919   1.259   3.433  1.6764 -0.5099 -0.9363
 8738SOL     OW37846   1.793   4.650  10.202 -0.0705 -0.0424  0.5805
 8738SOL    HW137847   1.785   0.005  10.217  0.6076  0.0180  0.5705
 8738SOL    HW237848   1.885   4.636  10.227 -0.0855  0.5437  0.9814
 8739SOL     OW37849   1.116   0.823   5.373  0.5675 -0.2959  0.4066
 8739SOL    HW137850   1.084   0.821   5.463  1.7972 -0.7158  0.8250
 8739SOL    HW237851   1.171   0.902   5.372  2.9816 -2.0383 -1.5301
 8740SOL     OW37852   2.510   4.213   3.515  0.0857  0.6584  0.5190
 8740SOL    HW137853   2.443   4.234   3.450  1.0606  0.0445 -0.6788
 8740SOL    HW237854   2.566   4.291   3.516  0.1500  0.5930  1.9167
 8741SOL     OW37855   1.768   1.162   9.910  0.6886 -0.3510  0.5670
 8741SOL    HW137856   1.700   1.229   9.904  0.5917 -0.5902 -1.1840
 8741SOL    HW237857   1.778   1.124   9.822  0.4220 -2.3538  1.4024
 8742SOL     OW37858   0.025   2.769  17.519  0.1780  0.3209  0.0590
 8742SOL    HW137859   4.723   2.855  17.535  0.2507  0.3323  0.1826
 8742SOL    HW237860   0.093   2.761  17.585  0.8759  1.1760 -0.5605
 8743SOL     OW37861   3.456   4.188  14.942  0.2410 -0.0326  0.0067
 8743SOL    HW137862   3.418   4.101  14.929 -1.6286  0.7750  0.0512
 8743SOL    HW237863   3.545   4.172  14.911  0.8334 -1.1485  2.2562
 8744SOL     OW37864   1.229   2.178   2.913 -0.1901 -0.3753  0.1166
 8744SOL    HW137865   1.206   2.087   2.932 -1.6079  0.5256  2.6108
 8744SOL    HW237866   1.225   2.184   2.817 -0.5626  1.8040  0.2737
 8745SOL     OW37867   2.941   3.710   3.569  0.1674  0.1630  0.0486
 8745SOL    HW137868   2.863   3.749   3.607  0.3423  0.6668 -0.1050
 8745SOL    HW237869   3.001   3.743   3.636  2.1007 -2.9519 -0.1112
 8746SOL     OW37870   3.442   4.298   4.034  0.1435 -0.3371 -0.1165
 8746SOL    HW137871   3.523   4.249   4.048  1.8871  2.8015  0.7993
 8746SOL    HW237872   3.412   4.296   4.125  0.3812 -0.4082 -0.0399
 8747SOL     OW37873   3.138   1.691   7.473 -0.0087 -0.7079  0.0661
 8747SOL    HW137874   3.172   1.777   7.495 -2.3412  0.3486 -0.4583
 8747SOL    HW237875   3.094   1.677   7.557 -1.7614  3.8579 -0.1239
 8748SOL     OW37876   1.064   0.718  15.836 -0.6700 -0.0417 -0.7322
 8748SOL    HW137877   1.098   0.630  15.819  0.7743  0.4732 -0.4990
 8748SOL    HW237878   0.976   0.717  15.798 -1.0933 -0.2491  0.2468
 8749SOL     OW37879   2.485   0.751   4.311  0.0875 -0.2092 -0.0628
 8749SOL    HW137880   2.512   0.659   4.305  0.0573 -0.4455  3.6280
 8749SOL    HW237881   2.471   0.774   4.219  0.2391  3.6074  0.8485
 8750SOL     OW37882   4.070   2.977  10.556  0.0154 -0.0793  0.1289
 8750SOL    HW137883   4.149   2.958  10.606  0.7483 -2.6785 -2.0343
 8750SOL    HW237884   4.092   3.053  10.502  1.8149 -1.8708 -1.6557
 8751SOL     OW37885   3.037   1.832  16.228  0.3880 -0.3044  0.2164
 8751SOL    HW137886   2.977   1.896  16.267 -2.5477 -0.8894 -3.3722
 8751SOL    HW237887   2.974   1.760  16.236 -0.1251  0.3040  1.7799
 8752SOL     OW37888   1.871   0.121  16.030 -0.1668  0.2468  0.4321
 8752SOL    HW137889   1.914   0.169  16.101 -0.3283 -0.3179  0.9121
 8752SOL    HW237890   1.919   0.160  15.956  1.3203  0.6796  1.6250
 8753SOL     OW37891   0.385   3.077   1.323  0.0499 -0.3797  0.3074
 8753SOL    HW137892   0.418   3.046   1.239 -1.8782 -1.4814 -0.0433
 8753SOL    HW237893   0.360   2.991   1.356  0.3952 -1.0652 -1.2275
 8754SOL     OW37894   3.124   4.144   2.484  0.1345 -0.1894 -0.2342
 8754SOL    HW137895   3.049   4.115   2.536 -0.3239  0.8652 -0.3002
 8754SOL    HW237896   3.119   4.240   2.490  3.4493 -0.0124 -0.1810
 8755SOL     OW37897   0.095   0.894   0.634  0.8945  0.3662  0.0692
 8755SOL    HW137898   0.158   0.856   0.572  0.2008 -0.8671  0.1025
 8755SOL    HW237899   0.020   0.867   0.581  1.8078  0.0659 -1.0830
 8756SOL     OW37900   3.802   0.730   5.805  0.1236 -0.0084 -0.3694
 8756SOL    HW137901   3.877   0.766   5.851 -1.5407  1.5200  1.1220
 8756SOL    HW237902   3.746   0.804   5.782 -0.7354 -0.2117  1.0990
 8757SOL     OW37903   0.133   0.013   5.019  0.0354 -0.8139 -0.2122
 8757SOL    HW137904   0.194   4.692   5.062 -1.1709 -1.7492  0.1830
 8757SOL    HW237905   0.064   0.018   5.085 -1.9091  1.4479 -2.4350
 8758SOL     OW37906   2.721   1.901  13.819 -0.1660  0.2093 -0.2236
 8758SOL    HW137907   2.784   1.888  13.890 -0.1577  1.0317 -0.0794
 8758SOL    HW237908   2.724   1.995  13.802 -0.1342 -0.3699 -3.3867
 8759SOL     OW37909   3.727   1.317  12.425 -0.0048  0.0283 -0.0002
 8759SOL    HW137910   3.744   1.411  12.429 -1.4532  0.3764 -1.8815
 8759SOL    HW237911   3.803   1.277  12.466  2.0766  2.2849 -1.6827
 8760SOL     OW37912   4.611   4.284  16.141  0.1586  0.6314  0.3158
 8760SOL    HW137913   4.595   4.357  16.080 -0.8150 -2.5671 -3.2419
 8760SOL    HW237914   4.698   4.257  16.112 -0.2581 -1.3908  0.9854
 8761SOL     OW37915   4.463   1.907   7.244 -0.5742 -0.1882  0.0009
 8761SOL    HW137916   4.434   1.821   7.213 -0.8591 -1.3843  3.5682
 8761SOL    HW237917   4.463   1.963   7.167 -1.6982 -0.1423  0.0343
 8762SOL     OW37918   4.369   3.885   9.237  0.4478  0.2995 -0.6075
 8762SOL    HW137919   4.426   3.961   9.250  0.0370  0.9026 -2.4240
 8762SOL    HW237920   4.321   3.895   9.319  0.3681 -0.2137 -0.5915
 8763SOL     OW37921   2.164   3.362  15.386 -0.0503 -0.1734  0.6107
 8763SOL    HW137922   2.106   3.286  15.385  0.8767 -0.9109  1.6674
 8763SOL    HW237923   2.107   3.419  15.438  0.5237  0.1370  0.9016
 8764SOL     OW37924   3.144   1.615   8.702 -0.3192  0.7792  0.0792
 8764SOL    HW137925   3.166   1.523   8.689 -0.5125  0.7730 -0.1948
 8764SOL    HW237926   3.190   1.651   8.626  0.6548  1.4765  0.9922
 8765SOL     OW37927   2.222   0.842   2.075 -0.2816  0.0679 -0.4440
 8765SOL    HW137928   2.232   0.789   1.995  3.1638 -2.0973  1.4121
 8765SOL    HW237929   2.214   0.766   2.133 -0.2138  0.3996 -0.0066
 8766SOL     OW37930   0.226   0.819   3.511 -0.2301  0.0913 -0.2093
 8766SOL    HW137931   0.185   0.892   3.464  1.5129  3.2826  3.2050
 8766SOL    HW237932   0.192   0.740   3.468  2.6727 -1.2880  0.0607
 8767SOL     OW37933   4.297   1.496   9.429  0.0580  0.1119 -0.4357
 8767SOL    HW137934   4.308   1.582   9.469  1.3166  0.3382 -1.2495
 8767SOL    HW237935   4.218   1.510   9.377 -0.2929  1.1922  0.3942
 8768SOL     OW37936   4.346   0.932   7.395  0.5166 -0.2837  0.2687
 8768SOL    HW137937   4.407   0.865   7.427  1.9777  1.4474  1.1497
 8768SOL    HW237938   4.265   0.889   7.420  0.8847 -0.5855  0.9554
 8769SOL     OW37939   3.106   4.338  13.166  0.0962  0.1631  0.5195
 8769SOL    HW137940   3.140   4.334  13.077  0.6854  0.6164  0.7292
 8769SOL    HW237941   3.024   4.294  13.144  0.5826  0.0994 -1.1482
 8770SOL     OW37942   1.411   0.647  16.818  0.2985  0.5825  0.5734
 8770SOL    HW137943   1.436   0.739  16.821  1.9261  0.1399  0.5789
 8770SOL    HW237944   1.480   0.605  16.767  0.2047  1.3502 -0.1842
 8771SOL     OW37945   1.194   4.402   6.658  0.2491  0.6493 -0.4898
 8771SOL    HW137946   1.170   4.357   6.739  1.8980  0.2860 -0.1925
 8771SOL    HW237947   1.149   4.354   6.589  0.0855  0.6090 -0.3558
 8772SOL     OW37948   4.133   2.862  11.515 -0.0465  0.3305 -0.0306
 8772SOL    HW137949   4.161   2.937  11.462 -0.5864 -0.3051 -1.2123
 8772SOL    HW237950   4.223   2.835  11.534 -0.1361 -0.7556 -1.1828
 8773SOL     OW37951   3.906   1.623   9.005 -0.0971  0.5987 -0.0147
 8773SOL    HW137952   3.978   1.587   9.057  0.5879 -1.4981 -2.4465
 8773SOL    HW237953   3.948   1.705   8.979 -0.2740  0.8336  0.4368
 8774SOL     OW37954   3.700   4.166  15.224 -0.3329 -0.1667  0.3653
 8774SOL    HW137955   3.620   4.153  15.275 -0.3934  0.3041  0.3825
 8774SOL    HW237956   3.697   4.093  15.162 -1.3562  0.9442 -0.8873
 8775SOL     OW37957   0.359   2.264  14.819  1.0577  0.1878  0.4396
 8775SOL    HW137958   0.263   2.260  14.816  1.0641 -0.0601  0.6037
 8775SOL    HW237959   0.377   2.272  14.725  1.3424  0.1456  0.4922
 8776SOL     OW37960   2.822   2.259   0.981 -0.1519 -0.3451  0.4762
 8776SOL    HW137961   2.820   2.347   0.946  0.0627 -0.3206  0.5268
 8776SOL    HW237962   2.842   2.267   1.075  0.0361 -2.2936  0.6151
 8777SOL     OW37963   3.681   3.695  14.464 -0.4133  0.0823  0.3621
 8777SOL    HW137964   3.616   3.750  14.422  1.1985  1.0891 -0.8133
 8777SOL    HW237965   3.627   3.626  14.503  0.0309 -0.2692  0.3632
 8778SOL     OW37966   0.730   2.398   6.597  0.0375 -0.6535 -0.4975
 8778SOL    HW137967   0.638   2.411   6.573 -0.3274 -0.7339  0.8593
 8778SOL    HW237968   0.757   2.338   6.528  3.4248  2.8907 -2.2858
 8779SOL     OW37969   1.713   4.457   6.919  0.1511 -0.6282  0.5374
 8779SOL    HW137970   1.672   4.396   6.858  1.1677 -0.6722 -0.0880
 8779SOL    HW237971   1.798   4.414   6.930  0.0780 -1.5560 -2.5958
 8780SOL     OW37972   0.524   3.894   9.022 -0.1236  0.5672 -0.4226
 8780SOL    HW137973   0.603   3.926   9.066  0.3006 -3.7234  1.9806
 8780SOL    HW237974   0.557   3.890   8.933 -1.2967  0.7174 -0.8577
 8781SOL     OW37975   1.350   4.190   1.035  0.2720  0.3928  0.0042
 8781SOL    HW137976   1.294   4.166   1.109  0.0837  0.2004 -0.2009
 8781SOL    HW237977   1.359   4.285   1.029  0.0944  0.2998 -1.6993
 8782SOL     OW37978   2.018   0.061   0.702 -0.7232  0.5306 -0.4030
 8782SOL    HW137979   1.946   0.068   0.639 -0.6638 -0.4978 -0.5903
 8782SOL    HW237980   2.028   4.704   0.702  0.5062  0.6684  1.1290
 8783SOL     OW37981   0.260   3.444   4.760  0.2662 -0.3868  0.4156
 8783SOL    HW137982   0.269   3.419   4.669 -0.0811  0.9614  0.0109
 8783SOL    HW237983   0.317   3.374   4.791  0.4200 -0.6130 -0.3803
 8784SOL     OW37984   4.400   3.826   2.099 -0.6338  0.3383 -0.0049
 8784SOL    HW137985   4.433   3.851   2.185 -1.7380 -2.7107  1.3028
 8784SOL    HW237986   4.335   3.896   2.085 -1.4585 -0.4409 -0.0712
 8785SOL     OW37987   3.157   4.263   6.731 -0.0522  0.2262 -0.0002
 8785SOL    HW137988   3.105   4.329   6.685  0.2347 -1.1222 -2.2743
 8785SOL    HW237989   3.093   4.231   6.795 -0.3493  1.2674  0.2232
 8786SOL     OW37990   3.590   1.230   8.186  0.1976  0.0933  0.4658
 8786SOL    HW137991   3.613   1.301   8.246  0.6200  0.4640 -0.1425
 8786SOL    HW237992   3.667   1.234   8.130 -0.1294 -1.9080 -0.1255
 8787SOL     OW37993   2.473   0.572   9.300 -0.1427 -0.6934 -0.2375
 8787SOL    HW137994   2.460   0.502   9.364  0.6782  0.1891  0.8827
 8787SOL    HW237995   2.537   0.524   9.248  0.3884 -0.9466  0.6640
 8788SOL     OW37996   1.865   4.599   8.244 -0.1616  0.1559  0.1919
 8788SOL    HW137997   1.949   4.643   8.255  0.2943 -0.2359 -1.7221
 8788SOL    HW237998   1.816   4.614   8.325  4.5847  0.6352  2.9638
 8789SOL     OW37999   4.463   4.161   6.145  0.6933 -0.1295 -0.4747
 8789SOL    HW138000   4.426   4.086   6.192  1.6016 -0.6850 -0.6409
 8789SOL    HW238001   4.417   4.234   6.187 -0.3245 -0.7838 -0.4364
 8790SOL     OW38002   0.310   1.746   5.706 -0.0771  0.0811 -0.1992
 8790SOL    HW138003   0.330   1.660   5.744  0.0280 -0.1204 -0.7012
 8790SOL    HW238004   0.320   1.732   5.612 -0.0336 -0.7823 -0.0731
 8791SOL     OW38005   4.615   4.500   7.392  0.1965 -0.2932  0.5875
 8791SOL    HW138006   4.687   4.547   7.435  1.4960 -1.1358 -0.6437
 8791SOL    HW238007   4.563   4.491   7.472 -0.0603 -0.9408  0.3407
 8792SOL     OW38008   1.181   3.929   3.362  0.0551  0.1006 -0.0370
 8792SOL    HW138009   1.153   3.952   3.273 -0.1794 -1.4757 -0.3688
 8792SOL    HW238010   1.231   4.011   3.368  4.1623 -2.3820  0.0025
 8793SOL     OW38011   4.494   1.879   8.810  0.3717  0.6339 -0.0077
 8793SOL    HW138012   4.552   1.803   8.819 -0.0913  0.3203  0.3049
 8793SOL    HW238013   4.415   1.828   8.793  0.1384  1.0820 -0.2317
 8794SOL     OW38014   2.349   0.638   7.646 -0.1900 -0.2601  0.2279
 8794SOL    HW138015   2.441   0.636   7.618 -0.2975 -3.0491  0.0261
 8794SOL    HW238016   2.313   0.588   7.573  0.3045  1.3147 -1.0979
 8795SOL     OW38017   0.468   3.661  15.704  0.4894 -0.4074  0.3202
 8795SOL    HW138018   0.559   3.634  15.709  0.2060 -0.8687  3.1153
 8795SOL    HW238019   0.470   3.722  15.631  1.0669 -1.0475 -0.1950
 8796SOL     OW38020   4.359   2.448   9.048  0.2339  0.1659 -0.3663
 8796SOL    HW138021   4.338   2.507   8.976  1.2091 -0.8007 -1.4391
 8796SOL    HW238022   4.346   2.362   9.006 -1.0067  0.5594 -0.7831
 8797SOL     OW38023   4.109   3.686   3.746 -0.4306  0.0804  0.2466
 8797SOL    HW138024   4.042   3.680   3.678  2.4267  1.0048 -2.6360
 8797SOL    HW238025   4.065   3.652   3.824 -1.2227 -0.2508 -0.3461
 8798SOL     OW38026   4.513   0.555   6.183 -0.1195  0.1488  0.1363
 8798SOL    HW138027   4.591   0.604   6.158 -0.3946  1.3249  1.5438
 8798SOL    HW238028   4.511   0.500   6.105 -1.9953  0.0588  0.2328
 8799SOL     OW38029   4.385   3.811   3.351  0.8086 -0.0438 -0.0896
 8799SOL    HW138030   4.436   3.892   3.363 -1.6500  1.2747  1.5563
 8799SOL    HW238031   4.313   3.842   3.295 -1.4030 -2.5675  1.3820
 8800SOL     OW38032   2.942   0.821   5.108  0.1788  0.2063 -0.1797
 8800SOL    HW138033   2.897   0.742   5.080  2.4657 -0.1436 -2.9400
 8800SOL    HW238034   2.903   0.882   5.045  0.1513  0.8685  0.4783
 8801SOL     OW38035   2.276   4.353   1.695 -0.2950 -0.1132 -0.0974
 8801SOL    HW138036   2.280   4.447   1.708 -1.6815  0.0144 -0.6638
 8801SOL    HW238037   2.365   4.337   1.663  0.7935  0.4567  2.6447
 8802SOL     OW38038   1.156   3.609   3.036  0.1384  0.1390 -0.6688
 8802SOL    HW138039   1.118   3.665   3.103 -2.0167 -4.1371  1.7248
 8802SOL    HW238040   1.077   3.591   2.984  1.2667  1.5924 -2.8671
 8803SOL     OW38041   3.773   1.530  14.948 -0.5442  0.2632  0.0724
 8803SOL    HW138042   3.691   1.516  14.995  0.0485  1.7292  1.5269
 8803SOL    HW238043   3.792   1.438  14.926 -1.2714  0.0156  0.4763
 8804SOL     OW38044   3.410   4.355   3.160  0.0647  0.5869  0.4555
 8804SOL    HW138045   3.440   4.279   3.210  1.0475  0.4259 -0.3882
 8804SOL    HW238046   3.370   4.305   3.089  0.6918 -0.5074  0.8691
 8805SOL     OW38047   3.743   1.956   5.425 -0.1671 -0.7385 -0.1061
 8805SOL    HW138048   3.781   2.034   5.385  0.0860 -1.1756 -0.7269
 8805SOL    HW238049   3.693   1.926   5.349  3.2406  1.8480 -3.3851
 8806SOL     OW38050   3.733   1.721   2.649 -0.7341  0.3120  0.2872
 8806SOL    HW138051   3.723   1.634   2.686  0.9305 -0.9169 -2.1437
 8806SOL    HW238052   3.808   1.754   2.699 -0.5108  0.3309 -0.0562
 8807SOL     OW38053   2.657   2.112   3.811 -0.2236  0.0764 -0.0589
 8807SOL    HW138054   2.592   2.148   3.750 -0.3074  1.3290  0.7549
 8807SOL    HW238055   2.699   2.193   3.842  0.3893 -0.1335 -0.3372
 8808SOL     OW38056   2.670   0.384  17.459  0.1430 -0.0447  0.6752
 8808SOL    HW138057   2.708   0.300  17.484  1.5777  0.4294  0.0961
 8808SOL    HW238058   2.637   0.363  17.372 -1.0156 -0.5332  1.2289
 8809SOL     OW38059   2.417   3.871   8.708  0.3237 -0.0666 -0.4874
 8809SOL    HW138060   2.402   3.963   8.686  0.6669  0.0118 -0.3899
 8809SOL    HW238061   2.365   3.858   8.787  0.4168  0.4135 -0.3489
 8810SOL     OW38062   4.655   1.344  10.564 -0.0582 -0.8154  0.7511
 8810SOL    HW138063   4.702   1.265  10.590  0.8263 -0.6325 -0.3085
 8810SOL    HW238064   4.567   1.317  10.537  0.8597  1.3993 -4.3206
 8811SOL     OW38065   1.734   2.129   6.193  0.0188  1.0523 -0.3448
 8811SOL    HW138066   1.761   2.186   6.264  0.2156 -0.2208  0.6172
 8811SOL    HW238067   1.748   2.045   6.238 -2.0694 -0.1430 -1.9359
 8812SOL     OW38068   4.101   4.029   4.421  0.0311 -0.3725  0.3331
 8812SOL    HW138069   4.013   3.995   4.402  0.5449 -1.8624  0.6211
 8812SOL    HW238070   4.135   4.046   4.333  1.2668  1.3695  1.1611
 8813SOL     OW38071   1.006   4.423  14.174  0.5097 -0.8142  0.0403
 8813SOL    HW138072   1.006   4.343  14.226 -2.8970 -0.7944  0.1040
 8813SOL    HW238073   0.958   4.389  14.098 -0.3338 -2.6938  1.4178
 8814SOL     OW38074   1.720   1.587   7.371 -0.5719  0.3553  0.2186
 8814SOL    HW138075   1.792   1.640   7.403 -0.1089 -0.6316  0.8035
 8814SOL    HW238076   1.747   1.497   7.389  0.0038 -0.0248 -2.4649
 8815SOL     OW38077   3.198   4.712   6.851 -0.1136 -0.6876 -0.0716
 8815SOL    HW138078   3.283   4.670   6.853  0.1992 -0.0286  0.8098
 8815SOL    HW238079   3.207   0.052   6.906  1.4039 -2.1265  1.7325
 8816SOL     OW38080   2.180   4.663   8.936  0.8441  0.0357  0.3438
 8816SOL    HW138081   2.130   4.582   8.931  2.0314 -0.7812  1.4392
 8816SOL    HW238082   2.274   4.645   8.930  1.0552  0.8002  1.2979
 8817SOL     OW38083   1.504   3.282  12.885 -0.0535 -0.0402 -0.3589
 8817SOL    HW138084   1.563   3.288  12.960 -0.6508 -0.1361  0.1232
 8817SOL    HW238085   1.427   3.305  12.938 -0.1644  0.0448 -0.5592
 8818SOL     OW38086   3.335   0.529   1.437  0.0776  0.0772  0.1203
 8818SOL    HW138087   3.346   0.515   1.343  0.0748 -2.3630  0.5004
 8818SOL    HW238088   3.247   0.565   1.444  0.5996  1.2017  1.0672
 8819SOL     OW38089   1.810   0.080   5.800 -0.1435  0.6002  0.0450
 8819SOL    HW138090   1.806   0.075   5.705 -0.6424 -0.1503  0.1068
 8819SOL    HW238091   1.830   4.731   5.833  0.4113  0.4746 -0.6316
 8820SOL     OW38092   3.395   2.528   2.181  0.0944 -0.3281 -0.5917
 8820SOL    HW138093   3.355   2.454   2.135 -0.1686  1.0777 -2.6419
 8820SOL    HW238094   3.412   2.587   2.108 -0.0189  1.4057  0.7939
 8821SOL     OW38095   0.760   3.685   4.680 -0.3613  0.1051 -0.2352
 8821SOL    HW138096   0.802   3.655   4.599 -0.8786  1.3036 -0.9601
 8821SOL    HW238097   0.709   3.608   4.702 -0.6450 -0.2278 -2.0426
 8822SOL     OW38098   2.956   0.621  10.165  0.4419  0.1212  0.5256
 8822SOL    HW138099   3.026   0.624  10.100 -0.3675  2.4513 -0.2631
 8822SOL    HW238100   2.970   0.699  10.218  0.8576  0.8553 -0.6734
 8823SOL     OW38101   2.557   2.264   4.226  0.6978  0.6446  0.5419
 8823SOL    HW138102   2.518   2.200   4.168  2.2857  0.1828 -0.0244
 8823SOL    HW238103   2.522   2.348   4.198 -2.2941 -0.1416  1.8668
 8824SOL     OW38104   2.718   3.997   3.258  0.0448  0.6076 -0.0196
 8824SOL    HW138105   2.716   3.995   3.354 -0.2821  0.5339 -0.0264
 8824SOL    HW238106   2.650   3.932   3.241  0.1016  0.4845  0.2218
 8825SOL     OW38107   4.308   3.471   3.656  0.0229  0.5193  0.6461
 8825SOL    HW138108   4.226   3.517   3.641 -0.5126 -1.5953 -2.9650
 8825SOL    HW238109   4.275   3.384   3.675  0.2439 -0.0753 -1.6818
 8826SOL     OW38110   1.512   4.403   5.876 -0.3654  0.2878  0.0363
 8826SOL    HW138111   1.535   4.488   5.839  1.9950 -1.0199 -1.4887
 8826SOL    HW238112   1.595   4.381   5.917  0.1049  0.8586 -0.6091
 8827SOL     OW38113   1.657   1.903   2.103  0.4785  0.0614 -0.1325
 8827SOL    HW138114   1.652   1.998   2.101 -0.0551  0.0018 -1.6597
 8827SOL    HW238115   1.565   1.876   2.100  0.3805  0.6039 -1.6008
 8828SOL     OW38116   4.024   1.540  17.595  0.0625  0.1223  0.6233
 8828SOL    HW138117   4.106   1.554  17.548  0.6331  2.1335  2.2592
 8828SOL    HW238118   3.998   1.632  17.604  4.1480  1.2220  1.0821
 8829SOL     OW38119   4.149   2.478   9.577  0.1781  0.5039  1.3051
 8829SOL    HW138120   4.169   2.468   9.484  0.2113  1.9626  1.1583
 8829SOL    HW238121   4.152   2.573   9.588  2.6488  0.6039 -0.1381
 8830SOL     OW38122   4.046   0.032   2.751 -0.0665  0.0564  0.7268
 8830SOL    HW138123   3.988   0.082   2.694  0.7137 -2.1263 -1.9642
 8830SOL    HW238124   4.020   0.079   2.831  1.1530 -0.5337  1.4751
 8831SOL     OW38125   3.608   1.840   9.946  0.0605  0.0933 -0.2057
 8831SOL    HW138126   3.636   1.749   9.955  0.0990  0.1170 -0.0809
 8831SOL    HW238127   3.613   1.856   9.852 -0.8918  0.1982 -0.2352
 8832SOL     OW38128   3.153   0.966   4.452 -0.0415  0.1824  0.0678
 8832SOL    HW138129   3.090   1.038   4.443 -1.7272 -1.2360  0.4899
 8832SOL    HW238130   3.094   0.892   4.467 -0.7712  0.8458  0.4843
 8833SOL     OW38131   0.644   4.236  12.318  0.3854 -0.0305 -0.3537
 8833SOL    HW138132   0.669   4.289  12.394  0.8687  1.3221 -1.4589
 8833SOL    HW238133   0.719   4.244  12.260  0.8926 -1.0833  0.1689
 8834SOL     OW38134   3.647   3.059   7.007  0.5301  0.2296  0.2704
 8834SOL    HW138135   3.642   3.110   7.088  0.0842  2.1489 -0.9634
 8834SOL    HW238136   3.568   3.006   7.011 -0.0857  1.1117 -0.0916
 8835SOL     OW38137   3.416   3.036  15.201 -0.1939 -0.1171 -0.0286
 8835SOL    HW138138   3.340   3.090  15.223  2.0906  2.7657  0.7960
 8835SOL    HW238139   3.487   3.073  15.254 -1.8633  1.9134  0.7721
 8836SOL     OW38140   2.194   4.036   3.329 -0.0131 -0.3586  0.1239
 8836SOL    HW138141   2.116   4.017   3.380  1.1944 -1.2009  1.6554
 8836SOL    HW238142   2.215   3.957   3.278 -1.8442  0.2436 -1.5595
 8837SOL     OW38143   0.007   4.049  17.606  0.0641 -0.7622 -0.3888
 8837SOL    HW138144   4.737   3.976  17.545 -0.2150 -1.9469  1.0793
 8837SOL    HW238145   0.046   4.118  17.552 -1.2476 -0.6570 -1.1924
 8838SOL     OW38146   2.024   0.412   3.519  0.0963 -0.1436  0.1011
 8838SOL    HW138147   2.051   0.396   3.610  2.1280  2.6481 -0.0057
 8838SOL    HW238148   2.097   0.372   3.472 -0.6017 -2.8123  1.2864
 8839SOL     OW38149   0.303   2.620   6.687 -0.3589 -0.4088 -0.3845
 8839SOL    HW138150   0.351   2.701   6.673  2.5255 -2.1870 -0.7228
 8839SOL    HW238151   0.222   2.651   6.728 -0.5855 -0.3020 -0.9128
 8840SOL     OW38152   1.318   2.121   9.709 -0.1765 -0.2442  0.2566
 8840SOL    HW138153   1.228   2.153   9.702 -0.7590 -1.6617  1.2270
 8840SOL    HW238154   1.335   2.088   9.621  2.3278  2.0178 -0.0874
 8841SOL     OW38155   3.426   1.774   6.113 -0.3528 -0.0943 -0.2090
 8841SOL    HW138156   3.415   1.850   6.170 -0.3409  1.4471 -2.2385
 8841SOL    HW238157   3.400   1.814   6.030  0.4675 -1.8985 -1.3447
 8842SOL     OW38158   1.014   2.565   8.476  0.4474 -0.0183  0.4777
 8842SOL    HW138159   1.037   2.547   8.567 -0.6113  0.3110  0.8095
 8842SOL    HW238160   0.922   2.539   8.470 -0.2363  2.1651  1.3020
 8843SOL     OW38161   2.130   0.347  13.548  0.5375 -0.0948 -0.2910
 8843SOL    HW138162   2.062   0.402  13.587 -1.0227 -0.3764 -2.6253
 8843SOL    HW238163   2.202   0.410  13.535  1.0826 -0.7182 -0.2739
 8844SOL     OW38164   3.738   1.777   7.816 -0.0927 -0.3204  0.0872
 8844SOL    HW138165   3.689   1.758   7.736 -0.5342 -1.0979  0.5434
 8844SOL    HW238166   3.827   1.760   7.786 -0.4632  2.3276 -2.5325
 8845SOL     OW38167   0.720   3.382   8.730  0.2685  0.3923 -0.1545
 8845SOL    HW138168   0.733   3.301   8.681 -1.3397  0.4938 -0.7657
 8845SOL    HW238169   0.786   3.436   8.686  1.4038 -0.8494  0.0616
 8846SOL     OW38170   0.108   2.168   7.829 -0.6312  0.6477 -0.2218
 8846SOL    HW138171   0.082   2.076   7.838  1.7322 -0.0325 -0.2362
 8846SOL    HW238172   0.052   2.203   7.760 -1.1547 -2.4889 -1.4192
 8847SOL     OW38173   3.757   0.029   1.605 -0.5561  0.2156 -0.3882
 8847SOL    HW138174   3.663   0.045   1.618  0.0866  1.6351  2.5512
 8847SOL    HW238175   3.766   4.695   1.668  1.9026  0.2162 -0.7551
 8848SOL     OW38176   1.425   3.522   3.125 -0.1676  0.2495  0.5306
 8848SOL    HW138177   1.360   3.564   3.182  0.2701  0.2730  1.0155
 8848SOL    HW238178   1.373   3.448   3.094  1.9269  0.0009 -2.4266
 8849SOL     OW38179   1.614   2.408  13.353  0.2252 -0.1594 -0.1539
 8849SOL    HW138180   1.640   2.334  13.298 -2.6877 -1.4263  0.1554
 8849SOL    HW238181   1.573   2.458  13.283 -0.0809  0.1146  0.2182
 8850SOL     OW38182   0.240   3.160   5.353  0.8176  0.1819 -0.2256
 8850SOL    HW138183   0.216   3.068   5.341 -0.6530  0.4744  0.4601
 8850SOL    HW238184   0.200   3.180   5.438  2.2751 -1.1096  0.7759
 8851SOL     OW38185   1.791   4.344   8.163  0.1575 -0.0686  0.5749
 8851SOL    HW138186   1.868   4.297   8.195  0.5727  0.0174 -0.2860
 8851SOL    HW238187   1.822   4.435   8.164  3.5164 -1.2254  2.2519
 8852SOL     OW38188   2.977   0.468   6.656 -0.5588 -0.2226  0.1686
 8852SOL    HW138189   3.009   0.417   6.582  0.8524 -0.4688  0.9673
 8852SOL    HW238190   3.051   0.504   6.703  0.3533  2.2438 -3.1657
 8853SOL     OW38191   4.737   2.794   7.175 -0.2286 -0.5855  0.5338
 8853SOL    HW138192   4.693   2.847   7.109  1.6437  0.1691 -0.1002
 8853SOL    HW238193   0.084   2.835   7.171  0.0897 -1.1641  1.3743
 8854SOL     OW38194   2.987   2.418   7.821  0.1558 -0.1474  0.1871
 8854SOL    HW138195   3.024   2.330   7.825  1.6424  0.4978  0.6749
 8854SOL    HW238196   2.913   2.409   7.760  1.0713  0.4071 -1.0258
 8855SOL     OW38197   3.961   4.222   4.957  0.2583 -0.3284 -1.1019
 8855SOL    HW138198   3.884   4.257   4.912 -1.9034  0.3664  3.2091
 8855SOL    HW238199   3.927   4.142   4.997 -2.8581  1.9733  0.8701
 8856SOL     OW38200   0.491   0.582   3.741 -0.4465  0.4236  0.5332
 8856SOL    HW138201   0.474   0.676   3.748  1.8182  0.7851  1.0929
 8856SOL    HW238202   0.404   0.552   3.714 -1.5393  0.8365  3.5822
 8857SOL     OW38203   1.302   0.740   6.880 -0.1595 -0.4873  0.0814
 8857SOL    HW138204   1.320   0.735   6.786 -0.1383 -2.6147  0.2169
 8857SOL    HW238205   1.350   0.821   6.901 -1.0805 -0.0763  0.5824
 8858SOL     OW38206   0.777   1.043   7.063  0.2415  0.1853 -0.3236
 8858SOL    HW138207   0.752   1.012   7.150 -3.3099  1.8385 -0.7477
 8858SOL    HW238208   0.872   1.033   7.071 -0.0555  0.6702  3.9392
 8859SOL     OW38209   2.679   3.529   4.424  0.2862 -0.3546 -0.1976
 8859SOL    HW138210   2.739   3.590   4.467  0.8783 -0.4836 -0.8407
 8859SOL    HW238211   2.699   3.453   4.479  0.6241 -0.7764 -0.9126
 8860SOL     OW38212   1.251   0.306   6.407  0.2987  0.2190 -0.1044
 8860SOL    HW138213   1.303   0.237   6.448 -1.4735 -0.9703  0.1776
 8860SOL    HW238214   1.167   0.295   6.452  1.1194 -2.8695  0.6853
 8861SOL     OW38215   3.986   0.233   5.377  0.6171 -0.2687 -0.1474
 8861SOL    HW138216   4.062   0.264   5.427 -0.1224  3.3295 -1.2763
 8861SOL    HW238217   4.008   0.146   5.343 -0.9074 -1.0226  0.8327
 8862SOL     OW38218   2.970   0.412   3.451 -0.3511  0.3021  0.3529
 8862SOL    HW138219   2.969   0.318   3.433 -2.3987  0.1552  1.2464
 8862SOL    HW238220   3.060   0.439   3.470 -0.4567 -1.3598  3.1943
 8863SOL     OW38221   4.556   2.581   9.185 -0.8241 -0.0386  0.1728
 8863SOL    HW138222   4.510   2.659   9.214  0.7681  0.1603  2.1803
 8863SOL    HW238223   4.484   2.529   9.148 -0.9468  0.4738 -0.3041
 8864SOL     OW38224   4.410   2.399   6.141 -0.2026  0.5847  0.1631
 8864SOL    HW138225   4.424   2.381   6.234  0.6903  0.0052 -0.0829
 8864SOL    HW238226   4.321   2.434   6.138 -0.5602 -0.4289 -0.8293
 8865SOL     OW38227   1.614   1.402   9.899  0.7204  0.2391  0.2429
 8865SOL    HW138228   1.545   1.424   9.962  0.1200  1.0851 -0.7315
 8865SOL    HW238229   1.586   1.446   9.820  2.9098 -2.4363 -2.0209
 8866SOL     OW38230   4.198   4.439   4.834 -0.1602 -0.2274  0.1955
 8866SOL    HW138231   4.114   4.448   4.790 -0.8419 -0.3153  1.4786
 8866SOL    HW238232   4.257   4.424   4.760  0.1878  1.7140  0.0726
 8867SOL     OW38233   4.422   2.704   5.210 -0.0518 -0.1678 -0.0832
 8867SOL    HW138234   4.385   2.762   5.143  1.0044 -3.4307 -3.4648
 8867SOL    HW238235   4.501   2.681   5.160  0.7569  0.4634  0.8941
 8868SOL     OW38236   1.505   0.205   5.752 -0.3395  1.0404 -0.0925
 8868SOL    HW138237   1.524   0.197   5.846  1.1467 -0.8297 -0.5402
 8868SOL    HW238238   1.415   0.235   5.749 -0.1776  1.3672 -1.7877
 8869SOL     OW38239   1.745   0.580   0.987  0.2258 -0.1894  1.2406
 8869SOL    HW138240   1.740   0.502   1.043 -1.9901 -1.5941 -0.8906
 8869SOL    HW238241   1.839   0.598   0.991  0.4346 -0.6091 -1.8264
 8870SOL     OW38242   1.260   0.670   4.058 -0.1671 -0.3266 -0.1879
 8870SOL    HW138243   1.258   0.584   4.017  1.2933  0.5182 -2.0153
 8870SOL    HW238244   1.271   0.655   4.152  0.6923 -2.0239 -0.5541
 8871SOL     OW38245   1.582   0.258  17.179 -0.4586  0.7983 -0.4474
 8871SOL    HW138246   1.589   0.306  17.096 -1.2942  1.8211  0.0739
 8871SOL    HW238247   1.488   0.257  17.198 -0.1805 -2.7268  0.6697
 8872SOL     OW38248   2.991   0.789   7.265 -0.0536  0.2713 -0.1572
 8872SOL    HW138249   2.927   0.839   7.316  0.5390 -0.2992  1.1245
 8872SOL    HW238250   2.939   0.721   7.222  0.1836  0.3710 -0.6037
 8873SOL     OW38251   3.453   4.403  15.445 -0.8661  0.4675 -0.2259
 8873SOL    HW138252   3.484   4.447  15.524 -1.1141 -0.1695  0.2262
 8873SOL    HW238253   3.476   4.469  15.379 -3.3407  1.4535 -0.0922
 8874SOL     OW38254   3.448   4.302   0.894  0.0964 -0.3680 -0.5863
 8874SOL    HW138255   3.371   4.255   0.926  0.2564 -0.0263  0.2966
 8874SOL    HW238256   3.482   4.341   0.974 -1.5621  1.3163 -0.6882
 8875SOL     OW38257   3.374   1.793   0.790  0.2148 -0.5216 -0.4268
 8875SOL    HW138258   3.392   1.786   0.884  2.3564 -2.5712 -0.9964
 8875SOL    HW238259   3.457   1.834   0.765 -0.4741  0.4658 -1.0958
 8876SOL     OW38260   3.585   0.132  17.179  0.3901 -0.1879  0.0917
 8876SOL    HW138261   3.662   0.094  17.222  2.3475  1.4249 -1.9836
 8876SOL    HW238262   3.619   0.219  17.161  1.0712 -0.9141 -2.1170
 8877SOL     OW38263   1.113   2.993  16.722 -0.3875 -0.2319  0.5487
 8877SOL    HW138264   1.122   3.030  16.810 -1.6859  0.4273  0.4104
 8877SOL    HW238265   1.145   3.068  16.671 -0.4695  0.3806  1.3864
 8878SOL     OW38266   3.524   4.614   0.235 -0.0482 -0.3197 -0.0471
 8878SOL    HW138267   3.482   4.594   0.319  0.0077 -1.6703 -0.3337
 8878SOL    HW238268   3.478   4.695   0.216  1.3185  0.2282 -0.9518
 8879SOL     OW38269   2.095   3.457  11.549 -0.0266  0.6827 -0.2824
 8879SOL    HW138270   2.156   3.397  11.591 -1.3130 -1.7127 -1.8934
 8879SOL    HW238271   2.023   3.458  11.611 -0.3134  1.2936 -0.6187
 8880SOL     OW38272   2.788   0.112   7.638 -0.9290 -0.5233 -0.0445
 8880SOL    HW138273   2.843   0.183   7.672 -0.6261 -0.0367 -1.5067
 8880SOL    HW238274   2.719   0.130   7.701  0.6416  0.2853  1.4604
 8881SOL     OW38275   0.602   3.731  15.296  0.4026 -0.4950  0.2552
 8881SOL    HW138276   0.636   3.656  15.248  0.5669 -0.8956  1.0036
 8881SOL    HW238277   0.659   3.740  15.372 -0.0222  1.7078  0.3070
 8882SOL     OW38278   2.877   0.765   2.846  0.1151 -0.3745 -0.0227
 8882SOL    HW138279   2.861   0.827   2.917  2.7712 -0.9677  1.1043
 8882SOL    HW238280   2.949   0.809   2.802  1.0878 -0.5493  1.3786
 8883SOL     OW38281   0.841   2.821   8.239  0.8123  0.3840 -0.2705
 8883SOL    HW138282   0.878   2.734   8.258 -0.3583 -0.2153 -0.7206
 8883SOL    HW238283   0.751   2.790   8.230 -0.1613  2.6918  1.6345
 8884SOL     OW38284   1.400   2.881   8.074  0.2030  0.5608 -0.5005
 8884SOL    HW138285   1.466   2.857   8.139 -0.3250  0.4965  0.0150
 8884SOL    HW238286   1.438   2.841   7.995  0.5245 -0.1395  0.0056
 8885SOL     OW38287   1.692   1.042  15.231  0.6001 -0.2504  0.3372
 8885SOL    HW138288   1.746   1.053  15.310 -1.1476  1.6442  1.2464
 8885SOL    HW238289   1.758   1.023  15.165 -2.2009 -2.1784 -1.8881
 8886SOL     OW38290   1.168   2.339   4.710 -0.1315  0.5213 -0.3136
 8886SOL    HW138291   1.115   2.369   4.784  0.8438  1.3072  0.0545
 8886SOL    HW238292   1.192   2.247   4.722 -0.9576  0.4150  0.4932
 8887SOL     OW38293   1.064   2.769   7.783  0.0721 -0.0277 -0.4791
 8887SOL    HW138294   1.131   2.821   7.826  0.6629 -0.4057 -0.9539
 8887SOL    HW238295   1.100   2.778   7.695 -2.2812 -0.1851 -1.4792
 8888SOL     OW38296   0.289   0.636  12.665  0.1795  0.5603 -0.5417
 8888SOL    HW138297   0.286   0.544  12.640  1.2838  0.3890 -0.0665
 8888SOL    HW238298   0.274   0.641  12.760 -1.4982 -1.5473 -0.6814
 8889SOL     OW38299   1.012   2.864   2.016  0.6672  0.1233 -0.3438
 8889SOL    HW138300   1.069   2.896   2.086 -1.5453 -0.3648  1.6785
 8889SOL    HW238301   0.929   2.890   2.055 -0.4042 -2.2135 -1.0397
 8890SOL     OW38302   4.155   1.074  12.708 -0.4071 -0.1136  0.4843
 8890SOL    HW138303   4.206   1.003  12.669 -0.6247  0.1237 -0.2487
 8890SOL    HW238304   4.183   1.067  12.799  2.2880 -2.4218 -0.5379
 8891SOL     OW38305   3.924   2.672   3.085  0.4356  0.4099  0.3727
 8891SOL    HW138306   3.989   2.726   3.040 -1.3185  1.1393 -1.3214
 8891SOL    HW238307   3.957   2.582   3.076 -2.0569 -0.4726 -0.0881
 8892SOL     OW38308   2.587   2.649  12.081  0.3708 -0.1417  0.0455
 8892SOL    HW138309   2.495   2.626  12.094  0.0787  0.2890 -1.1861
 8892SOL    HW238310   2.612   2.558  12.067 -1.9767 -0.9397  0.9402
 8893SOL     OW38311   3.341   0.083   5.612  0.1436  0.4460  0.6463
 8893SOL    HW138312   3.266   0.043   5.569  1.1318  1.2511 -1.7934
 8893SOL    HW238313   3.406   0.082   5.542 -0.8702 -0.4601 -0.2740
 8894SOL     OW38314   2.550   0.325  14.360 -0.0227 -0.6367  0.1688
 8894SOL    HW138315   2.547   0.420  14.374 -0.0372 -0.8421  1.6298
 8894SOL    HW238316   2.559   0.322  14.265 -2.5238  1.1108 -0.1453
 8895SOL     OW38317   4.205   4.378  16.164 -0.6279  0.1424  0.3631
 8895SOL    HW138318   4.233   4.391  16.073 -0.8132 -3.7567 -0.2429
 8895SOL    HW238319   4.191   4.467  16.195  1.5019  1.1903 -1.7211
 8896SOL     OW38320   3.224   3.516   6.553 -0.1074 -0.3009 -0.1641
 8896SOL    HW138321   3.278   3.596   6.550 -1.3920  0.4949 -2.0201
 8896SOL    HW238322   3.218   3.496   6.460 -1.7122 -2.1089  0.3465
 8897SOL     OW38323   3.901   2.370  15.880  0.0680  0.2208  0.2410
 8897SOL    HW138324   3.835   2.348  15.946 -0.4431  0.0472 -0.3336
 8897SOL    HW238325   3.983   2.365  15.931 -0.3410  0.1585  0.8982
 8898SOL     OW38326   2.224   0.957   2.306 -0.1037 -0.1787 -0.1978
 8898SOL    HW138327   2.185   1.044   2.295 -0.1969 -0.4139 -1.6523
 8898SOL    HW238328   2.228   0.926   2.216  0.9823 -0.0388 -0.1987
 8899SOL     OW38329   2.555   3.920   7.413  0.0397 -0.1813 -0.1589
 8899SOL    HW138330   2.535   3.995   7.357  0.9136 -0.4898 -0.8749
 8899SOL    HW238331   2.625   3.953   7.468 -1.0287 -0.3214  1.2887
 8900SOL     OW38332   2.758   0.019   2.119 -0.3908 -0.6198 -0.0288
 8900SOL    HW138333   2.679   4.704   2.119 -0.8306  0.0348 -0.9335
 8900SOL    HW238334   2.827   4.696   2.144  0.2730  0.5803  1.1687
 8901SOL     OW38335   2.060   1.132  16.206  0.7747 -0.4202  0.3345
 8901SOL    HW138336   1.984   1.187  16.188  0.7179 -0.4061  0.6047
 8901SOL    HW238337   2.012   1.051  16.225 -0.5278  0.4736  0.8693
 8902SOL     OW38338   3.205   3.793   4.709 -0.2391 -0.2927  0.1120
 8902SOL    HW138339   3.170   3.807   4.621 -3.6191  0.8924  1.6471
 8902SOL    HW238340   3.255   3.713   4.694  1.7887  1.4405 -2.3306
 8903SOL     OW38341   2.350   0.857   7.017 -0.3201  0.2992  0.6766
 8903SOL    HW138342   2.283   0.792   7.034 -1.7817  1.5443 -0.3313
 8903SOL    HW238343   2.423   0.800   6.991  1.1157  1.6547  1.7577
 8904SOL     OW38344   3.274   0.343  17.202 -0.2520 -0.0892 -0.1670
 8904SOL    HW138345   3.297   0.296  17.122  0.7605  1.9743 -1.0880
 8904SOL    HW238346   3.226   0.275  17.248  0.8424 -1.1476 -0.5881
 8905SOL     OW38347   3.888   0.331  15.264  0.7881 -0.1717 -0.1453
 8905SOL    HW138348   3.812   0.332  15.323  0.8032  0.9649 -0.1485
 8905SOL    HW238349   3.883   0.407  15.207  1.4300 -0.0028  0.0288
 8906SOL     OW38350   2.610   4.732   8.797 -0.8246  0.3710 -0.1151
 8906SOL    HW138351   2.533   4.686   8.831 -0.8938  1.0959  0.6929
 8906SOL    HW238352   2.670   4.658   8.800  0.3214  1.2830 -0.4097
 8907SOL     OW38353   1.073   4.546  11.466 -0.2271 -0.2060 -0.8442
 8907SOL    HW138354   1.161   4.572  11.440  0.5188 -0.6731  1.2101
 8907SOL    HW238355   1.028   4.628  11.487 -0.1692 -0.4429  0.2030
 8908SOL     OW38356   2.814   2.594   9.481  0.2497  0.4876  0.3113
 8908SOL    HW138357   2.887   2.579   9.541  0.1253  0.2655  0.4049
 8908SOL    HW238358   2.836   2.513   9.436 -0.2198 -0.8491  2.4796
 8909SOL     OW38359   4.161   3.158   5.573  0.2999 -0.3633 -0.5047
 8909SOL    HW138360   4.222   3.085   5.580  2.6791  1.9000  3.1197
 8909SOL    HW238361   4.199   3.217   5.639 -1.3068 -0.1703  0.2390
 8910SOL     OW38362   3.285   2.466   4.483 -0.5273 -0.3805  0.0639
 8910SOL    HW138363   3.235   2.543   4.509 -1.8868 -1.3970  0.4644
 8910SOL    HW238364   3.284   2.419   4.567  0.6527  1.3807  1.0524
 8911SOL     OW38365   1.196   1.923   0.883 -0.0787  0.4303 -0.1635
 8911SOL    HW138366   1.188   2.018   0.880  1.4958  0.5281 -1.4358
 8911SOL    HW238367   1.263   1.923   0.950 -0.6742  0.0594  0.4298
 8912SOL     OW38368   0.701   4.387   5.266 -0.3784 -0.0290 -0.1976
 8912SOL    HW138369   0.635   4.321   5.288  0.6233 -0.1903  2.3838
 8912SOL    HW238370   0.683   4.430   5.350 -0.9541  0.9143 -0.8148
 8913SOL     OW38371   4.063   3.961  10.190  0.4506 -0.0137 -0.7755
 8913SOL    HW138372   4.008   3.994  10.262 -0.3794 -2.2157 -0.4182
 8913SOL    HW238373   4.089   4.045  10.153 -0.1477 -0.5027 -2.2890
 8914SOL     OW38374   0.289   3.194   7.021  0.1186 -0.5830 -0.1472
 8914SOL    HW138375   0.200   3.172   7.045  0.6545 -1.3805  1.0871
 8914SOL    HW238376   0.341   3.122   7.056  2.7522  0.5970 -1.5888
 8915SOL     OW38377   2.301   4.020   4.332 -0.5983 -0.3046 -0.6632
 8915SOL    HW138378   2.354   4.086   4.289 -2.1974  0.7592 -0.9905
 8915SOL    HW238379   2.296   3.951   4.265  0.7873  0.4709 -1.5594
 8916SOL     OW38380   2.693   2.959  16.808 -0.0843  0.3273  0.7034
 8916SOL    HW138381   2.625   3.015  16.846 -0.1292  0.3830  0.5378
 8916SOL    HW238382   2.648   2.875  16.804 -0.8081  0.7206  0.6780
 8917SOL     OW38383   0.762   3.926   8.259 -0.3327  0.2156  0.4177
 8917SOL    HW138384   0.811   3.944   8.179  2.6031 -1.3696  1.8649
 8917SOL    HW238385   0.786   3.834   8.268 -0.2613  0.2420  0.4995
 8918SOL     OW38386   3.343   3.862   6.316  0.5539  0.2933 -0.0741
 8918SOL    HW138387   3.358   3.801   6.245  2.1731  0.9380 -0.2993
 8918SOL    HW238388   3.358   3.945   6.270 -1.0964  1.6575  1.8414
 8919SOL     OW38389   3.994   0.859   3.763 -0.1656  0.4893  0.0464
 8919SOL    HW138390   4.004   0.903   3.847  2.5929 -0.0847  0.0322
 8919SOL    HW238391   3.919   0.802   3.781  0.4789 -0.2258  0.4505
 8920SOL     OW38392   0.357   0.179  14.101 -0.0706 -0.0201  0.0438
 8920SOL    HW138393   0.310   0.191  14.019  0.7266  0.8869 -0.2742
 8920SOL    HW238394   0.290   0.118  14.132  0.8847 -1.3039 -0.4042
 8921SOL     OW38395   4.436   2.377   4.149 -0.1626 -0.0498 -0.2058
 8921SOL    HW138396   4.361   2.339   4.104 -1.5393 -2.5375  4.2061
 8921SOL    HW238397   4.446   2.319   4.225  3.4163 -1.0124 -1.3861
 8922SOL     OW38398   1.777   4.240  14.318  1.1087 -0.1598  0.4707
 8922SOL    HW138399   1.869   4.266  14.328  0.6509  1.8771 -0.5944
 8922SOL    HW238400   1.788   4.145  14.330 -2.4552 -0.8207 -1.2856
 8923SOL     OW38401   4.468   1.202   5.205  0.3688 -0.2390 -0.1988
 8923SOL    HW138402   4.498   1.276   5.153 -0.8258 -0.2837 -0.9582
 8923SOL    HW238403   4.548   1.150   5.214 -1.1563 -2.1998  2.0411
 8924SOL     OW38404   2.558   2.775   7.780  0.2445 -0.6050 -0.6216
 8924SOL    HW138405   2.635   2.731   7.817  0.7752 -0.1453 -1.1732
 8924SOL    HW238406   2.580   2.862   7.814  2.3086 -0.7792 -1.4991
 8925SOL     OW38407   0.663   3.488   4.843 -0.3431  0.2071 -0.5193
 8925SOL    HW138408   0.597   3.553   4.864 -1.7176 -1.8360  1.5223
 8925SOL    HW238409   0.713   3.462   4.920 -2.2128  0.2550  0.7139
 8926SOL     OW38410   1.005   1.948  13.000  0.0143  0.2011 -0.1536
 8926SOL    HW138411   1.050   2.033  12.993  0.8297 -0.3285 -1.3695
 8926SOL    HW238412   1.078   1.894  13.032  0.2769 -0.4678 -1.8638
 8927SOL     OW38413   2.199   4.013   2.668 -0.2615  0.4675 -0.4732
 8927SOL    HW138414   2.207   4.069   2.745 -1.5495 -1.7254  1.2818
 8927SOL    HW238415   2.183   3.929   2.713  1.6787  1.4665  2.0651
 8928SOL     OW38416   3.669   4.382   2.941 -0.1026 -0.2091 -0.8020
 8928SOL    HW138417   3.749   4.348   2.980 -0.0088  0.8915 -0.0485
 8928SOL    HW238418   3.652   4.455   3.000 -2.7553 -2.7354  1.5610
 8929SOL     OW38419   1.068   2.505  15.821 -0.5322 -0.0841 -0.0716
 8929SOL    HW138420   1.000   2.456  15.774  0.5764  0.7645 -2.5413
 8929SOL    HW238421   1.088   2.451  15.898 -0.2608  1.9412  1.2728
 8930SOL     OW38422   1.177   3.472   8.380  0.4443 -0.1230 -0.1329
 8930SOL    HW138423   1.200   3.494   8.470 -0.3423  1.2340 -0.2540
 8930SOL    HW238424   1.087   3.506   8.374  0.1939 -0.8294 -0.4176
 8931SOL     OW38425   0.717   4.000  10.179 -0.0112  0.1825  0.0779
 8931SOL    HW138426   0.633   4.044  10.185  0.3139  0.7386  0.5564
 8931SOL    HW238427   0.715   3.922  10.235  2.0767 -0.9411 -1.4314
 8932SOL     OW38428   1.488   2.752  14.876  0.4821  0.1749 -0.0204
 8932SOL    HW138429   1.447   2.798  14.948 -0.0744 -0.6495  0.1908
 8932SOL    HW238430   1.465   2.816  14.809 -0.4163  0.0892  0.2039
 8933SOL     OW38431   2.295   4.317   0.670  0.1782  0.1578 -0.1020
 8933SOL    HW138432   2.271   4.229   0.698  3.0736 -0.7664 -0.5979
 8933SOL    HW238433   2.389   4.315   0.652  0.2983  0.8165  0.4503
 8934SOL     OW38434   2.564   0.705   5.214  0.0589 -0.0485  0.5125
 8934SOL    HW138435   2.528   0.745   5.135 -0.9007 -0.5806  0.6908
 8934SOL    HW238436   2.487   0.675   5.262  1.5420  0.5026  3.2624
 8935SOL     OW38437   1.509   1.477   9.668  0.6552  0.2968  0.4681
 8935SOL    HW138438   1.424   1.439   9.648  0.6949  0.0086  0.8446
 8935SOL    HW238439   1.485   1.555   9.716  0.2686 -0.7037  1.8945
 8936SOL     OW38440   0.248   3.674   6.382 -0.0550 -0.3033 -0.1616
 8936SOL    HW138441   0.321   3.727   6.349 -2.0509  2.1297 -0.7293
 8936SOL    HW238442   0.171   3.731   6.390 -0.3900 -0.5401 -1.6842
 8937SOL     OW38443   3.164   0.443   4.836  0.5409 -0.3844 -0.8478
 8937SOL    HW138444   3.146   0.472   4.925 -0.3706  0.4239 -1.3057
 8937SOL    HW238445   3.251   0.481   4.821  0.2821 -0.1728 -1.8014
 8938SOL     OW38446   1.640   0.703  12.260 -0.2275 -0.0953 -0.5946
 8938SOL    HW138447   1.555   0.746  12.266  0.7268  1.6765  0.4572
 8938SOL    HW238448   1.702   0.775  12.272 -1.9346  1.3784 -0.6451
 8939SOL     OW38449   1.823   0.959  14.969  0.3503 -0.6391  0.0427
 8939SOL    HW138450   1.749   1.000  14.925 -0.2538 -2.1796 -0.3868
 8939SOL    HW238451   1.889   1.028  14.966 -0.8460  0.5561  1.3916
 8940SOL     OW38452   2.045   1.836   2.704  0.7836  0.5685 -0.1993
 8940SOL    HW138453   2.011   1.832   2.793  3.9593  1.5534  1.0838
 8940SOL    HW238454   2.023   1.928   2.686  0.3030  0.2127 -1.3942
 8941SOL     OW38455   1.474   0.233  12.134 -0.4002  0.7520 -0.2278
 8941SOL    HW138456   1.411   0.187  12.079 -0.8676  1.6380 -0.4199
 8941SOL    HW238457   1.459   0.327  12.136 -0.2407  0.8196 -2.0264
 8942SOL     OW38458   3.207   4.302   7.922 -0.0139  0.3383 -0.1011
 8942SOL    HW138459   3.216   4.285   8.016  0.6590 -0.7940 -0.3648
 8942SOL    HW238460   3.230   4.394   7.911 -2.2490  0.9390  0.3502
 8943SOL     OW38461   1.624   4.552   4.990  0.2972  0.1388 -0.1706
 8943SOL    HW138462   1.682   4.613   5.035 -0.4752  1.0516 -0.4177
 8943SOL    HW238463   1.539   4.569   5.031 -0.5522 -0.1116 -1.8081
 8944SOL     OW38464   0.092   4.143   4.268 -0.3963 -0.0207  0.0878
 8944SOL    HW138465   0.076   4.190   4.350 -0.5296 -2.9922  1.7857
 8944SOL    HW238466   0.014   4.158   4.217  1.0311  0.8843 -1.8126
 8945SOL     OW38467   0.598   1.770   8.482  0.3725 -0.1157  0.3092
 8945SOL    HW138468   0.550   1.805   8.557 -0.1382  2.0377 -1.0315
 8945SOL    HW238469   0.683   1.809   8.499  0.7276 -0.3099 -1.0135
 8946SOL     OW38470   1.209   1.685   6.146 -0.3102 -0.4224  0.1896
 8946SOL    HW138471   1.122   1.672   6.107 -0.8244 -1.0584  1.5271
 8946SOL    HW238472   1.193   1.765   6.196  1.9813 -0.1103  0.3925
 8947SOL     OW38473   3.470   4.554   9.360 -0.0843 -0.1838 -0.6936
 8947SOL    HW138474   3.507   4.641   9.346  0.6873 -0.2659  0.7911
 8947SOL    HW238475   3.490   4.503   9.282  0.8013  0.6257 -0.9960
 8948SOL     OW38476   3.044   1.157   6.650  0.0162 -0.0291  0.5516
 8948SOL    HW138477   3.083   1.211   6.719 -2.6329  1.8952  0.5085
 8948SOL    HW238478   3.015   1.227   6.592  0.7197 -2.3342 -2.5719
 8949SOL     OW38479   0.149   1.112   8.037 -0.4348 -0.3621 -0.3153
 8949SOL    HW138480   0.148   1.087   7.944  0.0844 -1.7895  0.0654
 8949SOL    HW238481   0.198   1.042   8.080  0.0023  0.6144  0.7680
 8950SOL     OW38482   0.738   3.525   0.017 -0.1154  0.0157  0.5303
 8950SOL    HW138483   0.700   3.484   0.095 -0.0880 -3.2440 -1.1865
 8950SOL    HW238484   0.747   3.617   0.043  0.4490  0.1804 -0.2497
 8951SOL     OW38485   3.840   1.406   9.917 -0.1792  0.3948 -0.5232
 8951SOL    HW138486   3.837   1.310   9.921 -1.0235  0.3574 -2.1150
 8951SOL    HW238487   3.911   1.417   9.980 -1.7019  1.0937  1.0566
 8952SOL     OW38488   3.730   0.648   9.995 -0.1360  0.2960 -0.2201
 8952SOL    HW138489   3.709   0.613   9.909 -1.2861  0.9732 -0.2163
 8952SOL    HW238490   3.812   0.611  10.028 -0.4433  0.9302  1.2702
 8953SOL     OW38491   2.491   2.495  16.906  0.1237 -0.1482  0.2811
 8953SOL    HW138492   2.460   2.584  16.925  3.0153  0.3180  2.8607
 8953SOL    HW238493   2.527   2.514  16.820  0.3669  1.3494  0.7093
 8954SOL     OW38494   2.590   2.110   8.433  0.3647 -0.1863 -0.1204
 8954SOL    HW138495   2.588   2.168   8.510  2.5582 -0.2383 -0.0306
 8954SOL    HW238496   2.551   2.172   8.370  0.0502  0.1164  0.3708
 8955SOL     OW38497   4.639   0.659   3.171 -0.3602 -0.2875  0.1474
 8955SOL    HW138498   4.582   0.655   3.248 -0.9165  0.9733 -0.1815
 8955SOL    HW238499   4.685   0.576   3.168  0.5861  0.2658 -0.6718
 8956SOL     OW38500   1.735   3.974  17.252 -0.3996  0.1954 -0.2135
 8956SOL    HW138501   1.780   3.914  17.193 -2.0954 -2.1173  0.8810
 8956SOL    HW238502   1.785   4.051  17.224 -2.3091  1.5102  0.0437
 8957SOL     OW38503   0.937   2.337   8.815 -0.3296 -0.4786 -0.1120
 8957SOL    HW138504   1.012   2.332   8.874 -1.6822  3.3895  1.8828
 8957SOL    HW238505   0.872   2.295   8.871 -0.4144  0.1381  0.2463
 8958SOL     OW38506   4.468   0.823  10.269 -1.0253  0.0855 -0.1105
 8958SOL    HW138507   4.522   0.767  10.213  0.2723  1.9022 -0.6450
 8958SOL    HW238508   4.469   0.771  10.350 -2.5165 -0.2368 -0.2926
 8959SOL     OW38509   4.230   3.611   5.919  0.4062  0.0496  0.1930
 8959SOL    HW138510   4.203   3.696   5.884  0.4088  0.4003  1.0503
 8959SOL    HW238511   4.299   3.629   5.983 -0.7124  0.0286  1.3989
 8960SOL     OW38512   4.630   4.674   3.329 -0.0048 -0.4312  0.1529
 8960SOL    HW138513   4.633   4.720   3.245  0.7632 -1.1826 -0.2354
 8960SOL    HW238514   4.699   4.610   3.312 -1.0147 -1.1214 -1.4339
 8961SOL     OW38515   4.671   0.793   6.260  0.4042  0.1253 -0.3577
 8961SOL    HW138516   4.591   0.786   6.313 -1.5031 -0.2639 -3.2901
 8961SOL    HW238517   4.668   0.889   6.267  0.7729  0.0258  1.0465
 8962SOL     OW38518   1.418   2.432   5.128  0.2857 -0.1598 -0.4894
 8962SOL    HW138519   1.350   2.367   5.142  0.2080 -0.3417 -1.7031
 8962SOL    HW238520   1.467   2.396   5.055  2.8573 -1.9582  2.1226
 8963SOL     OW38521   1.113   4.183   3.968  0.4148 -0.1821 -0.0221
 8963SOL    HW138522   1.085   4.169   4.058  1.0291 -0.3407  0.1436
 8963SOL    HW238523   1.131   4.277   3.974  0.2681 -0.1029 -0.7333
 8964SOL     OW38524   1.892   3.770   8.919  0.1403  0.3556 -0.2242
 8964SOL    HW138525   1.934   3.785   8.834  0.3639 -0.1239 -0.2025
 8964SOL    HW238526   1.962   3.762   8.984  1.4174 -1.2331 -1.7844
 8965SOL     OW38527   3.342   3.280   3.195  0.1515 -0.4163 -0.4519
 8965SOL    HW138528   3.405   3.297   3.124  0.6133  0.3038  0.1297
 8965SOL    HW238529   3.354   3.191   3.227 -1.1849 -1.1423 -1.9720
 8966SOL     OW38530   1.178   3.493   2.317  0.2788  0.1018  0.6467
 8966SOL    HW138531   1.224   3.555   2.373  0.2247  1.2254 -0.5385
 8966SOL    HW238532   1.214   3.523   2.233  0.4476  1.4685  1.1994
 8967SOL     OW38533   1.000   1.492   2.876  0.6642 -0.4821 -0.0932
 8967SOL    HW138534   0.954   1.476   2.793  0.8322 -3.8288  0.4592
 8967SOL    HW238535   0.993   1.587   2.870 -0.2497 -0.4117  1.9203
 8968SOL     OW38536   2.767   0.934   7.143 -0.1309 -0.0557  0.0119
 8968SOL    HW138537   2.779   0.852   7.095 -0.4319 -0.9713  1.5321
 8968SOL    HW238538   2.711   0.904   7.214 -0.2993  1.4201  0.5074
 8969SOL     OW38539   2.607   1.043   6.938 -0.1296  0.0151  0.0104
 8969SOL    HW138540   2.650   0.980   6.995  1.2166  1.2053  0.3102
 8969SOL    HW238541   2.602   1.113   7.002  0.8860 -1.1263  1.3491
 8970SOL     OW38542   2.343   0.092   7.090  0.2093  0.0163  0.1055
 8970SOL    HW138543   2.355   0.084   7.184  1.0739 -1.8047 -0.1528
 8970SOL    HW238544   2.320   0.002   7.067 -0.3758  0.3544 -0.6531
 8971SOL     OW38545   2.807   2.679  13.141 -0.2544 -0.2964  0.3299
 8971SOL    HW138546   2.841   2.688  13.229  2.0372  0.9235 -0.6799
 8971SOL    HW238547   2.842   2.760  13.103 -0.0532 -1.3129 -1.6658
 8972SOL     OW38548   4.080   1.581   9.852  0.3397  0.2378 -0.4712
 8972SOL    HW138549   4.039   1.564   9.767 -0.6012  0.2012 -0.0038
 8972SOL    HW238550   4.027   1.655   9.880  2.1234  1.0984  0.6486
 8973SOL     OW38551   2.108   2.961   2.170  0.0113 -0.1788 -0.0230
 8973SOL    HW138552   2.042   3.024   2.198 -0.5800 -0.9973  0.4164
 8973SOL    HW238553   2.095   2.964   2.075 -2.7825  3.9722  0.4742
 8974SOL     OW38554   1.851   2.836   3.680 -0.0646  0.3710 -0.0186
 8974SOL    HW138555   1.784   2.864   3.743 -1.4114  0.2045 -1.3732
 8974SOL    HW238556   1.840   2.741   3.670 -2.2843  0.6691 -0.3567
 8975SOL     OW38557   3.844   3.516   7.409 -0.4277  0.4607  0.6589
 8975SOL    HW138558   3.805   3.591   7.364 -2.5083  0.2090  2.0443
 8975SOL    HW238559   3.763   3.486   7.449 -1.2158 -0.1763 -1.4057
 8976SOL     OW38560   1.338   0.605   4.329  0.0162  0.0339 -0.1791
 8976SOL    HW138561   1.305   0.583   4.416  1.6748  0.5044  0.5767
 8976SOL    HW238562   1.351   0.699   4.339  0.0905 -0.0428  0.4641
 8977SOL     OW38563   1.732   4.218  10.740 -0.2743  0.0285 -0.2694
 8977SOL    HW138564   1.793   4.217  10.666 -0.1258  0.9880 -0.1547
 8977SOL    HW238565   1.724   4.313  10.749  1.2817  0.2760 -1.3956
 8978SOL     OW38566   1.396   0.821   7.190 -0.0851 -0.0454  0.1831
 8978SOL    HW138567   1.381   0.741   7.140  0.7231 -0.0330 -0.0738
 8978SOL    HW238568   1.438   0.878   7.125  0.2917 -1.8150 -1.1080
 8979SOL     OW38569   2.755   3.917   0.314  0.4924 -0.4632 -0.9410
 8979SOL    HW138570   2.669   3.936   0.277  0.3119 -0.4113 -0.4992
 8979SOL    HW238571   2.762   3.970   0.393  2.5184 -2.1977  0.0571
 8980SOL     OW38572   2.180   0.507   7.472 -0.1484  0.5022  0.5556
 8980SOL    HW138573   2.110   0.551   7.424  0.3627  2.5277  1.7005
 8980SOL    HW238574   2.132   0.425   7.482  0.0223  0.1968 -1.0800
 8981SOL     OW38575   2.227   1.732   4.999  0.6070  0.6922 -0.4060
 8981SOL    HW138576   2.310   1.772   4.971  0.6771  1.2297  0.5566
 8981SOL    HW238577   2.239   1.642   4.972 -0.3113  0.3516  0.3155
 8982SOL     OW38578   2.454   2.664  15.456 -0.3841 -0.0302  0.1561
 8982SOL    HW138579   2.503   2.586  15.430 -0.7933 -0.6865  1.3362
 8982SOL    HW238580   2.363   2.636  15.460 -0.4393  0.5415  3.3442
 8983SOL     OW38581   1.722   1.577   8.823  0.1400 -0.5195  0.3877
 8983SOL    HW138582   1.757   1.663   8.800 -1.9381  0.2247 -0.0331
 8983SOL    HW238583   1.753   1.535   8.743  0.3740 -0.3730  0.4018
 8984SOL     OW38584   4.017   2.625   6.292 -0.3792 -0.0250  0.0620
 8984SOL    HW138585   4.084   2.602   6.228 -0.5216 -1.7139  0.4986
 8984SOL    HW238586   4.043   2.715   6.308 -0.1357  0.0398 -0.7397
 8985SOL     OW38587   2.594   2.939   7.269 -0.5987 -0.3810  0.1002
 8985SOL    HW138588   2.629   2.850   7.273  0.1538 -0.1011 -0.1493
 8985SOL    HW238589   2.670   2.993   7.292 -2.3809  2.6350 -0.9531
 8986SOL     OW38590   2.715   1.795   6.592 -0.8003 -0.3794  0.0697
 8986SOL    HW138591   2.726   1.728   6.660  1.7784  0.0925  0.0972
 8986SOL    HW238592   2.625   1.823   6.608 -0.0873  1.4206  0.8446
 8987SOL     OW38593   2.491   4.590   2.607 -0.4306 -0.0262  0.1271
 8987SOL    HW138594   2.427   4.613   2.539  0.8161  2.5817 -0.1674
 8987SOL    HW238595   2.447   4.616   2.688 -1.3270 -1.3575  0.0657
 8988SOL     OW38596   2.092   0.460   5.245 -0.6276 -0.4277 -0.5254
 8988SOL    HW138597   2.075   0.493   5.334  0.0247 -0.8600 -0.2352
 8988SOL    HW238598   2.131   0.374   5.258 -1.2086 -0.6927 -0.5074
 8989SOL     OW38599   1.568   1.651   2.711  0.7448  0.2954 -0.3435
 8989SOL    HW138600   1.552   1.664   2.617 -0.9495  2.2832  0.2419
 8989SOL    HW238601   1.607   1.737   2.728 -0.1781  0.6900 -0.2715
 8990SOL     OW38602   2.614   0.204   0.892 -0.0209  0.1017 -0.5910
 8990SOL    HW138603   2.586   0.249   0.813 -0.1326  1.4915  0.2183
 8990SOL    HW238604   2.697   0.167   0.862 -0.1639 -0.2597 -0.5351
 8991SOL     OW38605   3.748   1.039   5.533 -0.2665  0.0769  0.0972
 8991SOL    HW138606   3.728   1.031   5.626 -0.6741  0.2550  0.0300
 8991SOL    HW238607   3.694   1.115   5.512  1.1419  1.2549  0.7429
 8992SOL     OW38608   3.973   1.384   8.391  0.0552  1.1993  0.0080
 8992SOL    HW138609   4.051   1.408   8.341  0.0709  0.2281 -0.4435
 8992SOL    HW238610   4.007   1.301   8.426 -0.4683  2.0225  2.4669
 8993SOL     OW38611   4.733   3.685  13.932 -0.3275 -0.2196 -0.8561
 8993SOL    HW138612   0.073   3.641  13.901  0.7173 -0.0395  1.5177
 8993SOL    HW238613   4.702   3.618  13.993  0.6369 -0.2262 -0.3687
 8994SOL     OW38614   0.326   3.168   4.844 -0.1802 -0.1784 -0.0240
 8994SOL    HW138615   0.292   3.079   4.839  1.5758 -0.5407 -4.9438
 8994SOL    HW238616   0.413   3.149   4.810  1.1805  3.4001  1.4537
 8995SOL     OW38617   1.589   2.193   4.146  0.9551  0.0062 -0.4733
 8995SOL    HW138618   1.569   2.219   4.056  1.8955  0.3447 -0.5877
 8995SOL    HW238619   1.657   2.259   4.161 -0.8165  1.9600 -1.0576
 8996SOL     OW38620   4.483   0.627   8.615 -0.0974 -0.2933 -0.5882
 8996SOL    HW138621   4.502   0.694   8.680 -2.6614 -1.0221  0.9314
 8996SOL    HW238622   4.567   0.588   8.593 -0.1531 -1.1427  0.7773
 8997SOL     OW38623   0.714   0.424   9.622  0.3160  0.5253  0.5335
 8997SOL    HW138624   0.757   0.362   9.682 -0.3926 -2.4259 -2.0154
 8997SOL    HW238625   0.696   0.367   9.547 -0.6814  1.4112  0.1131
 8998SOL     OW38626   3.462   0.299   3.455 -0.0805 -1.0810 -0.0435
 8998SOL    HW138627   3.468   0.307   3.360 -0.4717 -1.2232 -0.0798
 8998SOL    HW238628   3.436   0.388   3.483 -2.1522 -2.7835  3.5221
 8999SOL     OW38629   0.278   3.215  15.652 -0.0003  0.4558 -0.1685
 8999SOL    HW138630   0.256   3.246  15.564  0.7221  2.6243  0.3984
 8999SOL    HW238631   0.313   3.128  15.636 -1.3774 -0.3866  1.3182
 9000SOL     OW38632   1.480   4.106   6.113 -0.0411 -0.0217  0.0776
 9000SOL    HW138633   1.531   4.175   6.154 -0.0943  0.7093 -1.0710
 9000SOL    HW238634   1.512   4.111   6.023  0.0786 -2.2794  0.0015
 9001SOL     OW38635   0.563   2.076   5.927  0.5489  0.0134  0.1700
 9001SOL    HW138636   0.571   1.992   5.883  0.6284 -1.4376  2.9385
 9001SOL    HW238637   0.472   2.093   5.903  0.3235  0.7362  1.5009
 9002SOL     OW38638   2.074   4.309   5.182  0.0723 -0.6225  0.2591
 9002SOL    HW138639   2.089   4.227   5.228 -0.4221 -0.9748 -0.2081
 9002SOL    HW238640   1.979   4.309   5.169  0.2395  0.8362 -0.9555
 9003SOL     OW38641   0.411   2.529   2.882 -0.0678  0.1534 -0.6936
 9003SOL    HW138642   0.422   2.437   2.909 -1.3474  0.4599  0.8929
 9003SOL    HW238643   0.375   2.518   2.794 -3.2563 -0.6404  0.7001
 9004SOL     OW38644   0.366   0.331   8.863 -0.4585  0.1621  0.1000
 9004SOL    HW138645   0.366   0.303   8.771  0.8449 -0.9672  0.4502
 9004SOL    HW238646   0.445   0.385   8.867 -0.0277 -0.3922 -0.9014
 9005SOL     OW38647   0.728   2.203   4.726  0.6319 -0.5479  0.3296
 9005SOL    HW138648   0.726   2.221   4.820 -0.3767  0.4993  0.1120
 9005SOL    HW238649   0.795   2.134   4.728  1.2197 -0.0639 -2.4826
 9006SOL     OW38650   4.679   1.708   2.276 -0.3272 -0.2124  0.2957
 9006SOL    HW138651   4.686   1.755   2.192  0.2995 -0.5401  0.1665
 9006SOL    HW238652   4.585   1.691   2.279 -0.4706  0.1388 -1.8329
 9007SOL     OW38653   3.564   0.586   1.586  0.5905  0.2510  0.3135
 9007SOL    HW138654   3.483   0.551   1.550 -0.2210  0.6925  1.7205
 9007SOL    HW238655   3.553   0.677   1.560 -0.4343  0.1947  0.5729
 9008SOL     OW38656   3.137   3.286  16.339  0.0721  0.3076  0.4445
 9008SOL    HW138657   3.067   3.230  16.372 -0.5201  1.9851  1.9769
 9008SOL    HW238658   3.199   3.228  16.294 -1.0850 -3.1425  3.3300
 9009SOL     OW38659   1.175   2.044   8.603 -0.7753 -0.2802  0.2112
 9009SOL    HW138660   1.201   2.029   8.512  1.0928 -2.9710  1.1834
 9009SOL    HW238661   1.236   2.112   8.632 -0.8572  0.3436 -1.1023
 9010SOL     OW38662   2.090   0.043  10.811 -0.1463  0.3796 -0.0239
 9010SOL    HW138663   2.183   0.052  10.788  0.0884  2.2921  1.6500
 9010SOL    HW238664   2.058   0.133  10.806 -0.8235  0.1954  0.9760
 9011SOL     OW38665   1.113   4.659   6.422  0.6554  0.2592 -0.1505
 9011SOL    HW138666   1.145   4.730   6.367  0.3810  0.8708  0.4858
 9011SOL    HW238667   1.072   4.602   6.356 -0.2803  1.8221 -0.9178
 9012SOL     OW38668   2.130   1.322   5.606 -0.5028 -0.4023 -0.4384
 9012SOL    HW138669   2.070   1.343   5.677 -0.5732  1.0185 -0.9114
 9012SOL    HW238670   2.136   1.412   5.572 -1.4754  0.2417  1.1187
 9013SOL     OW38671   1.340   2.324   7.197 -0.2558 -0.2288  0.4422
 9013SOL    HW138672   1.286   2.301   7.273 -1.3771 -1.5866 -0.7919
 9013SOL    HW238673   1.298   2.260   7.140 -0.2372  0.7037 -0.6015
 9014SOL     OW38674   1.470   1.603  16.814  0.1405  0.3803 -0.3017
 9014SOL    HW138675   1.515   1.642  16.739 -2.0194 -0.3583 -1.9819
 9014SOL    HW238676   1.544   1.591  16.873 -1.0630  1.7006  1.4853
 9015SOL     OW38677   4.398   4.725  10.310  0.2228 -0.0602 -0.4877
 9015SOL    HW138678   4.408   0.081  10.313  0.4905 -0.0769 -0.8988
 9015SOL    HW238679   4.374   4.698  10.221 -0.1525  0.3147 -0.4969
 9016SOL     OW38680   4.363   1.076   3.926 -0.0958  0.1372 -0.1751
 9016SOL    HW138681   4.364   1.121   4.011  0.2067  1.3052 -0.7977
 9016SOL    HW238682   4.455   1.077   3.900 -0.1447 -0.9816 -0.3959
 9017SOL     OW38683   3.861   0.337  13.303 -0.1554  0.5166  0.2596
 9017SOL    HW138684   3.940   0.354  13.252  0.0484 -1.2625 -0.0299
 9017SOL    HW238685   3.894   0.297  13.384  1.1759  1.3365  0.1260
 9018SOL     OW38686   1.049   0.656   3.649 -0.3334  0.1329  0.0689
 9018SOL    HW138687   1.118   0.592   3.669  0.8317  1.2358 -0.4071
 9018SOL    HW238688   0.966   0.609   3.659  0.1213 -0.6580  0.1475
 9019SOL     OW38689   2.078   4.077   4.079 -0.2666 -0.3666 -0.2963
 9019SOL    HW138690   2.162   4.079   4.033 -0.3576  0.5893 -0.4301
 9019SOL    HW238691   2.039   4.130   4.010 -0.9435 -0.2430  0.1841
 9020SOL     OW38692   2.593   2.437   4.830 -0.0636 -0.0639  0.7154
 9020SOL    HW138693   2.640   2.379   4.890 -0.5032 -0.8110  0.3400
 9020SOL    HW238694   2.660   2.497   4.799  1.1134 -2.9498 -2.4446
 9021SOL     OW38695   2.214   2.593   9.110  0.2500 -0.2572 -0.4605
 9021SOL    HW138696   2.261   2.650   9.050  1.7574 -0.8584  0.1560
 9021SOL    HW238697   2.160   2.664   9.146 -0.2426  0.1388 -1.9769
 9022SOL     OW38698   1.728   3.175   8.310 -0.5538  0.9749 -0.3173
 9022SOL    HW138699   1.699   3.250   8.361 -1.6984 -0.4068  1.0477
 9022SOL    HW238700   1.656   3.172   8.246 -0.6773 -0.4960 -0.1108
 9023SOL     OW38701   1.725   1.815  16.902  0.3858 -0.0097 -0.2873
 9023SOL    HW138702   1.784   1.819  16.977  0.9643  0.5253 -0.7717
 9023SOL    HW238703   1.695   1.725  16.914 -1.3011  0.6259  0.2817
 9024SOL     OW38704   4.140   2.327   3.836 -0.0734  0.3308 -0.1309
 9024SOL    HW138705   4.099   2.315   3.751  1.8920 -0.6049 -0.9470
 9024SOL    HW238706   4.230   2.328   3.804  0.0888 -1.1310  0.3121
 9025SOL     OW38707   3.414   4.123   8.379  0.1827  0.0207 -0.3227
 9025SOL    HW138708   3.343   4.061   8.395  0.6519  0.0319  1.8891
 9025SOL    HW238709   3.454   4.117   8.466  2.1116 -0.6124 -1.2666
 9026SOL     OW38710   2.460   3.737   4.577 -0.6211 -0.5472 -0.1078
 9026SOL    HW138711   2.367   3.758   4.579 -0.5680 -0.1659 -1.5682
 9026SOL    HW238712   2.459   3.708   4.486 -0.6331 -0.4694 -0.1324
 9027SOL     OW38713   0.067   1.789   4.920 -0.2027  0.1271 -0.0910
 9027SOL    HW138714   0.028   1.703   4.931  2.2141 -0.8489  0.6806
 9027SOL    HW238715   0.036   1.804   4.830  1.2969 -0.1377 -0.6542
 9028SOL     OW38716   2.764   2.603   2.506 -0.5236  0.2985 -0.1829
 9028SOL    HW138717   2.736   2.609   2.597 -0.2746  0.6287 -0.1277
 9028SOL    HW238718   2.718   2.530   2.465  0.0308  0.4742 -1.1242
 9029SOL     OW38719   4.189   2.924   5.378  0.0755  0.0108 -0.5246
 9029SOL    HW138720   4.234   2.840   5.369  0.3822  0.2807 -1.5132
 9029SOL    HW238721   4.235   2.956   5.455 -2.0571  0.9082  0.3948
 9030SOL     OW38722   3.081   2.083   3.834 -0.0206 -0.0104 -0.1836
 9030SOL    HW138723   3.044   2.023   3.770 -1.2854 -2.3749  2.7969
 9030SOL    HW238724   3.087   2.151   3.766 -1.6134  0.2172 -0.0962
 9031SOL     OW38725   2.123   0.245  10.450  0.1372 -0.4184  0.1074
 9031SOL    HW138726   2.100   0.300  10.376  0.6386  1.0278  1.0232
 9031SOL    HW238727   2.217   0.263  10.461  0.3407 -0.5557 -1.4441
 9032SOL     OW38728   2.650   2.934   7.985  0.0071  0.4602 -0.0093
 9032SOL    HW138729   2.606   2.918   8.068  1.7165  1.5071  1.0868
 9032SOL    HW238730   2.725   2.878   8.006  0.4846  0.7600 -0.9228
 9033SOL     OW38731   1.933   3.999  11.478 -0.1022  0.3119  1.1804
 9033SOL    HW138732   1.990   4.059  11.526  1.9272 -0.1933 -0.5996
 9033SOL    HW238733   1.996   3.966  11.414 -3.3465 -0.7627 -1.4939
 9034SOL     OW38734   3.331   2.242   6.651 -0.3312 -0.5606  0.2381
 9034SOL    HW138735   3.329   2.208   6.562  0.3339 -2.3896  0.9291
 9034SOL    HW238736   3.420   2.245   6.686 -0.3469  0.1606  0.2165
 9035SOL     OW38737   4.175   2.138   7.152 -0.8002 -0.5844  0.0025
 9035SOL    HW138738   4.188   2.184   7.070  1.4137 -0.6652  0.3149
 9035SOL    HW238739   4.147   2.213   7.204 -3.1621 -2.0101  0.8289
 9036SOL     OW38740   3.044   0.660  17.508  0.6029 -0.7604 -0.0733
 9036SOL    HW138741   3.002   0.594  17.563 -0.3863 -0.1503 -0.0985
 9036SOL    HW238742   3.003   0.732  17.556  1.7095 -0.3286  0.2401
 9037SOL     OW38743   0.701   2.063   7.833 -0.1769  0.5629  0.1066
 9037SOL    HW138744   0.631   2.127   7.825 -1.4750 -0.6154  2.1563
 9037SOL    HW238745   0.730   2.085   7.922  0.3883 -1.5075  0.4386
 9038SOL     OW38746   2.327   0.974  11.189  0.2772  0.1237 -0.0677
 9038SOL    HW138747   2.272   0.917  11.243  0.9343 -1.3666 -0.9831
 9038SOL    HW238748   2.364   0.919  11.121 -1.8486 -2.9669  1.2904
 9039SOL     OW38749   2.151   0.657   6.090 -0.8628  1.0334 -0.1432
 9039SOL    HW138750   2.072   0.711   6.097 -0.3635  1.4607  2.1074
 9039SOL    HW238751   2.209   0.715   6.139 -3.4537  1.0803  2.8829
 9040SOL     OW38752   3.896   3.565   9.720 -0.1131 -0.0528 -0.3877
 9040SOL    HW138753   3.806   3.596   9.719  0.6496  2.1721  1.3014
 9040SOL    HW238754   3.922   3.645   9.675 -1.2569  0.4080 -0.2177
 9041SOL     OW38755   0.601   0.719   4.940  0.2727 -0.3415 -0.0233
 9041SOL    HW138756   0.618   0.625   4.948 -0.7881 -0.7395 -2.4558
 9041SOL    HW238757   0.575   0.733   4.849  1.0006  0.0632 -0.1685
 9042SOL     OW38758   2.500   3.577  10.634 -0.3794 -0.1743 -0.1087
 9042SOL    HW138759   2.553   3.602  10.710 -1.0996 -0.0965  0.3663
 9042SOL    HW238760   2.540   3.498  10.599  0.7847  1.1330 -1.7319
 9043SOL     OW38761   2.251   0.484  14.466  0.1062  0.1076 -0.2703
 9043SOL    HW138762   2.310   0.556  14.443 -1.3388  0.7746 -1.8982
 9043SOL    HW238763   2.285   0.455  14.551  2.0414  0.2630 -0.9855
 9044SOL     OW38764   4.631   0.481   7.623 -0.1404  0.0118 -0.5163
 9044SOL    HW138765   4.677   0.402   7.596 -0.3215 -0.0491 -0.6448
 9044SOL    HW238766   4.669   0.541   7.559 -2.8071  1.3721 -0.8303
 9045SOL     OW38767   1.255   0.442   5.089  0.0186 -0.0530  0.8851
 9045SOL    HW138768   1.303   0.522   5.068 -0.7765  0.4891  1.1043
 9045SOL    HW238769   1.192   0.419   5.020 -2.0429 -2.0922  3.4457
 9046SOL     OW38770   3.823   1.034  13.416  0.3063  0.4356  0.1545
 9046SOL    HW138771   3.736   1.021  13.377  0.0219  1.8559  0.3251
 9046SOL    HW238772   3.836   0.959  13.474  0.9330 -0.5231 -1.2260
 9047SOL     OW38773   1.269   3.714   3.655 -0.0856 -0.0393  0.0993
 9047SOL    HW138774   1.309   3.797   3.681 -0.7206  0.2739  0.0606
 9047SOL    HW238775   1.310   3.655   3.719  0.8670  0.0661 -0.4160
 9048SOL     OW38776   3.119   2.407   6.616  0.2227  0.0647  0.2001
 9048SOL    HW138777   3.158   2.475   6.560  0.4873  0.3966  0.7864
 9048SOL    HW238778   3.188   2.345   6.641  0.2024 -0.4439 -1.0053
 9049SOL     OW38779   1.390   4.541   8.795  0.0771  0.0852  0.6227
 9049SOL    HW138780   1.416   4.587   8.715 -0.1341 -1.8375 -0.5473
 9049SOL    HW238781   1.463   4.479   8.792  1.1875  1.3811  1.0632
 9050SOL     OW38782   2.617   3.637  15.968  0.1472  0.0132  0.2906
 9050SOL    HW138783   2.531   3.595  15.964  0.2773 -0.2279  0.0012
 9050SOL    HW238784   2.676   3.578  15.922  0.5717 -0.9292  2.0392
 9051SOL     OW38785   4.042   2.693   7.849 -0.2829 -0.3706  0.2783
 9051SOL    HW138786   4.114   2.733   7.898 -0.5132  0.3599  0.0162
 9051SOL    HW238787   4.083   2.608   7.829 -1.7708 -1.1240  0.4142
 9052SOL     OW38788   2.859   3.120   4.132 -0.0005  0.1480 -0.2490
 9052SOL    HW138789   2.891   3.113   4.222 -2.0750 -1.9712  0.3325
 9052SOL    HW238790   2.839   3.027   4.121  0.1035  0.3219 -1.9128
 9053SOL     OW38791   1.053   4.597   6.804  0.2117 -0.1085 -0.0135
 9053SOL    HW138792   1.085   4.532   6.742 -0.9573 -2.3569  1.7296
 9053SOL    HW238793   1.105   4.577   6.882  0.1841  2.0423  0.5689
 9054SOL     OW38794   0.239   0.064  16.613 -0.0745  0.4122 -0.0904
 9054SOL    HW138795   0.295   0.112  16.552 -0.1005  0.1953 -0.2808
 9054SOL    HW238796   0.156   0.101  16.586 -0.9086 -0.6783  0.9506
 9055SOL     OW38797   1.581   3.863  10.856 -0.3508  1.0478  0.3928
 9055SOL    HW138798   1.663   3.899  10.888 -1.0425  2.2763  0.8227
 9055SOL    HW238799   1.536   3.838  10.937 -1.9637 -0.6387 -1.0141
 9056SOL     OW38800   1.093   4.272   6.889  0.2774  0.5279  0.5228
 9056SOL    HW138801   1.013   4.282   6.940  0.5645  0.8787  0.9007
 9056SOL    HW238802   1.146   4.218   6.948  0.1617 -0.0463  0.1060
 9057SOL     OW38803   0.097   3.756   5.382 -0.4968 -0.0188 -0.0139
 9057SOL    HW138804   0.005   3.736   5.361  0.0970 -1.7686 -0.9904
 9057SOL    HW238805   0.089   3.846   5.411 -0.9890 -0.5030  1.3259
 9058SOL     OW38806   0.736   3.540   2.612 -0.0276  0.3704 -0.2538
 9058SOL    HW138807   0.769   3.452   2.630  0.4817  0.7897  0.8991
 9058SOL    HW238808   0.656   3.516   2.566  0.5946  1.1367 -1.7259
 9059SOL     OW38809   2.659   3.028  14.634  0.7483  0.2099  0.0075
 9059SOL    HW138810   2.692   2.971  14.564 -0.1433  0.7946 -0.8925
 9059SOL    HW238811   2.691   3.114  14.607 -0.1271  0.0360 -1.5509
 9060SOL     OW38812   1.968   1.096   9.461 -0.0884  0.4376  0.0373
 9060SOL    HW138813   2.011   1.171   9.502 -0.9031  0.9824 -0.1034
 9060SOL    HW238814   1.900   1.080   9.527 -0.2846  0.2348 -0.2134
 9061SOL     OW38815   1.069   4.063   7.646  0.3352 -0.1227 -1.2239
 9061SOL    HW138816   1.003   4.132   7.641 -0.9074 -1.2559 -0.2064
 9061SOL    HW238817   1.086   4.036   7.736 -1.9939  1.2760 -0.3554
 9062SOL     OW38818   2.075   3.258   8.269  0.1112  0.1172 -0.2554
 9062SOL    HW138819   2.136   3.290   8.335  0.2856 -0.9318  0.0956
 9062SOL    HW238820   2.084   3.168   8.300  0.1086 -0.0298 -0.6787
 9063SOL     OW38821   3.174   2.041  12.166  0.1280  0.2027 -0.4327
 9063SOL    HW138822   3.225   2.108  12.212  0.6829 -0.3895 -0.1878
 9063SOL    HW238823   3.239   1.974  12.144 -0.1856 -0.2766  0.0985
 9064SOL     OW38824   4.641   2.188   2.346  0.1209  0.2870  0.4322
 9064SOL    HW138825   4.595   2.250   2.403  1.4668 -0.3728  2.2229
 9064SOL    HW238826   4.729   2.197   2.380  0.5034  0.3801 -0.5879
 9065SOL     OW38827   2.057   4.392  11.404  0.6712 -0.4798 -0.2298
 9065SOL    HW138828   2.100   4.451  11.466  0.0266  0.3786 -0.5891
 9065SOL    HW238829   1.965   4.419  11.403  1.2096  1.2867 -1.1017
 9066SOL     OW38830   2.496   1.053  16.589 -0.0142  0.3933  0.0061
 9066SOL    HW138831   2.547   1.001  16.526  0.2056 -0.7298  1.1172
 9066SOL    HW238832   2.412   1.065  16.545 -1.4144 -1.2925  2.1990
 9067SOL     OW38833   0.107   4.475  17.682  0.8857 -0.0340  0.1437
 9067SOL    HW138834   0.101   4.544  17.748 -1.6522  0.8169 -0.9864
 9067SOL    HW238835   0.143   4.524  17.608 -1.1196 -0.7097 -1.2652
 9068SOL     OW38836   1.373   3.598   2.094  0.6011  0.3867 -0.0341
 9068SOL    HW138837   1.316   3.671   2.120  1.3039  1.5744 -1.8020
 9068SOL    HW238838   1.456   3.636   2.066  1.4096  0.7868  2.8619
 9069SOL     OW38839   4.381   2.291  17.107 -0.1875  0.0221 -0.6532
 9069SOL    HW138840   4.381   2.270  17.014 -0.2445 -2.3007 -0.1147
 9069SOL    HW238841   4.293   2.328  17.116  0.1263  0.9721 -1.4650
 9070SOL     OW38842   4.619   0.063   4.554  0.0444  0.3545  1.0567
 9070SOL    HW138843   4.644   0.137   4.498  1.2800 -1.7824 -1.1705
 9070SOL    HW238844   4.668   0.087   4.632 -0.4269  2.7170  0.6365
 9071SOL     OW38845   4.636   3.759   6.902 -0.4688  0.1944 -0.3449
 9071SOL    HW138846   4.654   3.853   6.905 -2.0704  0.5655 -2.9444
 9071SOL    HW238847   4.586   3.758   6.984  0.6128 -1.4625  0.2843
 9072SOL     OW38848   4.734   3.504   7.852 -0.2206  0.3291  0.6057
 9072SOL    HW138849   0.069   3.555   7.884  0.4154 -1.5011  2.0401
 9072SOL    HW238850   4.703   3.577   7.798 -1.3619  0.1147  0.9555
 9073SOL     OW38851   0.481   4.353   8.254  0.7726 -0.1665  0.5919
 9073SOL    HW138852   0.488   4.437   8.299 -1.9462 -1.4562  3.4506
 9073SOL    HW238853   0.567   4.317   8.275  0.7312 -0.3866  0.3835
 9074SOL     OW38854   2.012   4.653   1.411 -0.2414 -0.2072  0.1353
 9074SOL    HW138855   1.954   4.590   1.369  1.6728 -0.7214 -1.7389
 9074SOL    HW238856   2.015   4.721   1.344  1.3963 -0.3021  0.1123
 9075SOL     OW38857   3.458   1.441   7.510 -0.3443  0.4931 -0.4898
 9075SOL    HW138858   3.518   1.430   7.584  1.3671  2.5477 -1.5720
 9075SOL    HW238859   3.397   1.368   7.516  0.6470 -0.2226  1.0694
 9076SOL     OW38860   3.868   3.918   3.356 -0.2161 -0.6721  0.1937
 9076SOL    HW138861   3.851   3.869   3.276 -1.1875  1.5390 -0.9550
 9076SOL    HW238862   3.850   4.007   3.326  0.7092 -0.2179  0.9786
 9077SOL     OW38863   3.217   3.021   8.278 -0.4701  0.5094 -0.0183
 9077SOL    HW138864   3.232   2.935   8.317 -0.8817  0.4668  0.0467
 9077SOL    HW238865   3.259   3.011   8.192  1.2398 -0.7344  0.9507
 9078SOL     OW38866   3.004   0.110   2.963 -0.1946 -0.1302 -0.0431
 9078SOL    HW138867   3.032   0.080   2.877 -1.4349  0.9097 -0.8009
 9078SOL    HW238868   3.044   0.047   3.024  0.7080  0.2020 -0.3055
 9079SOL     OW38869   3.271   3.380   2.895  0.4398 -0.3743  0.0268
 9079SOL    HW138870   3.187   3.360   2.853  0.0571 -0.9110  1.0507
 9079SOL    HW238871   3.305   3.294   2.920 -2.6292 -1.4079  0.5805
 9080SOL     OW38872   4.207   0.084  12.973 -0.5305  0.7990 -0.1925
 9080SOL    HW138873   4.245   0.140  13.041  0.3323  0.3809 -0.3400
 9080SOL    HW238874   4.213   0.152  12.906  0.7127  1.5657  0.7047
 9081SOL     OW38875   0.849   4.114  14.019 -0.1427  0.0033 -0.3229
 9081SOL    HW138876   0.905   4.102  14.096 -0.0167  1.5011 -0.1907
 9081SOL    HW238877   0.845   4.208  14.002 -0.9418  0.1814  0.8380
 9082SOL     OW38878   3.059   2.862   7.578  0.1298  0.8615  0.3758
 9082SOL    HW138879   2.969   2.871   7.545  0.9274  0.3198 -1.8645
 9082SOL    HW238880   3.074   2.769   7.565 -2.2262  0.5873 -0.4845
 9083SOL     OW38881   3.093   1.862   5.748  0.3387 -0.3222 -0.7143
 9083SOL    HW138882   3.158   1.800   5.716  0.0350 -1.3013  0.6053
 9083SOL    HW238883   3.087   1.917   5.670 -1.2378  1.7432  0.8583
 9084SOL     OW38884   1.233   3.779   1.357 -0.6775 -0.2765  0.5941
 9084SOL    HW138885   1.190   3.836   1.293  1.9875  0.4700 -0.5367
 9084SOL    HW238886   1.305   3.751   1.301 -0.1507  0.0360  1.1138
 9085SOL     OW38887   1.358   3.732  13.439 -0.1481 -0.3582  0.4060
 9085SOL    HW138888   1.355   3.804  13.502 -0.9633 -2.3813  2.6901
 9085SOL    HW238889   1.435   3.681  13.463  0.9087  0.7973 -0.4802
 9086SOL     OW38890   3.049   2.630   3.365  0.3848  0.2574  0.0673
 9086SOL    HW138891   3.043   2.701   3.429  3.2058 -0.6488  1.3255
 9086SOL    HW238892   3.109   2.570   3.409 -0.4441 -0.0725  0.7596
 9087SOL     OW38893   3.452   2.219   3.033 -0.1370  0.0412 -0.2378
 9087SOL    HW138894   3.501   2.300   3.049 -0.0773  0.0523 -0.4798
 9087SOL    HW238895   3.475   2.211   2.941 -0.0682  2.3241 -0.4289
 9088SOL     OW38896   3.568   1.776   3.442  0.3390 -0.2145 -0.0420
 9088SOL    HW138897   3.514   1.719   3.496  1.2988  0.1786  1.3404
 9088SOL    HW238898   3.652   1.736   3.463 -0.4276 -1.3055  0.9311
 9089SOL     OW38899   0.157   0.833  13.423 -0.3783 -0.4260  0.0961
 9089SOL    HW138900   0.210   0.758  13.451  0.2198  0.4198  1.2366
 9089SOL    HW238901   0.120   0.797  13.343 -1.7451  2.5674 -0.5905
 9090SOL     OW38902   3.424   3.675   6.113  1.1920  0.0723  0.2503
 9090SOL    HW138903   3.369   3.650   6.039  3.5525 -3.4339 -0.2944
 9090SOL    HW238904   3.476   3.748   6.079 -0.2193  1.0528  0.1710
 9091SOL     OW38905   2.012   3.507  16.354  0.4712 -0.1695 -0.3815
 9091SOL    HW138906   2.012   3.415  16.328 -0.0762 -0.6146  1.1737
 9091SOL    HW238907   1.927   3.522  16.396  1.1580 -0.4633  1.1201
 9092SOL     OW38908   4.017   2.729  15.243  0.1481 -0.0175  0.7496
 9092SOL    HW138909   4.050   2.750  15.330  0.2950  0.1467  0.6556
 9092SOL    HW238910   4.049   2.801  15.188 -0.1174  0.4771  1.2512
 9093SOL     OW38911   0.025   1.367   5.975  0.6017 -0.1876  0.5119
 9093SOL    HW138912   4.723   1.452   5.960  1.8355  0.6050  1.6713
 9093SOL    HW238913   4.687   1.309   5.981  1.3180 -1.0373  1.4950
 9094SOL     OW38914   2.610   2.039   1.762  0.1793 -0.0953  0.3873
 9094SOL    HW138915   2.679   1.979   1.731 -0.7854 -0.2638 -1.4271
 9094SOL    HW238916   2.616   2.104   1.693 -1.7114 -0.1180  0.1978
 9095SOL     OW38917   3.483   1.560   3.949  0.4595 -0.6241 -1.0134
 9095SOL    HW138918   3.433   1.572   4.030  1.5223  0.1048 -0.4576
 9095SOL    HW238919   3.497   1.465   3.943 -1.3176 -1.0669  1.9281
 9096SOL     OW38920   4.733   4.730   8.576  0.2044  0.2197 -0.5058
 9096SOL    HW138921   4.700   0.080   8.564 -0.0680  0.7595  4.2122
 9096SOL    HW238922   4.700   4.716   8.665  0.2186 -0.3686 -0.5945
 9097SOL     OW38923   3.853   4.020   4.360 -0.4069 -0.1166  0.5757
 9097SOL    HW138924   3.757   4.016   4.355 -0.5924  3.2749  1.0149
 9097SOL    HW238925   3.871   4.009   4.267  1.5954  0.9212  0.8481
 9098SOL     OW38926   3.294   3.026   1.416 -0.5065 -0.3722  0.7446
 9098SOL    HW138927   3.332   2.952   1.368  2.4036  0.6241  1.4934
 9098SOL    HW238928   3.281   2.988   1.503  2.7934 -0.5036  1.1804
 9099SOL     OW38929   2.767   1.195   5.134 -0.4659  0.1044 -0.3561
 9099SOL    HW138930   2.710   1.152   5.198 -0.5891  2.4668  1.0980
 9099SOL    HW238931   2.746   1.285   5.157  2.2109  0.4312  0.7975
 9100SOL     OW38932   4.723   1.877   4.225 -0.1442  0.4325  0.5261
 9100SOL    HW138933   0.044   1.907   4.157  0.5587 -0.8598  0.5810
 9100SOL    HW238934   4.676   1.804   4.183  2.4894  0.0702 -1.7800
 9101SOL     OW38935   2.752   3.366  14.819  0.7339 -0.6530  0.4922
 9101SOL    HW138936   2.748   3.331  14.730 -0.4558  1.0109 -0.1070
 9101SOL    HW238937   2.741   3.459  14.799  0.0762 -0.6903  0.6983
 9102SOL     OW38938   1.150   2.142   4.345  0.3504 -0.4682 -0.2539
 9102SOL    HW138939   1.086   2.131   4.276 -0.3169  0.0869  0.2792
 9102SOL    HW238940   1.167   2.236   4.340 -1.2357 -0.1939 -0.3477
 9103SOL     OW38941   3.699   2.419   2.901  0.0404 -0.3603 -0.2397
 9103SOL    HW138942   3.758   2.351   2.933 -0.4208  0.5385  2.5150
 9103SOL    HW238943   3.634   2.363   2.859 -0.4557 -0.4840  0.7020
 9104SOL     OW38944   4.514   1.035   3.270  0.4709 -0.2435  0.1009
 9104SOL    HW138945   4.489   1.092   3.196 -2.4936 -0.6414  0.7798
 9104SOL    HW238946   4.530   1.102   3.336  1.1172 -1.2603  0.9565
 9105SOL     OW38947   2.048   3.861   8.683 -0.0931 -0.2006 -0.2153
 9105SOL    HW138948   2.127   3.821   8.720 -0.6651 -0.5292  0.6521
 9105SOL    HW238949   2.042   3.824   8.596  0.8627 -0.0759 -0.3399
 9106SOL     OW38950   2.306   1.375   2.901 -0.2705 -0.4130 -0.2007
 9106SOL    HW138951   2.278   1.414   2.818 -1.7423 -1.0413  0.0167
 9106SOL    HW238952   2.343   1.448   2.951 -1.0234 -0.4775  0.4385
 9107SOL     OW38953   3.629   3.004   3.305 -0.2068  0.2331  0.4214
 9107SOL    HW138954   3.660   3.067   3.240  2.4822 -1.9407 -0.3769
 9107SOL    HW238955   3.635   3.061   3.382  1.7588 -0.3943  0.7227
 9108SOL     OW38956   2.814   1.470   5.340  0.1548  0.2301  0.4874
 9108SOL    HW138957   2.873   1.396   5.358  0.9226  0.6357 -0.3850
 9108SOL    HW238958   2.800   1.518   5.422 -3.1636  0.8540 -0.4400
 9109SOL     OW38959   1.753   4.000   8.173  0.2687 -0.0338 -0.3578
 9109SOL    HW138960   1.697   4.033   8.103 -2.9940 -2.3458  1.1451
 9109SOL    HW238961   1.824   3.963   8.121 -0.1310  1.7041 -2.1211
 9110SOL     OW38962   1.005   4.646   0.901  0.2321  0.8077 -0.1608
 9110SOL    HW138963   0.910   4.657   0.892  0.0384 -0.4065  0.4286
 9110SOL    HW238964   1.033   4.734   0.875 -0.8789  1.0848 -0.4057
 9111SOL     OW38965   3.464   4.040   7.058  0.2334  0.1755  0.0929
 9111SOL    HW138966   3.471   4.118   7.002  0.8020 -0.6549 -0.9824
 9111SOL    HW238967   3.456   4.082   7.144 -0.8357  0.1408  0.0035
 9112SOL     OW38968   4.690   1.978   5.114 -0.1756  0.1020 -0.1160
 9112SOL    HW138969   4.734   1.908   5.066 -0.0494 -0.1261  0.3282
 9112SOL    HW238970   4.712   1.950   5.203  0.7766  0.1867 -0.3188
 9113SOL     OW38971   3.925   4.149   1.765  0.0670 -0.3038 -0.9426
 9113SOL    HW138972   3.929   4.078   1.700  0.5109 -1.9442  0.8936
 9113SOL    HW238973   3.961   4.104   1.841  0.0558  0.7525 -0.3119
 9114SOL     OW38974   2.618   1.422  13.872 -0.3589  0.4853 -0.0912
 9114SOL    HW138975   2.688   1.451  13.930 -0.0415  0.4386 -0.4492
 9114SOL    HW238976   2.535   1.460  13.901 -0.0109 -0.0035  1.5241
 9115SOL     OW38977   2.888   3.104  15.870  0.0078 -0.2136  0.2289
 9115SOL    HW138978   2.863   3.141  15.955 -1.4694  2.2850 -1.2969
 9115SOL    HW238979   2.856   3.165  15.804 -3.1436 -1.9982  0.1399
 9116SOL     OW38980   1.311   4.273  11.359 -0.0050  0.1685 -0.4580
 9116SOL    HW138981   1.232   4.230  11.327  0.2313  1.0635 -2.2265
 9116SOL    HW238982   1.324   4.340  11.293 -2.3788 -0.1823 -1.2899
 9117SOL     OW38983   0.610   3.807   5.094  0.1633 -0.1900 -0.3481
 9117SOL    HW138984   0.685   3.774   5.144 -0.8174 -1.1139  0.5083
 9117SOL    HW238985   0.649   3.873   5.036  1.2459 -2.2828 -2.0377
 9118SOL     OW38986   3.827   1.077   8.926 -0.1600 -0.3569 -0.3609
 9118SOL    HW138987   3.854   1.152   8.872 -1.2157 -0.7883 -1.4940
 9118SOL    HW238988   3.750   1.114   8.969 -0.3459 -0.7612 -0.3480
 9119SOL     OW38989   2.157   2.136   0.986  0.1874  0.3833 -0.6049
 9119SOL    HW138990   2.102   2.151   0.909  0.0776 -0.3844 -0.6762
 9119SOL    HW238991   2.091   2.134   1.055 -1.3831 -1.2922 -2.1787
 9120SOL     OW38992   2.116   2.881   2.589  0.1329  0.7736 -0.4844
 9120SOL    HW138993   2.028   2.880   2.552  0.0034  0.3334 -0.1579
 9120SOL    HW238994   2.118   2.962   2.641  2.0364 -1.1357  2.4067
 9121SOL     OW38995   4.306   3.720   0.788  0.1768 -0.0033  0.7243
 9121SOL    HW138996   4.271   3.750   0.705 -1.1233 -0.8917  0.9469
 9121SOL    HW238997   4.241   3.651   0.804  0.2075 -0.1801  0.0841
 9122SOL     OW38998   1.941   1.137  17.598 -0.1136 -0.4075 -0.5010
 9122SOL    HW138999   1.938   1.226  17.632 -0.7943  0.0569 -1.7828
 9122SOL    HW239000   2.034   1.137  17.576 -0.1623 -1.1617 -0.7187
 9123SOL     OW39001   4.273   2.935  17.360 -0.2827 -0.4174  0.2373
 9123SOL    HW139002   4.367   2.928  17.342 -0.3271  1.8760 -0.8482
 9123SOL    HW239003   4.274   3.020  17.405  1.3290  0.4325 -1.3912
 9124SOL     OW39004   0.369   4.211   0.024 -0.8556 -0.1106 -0.1128
 9124SOL    HW139005   0.455   4.245   0.046 -1.5802  1.7458 -0.1056
 9124SOL    HW239006   0.360   4.235  17.685 -0.3533  2.5631  0.5345
 9125SOL     OW39007   1.136   1.696   7.108 -0.1497  0.0796 -0.0880
 9125SOL    HW139008   1.181   1.709   7.191  2.5374  0.7612 -1.6327
 9125SOL    HW239009   1.114   1.603   7.110  2.3110 -0.5123 -0.4271
 9126SOL     OW39010   0.252   3.375   8.744  0.6728  0.2774 -0.4228
 9126SOL    HW139011   0.170   3.419   8.722  0.6463 -0.1780 -1.2309
 9126SOL    HW239012   0.264   3.304   8.680 -0.5304  1.0107 -1.4643
 9127SOL     OW39013   2.682   1.092   6.309 -0.1375  0.1004  0.6955
 9127SOL    HW139014   2.750   1.086   6.376  0.0769  0.9614  0.5634
 9127SOL    HW239015   2.678   1.006   6.268 -1.3576 -0.0094  1.0234
 9128SOL     OW39016   4.733   2.744  11.953 -0.3177  0.1796 -0.1621
 9128SOL    HW139017   4.722   2.836  11.928  0.6243  0.9556  2.2309
 9128SOL    HW239018   4.646   2.736  11.994  0.6843 -2.0460  1.5647
 9129SOL     OW39019   2.471   1.242  15.877  0.2110 -0.5852 -0.3097
 9129SOL    HW139020   2.419   1.173  15.918  3.5993 -0.9722  3.3777
 9129SOL    HW239021   2.459   1.220  15.785  0.6658  3.1543 -1.2564
 9130SOL     OW39022   0.793   0.655   9.413 -0.0772  0.0832  0.1131
 9130SOL    HW139023   0.776   0.586   9.476  1.3545  0.3554  0.7924
 9130SOL    HW239024   0.888   0.658   9.405 -0.2110  2.4322 -0.5741
 9131SOL     OW39025   1.284   4.523   0.837 -0.0142 -0.3632  0.5395
 9131SOL    HW139026   1.196   4.549   0.863  0.5420  1.1777  0.8810
 9131SOL    HW239027   1.323   4.475   0.910  0.8014  1.6756  1.4660
 9132SOL     OW39028   4.467   2.900   1.702 -0.4368  0.8564  0.1166
 9132SOL    HW139029   4.535   2.937   1.758 -1.5233 -0.3546  2.2407
 9132SOL    HW239030   4.419   2.841   1.760 -2.0861  1.4605 -0.6196
 9133SOL     OW39031   0.804   2.231  15.947  0.7570 -0.4867  0.3703
 9133SOL    HW139032   0.709   2.225  15.957  0.6711  0.4943  0.1469
 9133SOL    HW239033   0.814   2.239  15.852 -0.4514  2.2211  0.4584
 9134SOL     OW39034   2.957   0.001   6.231  0.7286 -0.5435 -0.1000
 9134SOL    HW139035   2.996   0.087   6.211 -0.4392  0.6286  2.5797
 9134SOL    HW239036   2.889   0.027   6.294 -0.4092 -1.8785 -0.7812
 9135SOL     OW39037   4.156   4.736   5.977  0.0681  0.5694  0.1981
 9135SOL    HW139038   4.155   0.051   6.056  1.9587  0.8729  0.0149
 9135SOL    HW239039   4.153   4.649   6.015  0.9174  0.4455 -0.0371
 9136SOL     OW39040   0.833   3.930  17.037 -0.0249  0.4050 -0.5819
 9136SOL    HW139041   0.783   4.012  17.034 -1.1143 -0.3012 -1.5493
 9136SOL    HW239042   0.783   3.885  16.970  1.1176  0.5831 -1.5633
 9137SOL     OW39043   0.112   1.599   8.660  0.0477  0.3625  0.4961
 9137SOL    HW139044   0.184   1.592   8.722  0.9106 -0.4225 -0.6118
 9137SOL    HW239045   0.034   1.608   8.716  0.0456  0.7221  0.4333
 9138SOL     OW39046   3.626   3.755   9.044 -0.5510  0.2757  0.4791
 9138SOL    HW139047   3.590   3.815   8.977 -0.6558  0.2795  0.5385
 9138SOL    HW239048   3.574   3.777   9.121 -1.8077  0.2657 -0.3679
 9139SOL     OW39049   4.564   3.212   0.251  0.1918 -0.1464  0.2599
 9139SOL    HW139050   4.511   3.268   0.194  0.7619  0.7243  0.5670
 9139SOL    HW239051   4.566   3.127   0.207  0.1210  0.8871 -1.7506
 9140SOL     OW39052   0.061   3.113  11.576 -0.3888 -0.5060 -0.0147
 9140SOL    HW139053   0.047   3.178  11.646  1.6496  1.7105 -1.6684
 9140SOL    HW239054   0.100   3.161  11.503  2.8868  0.8761  2.6493
 9141SOL     OW39055   2.682   0.521   0.601  0.0188  0.2975 -0.4802
 9141SOL    HW139056   2.692   0.561   0.688  4.2329 -0.5869 -0.5805
 9141SOL    HW239057   2.614   0.455   0.617  0.0361 -0.1095 -2.0843
 9142SOL     OW39058   4.260   3.716   2.952  0.4566  0.4416  0.5705
 9142SOL    HW139059   4.286   3.636   2.998  0.0648 -1.1892 -2.0864
 9142SOL    HW239060   4.348   3.752   2.964  0.6560 -0.0442  0.5450
 9143SOL     OW39061   2.018   3.225  16.308  0.2023  0.0318  0.0030
 9143SOL    HW139062   2.021   3.142  16.356  2.1219  0.4043  0.5130
 9143SOL    HW239063   2.108   3.251  16.291  0.2157  0.8020  1.2580
 9144SOL     OW39064   0.894   1.585   0.937  0.0327 -0.2350  0.9849
 9144SOL    HW139065   0.873   1.565   1.028 -0.6291 -1.5679  0.5431
 9144SOL    HW239066   0.898   1.496   0.904  2.3231  0.4773 -0.6466
 9145SOL     OW39067   3.621   0.519   5.810 -0.4376  0.6758 -0.0428
 9145SOL    HW139068   3.684   0.586   5.836 -1.7171  2.1288 -0.6782
 9145SOL    HW239069   3.629   0.513   5.714 -0.3875  1.4179 -0.0866
 9146SOL     OW39070   0.034   4.227   9.033 -0.4756  0.5215  0.3219
 9146SOL    HW139071   0.068   4.140   9.053 -0.1928  1.1633  2.6437
 9146SOL    HW239072   0.106   4.290   9.030 -1.2668  1.4109 -0.0831
 9147SOL     OW39073   4.000   2.731   8.573  0.1670  0.4251 -0.6812
 9147SOL    HW139074   4.057   2.795   8.530  1.5104  0.3227  0.9224
 9147SOL    HW239075   3.967   2.788   8.643 -2.9996 -0.5368 -1.4191
 9148SOL     OW39076   2.965   4.405   2.652 -0.0914 -0.4128  0.2324
 9148SOL    HW139077   2.968   4.453   2.569 -0.0810  0.0898  0.5299
 9148SOL    HW239078   2.984   4.471   2.718  2.2922 -0.5475 -0.2854
 9149SOL     OW39079   2.817   0.239   6.131 -0.1343 -0.4943 -0.2892
 9149SOL    HW139080   2.730   0.252   6.092 -0.3293 -0.4838  0.1513
 9149SOL    HW239081   2.878   0.247   6.058 -1.6804  1.4802 -1.3479
 9150SOL     OW39082   3.079   2.519   0.198 -0.0889  0.0460 -0.0350
 9150SOL    HW139083   3.124   2.453   0.145  1.8381  1.1473  0.2590
 9150SOL    HW239084   3.062   2.470   0.279  1.0084 -1.0774 -0.4962
 9151SOL     OW39085   2.799   1.922   5.683  0.8788 -0.5408 -0.2263
 9151SOL    HW139086   2.894   1.912   5.693  0.9769  0.7933  0.1701
 9151SOL    HW239087   2.776   1.874   5.603  1.8453 -1.4676  0.0504
 9152SOL     OW39088   1.964   1.780   6.123 -0.2520 -0.9291 -0.0290
 9152SOL    HW139089   2.015   1.805   6.200 -2.0083  1.1903  0.4475
 9152SOL    HW239090   1.972   1.860   6.072 -0.7692  0.9823  2.8714
 9153SOL     OW39091   2.303   1.351   3.317 -0.0108 -0.2925  0.4070
 9153SOL    HW139092   2.321   1.392   3.402 -1.3734 -1.6387  1.3412
 9153SOL    HW239093   2.208   1.359   3.311 -0.0083 -0.2023  0.4812
 9154SOL     OW39094   3.672   1.794   8.492  0.3434 -0.0889  0.0258
 9154SOL    HW139095   3.584   1.793   8.531  0.9870 -2.7633  1.3491
 9154SOL    HW239096   3.730   1.752   8.556 -1.0517  0.5723  1.7366
 9155SOL     OW39097   0.898   4.284   7.083 -1.3750 -0.3705 -0.4821
 9155SOL    HW139098   0.825   4.337   7.049 -2.0682  0.1179  1.7670
 9155SOL    HW239099   0.851   4.210   7.120  0.2474 -2.5932 -2.8584
 9156SOL     OW39100   1.336   2.394   1.034  0.1199  0.0607 -0.1954
 9156SOL    HW139101   1.380   2.476   1.055 -1.2221  0.6426  0.3656
 9156SOL    HW239102   1.244   2.410   1.054  0.0066  1.1210 -1.6226
 9157SOL     OW39103   1.508   4.490   8.547 -0.0207 -0.6615 -0.5619
 9157SOL    HW139104   1.428   4.501   8.496 -0.3712 -0.0207  0.1239
 9157SOL    HW239105   1.513   4.394   8.550 -0.5852 -0.6876 -0.2943
 9158SOL     OW39106   4.490   3.640   3.729 -0.5914 -0.7022  0.0737
 9158SOL    HW139107   4.574   3.594   3.732 -0.7737 -0.9551  1.4588
 9158SOL    HW239108   4.432   3.568   3.704  2.2714 -2.5866 -1.0701
 9159SOL     OW39109   0.947   3.711   9.699 -0.2403  0.1307 -0.0171
 9159SOL    HW139110   1.003   3.773   9.746  1.2980 -1.1130 -0.2097
 9159SOL    HW239111   0.988   3.625   9.701 -3.2930 -1.3557 -0.6846
 9160SOL     OW39112   4.495   3.996  16.548 -0.1666 -0.7138 -0.3696
 9160SOL    HW139113   4.407   3.961  16.561 -0.5934  1.6157  3.3093
 9160SOL    HW239114   4.491   4.032  16.460  0.2297  0.6935  0.1809
 9161SOL     OW39115   1.294   2.693  11.289  0.1729 -0.1951  0.2711
 9161SOL    HW139116   1.271   2.783  11.265 -0.0778 -0.4951 -0.6338
 9161SOL    HW239117   1.290   2.652  11.202  2.0266 -1.0502  0.5946
 9162SOL     OW39118   4.489   3.891   0.882 -0.1713 -0.5346  0.1631
 9162SOL    HW139119   4.538   3.849   0.952 -1.1337  0.7314  1.5953
 9162SOL    HW239120   4.425   3.825   0.853 -0.0941 -0.3344 -0.4743
 9163SOL     OW39121   3.168   3.739   8.030 -0.3910 -0.2939 -0.5428
 9163SOL    HW139122   3.099   3.689   7.987  1.0251 -0.8779 -2.1224
 9163SOL    HW239123   3.215   3.743   7.946 -2.2078 -1.0126 -1.5933
 9164SOL     OW39124   2.833   0.159   4.595 -0.0477 -0.1125 -0.5551
 9164SOL    HW139125   2.801   0.169   4.684 -0.4131  0.7579 -0.7853
 9164SOL    HW239126   2.899   0.228   4.591  1.4501 -1.5662 -0.7563
 9165SOL     OW39127   1.875   0.752  11.184  0.2365  0.4816 -0.5333
 9165SOL    HW139128   1.860   0.786  11.273  0.1531 -1.4723  0.1962
 9165SOL    HW239129   1.959   0.707  11.192 -1.3210 -2.7108 -2.3771
 9166SOL     OW39130   4.442   3.968  14.113 -0.2346  0.2754  0.1752
 9166SOL    HW139131   4.536   3.968  14.135 -0.4788  0.5938  1.2086
 9166SOL    HW239132   4.416   4.052  14.150 -0.3461  0.4639 -0.3356
 9167SOL     OW39133   2.872   2.484  14.224 -0.4870  0.0223  0.4736
 9167SOL    HW139134   2.880   2.535  14.305  2.0776 -0.9271  0.8353
 9167SOL    HW239135   2.853   2.562  14.172 -3.4039 -0.5094  0.7330
 9168SOL     OW39136   1.880   4.280  16.653 -0.0362  0.0182 -0.3787
 9168SOL    HW139137   1.957   4.313  16.606  1.1914  0.4259  1.8860
 9168SOL    HW239138   1.822   4.336  16.602  1.0358 -0.4898 -2.1746
 9169SOL     OW39139   3.966   0.723   1.713  0.3360  0.8687  0.0406
 9169SOL    HW139140   3.927   0.648   1.758  0.8124  0.2364 -0.5764
 9169SOL    HW239141   3.986   0.688   1.626  0.8321  2.0033 -0.3011
 9170SOL     OW39142   1.204   4.165   5.157 -0.5143  0.9639 -0.3761
 9170SOL    HW139143   1.138   4.139   5.093  0.6789 -0.3276 -1.0798
 9170SOL    HW239144   1.280   4.130   5.111  0.5051 -0.6109  2.5232
 9171SOL     OW39145   1.721   1.982   4.743  0.7280 -0.3988 -0.8031
 9171SOL    HW139146   1.814   1.999   4.758  0.1036  1.2016  1.1921
 9171SOL    HW239147   1.716   1.890   4.716  0.3447 -0.5538 -0.1821
 9172SOL     OW39148   1.143   2.774   4.203 -0.1774  0.3406  0.5410
 9172SOL    HW139149   1.048   2.780   4.208 -0.4134 -2.8343 -0.0225
 9172SOL    HW239150   1.169   2.853   4.251  0.2154  0.5773 -0.0657
 9173SOL     OW39151   0.404   0.093   1.445 -0.2031  0.1786 -0.1994
 9173SOL    HW139152   0.346   0.135   1.381 -1.1341  0.3681  0.7483
 9173SOL    HW239153   0.398   0.008   1.402 -2.2605  0.4131 -0.4230
 9174SOL     OW39154   2.915   1.641  12.769  0.0184  0.0489  0.0925
 9174SOL    HW139155   2.950   1.702  12.834  1.7573 -0.8944  0.0535
 9174SOL    HW239156   2.826   1.669  12.750  0.3486  0.0811 -1.4240
 9175SOL     OW39157   0.904   1.065   9.531  0.4028 -0.7580  0.1813
 9175SOL    HW139158   0.887   1.067   9.625 -1.1897  1.5985 -0.1637
 9175SOL    HW239159   0.817   1.040   9.498  0.4562  1.8281 -1.9323
 9176SOL     OW39160   0.487   1.744   1.604 -0.2232 -0.5894 -0.0045
 9176SOL    HW139161   0.403   1.786   1.622 -0.2444 -0.1925 -1.0295
 9176SOL    HW239162   0.510   1.737   1.697  0.0962  2.7362  0.1803
 9177SOL     OW39163   4.343   1.657   2.788 -0.2432 -0.0962  0.7256
 9177SOL    HW139164   4.387   1.674   2.704  0.9385 -1.8732  0.9767
 9177SOL    HW239165   4.418   1.627   2.840 -0.7550  1.9037  2.6294
 9178SOL     OW39166   3.626   1.886   9.678 -0.5082 -0.1268 -0.3054
 9178SOL    HW139167   3.622   1.811   9.619 -0.2779 -0.6901  0.3986
 9178SOL    HW239168   3.591   1.952   9.618  0.8091 -0.3075 -1.2692
 9179SOL     OW39169   0.794   4.358   6.042  0.9022  0.1476 -0.6993
 9179SOL    HW139170   0.799   4.453   6.057  0.3870  0.0478  0.1078
 9179SOL    HW239171   0.873   4.330   6.089  0.4557 -1.4338 -0.8952
 9180SOL     OW39172   3.672   2.595   7.196 -0.1132  0.3650  0.1658
 9180SOL    HW139173   3.765   2.611   7.183  0.0732 -1.3755 -0.6751
 9180SOL    HW239174   3.625   2.675   7.220  0.9427  1.2112 -0.6222
 9181SOL     OW39175   1.730   4.612   3.558  0.6278 -0.6403 -0.0661
 9181SOL    HW139176   1.723   4.529   3.511  2.6518 -0.2341 -1.0644
 9181SOL    HW239177   1.721   4.583   3.649  0.7415 -1.7898 -0.4181
 9182SOL     OW39178   0.296   0.139   8.398 -0.5940  0.0928 -0.3403
 9182SOL    HW139179   0.212   0.098   8.378 -0.3155  0.3132 -1.9606
 9182SOL    HW239180   0.312   0.191   8.319  0.4720 -0.7813 -0.7051
 9183SOL     OW39181   2.937   0.802   6.135 -0.2605  0.4183 -0.0357
 9183SOL    HW139182   3.013   0.860   6.140 -0.0561  0.1591 -0.1080
 9183SOL    HW239183   2.967   0.732   6.194  0.4999  0.8591  0.0930
 9184SOL     OW39184   0.831   0.662   7.225 -0.5512  0.0721 -0.3293
 9184SOL    HW139185   0.882   0.703   7.156  1.0546 -1.2751  0.0398
 9184SOL    HW239186   0.792   0.585   7.183  2.0770 -0.5666 -1.5815
 9185SOL     OW39187   3.401   1.601   5.378  0.1312 -0.4752 -0.2322
 9185SOL    HW139188   3.319   1.632   5.417  0.9864  1.7446 -0.2034
 9185SOL    HW239189   3.387   1.513   5.413  1.2387 -0.0513  1.2576
 9186SOL     OW39190   3.813   1.532   2.030  0.3561 -0.4219 -0.4130
 9186SOL    HW139191   3.843   1.456   2.080  0.8894 -0.2214 -0.4226
 9186SOL    HW239192   3.896   1.552   1.985  0.1587  0.2277 -0.4893
 9187SOL     OW39193   3.169   0.498   8.483 -0.1417  0.3704  0.0581
 9187SOL    HW139194   3.223   0.496   8.562 -1.7829 -1.2224  1.1414
 9187SOL    HW239195   3.232   0.458   8.422  1.2289  0.2797  1.5469
 9188SOL     OW39196   0.256   1.251  10.370  0.7138  0.3688  0.1196
 9188SOL    HW139197   0.281   1.227  10.280  1.6151  2.7721 -0.2720
 9188SOL    HW239198   0.181   1.310  10.361  0.7289  0.5391  1.1027
 9189SOL     OW39199   1.987   3.557   6.933  0.1652 -0.1925  0.2551
 9189SOL    HW139200   2.014   3.620   6.866  1.8850 -0.5837  0.5800
 9189SOL    HW239201   1.985   3.618   7.006 -1.4340 -0.7075  0.6310
 9190SOL     OW39202   3.090   4.304  17.727  0.0550  0.0278 -0.7975
 9190SOL    HW139203   3.160   4.353   0.015 -1.1844  0.7901  0.3506
 9190SOL    HW239204   3.149   4.251  17.674 -0.1587 -1.2272  0.2153
 9191SOL     OW39205   2.702   1.895  17.200 -0.0068  0.4411 -0.6416
 9191SOL    HW139206   2.708   1.800  17.206 -1.4263  0.3634 -0.3602
 9191SOL    HW239207   2.685   1.911  17.293  1.7652  0.2895 -0.2847
 9192SOL     OW39208   0.252   0.553   2.251 -0.2027  0.1789 -0.5697
 9192SOL    HW139209   0.253   0.462   2.222  2.8860 -0.6546  2.1177
 9192SOL    HW239210   0.195   0.595   2.187 -0.9373  1.6146  1.0012
 9193SOL     OW39211   1.105   1.089   1.661 -0.3069 -0.6961  0.2983
 9193SOL    HW139212   1.014   1.063   1.648  0.1749 -1.2338 -2.0559
 9193SOL    HW239213   1.116   1.086   1.756 -0.5050  1.6488  0.3936
 9194SOL     OW39214   4.183   3.354   7.574 -0.3062  0.3103  0.7107
 9194SOL    HW139215   4.223   3.269   7.552 -0.9045  0.4765 -0.9974
 9194SOL    HW239216   4.262   3.409   7.567 -1.4651  1.7247 -1.2029
 9195SOL     OW39217   1.244   3.566  13.250 -0.5294  0.2543  0.0700
 9195SOL    HW139218   1.293   3.629  13.303  0.1645 -0.2133 -0.0103
 9195SOL    HW239219   1.175   3.624  13.218 -0.2647  0.1550 -0.6897
 9196SOL     OW39220   3.929   3.152  15.616  0.0362 -0.4999 -0.4310
 9196SOL    HW139221   3.998   3.195  15.566  1.2263 -0.0404  1.6034
 9196SOL    HW239222   3.909   3.077  15.560 -0.5886  0.4372 -1.4745
 9197SOL     OW39223   1.818   0.461   5.256 -0.3667 -0.0652  0.2501
 9197SOL    HW139224   1.800   0.367   5.245 -1.1108 -0.0547  1.4058
 9197SOL    HW239225   1.913   0.470   5.250 -0.2319  0.0359  2.5782
 9198SOL     OW39226   0.692   0.357  14.311  0.8238  0.2437 -0.5375
 9198SOL    HW139227   0.708   0.445  14.345 -2.6311  0.0764  1.4712
 9198SOL    HW239228   0.747   0.313  14.377 -0.8508  0.3822  0.9352
 9199SOL     OW39229   2.309   0.917   3.330  0.2577 -0.2658 -0.2329
 9199SOL    HW139230   2.266   0.938   3.247  1.4280 -1.2494 -1.0988
 9199SOL    HW239231   2.348   0.833   3.306  1.3801  0.3549 -0.5981
 9200SOL     OW39232   0.221   1.505   4.337  0.2144 -0.8466 -0.3341
 9200SOL    HW139233   0.127   1.487   4.331 -0.2853  1.4955  0.3095
 9200SOL    HW239234   0.266   1.472   4.260  0.8961 -0.1573 -0.2331
 9201SOL     OW39235   3.932   2.398  12.754 -0.9031 -1.0276  0.1573
 9201SOL    HW139236   3.979   2.474  12.718  2.7971 -3.4420 -0.0467
 9201SOL    HW239237   3.841   2.412  12.727  0.1059  3.8377 -0.8245
 9202SOL     OW39238   4.679   0.114   3.596 -0.3700  0.4579 -0.0695
 9202SOL    HW139239   4.680   0.059   3.517  1.2873  0.0503  0.2290
 9202SOL    HW239240   4.586   0.133   3.604 -0.5454 -0.7392  0.7140
 9203SOL     OW39241   3.487   4.526   2.113  0.1032 -0.3374  0.3032
 9203SOL    HW139242   3.427   4.453   2.128  0.4769 -0.8970 -0.9476
 9203SOL    HW239243   3.576   4.495   2.124  0.5177  0.4426 -0.8283
 9204SOL     OW39244   4.419   2.202   8.894 -0.3294  0.3483  0.5324
 9204SOL    HW139245   4.397   2.122   8.846  0.5978  1.0246 -1.0137
 9204SOL    HW239246   4.507   2.219   8.861 -0.4028  0.5794  0.4587
 9205SOL     OW39247   1.488   1.494   7.001 -0.0077  0.2201  0.0233
 9205SOL    HW139248   1.448   1.574   6.967 -0.0646  0.7196  1.2746
 9205SOL    HW239249   1.489   1.432   6.928 -1.5082 -1.7153  1.6555
 9206SOL     OW39250   3.375   0.495   7.986  0.0883  0.4701  0.5060
 9206SOL    HW139251   3.350   0.565   7.926  0.7484  0.8998  0.7316
 9206SOL    HW239252   3.294   0.449   8.009  0.2960  1.1110  2.5314
 9207SOL     OW39253   2.774   4.281  10.096  0.3401  0.6793  0.0264
 9207SOL    HW139254   2.832   4.254  10.167 -0.8256 -2.5177 -0.2282
 9207SOL    HW239255   2.826   4.313  10.023  3.8173  0.6882  2.5140
 9208SOL     OW39256   2.631   0.423   1.036  0.3041 -0.1239  0.0988
 9208SOL    HW139257   2.600   0.390   1.120  1.3198  0.4029  0.6743
 9208SOL    HW239258   2.594   0.360   0.974  0.0224 -0.8233  0.9863
 9209SOL     OW39259   3.078   0.071   5.861  0.1202 -0.3340 -0.2814
 9209SOL    HW139260   3.047   0.158   5.886  1.2891 -0.4412  1.5527
 9209SOL    HW239261   3.055   0.079   5.768  0.1477  0.8992 -0.1892
 9210SOL     OW39262   0.297   1.000   3.128 -0.0270 -0.2326  0.4896
 9210SOL    HW139263   0.288   1.051   3.048 -2.4336  1.6942  2.0064
 9210SOL    HW239264   0.235   0.929   3.108  1.6466 -0.9616 -2.1946
 9211SOL     OW39265   4.124   2.867   3.256  0.4829  0.1902  0.2760
 9211SOL    HW139266   4.120   2.931   3.184 -0.9130  0.8302  0.9249
 9211SOL    HW239267   4.121   2.779   3.218 -4.2077 -0.2130  1.6478
 9212SOL     OW39268   4.392   2.814  11.545 -0.0514  0.6310 -0.4917
 9212SOL    HW139269   4.440   2.871  11.605 -0.6907  1.4903 -0.8158
 9212SOL    HW239270   4.465   2.752  11.531 -1.6307 -1.2520 -0.4139
 9213SOL     OW39271   1.096   1.154   9.810  0.7332 -0.0002  0.3571
 9213SOL    HW139272   1.179   1.191   9.779 -1.0529  3.5338 -0.2091
 9213SOL    HW239273   1.127   1.080   9.863 -2.3638 -1.8096 -0.3743
 9214SOL     OW39274   3.935   3.364   8.525  0.7247  1.3274  0.3598
 9214SOL    HW139275   4.014   3.389   8.572  0.7555  1.7255  0.0921
 9214SOL    HW239276   3.931   3.269   8.533  1.4991  1.0350 -2.6519
 9215SOL     OW39277   2.990   4.066   7.983 -0.3236 -0.2448 -0.2890
 9215SOL    HW139278   3.083   4.061   7.958  0.0794  0.4979  1.0731
 9215SOL    HW239279   2.989   4.008   8.059  0.1903 -1.9174 -1.5546
 9216SOL     OW39280   3.880   2.040  10.297  0.0732 -0.0646 -0.7044
 9216SOL    HW139281   3.834   1.999  10.370  0.1134  0.8526 -0.1650
 9216SOL    HW239282   3.949   1.974  10.305  0.5772  0.5120 -0.2732
 9217SOL     OW39283   2.365   3.887  15.287  0.3477 -0.5435  0.3648
 9217SOL    HW139284   2.400   3.973  15.312  0.1414 -0.6075  0.8527
 9217SOL    HW239285   2.447   3.850  15.253 -0.4046  0.4284 -2.6004
 9218SOL     OW39286   4.346   0.392   6.322 -0.3352  0.6056  0.5278
 9218SOL    HW139287   4.401   0.460   6.281 -1.4766  0.1391 -1.7862
 9218SOL    HW239288   4.351   0.318   6.262  2.1311  1.0202  0.2227
 9219SOL     OW39289   0.812   0.295   6.920 -0.2132 -0.3043 -0.3777
 9219SOL    HW139290   0.899   0.312   6.958 -0.9138 -1.9252  1.9282
 9219SOL    HW239291   0.819   0.202   6.898 -0.4846 -0.3205 -0.3917
 9220SOL     OW39292   3.264   1.287   7.015  0.3657  0.3339 -0.2415
 9220SOL    HW139293   3.255   1.296   7.110  1.0447 -1.6489  0.0103
 9220SOL    HW239294   3.256   1.192   7.008 -2.4240  0.5862 -0.6478
 9221SOL     OW39295   1.186   2.979   2.170  0.4720 -0.6060  0.0639
 9221SOL    HW139296   1.256   2.918   2.193  1.2179  0.3755  0.3785
 9221SOL    HW239297   1.237   3.047   2.125  1.9454 -0.1256  2.4919
 9222SOL     OW39298   0.021   0.448   4.278  0.5645 -0.6693 -0.4699
 9222SOL    HW139299   0.068   0.410   4.203  0.4651  0.2978 -1.0255
 9222SOL    HW239300   0.080   0.519   4.301  0.7703 -0.8658 -0.3945
 9223SOL     OW39301   4.725   0.647  15.907 -0.2627 -0.1277  0.4828
 9223SOL    HW139302   0.053   0.607  15.963 -1.0360 -1.2034  0.6552
 9223SOL    HW239303   4.707   0.582  15.839  0.5120 -0.1874  0.3358
 9224SOL     OW39304   3.640   0.295  10.448 -0.1428 -0.0740  0.2079
 9224SOL    HW139305   3.550   0.325  10.439  0.1839 -0.6148 -4.6371
 9224SOL    HW239306   3.625   0.200  10.454  2.6582 -0.5591 -0.4896
 9225SOL     OW39307   1.782   3.494   3.417 -0.4815 -0.7986  0.1092
 9225SOL    HW139308   1.716   3.563   3.415 -1.2792 -1.5884 -1.0394
 9225SOL    HW239309   1.755   3.436   3.488  1.3002 -2.1838 -0.3406
 9226SOL     OW39310   3.150   4.722   4.897 -0.0243  0.0020 -0.1662
 9226SOL    HW139311   3.191   4.731   4.983  1.7562 -1.2968 -0.8708
 9226SOL    HW239312   3.199   4.648   4.861  0.0879 -0.8451  1.6963
 9227SOL     OW39313   2.577   3.111   3.235  0.3781 -0.4065 -0.2515
 9227SOL    HW139314   2.557   3.167   3.160  0.3568  0.0470  0.0981
 9227SOL    HW239315   2.491   3.110   3.277 -0.0456 -0.3927 -1.1169
 9228SOL     OW39316   2.258   1.259   5.243  0.3519  0.4249 -0.2382
 9228SOL    HW139317   2.167   1.261   5.272  0.4204 -1.0049  0.0763
 9228SOL    HW239318   2.304   1.256   5.326  1.7182  2.9277 -0.9265
 9229SOL     OW39319   1.757   1.310   1.569  0.0738 -0.0993 -0.3132
 9229SOL    HW139320   1.749   1.304   1.665 -0.7514 -0.3306 -0.4036
 9229SOL    HW239321   1.669   1.299   1.535 -0.1088  0.7658 -0.1074
 9230SOL     OW39322   3.161   4.058   2.802 -0.0143 -0.2096  0.0895
 9230SOL    HW139323   3.076   4.042   2.762  0.1677  0.9853 -0.7864
 9230SOL    HW239324   3.222   4.014   2.743  0.3295  1.3902 -0.7420
 9231SOL     OW39325   4.325   2.457   1.651 -0.9740  0.3441  0.1082
 9231SOL    HW139326   4.252   2.402   1.622 -0.5403  0.6088 -1.5311
 9231SOL    HW239327   4.272   2.533   1.677  1.0550  1.9744 -0.5077
 9232SOL     OW39328   0.424   1.583   4.996  0.2646 -0.5009  0.3262
 9232SOL    HW139329   0.425   1.549   5.085  1.2579  0.2754  0.6015
 9232SOL    HW239330   0.330   1.591   4.979 -0.0405 -1.6536  1.4934
 9233SOL     OW39331   2.236   1.318   9.517 -0.5331 -0.2871 -0.5172
 9233SOL    HW139332   2.239   1.223   9.526  0.2255 -0.1256  0.8288
 9233SOL    HW239333   2.251   1.355   9.604  0.9748  2.1963 -1.8084
 9234SOL     OW39334   2.824   2.177  11.469  0.0818 -0.2393 -0.1291
 9234SOL    HW139335   2.814   2.117  11.542  0.9462  1.0486  1.0453
 9234SOL    HW239336   2.911   2.213  11.489  0.4231 -0.7083 -0.7367
 9235SOL     OW39337   4.091   3.844   2.751 -0.2432  0.0779  0.0581
 9235SOL    HW139338   4.147   3.816   2.823  0.0832  1.6181  0.4141
 9235SOL    HW239339   4.118   3.780   2.686  0.2317 -0.7048  1.0335
 9236SOL     OW39340   2.221   4.728  11.368  0.1183 -0.0590  0.0453
 9236SOL    HW139341   2.263   4.710  11.283  0.6577  0.9669  0.0965
 9236SOL    HW239342   2.127   4.717  11.354  0.2421 -0.2818 -0.6478
 9237SOL     OW39343   0.035   4.283   7.973 -0.1221 -0.6543 -0.2395
 9237SOL    HW139344   0.129   4.267   7.985  0.0652  1.5547  1.3335
 9237SOL    HW239345   0.014   4.330   8.053  0.5452 -2.9750  1.2945
 9238SOL     OW39346   2.350   2.586   5.656  0.0327  0.4292 -0.3030
 9238SOL    HW139347   2.337   2.601   5.562  0.4904  1.8244 -0.1489
 9238SOL    HW239348   2.445   2.573   5.666  0.4051  1.6604 -2.2168
 9239SOL     OW39349   1.185   0.837   8.056  0.0742 -0.2122 -0.2715
 9239SOL    HW139350   1.262   0.893   8.065  1.4230 -2.2263  0.5402
 9239SOL    HW239351   1.164   0.850   7.963  0.9055  0.1891 -0.4099
 9240SOL     OW39352   2.613   0.876   0.893 -0.5302 -0.2486 -0.0641
 9240SOL    HW139353   2.575   0.955   0.932 -0.8411  0.1689 -1.2302
 9240SOL    HW239354   2.642   0.919   0.813 -1.4469 -0.5099 -0.5400
 9241SOL     OW39355   3.091   1.694   3.808 -0.5008 -0.1720  0.0151
 9241SOL    HW139356   3.068   1.737   3.890 -1.5357  0.7466 -0.7467
 9241SOL    HW239357   3.007   1.696   3.761 -1.4856  2.2384  1.9019
 9242SOL     OW39358   0.007   1.657   9.272 -0.6826  0.4777 -0.1996
 9242SOL    HW139359   0.082   1.612   9.312 -0.2050  1.3584 -0.0894
 9242SOL    HW239360   4.703   1.690   9.351 -1.9032 -0.5008 -0.4549
 9243SOL     OW39361   0.064   1.909   7.920 -0.0600 -0.5248 -0.1236
 9243SOL    HW139362   0.018   1.825   7.913  0.2300 -0.7684  1.0017
 9243SOL    HW239363   0.154   1.883   7.937  0.1466 -0.8632 -1.7195
 9244SOL     OW39364   0.713   3.765  16.853  0.1051 -0.9431 -0.0268
 9244SOL    HW139365   0.721   3.798  16.764  1.8470 -3.5570 -0.8182
 9244SOL    HW239366   0.799   3.726  16.865  0.8888  1.5943  2.7634
 9245SOL     OW39367   4.422   1.643  15.162  0.5144 -0.0051 -0.2145
 9245SOL    HW139368   4.415   1.610  15.251 -1.9985  0.7108 -0.1294
 9245SOL    HW239369   4.373   1.579  15.109  0.9015 -0.8772  0.4867
 9246SOL     OW39370   2.255   2.821   5.794  0.1000  0.0926 -0.3323
 9246SOL    HW139371   2.295   2.734   5.796 -2.2751 -0.9885  0.4615
 9246SOL    HW239372   2.197   2.812   5.869 -1.5811 -1.8047 -1.8588
 9247SOL     OW39373   1.718   3.430   7.876 -0.4387 -0.0517  0.4910
 9247SOL    HW139374   1.774   3.374   7.929  0.5072  0.1925 -0.2597
 9247SOL    HW239375   1.786   3.479   7.830  0.5132 -2.0012 -0.1800
 9248SOL     OW39376   0.173   3.690   5.072 -0.0575 -0.1197  1.0957
 9248SOL    HW139377   0.087   3.711   5.108  0.7165  0.7043  2.4436
 9248SOL    HW239378   0.139   3.667   4.985  2.4465 -1.7727  0.5271
 9249SOL     OW39379   3.294   1.043   2.814 -0.0103  0.3592 -0.1023
 9249SOL    HW139380   3.248   0.976   2.764 -2.2931  0.6098  1.6490
 9249SOL    HW239381   3.368   1.072   2.761 -1.0946 -0.1030 -1.8748
 9250SOL     OW39382   2.591   2.420   6.270 -0.3862  0.5211  0.3731
 9250SOL    HW139383   2.620   2.340   6.228  0.0442 -0.2596  2.1487
 9250SOL    HW239384   2.676   2.451   6.300 -0.6320 -0.8261  2.4451
 9251SOL     OW39385   3.479   2.016  14.856 -0.2016  0.4198  0.3789
 9251SOL    HW139386   3.445   2.083  14.915 -1.4428  0.1902 -0.0824
 9251SOL    HW239387   3.433   2.044  14.777  3.2262  0.8641 -1.4773
 9252SOL     OW39388   0.946   2.821  15.400 -0.2325 -0.0175  0.1014
 9252SOL    HW139389   0.947   2.875  15.478 -0.3009 -1.0196  0.7890
 9252SOL    HW239390   0.863   2.851  15.362 -0.4327 -0.3343  0.2868
 9253SOL     OW39391   3.155   4.013   8.493  0.0606 -0.2773  0.0627
 9253SOL    HW139392   3.138   3.920   8.507 -0.8255 -0.0481  0.5001
 9253SOL    HW239393   3.137   4.049   8.580  0.3054  1.5130 -0.6094
 9254SOL     OW39394   3.820   3.854  16.824  0.8135  0.5135 -0.6053
 9254SOL    HW139395   3.807   3.766  16.858  1.4400 -0.3355 -2.5825
 9254SOL    HW239396   3.745   3.896  16.866  1.5251 -0.7674  1.9215
 9255SOL     OW39397   0.611   4.418   1.000 -0.0750  0.4954 -0.0660
 9255SOL    HW139398   0.641   4.482   1.064 -1.1655 -0.3819  1.3221
 9255SOL    HW239399   0.563   4.461   0.929 -0.6693 -0.6945 -0.3855
 9256SOL     OW39400   1.244   3.720   9.564  0.0525  0.0403  0.3682
 9256SOL    HW139401   1.230   3.757   9.651 -0.6391 -0.9835  0.6932
 9256SOL    HW239402   1.190   3.641   9.566 -3.0498  2.1867  0.7121
 9257SOL     OW39403   3.639   2.381   3.889  0.3159  0.0760  0.4646
 9257SOL    HW139404   3.615   2.316   3.955 -4.0342  1.6290  0.4622
 9257SOL    HW239405   3.706   2.434   3.931 -0.8633  1.2651  0.8724
 9258SOL     OW39406   0.815   3.194   6.203  0.4552 -0.3823 -0.1613
 9258SOL    HW139407   0.803   3.288   6.221  1.9206 -0.4177  0.9312
 9258SOL    HW239408   0.870   3.196   6.125 -0.1023 -1.1655 -0.5665
 9259SOL     OW39409   0.636   0.848   7.553  1.2383 -0.2719 -0.1190
 9259SOL    HW139410   0.563   0.903   7.582  0.8474 -1.1331  0.5133
 9259SOL    HW239411   0.659   0.802   7.634  0.2773  0.6970  0.7149
 9260SOL     OW39412   1.485   3.482  13.122  0.0021 -0.0172  0.0421
 9260SOL    HW139413   1.399   3.501  13.159  0.6360  0.9800  1.0090
 9260SOL    HW239414   1.528   3.567  13.116 -0.5926  0.2104 -1.1673
 9261SOL     OW39415   1.663   0.689  15.302  0.5316 -0.1214 -0.0110
 9261SOL    HW139416   1.736   0.627  15.310  0.8509  0.1693 -0.6960
 9261SOL    HW239417   1.654   0.732  15.387  1.6378  0.7842 -0.3423
 9262SOL     OW39418   4.574   3.181  17.370  0.2581  0.3296 -0.0993
 9262SOL    HW139419   4.546   3.209  17.457  0.1121 -1.2825  0.3675
 9262SOL    HW239420   4.529   3.234  17.304 -1.4368 -0.0879  0.7259
 9263SOL     OW39421   0.489   3.352   9.074  0.2754  0.2562 -0.3081
 9263SOL    HW139422   0.397   3.328   9.073 -0.1915  2.0136  0.0620
 9263SOL    HW239423   0.494   3.416   9.003 -0.4881  0.2040 -0.4025
 9264SOL     OW39424   4.371   2.547   2.965  0.0422  0.3844  0.3023
 9264SOL    HW139425   4.410   2.595   2.892  1.5744 -0.9270  0.2291
 9264SOL    HW239426   4.443   2.533   3.027  1.2524 -0.3469 -1.2587
 9265SOL     OW39427   0.837   4.397  12.815  0.2942 -0.1801  0.6263
 9265SOL    HW139428   0.913   4.455  12.810  0.2060 -0.1187 -0.0282
 9265SOL    HW239429   0.778   4.423  12.885 -2.0853 -0.6747 -1.1994
 9266SOL     OW39430   4.232   3.554   1.071 -0.0405 -0.4686 -0.2986
 9266SOL    HW139431   4.287   3.478   1.052  0.7066 -0.7655  2.9509
 9266SOL    HW239432   4.170   3.555   0.998 -0.6642  1.4608  0.2582
 9267SOL     OW39433   4.000   0.229  12.013 -0.3119  0.0519 -0.1619
 9267SOL    HW139434   4.048   0.190  12.086  0.5253 -1.0260 -1.2850
 9267SOL    HW239435   3.943   0.287  12.065 -0.3642  1.1564 -1.4730
 9268SOL     OW39436   2.792   1.356  17.046 -0.0091  0.4710 -0.6994
 9268SOL    HW139437   2.724   1.293  17.069 -1.0590  2.5192  1.8719
 9268SOL    HW239438   2.877   1.314  17.042  0.2439  1.1335 -2.2361
 9269SOL     OW39439   2.865   2.511  16.276 -0.4524  0.0429  0.0878
 9269SOL    HW139440   2.825   2.515  16.363  0.1428 -1.6165  0.4347
 9269SOL    HW239441   2.932   2.445  16.290  0.1203  0.0487 -2.6199
 9270SOL     OW39442   2.963   2.782   7.139 -0.2903  0.1090 -0.2115
 9270SOL    HW139443   2.990   2.865   7.100  1.5531  0.0281  0.9228
 9270SOL    HW239444   2.926   2.733   7.065 -1.4683  1.5877 -0.6027
 9271SOL     OW39445   0.871   1.466  16.526 -0.0705  0.3293  0.3212
 9271SOL    HW139446   0.818   1.387  16.534  0.6088 -0.3018 -1.3121
 9271SOL    HW239447   0.959   1.436  16.552  1.1393  1.4795 -2.5139
 9272SOL     OW39448   0.707   2.592   2.119  0.1043 -0.1646 -0.2547
 9272SOL    HW139449   0.705   2.646   2.040  2.1641  0.3860  0.0567
 9272SOL    HW239450   0.651   2.626   2.189  0.2858  1.9692 -1.1500
 9273SOL     OW39451   0.537   0.075   4.161 -0.2044  0.3752 -0.3890
 9273SOL    HW139452   0.592   0.101   4.087  1.3110 -0.4887  0.4327
 9273SOL    HW239453   0.494   0.156   4.189  2.2618  2.1228 -1.6463
 9274SOL     OW39454   0.200   3.049   9.381  0.7696 -0.0934  0.8795
 9274SOL    HW139455   0.252   3.127   9.401 -0.8614  0.9171  1.1783
 9274SOL    HW239456   0.221   2.988   9.451  2.8498 -0.5113 -0.1082
 9275SOL     OW39457   2.535   4.197   0.559  0.0964  0.4262 -0.4122
 9275SOL    HW139458   2.487   4.115   0.570  0.3466  0.4052  0.5418
 9275SOL    HW239459   2.624   4.175   0.587  0.4089  2.4332  0.1850
 9276SOL     OW39460   3.493   3.783   2.064  0.4692 -0.2271 -0.0908
 9276SOL    HW139461   3.452   3.716   2.010  0.7293 -0.6848  0.2840
 9276SOL    HW239462   3.524   3.728   2.136 -1.6295 -0.3697  0.7081
 9277SOL     OW39463   2.037   2.557  15.436 -0.2672  0.3863  0.3779
 9277SOL    HW139464   1.971   2.560  15.505  1.6939 -2.2582  2.3877
 9277SOL    HW239465   2.054   2.651  15.429 -0.8177  0.3418 -1.3965
 9278SOL     OW39466   1.743   4.708   0.247 -0.1889 -0.5504  0.6728
 9278SOL    HW139467   1.809   4.647   0.214  0.3007  0.3583 -0.0296
 9278SOL    HW239468   1.658   4.680   0.212  0.7126 -1.3607 -0.8653
 9279SOL     OW39469   2.713   2.649  11.496  0.2317  0.5315 -0.2374
 9279SOL    HW139470   2.679   2.612  11.577 -1.6394 -0.0445 -1.2690
 9279SOL    HW239471   2.735   2.569  11.448 -2.4282 -0.5512  0.3368
 9280SOL     OW39472   4.185   3.374   8.101  0.5988 -0.0391 -0.4411
 9280SOL    HW139473   4.217   3.409   8.184  1.6539 -0.4446 -0.6823
 9280SOL    HW239474   4.211   3.449   8.048  1.2801 -1.0364 -1.4976
 9281SOL     OW39475   4.463   4.303   2.233 -0.2577  0.0778  0.2387
 9281SOL    HW139476   4.506   4.378   2.190 -1.5959  1.0516  0.5961
 9281SOL    HW239477   4.483   4.325   2.324  0.4187 -0.5880  0.2500
 9282SOL     OW39478   3.129   3.382   5.352 -0.1920 -0.1121 -0.6256
 9282SOL    HW139479   3.202   3.443   5.360  1.2049 -1.8523  0.0289
 9282SOL    HW239480   3.057   3.445   5.352 -0.9866 -0.9945  1.6493
 9283SOL     OW39481   0.425   1.149   7.258  0.2302 -0.0694  0.0538
 9283SOL    HW139482   0.348   1.161   7.314 -1.6369  0.1389 -2.5587
 9283SOL    HW239483   0.424   1.222   7.196 -0.5052 -0.4772 -0.4158
 9284SOL     OW39484   0.679   3.556   0.662  0.4490 -0.0317  0.6286
 9284SOL    HW139485   0.632   3.486   0.707  2.3119 -1.5551  0.1738
 9284SOL    HW239486   0.704   3.610   0.737  3.0935  1.0313 -1.0322
 9285SOL     OW39487   2.971   1.289   8.527  0.7233 -0.1351  0.2714
 9285SOL    HW139488   2.896   1.260   8.580  0.7849 -0.7119  0.0340
 9285SOL    HW239489   3.044   1.297   8.589  1.8508  1.3898 -1.2714
 9286SOL     OW39490   4.144   2.145   2.032  0.1638  0.3883  0.4037
 9286SOL    HW139491   4.232   2.124   2.061 -0.0565 -1.8866 -0.5461
 9286SOL    HW239492   4.100   2.190   2.104 -1.4399 -0.5727  0.0287
 9287SOL     OW39493   4.329   1.435   0.527  0.0266  0.5014 -0.5316
 9287SOL    HW139494   4.266   1.501   0.558 -0.6084 -0.9256  1.2289
 9287SOL    HW239495   4.406   1.491   0.517 -1.1769  1.9802 -1.6198
 9288SOL     OW39496   2.232   0.118  17.672 -0.4746 -0.1017  0.0220
 9288SOL    HW139497   2.238   0.057  17.598 -0.5895  1.0928 -0.9820
 9288SOL    HW239498   2.306   0.090  17.727 -1.4580 -1.2806  0.7311
 9289SOL     OW39499   1.819   3.433   2.340 -0.3209 -0.7816  0.6736
 9289SOL    HW139500   1.726   3.457   2.338  0.2328  1.2843  0.0357
 9289SOL    HW239501   1.833   3.400   2.429  0.5933  1.7103  1.4309
 9290SOL     OW39502   3.477   4.280   6.949 -0.2532  0.1759 -0.0862
 9290SOL    HW139503   3.474   4.273   7.045 -1.7648 -2.8995 -0.3447
 9290SOL    HW239504   3.438   4.366   6.938 -0.4004  0.5093  2.8792
 9291SOL     OW39505   4.432   4.671   5.023 -0.0602  0.5054 -0.2769
 9291SOL    HW139506   4.427   4.734   4.951 -0.0773 -0.5311 -1.1927
 9291SOL    HW239507   4.501   4.616   4.985 -1.4683  0.2868 -2.5159
 9292SOL     OW39508   2.926   0.457   4.649 -0.4085 -0.0059 -0.0508
 9292SOL    HW139509   2.985   0.473   4.723 -1.6443  0.8826  0.7278
 9292SOL    HW239510   2.983   0.454   4.572 -0.5103 -1.5448 -0.0751
 9293SOL     OW39511   4.649   1.738   3.406 -0.0883  0.2860  0.2496
 9293SOL    HW139512   4.605   1.727   3.490  0.6172  0.7286  0.6817
 9293SOL    HW239513   4.622   1.829   3.391  0.2906 -0.0857 -2.7973
 9294SOL     OW39514   3.464   2.973   2.043 -0.2194 -0.3825 -0.2090
 9294SOL    HW139515   3.532   3.025   2.087  0.7086 -1.9729  0.2179
 9294SOL    HW239516   3.511   2.966   1.960 -0.5278 -0.0024 -0.4204
 9295SOL     OW39517   0.097   0.836   1.999  0.2718 -0.2245 -0.1173
 9295SOL    HW139518   0.155   0.761   2.000  0.9557  0.3185  1.4584
 9295SOL    HW239519   0.057   0.837   1.912 -0.8390  0.0923  0.3869
 9296SOL     OW39520   3.545   1.127  16.868 -0.3012  0.0675 -0.3780
 9296SOL    HW139521   3.511   1.068  16.801 -1.5336  1.2558 -0.7985
 9296SOL    HW239522   3.487   1.203  16.867 -1.2437 -0.6474 -0.4170
 9297SOL     OW39523   0.269   0.731   7.215 -0.4575 -0.4688  0.2454
 9297SOL    HW139524   0.319   0.712   7.295  2.5986 -1.8205 -1.9981
 9297SOL    HW239525   0.312   0.808   7.178  0.0876 -0.4372  0.9390
 9298SOL     OW39526   4.384   1.340  15.530  0.5632  0.3325 -0.5742
 9298SOL    HW139527   4.435   1.261  15.546  1.8326  1.2791  0.0417
 9298SOL    HW239528   4.402   1.387  15.611  0.5987  1.1699 -1.0660
 9299SOL     OW39529   3.907   4.562   3.062  0.3942 -0.3722 -0.6198
 9299SOL    HW139530   3.998   4.591   3.059  0.3915 -0.2367  0.9444
 9299SOL    HW239531   3.909   4.469   3.040  1.6805 -0.6771  0.8034
 9300SOL     OW39532   0.387   3.887   3.120 -0.2444 -0.8000 -0.5358
 9300SOL    HW139533   0.471   3.841   3.113 -1.6301 -3.1303 -1.7637
 9300SOL    HW239534   0.380   3.879   3.215  1.3413  0.3493 -0.3082
 9301SOL     OW39535   4.174   3.981  12.453  0.6412 -0.4497  0.1384
 9301SOL    HW139536   4.140   4.044  12.389  0.2605 -0.7819  0.0139
 9301SOL    HW239537   4.096   3.932  12.480 -1.1597  2.8079  0.7910
 9302SOL     OW39538   4.723   3.678  12.423 -0.4825 -0.0858  0.2235
 9302SOL    HW139539   4.691   3.766  12.400  0.7485 -0.3290 -2.3934
 9302SOL    HW239540   0.042   3.694  12.498 -0.6953  1.1698  0.1282
 9303SOL     OW39541   1.982   4.484  17.225 -0.7362  0.3333 -0.0737
 9303SOL    HW139542   1.927   4.550  17.267 -1.9086 -0.7341  0.0889
 9303SOL    HW239543   1.979   4.512  17.133  2.6927 -0.7999 -0.5475
 9304SOL     OW39544   1.650   0.163   6.636 -0.0714 -0.2353  0.1348
 9304SOL    HW139545   1.630   0.244   6.683  1.0680 -0.5220  1.1314
 9304SOL    HW239546   1.738   0.181   6.603  0.0283  0.6057  0.8724
 9305SOL     OW39547   4.461   2.705   6.881  0.0260 -0.1399  0.1798
 9305SOL    HW139548   4.421   2.720   6.796  2.6432 -0.5770 -1.1480
 9305SOL    HW239549   4.551   2.734   6.866  0.9166 -2.1356  1.5136
 9306SOL     OW39550   1.720   1.285   9.032 -0.2458  0.0742  0.3658
 9306SOL    HW139551   1.705   1.378   9.018  0.4323  0.0165 -0.7075
 9306SOL    HW239552   1.814   1.286   9.045 -0.2882 -0.3098  0.7124
 9307SOL     OW39553   0.255   4.446   5.317  0.2472  0.1426  0.4821
 9307SOL    HW139554   0.341   4.455   5.359  0.7755  0.1131 -0.5893
 9307SOL    HW239555   0.195   4.473   5.386  0.0928  2.3935 -0.5397
 9308SOL     OW39556   2.435   0.897   6.035 -0.1542 -0.2074  0.2358
 9308SOL    HW139557   2.340   0.896   6.047 -0.3594  0.8899 -1.3421
 9308SOL    HW239558   2.480   0.893   6.119 -0.2177  2.7566  0.4060
 9309SOL     OW39559   1.325   0.400   7.925  0.5687  0.4158 -0.0341
 9309SOL    HW139560   1.320   0.438   7.837 -1.6687  0.7100  0.2308
 9309SOL    HW239561   1.419   0.384   7.937  0.7727  2.2000  0.7262
 9310SOL     OW39562   1.276   3.768   3.969 -0.0628  0.1217  0.5638
 9310SOL    HW139563   1.356   3.753   3.919  0.1626 -0.1616  1.0094
 9310SOL    HW239564   1.259   3.677   3.992 -2.3090  0.7761  1.5044
 9311SOL     OW39565   0.922   2.165   8.602  0.1217  0.2501  0.5245
 9311SOL    HW139566   1.014   2.141   8.613 -0.1759 -0.7745  0.7648
 9311SOL    HW239567   0.911   2.231   8.670 -1.4555  0.8962 -0.3616
 9312SOL     OW39568   4.386   4.431   2.481  0.3545  0.5472 -0.0092
 9312SOL    HW139569   4.353   4.488   2.411 -1.1756 -1.4561 -0.9190
 9312SOL    HW239570   4.352   4.478   2.557  2.2182  0.1984  1.0135
 9313SOL     OW39571   0.045   3.889   6.117  0.0078  0.4882  0.0683
 9313SOL    HW139572   0.136   3.898   6.142 -0.1921  1.1771  0.5490
 9313SOL    HW239573   0.029   3.974   6.076  1.6267  0.3733 -0.7753
 9314SOL     OW39574   1.867   1.092  15.527  0.5418  0.6997  0.5949
 9314SOL    HW139575   1.875   1.069  15.620  0.3091 -0.0417  0.4350
 9314SOL    HW239576   1.849   1.185  15.525 -0.5890  0.4441 -0.9623
 9315SOL     OW39577   0.267   0.493  11.209  0.3419 -0.0373  0.5827
 9315SOL    HW139578   0.182   0.508  11.249 -0.3930 -1.0765 -0.5903
 9315SOL    HW239579   0.305   0.440  11.280 -0.8184  0.3329  1.4706
 9316SOL     OW39580   1.372   2.218   9.979  0.0204 -0.1214  0.0662
 9316SOL    HW139581   1.346   2.205   9.888 -0.6387 -0.0285  0.2419
 9316SOL    HW239582   1.330   2.150  10.031  2.3144 -2.3782 -1.0649
 9317SOL     OW39583   3.619   3.250   6.073  0.5941 -0.2216 -0.2660
 9317SOL    HW139584   3.637   3.304   6.150 -1.2240 -1.2422  0.8805
 9317SOL    HW239585   3.580   3.317   6.017 -0.9218 -0.2934  0.6815
 9318SOL     OW39586   2.356   4.167   1.364 -0.2491 -0.1294 -0.3074
 9318SOL    HW139587   2.361   4.168   1.268 -0.4456  0.6360 -0.3067
 9318SOL    HW239588   2.291   4.236   1.375  0.9582  0.9653 -0.0382
 9319SOL     OW39589   0.839   3.685   8.321  0.5614  0.3058  0.1401
 9319SOL    HW139590   0.828   3.591   8.306  1.7751  0.4970 -1.9149
 9319SOL    HW239591   0.915   3.685   8.380 -1.3181 -2.8826  2.5632
 9320SOL     OW39592   1.562   0.047   1.840  0.4368  0.2755  0.7099
 9320SOL    HW139593   1.609   4.709   1.872 -0.1651 -0.9027 -1.2509
 9320SOL    HW239594   1.586   0.106   1.911 -3.0216 -0.0163  2.1419
 9321SOL     OW39595   3.245   4.469  16.137 -0.2258  0.3212 -0.4459
 9321SOL    HW139596   3.282   4.555  16.158 -0.1848  0.8007 -2.4355
 9321SOL    HW239597   3.259   4.417  16.215 -0.7335 -0.3091 -0.7733
 9322SOL     OW39598   1.222   0.344  11.980 -0.2175  0.1582  0.3179
 9322SOL    HW139599   1.295   0.386  11.934 -1.0710  3.4178  1.9701
 9322SOL    HW239600   1.185   0.288  11.911 -1.0698  0.1768  0.7649
 9323SOL     OW39601   1.649   4.337  14.530  0.3318 -0.4043  0.0257
 9323SOL    HW139602   1.646   4.251  14.573  2.0282 -0.9925 -1.0398
 9323SOL    HW239603   1.691   4.311  14.448 -0.8446 -1.3207 -0.2851
 9324SOL     OW39604   1.129   2.096   3.436  0.0872 -0.1134  0.4492
 9324SOL    HW139605   1.070   2.021   3.438 -0.4403  0.2444 -1.6520
 9324SOL    HW239606   1.173   2.073   3.518  1.9775  3.0831  0.3210
 9325SOL     OW39607   1.442   2.111  13.391  0.4493 -0.3071  0.4216
 9325SOL    HW139608   1.358   2.089  13.432 -0.0232  0.1528 -0.2952
 9325SOL    HW239609   1.425   2.146  13.304 -0.3099 -0.3553  0.5504
 9326SOL     OW39610   1.549   1.329   6.390 -0.0899 -0.1063  0.3212
 9326SOL    HW139611   1.492   1.396   6.353  0.5095  1.2210  1.7805
 9326SOL    HW239612   1.639   1.354   6.371 -0.1270 -0.4626 -0.3190
 9327SOL     OW39613   4.431   0.082   5.859  0.2882  0.4691 -0.2577
 9327SOL    HW139614   4.418   0.005   5.803  1.5221  0.7429 -0.9301
 9327SOL    HW239615   4.348   0.093   5.906 -0.5570 -1.0855 -1.3788
 9328SOL     OW39616   3.967   4.212   5.690 -0.2325 -0.1815  0.3685
 9328SOL    HW139617   4.035   4.236   5.753  0.3766 -1.2689  0.1357
 9328SOL    HW239618   4.012   4.235   5.608 -1.0987 -0.9302 -0.3248
 9329SOL     OW39619   0.853   2.727   4.158 -0.9196  0.1698 -0.0164
 9329SOL    HW139620   0.792   2.786   4.203 -0.4372 -0.7574  1.8819
 9329SOL    HW239621   0.818   2.649   4.201 -0.8099  1.0212  1.6179
 9330SOL     OW39622   4.611   2.201   5.286  0.4207 -0.0156  0.7098
 9330SOL    HW139623   4.571   2.222   5.202  3.3460  1.6357 -0.3025
 9330SOL    HW239624   4.570   2.117   5.304  1.8625 -0.3332  2.5647
 9331SOL     OW39625   1.099   0.704   7.636  0.1856  0.8585  0.0046
 9331SOL    HW139626   1.066   0.700   7.547 -0.1185 -0.0226  0.1647
 9331SOL    HW239627   1.181   0.656   7.636 -1.1347 -1.3656 -2.1874
 9332SOL     OW39628   1.083   2.763  15.140  0.0008 -0.2315 -0.1309
 9332SOL    HW139629   1.121   2.708  15.071  1.0759  0.4651 -0.0890
 9332SOL    HW239630   1.155   2.776  15.202  0.8474 -1.6093 -0.8066
 9333SOL     OW39631   3.353   3.738   2.431  0.0850  0.1298  0.4366
 9333SOL    HW139632   3.351   3.817   2.484 -3.0459  0.0973  0.3661
 9333SOL    HW239633   3.346   3.670   2.498  1.4706 -0.6495 -0.2128
 9334SOL     OW39634   3.959   0.856   6.527  0.1559  0.0122  0.2355
 9334SOL    HW139635   3.910   0.858   6.445  1.1083  0.8047 -0.3057
 9334SOL    HW239636   3.899   0.900   6.588  0.6307 -1.2477  1.6159
 9335SOL     OW39637   2.160   2.193   5.488 -0.2729 -0.4542 -0.0255
 9335SOL    HW139638   2.077   2.152   5.513 -0.0716 -0.0782  1.2435
 9335SOL    HW239639   2.222   2.129   5.524  2.0182  0.1007 -2.9411
 9336SOL     OW39640   1.759   1.353  13.239 -0.7301 -0.1656 -0.0662
 9336SOL    HW139641   1.778   1.368  13.147  0.5410  2.7498  0.6622
 9336SOL    HW239642   1.766   1.440  13.279  3.4311 -0.3038 -0.4580
 9337SOL     OW39643   2.009   4.257  10.680 -0.5760 -0.2098  0.5139
 9337SOL    HW139644   2.037   4.322  10.745 -0.0283  1.5122 -1.4331
 9337SOL    HW239645   2.071   4.188  10.703 -0.2869  0.5384  1.9923
 9338SOL     OW39646   1.024   3.235   7.964  0.0024  0.0352 -0.4780
 9338SOL    HW139647   1.033   3.216   7.870  1.7859 -1.5851  0.0166
 9338SOL    HW239648   1.012   3.149   8.005  1.2129 -0.5815 -1.4156
 9339SOL     OW39649   3.000   0.476  13.339  0.2422 -0.1857 -0.0109
 9339SOL    HW139650   3.085   0.493  13.298  0.0125  2.7198  0.7240
 9339SOL    HW239651   2.936   0.506  13.275  1.4561 -0.1850 -1.2371
 9340SOL     OW39652   1.476   3.849   7.600  0.2928  0.4726  0.2759
 9340SOL    HW139653   1.386   3.825   7.579  0.5359  1.8202 -2.3086
 9340SOL    HW239654   1.481   3.840   7.695  0.2355  1.6781  0.3948
 9341SOL     OW39655   4.657   3.093   4.952  0.0887  0.0402 -0.5091
 9341SOL    HW139656   4.600   3.148   4.897  0.5836  2.4034  1.3318
 9341SOL    HW239657   4.688   3.169   5.000 -1.3681  0.3784 -0.0883
 9342SOL     OW39658   0.246   4.541   4.701 -0.1510  0.5537 -0.4114
 9342SOL    HW139659   0.171   4.531   4.642 -1.5386  1.4811  1.2074
 9342SOL    HW239660   0.238   4.456   4.745  0.8288  1.0337  0.6858
 9343SOL     OW39661   2.264   4.358  16.306  0.0009  0.4817  0.1115
 9343SOL    HW139662   2.296   4.436  16.261 -1.2440  1.4643  0.9099
 9343SOL    HW239663   2.169   4.371  16.309 -0.2727 -1.3315 -0.8624
 9344SOL     OW39664   1.052   0.504   6.948 -0.1852 -0.2668  0.1952
 9344SOL    HW139665   1.050   0.459   7.032 -0.7785  0.1316  0.3991
 9344SOL    HW239666   1.022   0.592   6.972  2.3931  0.8361 -0.6298
 9345SOL     OW39667   1.698   1.069  11.594  0.7354 -0.1045  0.6941
 9345SOL    HW139668   1.606   1.095  11.584  0.7266  0.2132  1.5926
 9345SOL    HW239669   1.733   1.061  11.505 -1.0733 -0.6664  0.0115
 9346SOL     OW39670   3.218   2.963   1.028  0.3070  0.0309 -0.2836
 9346SOL    HW139671   3.152   2.961   1.098  0.1060 -1.5693 -0.5050
 9346SOL    HW239672   3.266   3.040   1.058 -0.9506  1.0027 -0.7653
 9347SOL     OW39673   3.181   3.473   8.363  0.0019  0.4949  0.4072
 9347SOL    HW139674   3.201   3.526   8.441 -0.1876  0.1596  0.6841
 9347SOL    HW239675   3.086   3.468   8.364 -0.0520  1.2994 -2.0510
 9348SOL     OW39676   4.224   0.309   8.123  0.7382 -0.3556  0.2269
 9348SOL    HW139677   4.192   0.248   8.056 -1.7987 -0.7002  1.7300
 9348SOL    HW239678   4.313   0.329   8.096  1.4846 -2.4159  1.1002
 9349SOL     OW39679   3.246   2.678   9.875 -0.2416  0.2965  0.3821
 9349SOL    HW139680   3.283   2.749   9.823 -3.4974  2.0960  0.5545
 9349SOL    HW239681   3.198   2.720   9.946  0.4303 -1.4431  1.8674
 9350SOL     OW39682   0.463   1.417   5.268 -0.0399 -0.3006  0.5177
 9350SOL    HW139683   0.450   1.323   5.257 -1.0030  0.0476 -1.2577
 9350SOL    HW239684   0.555   1.430   5.289  0.0818  0.8987 -0.8310
 9351SOL     OW39685   0.236   4.146  15.268  0.4328  0.2818 -0.1229
 9351SOL    HW139686   0.197   4.095  15.197 -0.9795  1.0867  0.0720
 9351SOL    HW239687   0.162   4.201  15.291  0.9385  0.4838  1.0187
 9352SOL     OW39688   3.192   3.219   7.110  0.9833  0.1082  0.1115
 9352SOL    HW139689   3.162   3.136   7.073  1.4399  0.9623 -2.1590
 9352SOL    HW239690   3.179   3.282   7.040  0.1685  1.0729  1.1319
 9353SOL     OW39691   1.373   4.699   7.769 -0.3472  0.2748 -0.2197
 9353SOL    HW139692   1.410   4.721   7.854 -1.9948  2.5788 -0.0989
 9353SOL    HW239693   1.432   4.633   7.732  1.2380  0.5968  1.7324
 9354SOL     OW39694   0.142   0.085   9.261 -0.1539  0.0041  1.2123
 9354SOL    HW139695   0.197   0.140   9.205 -0.0476 -0.2494  1.0669
 9354SOL    HW239696   0.171   4.738   9.230  0.6018  0.4289  0.7344
 9355SOL     OW39697   2.225   0.041   0.527 -0.1798 -0.5209  0.2699
 9355SOL    HW139698   2.178   0.066   0.606 -0.4670 -2.9190  0.8822
 9355SOL    HW239699   2.153   0.026   0.465  1.6866 -1.5329 -1.6588
 9356SOL     OW39700   3.196   3.651  11.459 -0.9769  0.3026  0.1183
 9356SOL    HW139701   3.142   3.576  11.485  1.7048 -0.9534  2.0391
 9356SOL    HW239702   3.226   3.625  11.372  0.1195 -0.3070  0.6729
 9357SOL     OW39703   3.853   1.515   5.581  0.4954  0.5415 -0.8912
 9357SOL    HW139704   3.874   1.606   5.561  1.4890  0.7267  1.0283
 9357SOL    HW239705   3.758   1.520   5.591  0.4637 -1.7731 -0.1400
 9358SOL     OW39706   1.535   0.818   3.207 -0.5130 -0.2820 -0.7481
 9358SOL    HW139707   1.455   0.814   3.261  0.2160 -0.6334  0.3067
 9358SOL    HW239708   1.542   0.723   3.197  1.5287 -0.1077 -0.8791
 9359SOL     OW39709   3.062   4.491  15.949  0.0905  0.2596  0.6523
 9359SOL    HW139710   3.044   4.397  15.951  0.9391  0.0507 -1.7067
 9359SOL    HW239711   3.125   4.494  16.021  1.5365  0.4985 -0.6185
 9360SOL     OW39712   3.221   3.271   1.364  0.2780 -0.5408  0.2773
 9360SOL    HW139713   3.266   3.189   1.387 -1.6467 -1.9710 -0.9745
 9360SOL    HW239714   3.154   3.227   1.311  0.6235  1.6008 -1.9119
 9361SOL     OW39715   2.389   3.895  13.646  0.0894 -0.3810  0.6685
 9361SOL    HW139716   2.322   3.843  13.692 -0.6125  1.6125  1.9107
 9361SOL    HW239717   2.410   3.832  13.578 -1.9011 -0.6897  0.3455
 9362SOL     OW39718   4.661   3.546  12.903 -0.4547  0.0461 -0.0144
 9362SOL    HW139719   4.582   3.503  12.870 -0.5740  2.3587 -2.7370
 9362SOL    HW239720   4.630   3.616  12.961  0.0087 -2.9122  3.8180
 9363SOL     OW39721   0.828   0.223   3.619 -0.7299 -0.2862  0.4483
 9363SOL    HW139722   0.852   0.268   3.700 -0.8969  0.1713  0.2419
 9363SOL    HW239723   0.914   0.201   3.583 -0.7912  1.3230 -0.6504
 9364SOL     OW39724   1.448   3.811  11.084  0.4167 -0.5019  0.7704
 9364SOL    HW139725   1.491   3.880  11.134 -1.2064 -0.0857  1.5985
 9364SOL    HW239726   1.355   3.836  11.076  0.4821 -0.7802 -0.8661
 9365SOL     OW39727   4.556   0.222   7.073 -0.6076 -0.4208 -0.6848
 9365SOL    HW139728   4.574   0.201   6.982  0.6683 -0.5075 -0.4201
 9365SOL    HW239729   4.618   0.159   7.110 -0.4950  0.6219  0.8885
 9366SOL     OW39730   1.330   1.512   2.297  0.3751 -0.3034 -0.4290
 9366SOL    HW139731   1.342   1.417   2.293 -4.1156 -0.8743 -0.3602
 9366SOL    HW239732   1.236   1.522   2.309  0.3251 -1.6079  0.2428
 9367SOL     OW39733   1.198   2.428   1.372  0.1567  0.1407 -0.1967
 9367SOL    HW139734   1.220   2.521   1.358  0.9201  0.2995  2.0010
 9367SOL    HW239735   1.186   2.433   1.467 -0.0742 -1.3947 -0.1442
 9368SOL     OW39736   0.922   2.206   7.181  0.5744  0.5458 -0.2097
 9368SOL    HW139737   0.854   2.154   7.139  0.1777  1.0156 -0.1391
 9368SOL    HW239738   0.985   2.138   7.208  0.8577  0.5045 -0.9652
 9369SOL     OW39739   4.191   0.389   8.639  0.1874 -0.0837 -0.1589
 9369SOL    HW139740   4.099   0.415   8.637 -0.3065 -1.8107  0.5239
 9369SOL    HW239741   4.208   0.390   8.545 -1.9132  0.8454 -0.5229
 9370SOL     OW39742   3.491   3.550   3.652 -0.4006 -0.2237 -0.3975
 9370SOL    HW139743   3.488   3.476   3.713  1.7829 -0.2493 -0.3297
 9370SOL    HW239744   3.544   3.507   3.586  0.2016 -1.0610  0.6257
 9371SOL     OW39745   0.433   0.341  15.291  0.1349 -0.8491  0.5860
 9371SOL    HW139746   0.512   0.378  15.251  2.4511 -3.7378  2.4718
 9371SOL    HW239747   0.437   0.408  15.359  0.1809  0.4688 -0.6942
 9372SOL     OW39748   0.838   3.292  14.053 -0.8758 -0.1477  0.0480
 9372SOL    HW139749   0.806   3.283  14.143  1.4202  1.9850  1.0676
 9372SOL    HW239750   0.757   3.288  14.003  0.0413  3.6522 -1.7248
 9373SOL     OW39751   3.024   0.459   2.237 -0.1731  0.4781  0.0264
 9373SOL    HW139752   2.977   0.385   2.198  2.5631 -0.8199 -0.8195
 9373SOL    HW239753   3.102   0.410   2.263 -0.0107  1.0661  0.6469
 9374SOL     OW39754   2.306   1.272   7.861  0.5630 -0.2533  0.5176
 9374SOL    HW139755   2.262   1.208   7.917  1.4594 -0.6426  0.7671
 9374SOL    HW239756   2.303   1.342   7.927 -1.6618  0.8037 -0.6761
 9375SOL     OW39757   1.687   0.627   2.565  0.3180  0.0221 -0.7649
 9375SOL    HW139758   1.777   0.635   2.532  0.4215 -0.5075 -0.6119
 9375SOL    HW239759   1.713   0.566   2.634  0.0537  1.6170  0.7491
 9376SOL     OW39760   4.717   2.804   1.670 -0.1061  0.4793 -0.0483
 9376SOL    HW139761   4.696   2.846   1.753  0.0646  2.0080 -0.7760
 9376SOL    HW239762   4.649   2.848   1.619  0.0922 -1.2160 -1.7880
 9377SOL     OW39763   0.302   0.249   2.262  0.0395 -0.5479  0.1739
 9377SOL    HW139764   0.270   0.206   2.341 -0.7785  0.1106  0.2087
 9377SOL    HW239765   0.378   0.286   2.306  0.7458 -1.6398 -0.1421
 9378SOL     OW39766   0.324   3.293   9.407 -0.2747 -0.3124  0.0056
 9378SOL    HW139767   0.419   3.298   9.418 -0.6458  2.1285  2.3753
 9378SOL    HW239768   0.302   3.375   9.453  0.7127  0.5620 -1.0924
 9379SOL     OW39769   1.537   2.125   2.580  0.2061 -0.5875  0.0837
 9379SOL    HW139770   1.629   2.121   2.606  0.5438 -2.3451 -1.3835
 9379SOL    HW239771   1.539   2.108   2.486  1.2550  1.1741 -0.2181
 9380SOL     OW39772   4.264   3.103   8.079  0.8490 -0.3184 -0.2478
 9380SOL    HW139773   4.264   3.129   8.171  0.4064  0.3608 -0.4414
 9380SOL    HW239774   4.244   3.187   8.038  1.2313 -0.5646 -0.9446
 9381SOL     OW39775   1.635   4.593  10.841 -0.0394  0.8884 -0.1072
 9381SOL    HW139776   1.656   4.686  10.838  1.3389  0.5427 -0.9408
 9381SOL    HW239777   1.701   4.547  10.894 -0.1709 -1.2538 -1.8375
 9382SOL     OW39778   1.327   1.098   7.645  0.5367 -0.1955  0.5683
 9382SOL    HW139779   1.322   1.022   7.587 -0.6932  0.7079 -0.5111
 9382SOL    HW239780   1.235   1.125   7.650  0.4531 -1.1133  3.7896
 9383SOL     OW39781   1.552   4.665   8.003 -0.1880 -1.2025  0.3778
 9383SOL    HW139782   1.515   4.601   8.063 -0.8819 -0.1423  1.0623
 9383SOL    HW239783   1.624   4.707   8.050  0.3728 -1.8029  0.0695
 9384SOL     OW39784   0.719   1.617   3.771 -0.3939  0.3866 -0.3562
 9384SOL    HW139785   0.755   1.568   3.698 -1.0285 -0.2001 -0.2655
 9384SOL    HW239786   0.627   1.594   3.777  0.3070 -1.9926  1.1993
 9385SOL     OW39787   0.575   1.312  15.035 -0.1711 -0.0773 -0.1134
 9385SOL    HW139788   0.607   1.265  15.113  2.0728  0.0767 -0.9385
 9385SOL    HW239789   0.492   1.269  15.016  0.2958 -0.6501 -0.8605
 9386SOL     OW39790   1.875   0.331  11.247  0.2045  0.1907  0.3971
 9386SOL    HW139791   1.838   0.244  11.232 -0.0334  0.5696 -1.2377
 9386SOL    HW239792   1.854   0.380  11.168 -2.7821 -0.7620  0.6213
 9387SOL     OW39793   1.971   4.251   6.631  0.0965  0.2547 -0.5182
 9387SOL    HW139794   2.039   4.286   6.573 -0.8598  1.4866 -0.8835
 9387SOL    HW239795   1.948   4.176   6.577 -1.8854 -0.4707  1.3163
 9388SOL     OW39796   0.298   4.091   5.813  0.1587 -0.2051 -0.5439
 9388SOL    HW139797   0.323   4.165   5.758 -3.0810 -0.3671 -2.2374
 9388SOL    HW239798   0.210   4.079   5.776  0.7422 -0.4261 -1.8297
 9389SOL     OW39799   1.678   4.404   2.577 -0.0836  0.0692  0.4725
 9389SOL    HW139800   1.713   4.325   2.536 -1.0484 -0.5471  0.8436
 9389SOL    HW239801   1.596   4.412   2.529  0.6475 -0.8838 -0.9350
 9390SOL     OW39802   4.531   2.395   6.794 -0.4069  0.2358  0.1405
 9390SOL    HW139803   4.510   2.487   6.815 -0.9733 -0.2681  1.7753
 9390SOL    HW239804   4.443   2.377   6.761 -0.4098 -0.7088  0.6627
 9391SOL     OW39805   3.038   1.453   4.237  0.1570  0.2294  0.2926
 9391SOL    HW139806   3.080   1.428   4.155  0.4756 -0.2488  0.6019
 9391SOL    HW239807   2.954   1.482   4.200 -0.6583 -0.8002  1.3185
 9392SOL     OW39808   4.647   1.940   5.495  0.4368 -0.1241 -0.0833
 9392SOL    HW139809   4.713   1.908   5.433 -0.1201 -0.2954 -0.5839
 9392SOL    HW239810   4.577   1.954   5.432  0.0229  1.7002  0.7776
 9393SOL     OW39811   2.659   4.580  11.391  0.1683  1.2990  0.3519
 9393SOL    HW139812   2.734   4.552  11.444 -1.1555 -1.0057  1.0218
 9393SOL    HW239813   2.698   4.573  11.303 -3.4662 -1.9037 -1.0110
 9394SOL     OW39814   1.761   1.049   9.647 -0.2641 -0.2596 -0.0527
 9394SOL    HW139815   1.675   1.051   9.604  0.2272 -0.7532 -1.0687
 9394SOL    HW239816   1.786   0.958   9.659  2.9317  0.4627 -1.2016
 9395SOL     OW39817   4.529   1.208   4.139 -0.0223  0.0272 -0.7448
 9395SOL    HW139818   4.543   1.115   4.154  2.5845  0.3701 -1.1654
 9395SOL    HW239819   4.442   1.213   4.181  0.0425 -0.3738 -0.5605
 9396SOL     OW39820   4.546   4.208   8.930 -0.0414  0.0437 -0.5221
 9396SOL    HW139821   4.532   4.302   8.934  0.5447  0.1802 -1.5889
 9396SOL    HW239822   4.635   4.212   8.964 -0.4983  0.3358  0.6348
 9397SOL     OW39823   2.878   1.633   4.839 -0.4785  0.1739 -0.3936
 9397SOL    HW139824   2.927   1.646   4.920  0.1653 -0.5225 -0.6736
 9397SOL    HW239825   2.798   1.683   4.856 -1.4034 -1.6569  0.6990
 9398SOL     OW39826   3.715   4.477   7.646  0.0495 -0.0487 -0.1885
 9398SOL    HW139827   3.756   4.407   7.697  0.1780 -0.1727 -0.4650
 9398SOL    HW239828   3.634   4.493   7.696  0.3984  0.3665  0.2374
 9399SOL     OW39829   1.949   3.676   9.436  0.6490  0.0828  0.1624
 9399SOL    HW139830   2.009   3.620   9.484 -1.3465 -1.6441  0.6207
 9399SOL    HW239831   1.960   3.754   9.490 -3.1763  0.2488  0.7170
 9400SOL     OW39832   2.924   2.959  10.370 -0.2742  0.9694 -0.4913
 9400SOL    HW139833   2.854   2.905  10.332  1.2022 -2.2204  1.3201
 9400SOL    HW239834   2.885   3.044  10.393 -1.0414  0.1447  1.2202
 9401SOL     OW39835   3.940   1.649   2.458 -0.1848 -0.0872  0.3201
 9401SOL    HW139836   3.857   1.673   2.497 -0.2242 -0.4827  0.4758
 9401SOL    HW239837   3.929   1.554   2.470 -0.6102 -0.1284 -0.3771
 9402SOL     OW39838   2.225   0.432   4.346 -0.3072 -0.2794  0.5416
 9402SOL    HW139839   2.188   0.380   4.417 -0.0048  0.1043  0.9837
 9402SOL    HW239840   2.186   0.517   4.366  0.4908 -0.2499  1.9231
 9403SOL     OW39841   0.513   0.822   8.107 -0.4221 -0.1397 -0.1748
 9403SOL    HW139842   0.454   0.855   8.175 -0.8943 -1.4867  0.0601
 9403SOL    HW239843   0.447   0.812   8.038  1.7957 -2.7103 -1.9216
 9404SOL     OW39844   4.732   0.123   2.836  0.1210  0.0783  0.0752
 9404SOL    HW139845   4.712   0.066   2.761 -0.6522  0.6761 -0.1664
 9404SOL    HW239846   4.675   0.199   2.829 -1.2615 -0.8959  0.7608
 9405SOL     OW39847   3.910   2.639   8.170  0.6598  0.9375 -0.2896
 9405SOL    HW139848   3.830   2.692   8.165  0.5681  0.8843  0.6022
 9405SOL    HW239849   3.889   2.590   8.250 -0.3366  2.1332  0.1840
 9406SOL     OW39850   1.498   3.783   3.823  0.5955  0.1278  0.1907
 9406SOL    HW139851   1.554   3.719   3.779  2.0762  0.9955  0.7970
 9406SOL    HW239852   1.541   3.863   3.792 -1.2692  0.8604 -0.4900
 9407SOL     OW39853   2.112   4.374  17.440 -1.0257  0.7700 -0.1462
 9407SOL    HW139854   2.113   4.285  17.404 -1.1012  0.9110 -0.4960
 9407SOL    HW239855   2.094   4.430  17.365 -0.4151 -0.1668 -0.9865
 9408SOL     OW39856   2.354   1.069   2.548 -0.0926  0.1247 -0.4275
 9408SOL    HW139857   2.365   1.148   2.496  1.6826 -0.0047 -0.2373
 9408SOL    HW239858   2.325   1.012   2.476 -1.2470  1.1695 -0.7878
 9409SOL     OW39859   4.562   0.216  14.129  0.4223  0.2706  0.5851
 9409SOL    HW139860   4.611   0.236  14.049  1.7438 -2.1938  0.7797
 9409SOL    HW239861   4.554   0.121  14.125  2.4144  0.1438 -0.4382
 9410SOL     OW39862   2.906   1.571   9.043  0.4254 -0.0793  0.3427
 9410SOL    HW139863   2.998   1.571   9.018 -0.0915  0.5388 -1.5439
 9410SOL    HW239864   2.863   1.515   8.978 -0.5951 -0.0371  0.9767
 9411SOL     OW39865   0.728   3.290   7.319  0.4559  0.3345 -0.1288
 9411SOL    HW139866   0.749   3.382   7.306 -1.7888  1.2407  2.6967
 9411SOL    HW239867   0.644   3.284   7.364 -0.2960  0.2919 -1.5134
 9412SOL     OW39868   1.814   0.362   1.212 -0.3270  0.4363  0.0146
 9412SOL    HW139869   1.759   0.284   1.199  1.0747 -0.8079  1.4696
 9412SOL    HW239870   1.901   0.324   1.201 -0.2456  1.8730 -4.3156
 9413SOL     OW39871   0.132   1.183   8.992  0.1009 -0.0296  0.1482
 9413SOL    HW139872   0.142   1.272   9.025 -1.4435  0.1253  0.1877
 9413SOL    HW239873   0.189   1.135   9.052 -1.2220 -0.8115  0.7807
 9414SOL     OW39874   0.285   3.534   1.930 -0.6983 -0.3611  0.6465
 9414SOL    HW139875   0.349   3.473   1.891 -0.2636 -0.5994  1.7414
 9414SOL    HW239876   0.334   3.576   2.000 -1.1570  1.8969 -0.3968
 9415SOL     OW39877   1.622   4.072   2.720 -0.0386 -0.4823 -0.0967
 9415SOL    HW139878   1.646   4.119   2.799  2.3443 -1.4714 -0.2423
 9415SOL    HW239879   1.544   4.120   2.692 -0.7743 -0.9130  1.2171
 9416SOL     OW39880   4.732   2.224  16.469 -0.7755 -0.1884  0.1792
 9416SOL    HW139881   4.726   2.184  16.382 -0.9003  0.2046  0.0062
 9416SOL    HW239882   0.014   2.154  16.530  0.7427 -0.5957 -0.7962
 9417SOL     OW39883   4.451   1.987   5.339 -0.5552 -0.8246  0.1161
 9417SOL    HW139884   4.372   1.995   5.392 -0.5920  0.4683 -0.1434
 9417SOL    HW239885   4.439   1.899   5.303 -1.2444 -0.0674 -1.4909
 9418SOL     OW39886   4.441   4.457   4.700  0.5528  0.4187  0.0985
 9418SOL    HW139887   4.503   4.415   4.760 -1.7857 -2.5457  0.4525
 9418SOL    HW239888   4.489   4.464   4.617 -0.9233  0.0373 -0.7843
 9419SOL     OW39889   3.094   1.804   8.149 -0.1050  0.0307 -0.3919
 9419SOL    HW139890   3.065   1.740   8.214  0.6294  0.3374  0.2493
 9419SOL    HW239891   3.009   1.808   8.106 -0.7263 -1.0945  0.7220
 9420SOL     OW39892   2.201   3.325   5.857 -0.3723 -0.4397  0.4277
 9420SOL    HW139893   2.175   3.238   5.826  0.6121 -0.6138  0.1013
 9420SOL    HW239894   2.285   3.301   5.897 -0.4370 -1.1977  0.1174
 9421SOL     OW39895   3.301   4.580  14.516 -0.0474  0.2396  0.0479
 9421SOL    HW139896   3.384   4.537  14.495 -0.3554  0.5685 -1.8208
 9421SOL    HW239897   3.269   4.602  14.429 -1.4973 -0.8411  0.3038
 9422SOL     OW39898   2.235   4.444  14.126 -0.5261  0.2448  0.0718
 9422SOL    HW139899   2.323   4.459  14.092  0.6437 -0.2996  2.8067
 9422SOL    HW239900   2.190   4.519  14.088 -2.2924 -2.1583 -2.5103
 9423SOL     OW39901   0.934   2.460   9.213 -0.3078  0.0605  0.4818
 9423SOL    HW139902   0.898   2.431   9.296 -1.7031  0.3208 -0.0443
 9423SOL    HW239903   0.867   2.424   9.156  0.4381 -3.2611  1.7017
 9424SOL     OW39904   3.320   1.700   9.627  1.1323  0.6074  1.2885
 9424SOL    HW139905   3.384   1.674   9.561  1.0873 -2.4105  2.4218
 9424SOL    HW239906   3.343   1.792   9.643  0.6564  1.2347 -1.5989
 9425SOL     OW39907   4.140   0.877   9.669  0.1208  0.8457  0.1893
 9425SOL    HW139908   4.134   0.910   9.579 -0.9209  0.6554  0.1896
 9425SOL    HW239909   4.169   0.788   9.649  0.4790  0.6125  1.7639
 9426SOL     OW39910   0.219   1.193   5.394  0.1883 -0.0917 -0.3037
 9426SOL    HW139911   0.291   1.147   5.352 -1.6548 -0.3805 -3.1784
 9426SOL    HW239912   0.270   1.228   5.467  0.7334  0.4105 -0.9333
 9427SOL     OW39913   0.544   1.151   6.472 -0.3752 -0.1199 -0.4132
 9427SOL    HW139914   0.461   1.137   6.427 -0.7569  1.8767 -0.3295
 9427SOL    HW239915   0.505   1.187   6.551 -1.9462  0.1572 -1.3184
 9428SOL     OW39916   3.577   4.452   1.077 -0.0749  0.0917  0.6735
 9428SOL    HW139917   3.502   4.496   1.117 -1.9907 -0.3642 -2.4193
 9428SOL    HW239918   3.623   4.424   1.157 -1.1950  1.7368  1.9112
 9429SOL     OW39919   3.332   4.064  14.457 -0.4053 -0.4843  0.0930
 9429SOL    HW139920   3.397   4.112  14.406  1.1429  2.3498  4.7191
 9429SOL    HW239921   3.374   4.019  14.530 -0.2852 -0.9830 -0.2865
 9430SOL     OW39922   4.654   3.075   7.552 -0.0016  0.4961 -0.5196
 9430SOL    HW139923   4.716   3.002   7.551 -1.0267 -0.3868  1.1752
 9430SOL    HW239924   4.686   3.155   7.511  1.2041  0.4891  0.4321
 9431SOL     OW39925   3.930   2.138   3.142 -0.0082 -0.0840  0.6425
 9431SOL    HW139926   3.859   2.193   3.177  0.8137  0.2972  1.7254
 9431SOL    HW239927   3.875   2.088   3.082  2.0720 -0.2401 -1.1307
 9432SOL     OW39928   3.164   0.668   2.129 -0.4154  0.0316  0.2539
 9432SOL    HW139929   3.113   0.592   2.157 -1.5379  0.4699 -0.6271
 9432SOL    HW239930   3.097   0.717   2.082  0.2347  2.0329  1.4215
 9433SOL     OW39931   3.883   2.953  11.550  1.0107 -0.0696 -0.6363
 9433SOL    HW139932   3.966   2.910  11.529  1.4250  0.8366 -0.8451
 9433SOL    HW239933   3.922   3.033  11.586  0.5777 -0.3689  0.4885
 9434SOL     OW39934   3.943   3.751   2.374 -0.3889 -0.4650  0.1017
 9434SOL    HW139935   3.918   3.839   2.348  1.5454  0.3309  0.9368
 9434SOL    HW239936   4.023   3.772   2.423 -0.2404 -1.3301  0.2279
 9435SOL     OW39937   3.912   3.482   4.289 -0.3158  0.0668  0.1811
 9435SOL    HW139938   3.958   3.414   4.338  1.7629  1.6932  0.5168
 9435SOL    HW239939   3.847   3.426   4.247  0.6970 -1.4867  0.6779
 9436SOL     OW39940   4.608   0.387   7.292 -0.3311  0.2151 -0.6777
 9436SOL    HW139941   4.651   0.464   7.255  1.7443 -0.1421  0.9590
 9436SOL    HW239942   4.573   0.341   7.216  0.1363 -1.2795  0.0186
 9437SOL     OW39943   4.087   4.011  15.280 -0.4310  0.0115 -0.6801
 9437SOL    HW139944   4.035   4.076  15.327  2.6007  1.2777  0.9117
 9437SOL    HW239945   4.089   4.043  15.189  0.9368  0.2498 -0.5639
 9438SOL     OW39946   2.279   4.714   2.788  1.0534 -0.1192 -0.2403
 9438SOL    HW139947   2.242   4.631   2.818  0.9632  0.0069  0.0027
 9438SOL    HW239948   2.201   0.030   2.783 -0.2878 -2.1207 -1.0914
 9439SOL     OW39949   3.844   2.891   6.920 -0.0450 -0.2367  0.2133
 9439SOL    HW139950   3.911   2.921   6.859  0.4950 -1.3419  0.2768
 9439SOL    HW239951   3.801   2.967   6.959  0.1313  1.2432 -2.5024
 9440SOL     OW39952   2.951   3.910   5.777  0.0660 -0.1009 -0.5530
 9440SOL    HW139953   2.903   3.917   5.695  0.8881 -0.8854 -1.0996
 9440SOL    HW239954   2.885   3.907   5.847 -0.1836 -0.5722 -0.8089
 9441SOL     OW39955   2.932   0.504  17.702  0.3569 -0.5117  0.5482
 9441SOL    HW139956   2.938   0.409  17.712 -2.6916 -0.7783 -0.0662
 9441SOL    HW239957   2.871   0.520   0.020 -1.1296  3.0685 -1.5157
 9442SOL     OW39958   1.045   3.176   3.851 -0.1040 -0.1055 -0.0824
 9442SOL    HW139959   1.036   3.166   3.756 -0.4552 -2.2732  0.1744
 9442SOL    HW239960   1.136   3.199   3.869  0.7975 -2.3376 -1.8533
 9443SOL     OW39961   2.774   3.354   2.323 -0.2794  1.0083  0.1834
 9443SOL    HW139962   2.856   3.315   2.292 -2.1362 -2.5504 -0.3318
 9443SOL    HW239963   2.812   3.437   2.352  0.8588  0.9806 -1.1774
 9444SOL     OW39964   3.639   1.234   0.200  0.1836  0.1864 -0.1106
 9444SOL    HW139965   3.660   1.309   0.255 -0.3129 -0.5278  1.0657
 9444SOL    HW239966   3.626   1.178   0.277 -1.9415 -1.3430 -1.5741
 9445SOL     OW39967   1.932   2.474   6.874  0.2038  0.3353 -0.0481
 9445SOL    HW139968   2.021   2.482   6.909 -0.6659  1.9874  1.7535
 9445SOL    HW239969   1.955   2.528   6.798 -1.3272  2.0497  0.7258
 9446SOL     OW39970   3.044   0.892   6.627 -0.4427  0.0595  0.6501
 9446SOL    HW139971   2.956   0.909   6.592  0.1313  0.7577 -0.4477
 9446SOL    HW239972   3.066   0.984   6.639 -1.6746  0.2660  1.3985
 9447SOL     OW39973   0.584   4.128   2.086 -0.3318  0.3424 -0.0520
 9447SOL    HW139974   0.534   4.113   2.006 -0.3613 -2.0554  0.4219
 9447SOL    HW239975   0.520   4.103   2.153  0.1077 -2.2565 -0.6256
 9448SOL     OW39976   2.408   1.068   7.705  0.0600 -0.5928  0.2137
 9448SOL    HW139977   2.503   1.075   7.697  0.3309 -2.5960  1.7273
 9448SOL    HW239978   2.388   1.155   7.740  0.1158 -0.5353  0.1048
 9449SOL     OW39979   2.962   4.217   5.801  0.7210 -0.6590  0.2606
 9449SOL    HW139980   3.018   4.288   5.834  0.6136  0.0348 -1.0571
 9449SOL    HW239981   2.935   4.244   5.714 -1.4582 -2.7140  0.3170
 9450SOL     OW39982   1.708   4.659   8.453  0.6864  0.0274 -0.0698
 9450SOL    HW139983   1.640   4.603   8.491 -0.1516  2.8454  2.5740
 9450SOL    HW239984   1.726   4.725   8.520  0.3703 -0.4638  0.5064
 9451SOL     OW39985   2.931   1.318   6.443 -0.4830 -0.9031 -0.0337
 9451SOL    HW139986   2.897   1.380   6.377 -0.0344 -0.2985  0.3110
 9451SOL    HW239987   2.855   1.316   6.501 -0.9204 -0.7333 -0.5947
 9452SOL     OW39988   2.867   0.995   3.962 -0.3572  0.3123  0.3953
 9452SOL    HW139989   2.795   1.058   3.953  0.6132  0.9505 -3.0206
 9452SOL    HW239990   2.819   0.912   3.967  2.9211 -1.5311  0.9165
 9453SOL     OW39991   0.778   3.337   5.420  0.0532  0.1251  0.4487
 9453SOL    HW139992   0.864   3.298   5.431  0.3380  0.4000 -0.9016
 9453SOL    HW239993   0.741   3.304   5.338  0.9576  1.9136 -0.6644
 9454SOL     OW39994   0.761   2.384   9.035 -0.0435  0.1445  0.2633
 9454SOL    HW139995   0.753   2.457   8.974  1.6538 -1.7581 -2.2034
 9454SOL    HW239996   0.671   2.370   9.066 -0.2519 -1.3155 -1.0093
 9455SOL     OW39997   3.173   4.108  15.387 -0.5625 -0.3644 -0.2529
 9455SOL    HW139998   3.180   4.151  15.473 -1.4257  0.8792 -0.8142
 9455SOL    HW239999   3.244   4.149  15.338  0.8530 -1.4599  0.8517
 9456SOL     OW40000   3.337   3.136  16.205  0.1347  0.4574  0.1173
 9456SOL    HW140001   3.403   3.188  16.251  0.2677 -1.2329  1.8309
 9456SOL    HW240002   3.379   3.117  16.121 -1.7098 -0.0591 -0.7053
 9457SOL     OW40003   3.973   0.903  10.174  0.2273 -0.2274  0.3062
 9457SOL    HW140004   4.067   0.922  10.181  0.0515  1.0473 -0.7725
 9457SOL    HW240005   3.975   0.892  10.079  0.3706  2.9453 -0.0361
 9458SOL     OW40006   3.542   3.475   7.494  0.1726  0.5718  0.0583
 9458SOL    HW140007   3.527   3.551   7.549 -0.0834 -0.3583  1.2557
 9458SOL    HW240008   3.588   3.417   7.554 -1.1260 -0.5938 -0.0784
 9459SOL     OW40009   1.116   4.178   2.242 -0.5347  0.4329 -0.0996
 9459SOL    HW140010   1.179   4.117   2.202  0.4995  2.6716 -1.9327
 9459SOL    HW240011   1.077   4.221   2.166 -2.5602 -1.0389  0.0995
 9460SOL     OW40012   0.345   1.321  15.344 -0.6762 -0.1825 -0.2941
 9460SOL    HW140013   0.292   1.296  15.420 -1.1608  0.5884 -0.3753
 9460SOL    HW240014   0.287   1.378  15.294  2.0379  2.1333 -0.7807
 9461SOL     OW40015   0.354   2.031   3.038  0.1020 -0.0564 -0.0467
 9461SOL    HW140016   0.350   1.939   3.063  0.3773  0.4945  2.0038
 9461SOL    HW240017   0.336   2.021   2.944  0.6319 -0.0150 -0.1508
 9462SOL     OW40018   0.370   2.202   5.361  0.4262 -0.4261  0.1518
 9462SOL    HW140019   0.452   2.159   5.336  0.2405 -0.2540 -0.7499
 9462SOL    HW240020   0.316   2.192   5.282 -1.4895 -1.3422  1.5896
 9463SOL     OW40021   4.241   4.610   2.651 -0.0767  0.4761  0.3712
 9463SOL    HW140022   4.182   4.665   2.703 -0.2061 -0.5092  1.2605
 9463SOL    HW240023   4.316   4.670   2.648 -0.9517  1.6507  1.8061
 9464SOL     OW40024   1.287   3.217   3.948  0.4626 -0.1873 -0.2937
 9464SOL    HW140025   1.353   3.287   3.956  0.4543 -0.0106 -1.8565
 9464SOL    HW240026   1.324   3.157   4.012  2.3197 -1.4786 -2.5912
 9465SOL     OW40027   1.064   2.091   9.021  0.4497 -0.1197  0.1924
 9465SOL    HW140028   1.054   2.185   9.039 -0.6479  0.0467 -1.3043
 9465SOL    HW240029   1.058   2.067   9.113 -1.7426  0.6648  0.2512
 9466SOL     OW40030   2.459   3.398   4.053 -0.8216 -0.1992  0.2029
 9466SOL    HW140031   2.475   3.487   4.022  1.1819 -0.8937 -0.7855
 9466SOL    HW240032   2.543   3.361   4.025 -1.4905 -1.9895  0.5754
 9467SOL     OW40033   0.486   4.426   0.365 -0.8221  0.3131  0.2165
 9467SOL    HW140034   0.409   4.371   0.381  0.5065 -1.2265  1.4157
 9467SOL    HW240035   0.468   4.462   0.279  0.0818 -0.5854 -0.3442
 9468SOL     OW40036   1.991   1.696   9.462  0.0462 -0.0115 -0.1859
 9468SOL    HW140037   2.047   1.636   9.413  2.9437  1.6568  1.0439
 9468SOL    HW240038   1.997   1.643   9.542 -1.4768  0.2076  0.0657
 9469SOL     OW40039   1.580   0.566   3.443  0.5821  0.2434  0.6149
 9469SOL    HW140040   1.533   0.529   3.368  2.4758  2.1233 -1.4986
 9469SOL    HW240041   1.559   0.501   3.509 -0.2135  0.8089  0.9107
 9470SOL     OW40042   0.344   0.805   3.740  0.4814 -0.1153  0.2788
 9470SOL    HW140043   0.268   0.759   3.775  0.2533 -0.1438 -0.2676
 9470SOL    HW240044   0.317   0.814   3.649 -0.3516 -1.0858  0.4322
 9471SOL     OW40045   2.099   1.381   1.947 -0.0139 -0.2572 -0.6856
 9471SOL    HW140046   2.049   1.434   1.886  1.6261  2.2297  0.1348
 9471SOL    HW240047   2.144   1.437   2.010  0.3566  0.4060 -1.5341
 9472SOL     OW40048   1.875   4.480   7.260 -0.4312  0.3168 -0.2979
 9472SOL    HW140049   1.884   4.410   7.195  1.0335  1.1852 -1.0502
 9472SOL    HW240050   1.794   4.524   7.233  1.5087  4.2633  0.4378
 9473SOL     OW40051   2.397   3.713  15.595 -0.3283  0.0204  0.0615
 9473SOL    HW140052   2.434   3.643  15.650  0.8371 -0.2448 -1.0606
 9473SOL    HW240053   2.308   3.722  15.627 -0.2952 -0.5126  0.3139
 9474SOL     OW40054   1.969   3.520   5.855 -0.0834  0.1690  0.3941
 9474SOL    HW140055   2.006   3.573   5.784  1.5961  0.3832  1.4100
 9474SOL    HW240056   2.026   3.444   5.843 -1.6489 -1.0584  0.7944
 9475SOL     OW40057   3.480   3.432  15.541  0.4827  0.0582 -0.1118
 9475SOL    HW140058   3.509   3.476  15.461  0.5875  0.4569  0.1473
 9475SOL    HW240059   3.559   3.412  15.590  0.7008  0.9254 -0.1057
 9476SOL     OW40060   4.703   4.671   2.631 -0.2130  0.0022  0.5820
 9476SOL    HW140061   4.720   4.647   2.540 -1.2357 -2.5273  1.0709
 9476SOL    HW240062   4.609   4.653   2.633 -0.2900  0.2621 -0.4528
 9477SOL     OW40063   3.648   0.452   6.077 -0.0506 -0.5086 -0.0527
 9477SOL    HW140064   3.722   0.392   6.084  0.4323  0.0470 -0.3184
 9477SOL    HW240065   3.626   0.429   5.987 -2.0611 -2.7245  1.0256
 9478SOL     OW40066   0.354   3.313  14.644  0.6953 -0.6820  0.0719
 9478SOL    HW140067   0.432   3.347  14.600  0.2155 -0.0520 -0.2796
 9478SOL    HW240068   0.290   3.341  14.579 -0.2791 -3.2382 -0.0711
 9479SOL     OW40069   2.863   1.026   2.034  0.0185  0.9086 -0.6644
 9479SOL    HW140070   2.860   1.097   1.970 -0.8359 -1.5793 -3.3236
 9479SOL    HW240071   2.812   1.060   2.107  0.9063  0.6454  0.0830
 9480SOL     OW40072   0.955   0.996  15.860  0.1355  0.3995 -0.0396
 9480SOL    HW140073   1.001   0.913  15.874 -0.8851 -0.6384 -2.7754
 9480SOL    HW240074   0.925   0.990  15.769 -0.0819 -0.2992  0.0795
 9481SOL     OW40075   1.903   1.585   5.719 -0.4722  0.5438  0.2874
 9481SOL    HW140076   1.843   1.511   5.714 -1.9170  1.6907  0.3051
 9481SOL    HW240077   1.841   1.656   5.698 -0.2817  1.0032  1.2553
 9482SOL     OW40078   0.857   0.304   7.388  0.3798  0.5122 -0.3425
 9482SOL    HW140079   0.796   0.329   7.457  0.3318  0.0118 -0.2062
 9482SOL    HW240080   0.804   0.291   7.310 -1.9517  0.9452  1.1782
 9483SOL     OW40081   3.348   3.007   6.781  0.2519  0.1918  0.3387
 9483SOL    HW140082   3.323   2.976   6.693 -1.5436 -0.9467  1.2443
 9483SOL    HW240083   3.329   2.926   6.828 -0.3177  0.8572  1.2435
 9484SOL     OW40084   1.187   3.991   1.846  0.5413  0.0891  0.5276
 9484SOL    HW140085   1.100   3.985   1.805 -0.2219 -1.5942  2.3967
 9484SOL    HW240086   1.229   3.921   1.795 -1.3337 -1.4794  1.1022
 9485SOL     OW40087   3.676   2.370   9.233 -0.2921 -0.0771 -0.2543
 9485SOL    HW140088   3.670   2.465   9.219  1.6178 -0.0947 -1.1544
 9485SOL    HW240089   3.606   2.341   9.174  0.1090 -1.1038 -0.2206
 9486SOL     OW40090   2.272   3.535  10.930 -0.4868 -0.5036 -0.2145
 9486SOL    HW140091   2.252   3.581  10.848  0.8192  0.1571 -0.1713
 9486SOL    HW240092   2.232   3.451  10.908  2.6913 -1.8974 -0.6712
 9487SOL     OW40093   4.707   1.020  14.518  0.0663  0.0881  0.4410
 9487SOL    HW140094   4.736   0.970  14.441  0.5334  0.2426  0.5181
 9487SOL    HW240095   4.675   0.947  14.570  3.2128 -2.1341 -0.7973
 9488SOL     OW40096   2.046   1.334   4.918 -0.2131 -0.1781  0.0279
 9488SOL    HW140097   1.981   1.379   4.864 -0.2996 -0.7043 -0.3112
 9488SOL    HW240098   1.989   1.275   4.968 -1.5643  1.0920 -0.0236
 9489SOL     OW40099   3.079   4.400   7.660  0.5032 -0.6103 -1.1947
 9489SOL    HW140100   3.078   4.383   7.754  2.5920  2.9878 -0.5309
 9489SOL    HW240101   3.043   4.488   7.658 -1.2776 -1.3530 -1.0138
 9490SOL     OW40102   0.560   1.807   8.213  0.4687  0.9558 -0.2850
 9490SOL    HW140103   0.652   1.791   8.194  0.5872  1.6336 -0.2650
 9490SOL    HW240104   0.556   1.777   8.304  0.7082 -4.8595 -2.2360
 9491SOL     OW40105   1.335   3.871   4.410 -0.0837  0.8045 -0.4762
 9491SOL    HW140106   1.399   3.804   4.386 -1.0586 -1.1520  2.3943
 9491SOL    HW240107   1.269   3.814   4.451  0.2946 -0.4843 -1.6410
 9492SOL     OW40108   0.890   1.821  10.669  0.0883  0.0011 -0.4129
 9492SOL    HW140109   0.849   1.741  10.702 -1.2335  0.2789 -1.3755
 9492SOL    HW240110   0.813   1.871  10.642 -0.8982 -1.5071 -0.3784
 9493SOL     OW40111   3.508   1.886   4.200  0.3441  0.3034 -0.3077
 9493SOL    HW140112   3.572   1.859   4.134 -1.0379 -1.6713 -0.8279
 9493SOL    HW240113   3.424   1.880   4.155 -0.0758 -0.6015  0.6052
 9494SOL     OW40114   2.543   2.871  11.724  0.2772  0.1836 -0.7469
 9494SOL    HW140115   2.480   2.799  11.731  0.1149  0.6804  2.9198
 9494SOL    HW240116   2.523   2.894  11.633  1.8143 -1.9956 -1.6486
 9495SOL     OW40117   1.691   0.626   6.788 -0.1732 -0.2738 -0.2632
 9495SOL    HW140118   1.703   0.717   6.760  0.9552  0.1549  1.6428
 9495SOL    HW240119   1.626   0.594   6.725 -1.6405 -0.6858  1.4312
 9496SOL     OW40120   4.357   1.874   3.127  0.0329 -0.0410 -1.0706
 9496SOL    HW140121   4.430   1.931   3.149 -0.6658  0.0979  0.8560
 9496SOL    HW240122   4.284   1.936   3.126  1.1576  1.2982  0.3497
 9497SOL     OW40123   0.287   3.084  15.346  0.5625 -0.0383 -0.3448
 9497SOL    HW140124   0.277   2.992  15.373 -1.5848 -0.2357 -1.7671
 9497SOL    HW240125   0.201   3.112  15.378 -0.0503 -0.6896 -1.3877
 9498SOL     OW40126   2.979   4.581   2.136 -0.3720  0.6193 -0.1112
 9498SOL    HW140127   3.066   4.564   2.102 -0.4255 -1.3398  0.7416
 9498SOL    HW240128   2.959   4.497   2.178  1.6498  1.3241  2.2648
 9499SOL     OW40129   3.200   2.791  12.554 -0.0927  0.3939 -0.2088
 9499SOL    HW140130   3.245   2.821  12.633 -0.4954 -2.6422  1.2010
 9499SOL    HW240131   3.159   2.871  12.521  0.7831 -0.1935 -2.7135
 9500SOL     OW40132   4.729   0.589  17.345 -0.2430 -0.3558 -0.0283
 9500SOL    HW140133   4.648   0.639  17.341  1.4604  2.5819  1.5856
 9500SOL    HW240134   0.034   0.643  17.411 -1.2359 -0.8293  1.0117
 9501SOL     OW40135   1.043   3.352   5.344  0.4848 -0.5522  0.1899
 9501SOL    HW140136   1.070   3.269   5.304 -2.7372 -1.2166 -0.6210
 9501SOL    HW240137   1.066   3.426   5.288 -0.9522  0.5445  1.0431
 9502SOL     OW40138   2.122   0.963  15.504 -0.5125 -0.3796 -0.6288
 9502SOL    HW140139   2.169   1.046  15.515  0.2298 -0.8365 -0.3671
 9502SOL    HW240140   2.040   1.002  15.474 -0.1204  2.1343  1.6179
 9503SOL     OW40141   3.662   4.255   2.185 -0.3205 -0.2668  0.0661
 9503SOL    HW140142   3.665   4.160   2.198 -0.0323 -0.6260 -2.5597
 9503SOL    HW240143   3.650   4.258   2.090 -0.2516  0.2578  0.0756
 9504SOL     OW40144   0.341   2.226   9.081 -0.5970 -0.2587  0.8299
 9504SOL    HW140145   0.286   2.226   9.160 -1.4351  2.4914  0.2284
 9504SOL    HW240146   0.398   2.300   9.100 -0.1287 -0.0698 -1.4060
 9505SOL     OW40147   0.367   4.153   9.595  0.0319 -0.8812  0.2137
 9505SOL    HW140148   0.419   4.081   9.632 -1.1145 -2.4338 -1.1871
 9505SOL    HW240149   0.289   4.154   9.650 -0.4761  1.4401 -0.5507
 9506SOL     OW40150   4.227   1.622   3.082 -0.1845  0.0580  0.0182
 9506SOL    HW140151   4.153   1.660   3.130 -0.6308 -1.1194  0.2617
 9506SOL    HW240152   4.283   1.700   3.076 -1.1374  0.5754 -2.2218
 9507SOL     OW40153   2.970   2.187   6.806 -0.1180  0.3519 -0.2868
 9507SOL    HW140154   3.051   2.238   6.793  0.2715 -0.9709 -3.1370
 9507SOL    HW240155   2.975   2.122   6.736 -0.1465  0.9583 -0.8574
 9508SOL     OW40156   0.681   4.601   8.047  0.2242 -0.4500 -0.2491
 9508SOL    HW140157   0.775   4.617   8.049  0.0330  0.6693  0.0875
 9508SOL    HW240158   0.675   4.506   8.043 -0.7482 -0.4690  1.6185
 9509SOL     OW40159   4.223   2.125   9.095  0.1130 -0.3143  0.1062
 9509SOL    HW140160   4.229   2.148   9.188 -0.0560  0.7109 -0.1395
 9509SOL    HW240161   4.317   2.114   9.079  0.0318 -0.1286 -0.4789
 9510SOL     OW40162   4.180   1.437   5.183  0.1509 -0.5374  0.2415
 9510SOL    HW140163   4.104   1.486   5.215  0.5013  0.7159 -0.8532
 9510SOL    HW240164   4.202   1.385   5.261  2.0578  0.2125  0.1971
 9511SOL     OW40165   2.785   1.129   2.713  0.1646  0.0354  0.0265
 9511SOL    HW140166   2.779   1.165   2.624 -2.5631  3.2953  1.5475
 9511SOL    HW240167   2.694   1.099   2.716 -0.1704  0.9873 -0.4472
 9512SOL     OW40168   0.254   2.864   1.705 -0.4341  0.3288 -0.3528
 9512SOL    HW140169   0.172   2.823   1.676  0.4810 -0.6092 -1.6232
 9512SOL    HW240170   0.298   2.871   1.621  1.0136 -1.5059  0.2454
 9513SOL     OW40171   0.395   4.242   8.570 -0.0673 -0.5155  0.3287
 9513SOL    HW140172   0.442   4.304   8.625  0.7277 -3.1661  2.6446
 9513SOL    HW240173   0.331   4.217   8.637 -1.6379  1.2282 -0.5538
 9514SOL     OW40174   1.617   1.749  17.223  0.3564  0.1507 -0.4253
 9514SOL    HW140175   1.712   1.743  17.214  0.5479  0.2501  1.6613
 9514SOL    HW240176   1.603   1.841  17.243 -2.6644 -0.5677  0.8024
 9515SOL     OW40177   0.614   0.533   5.208 -0.1905 -0.2644  0.0505
 9515SOL    HW140178   0.529   0.533   5.165  0.6612  3.0584 -1.6613
 9515SOL    HW240179   0.615   0.628   5.224  2.5033 -0.0725 -1.2505
 9516SOL     OW40180   2.533   0.870   4.747  0.2708  0.2257  0.6014
 9516SOL    HW140181   2.566   0.801   4.689 -1.3336  1.7521 -2.0963
 9516SOL    HW240182   2.475   0.920   4.690 -0.8004 -2.6747 -0.8554
 9517SOL     OW40183   1.309   3.756  10.161 -0.4134  0.6992 -0.2588
 9517SOL    HW140184   1.359   3.682  10.194  0.4030  1.4522  0.2024
 9517SOL    HW240185   1.374   3.782  10.096  0.1313  0.9488  0.3808
 9518SOL     OW40186   0.972   0.089  10.094  0.0684 -0.3228 -0.0144
 9518SOL    HW140187   0.905   0.105  10.160  0.4763 -2.1049  0.8372
 9518SOL    HW240188   0.972   4.735  10.070 -2.2047 -0.3330  0.0164
 9519SOL     OW40189   2.830   1.818   1.380  0.2694  0.0166 -0.1478
 9519SOL    HW140190   2.907   1.765   1.362  1.7820  1.9458  0.5679
 9519SOL    HW240191   2.807   1.845   1.291 -0.0554 -0.8322 -0.3179
 9520SOL     OW40192   1.623   3.928   3.063  0.6712 -0.5688 -0.2641
 9520SOL    HW140193   1.626   3.956   3.155 -0.5898  2.6806 -1.2286
 9520SOL    HW240194   1.530   3.916   3.044  0.7775 -1.7211 -0.0596
 9521SOL     OW40195   0.465   1.123   9.785  0.1283  0.1421  0.5147
 9521SOL    HW140196   0.491   1.058   9.719  0.1644  0.2991  0.3751
 9521SOL    HW240197   0.482   1.068   9.862 -2.7499 -1.2243  0.1801
 9522SOL     OW40198   4.429   4.535   9.959 -0.1740  0.0293 -0.2385
 9522SOL    HW140199   4.387   4.618   9.980 -2.4674 -1.0086 -0.6863
 9522SOL    HW240200   4.514   4.540  10.002  0.6060 -0.7889 -1.6695
 9523SOL     OW40201   4.477   4.675  14.066 -0.2043 -0.2569  0.0459
 9523SOL    HW140202   4.418   4.601  14.073 -2.9635  1.6414 -3.2402
 9523SOL    HW240203   4.514   4.649  13.982 -1.9488 -0.1847 -0.7251
 9524SOL     OW40204   4.414   1.008   9.547 -0.4860 -0.0866  0.8381
 9524SOL    HW140205   4.383   0.921   9.572 -0.2657 -0.1489  0.8953
 9524SOL    HW240206   4.464   1.039   9.623 -0.7879  2.5027 -0.0276
 9525SOL     OW40207   4.034   0.714   4.744  0.0410 -0.2704 -0.1455
 9525SOL    HW140208   4.015   0.791   4.691 -1.3285 -0.3948  0.1512
 9525SOL    HW240209   4.059   0.648   4.679 -1.6262 -2.6029  1.5778
 9526SOL     OW40210   2.500   3.961  15.584 -0.0632  0.0101 -0.0839
 9526SOL    HW140211   2.452   3.880  15.568 -0.8089  0.3490  0.4503
 9526SOL    HW240212   2.590   3.931  15.599  0.6070  2.3621  0.6592
 9527SOL     OW40213   2.903   0.568   7.532 -0.0817  0.2470  0.1581
 9527SOL    HW140214   2.905   0.589   7.439  0.6729 -0.3347  0.0450
 9527SOL    HW240215   2.872   0.655   7.558 -0.8266 -0.0880  0.3921
 9528SOL     OW40216   1.762   4.299  10.172  0.4377 -0.5746  0.1872
 9528SOL    HW140217   1.733   4.294  10.264  1.9036 -0.7452  0.6479
 9528SOL    HW240218   1.791   4.208  10.173 -0.1436 -0.7483  0.9096
 9529SOL     OW40219   3.757   0.050  13.216 -0.6831  0.1451 -0.2191
 9529SOL    HW140220   3.831   4.730  13.230 -0.2537  0.6401 -0.3566
 9529SOL    HW240221   3.797   0.138  13.216 -0.3773  0.0096  0.2338
 9530SOL     OW40222   4.515   0.045   1.429 -0.3665 -0.2031 -0.0144
 9530SOL    HW140223   4.577   0.038   1.501  0.0007 -1.2896 -0.4296
 9530SOL    HW240224   4.578   0.058   1.357  0.6422  1.6464  1.1897
 9531SOL     OW40225   4.198   4.451  13.791 -0.1324 -0.2415  0.5432
 9531SOL    HW140226   4.240   4.535  13.811  0.8982 -0.1797 -1.9593
 9531SOL    HW240227   4.263   4.386  13.818  0.7371  0.1955 -0.5119
 9532SOL     OW40228   2.890   2.764  16.607  0.5012 -0.0105 -0.0549
 9532SOL    HW140229   2.875   2.813  16.526 -2.1041  1.2179  1.1682
 9532SOL    HW240230   2.864   2.831  16.671 -1.1039  0.5513 -1.3229
 9533SOL     OW40231   3.200   3.950   5.148  0.4823  0.7466 -0.2251
 9533SOL    HW140232   3.113   3.913   5.133  1.4848 -2.3622  1.4902
 9533SOL    HW240233   3.254   3.918   5.075 -1.7218  2.4107 -2.5573
 9534SOL     OW40234   0.517   3.873   6.626  0.3521  0.2093  0.1475
 9534SOL    HW140235   0.545   3.803   6.567 -0.1329 -0.1200  0.3102
 9534SOL    HW240236   0.444   3.916   6.583  0.0491  0.1211  0.5727
 9535SOL     OW40237   4.467   2.190   1.690 -0.2082 -0.7092 -0.1501
 9535SOL    HW140238   4.417   2.264   1.724  0.3576 -0.6494  0.5395
 9535SOL    HW240239   4.436   2.191   1.599  1.6070 -0.6762 -0.7867
 9536SOL     OW40240   0.005   2.706   4.119  0.0453 -0.2234 -0.0240
 9536SOL    HW140241   0.058   2.710   4.040 -0.0917 -1.4963 -0.1925
 9536SOL    HW240242   4.666   2.752   4.089  0.1748 -0.2302 -0.3640
 9537SOL     OW40243   1.558   1.273   3.901 -0.1140  0.4712  0.2126
 9537SOL    HW140244   1.484   1.294   3.844  0.3394  0.0465 -0.5290
 9537SOL    HW240245   1.505   1.250   3.977  0.8972  2.6559  1.5519
 9538SOL     OW40246   0.447   2.853   7.940  0.5609  0.0089  0.0569
 9538SOL    HW140247   0.368   2.907   7.935  1.0262  0.8859  2.2682
 9538SOL    HW240248   0.509   2.921   7.964  0.6797 -0.5637  1.3785
 9539SOL     OW40249   2.482   3.576   6.600 -0.5732  0.1927  0.3069
 9539SOL    HW140250   2.413   3.621   6.550 -0.7150 -1.8082 -1.2814
 9539SOL    HW240251   2.429   3.529   6.666  0.8369 -1.4131  0.2907
 9540SOL     OW40252   4.153   2.285   8.767  0.1038  0.5600 -0.6432
 9540SOL    HW140253   4.199   2.278   8.851 -0.3497 -1.0704 -0.5303
 9540SOL    HW240254   4.164   2.194   8.738 -1.2555  0.1679  0.0760
 9541SOL     OW40255   0.162   2.170   6.825  0.2401 -0.0101  0.1035
 9541SOL    HW140256   0.130   2.189   6.913 -3.2144  0.0447 -1.1537
 9541SOL    HW240257   0.200   2.257   6.812  0.2652 -0.0731 -0.2556
 9542SOL     OW40258   3.410   4.160   0.064 -0.1525  0.3146  0.0733
 9542SOL    HW140259   3.354   4.108   0.121 -0.7189 -1.4965 -2.1404
 9542SOL    HW240260   3.446   4.213   0.135  1.2723  0.3343 -0.6577
 9543SOL     OW40261   3.966   1.815   3.088  0.6979  0.1244 -0.3228
 9543SOL    HW140262   3.920   1.881   3.140 -0.5990 -2.3407  1.5932
 9543SOL    HW240263   4.009   1.758   3.150 -1.4890 -1.6656 -0.4498
 9544SOL     OW40264   1.364   3.769   2.694 -0.2217 -0.6407  0.0279
 9544SOL    HW140265   1.398   3.795   2.609  0.8258  0.3244  0.7481
 9544SOL    HW240266   1.424   3.801   2.761  2.6471 -0.5289 -2.5988
 9545SOL     OW40267   2.130   0.079  17.356 -0.1635  0.2710 -0.4912
 9545SOL    HW140268   2.071   0.150  17.331 -2.1472 -0.8566  0.9410
 9545SOL    HW240269   2.204   0.136  17.376  0.2553 -0.0663 -1.0504
 9546SOL     OW40270   4.735   3.333   2.417  0.6611 -0.3746 -0.5056
 9546SOL    HW140271   0.025   3.394   2.350  0.5259 -0.7915 -0.9373
 9546SOL    HW240272   4.643   3.341   2.391  0.0442  1.5646  2.1783
 9547SOL     OW40273   1.803   2.950   7.476 -0.1336  0.0119 -0.4388
 9547SOL    HW140274   1.810   3.041   7.449 -2.7732 -0.2515 -2.0547
 9547SOL    HW240275   1.715   2.932   7.442 -0.8631  4.1182 -0.7351
 9548SOL     OW40276   4.154   3.978   3.343 -0.4916  0.2862 -0.3081
 9548SOL    HW140277   4.067   3.968   3.382 -0.1151 -1.8304  0.0271
 9548SOL    HW240278   4.149   3.916   3.269 -1.1169  2.3078 -1.9748
 9549SOL     OW40279   2.037   1.534   6.801  0.3479 -0.1663 -0.2858
 9549SOL    HW140280   2.064   1.467   6.738 -3.6987 -3.9496  1.9595
 9549SOL    HW240281   2.118   1.531   6.851 -0.6509 -0.8055  1.2788
 9550SOL     OW40282   0.024   0.944   3.699  0.4082 -0.1002 -0.1461
 9550SOL    HW140283   0.105   0.980   3.662 -0.3748  1.9444  0.1599
 9550SOL    HW240284   4.714   0.939   3.617 -1.5179  1.1422  0.9249
 9551SOL     OW40285   0.719   3.363  10.572 -0.0853  0.0787  0.6075
 9551SOL    HW140286   0.783   3.411  10.519 -2.0039  1.0004 -0.8456
 9551SOL    HW240287   0.691   3.433  10.631 -1.0734  1.8172 -1.9573
 9552SOL     OW40288   3.561   0.509   5.158  0.3401  0.2821 -0.5535
 9552SOL    HW140289   3.642   0.519   5.208  2.1823 -2.6858 -2.9122
 9552SOL    HW240290   3.527   0.598   5.162  3.7493  1.5457  0.2514
 9553SOL     OW40291   3.444   3.368   8.360  0.0311  0.1767  0.2511
 9553SOL    HW140292   3.376   3.433   8.374  0.8185  1.3938 -1.6594
 9553SOL    HW240293   3.426   3.291   8.414  0.0415 -0.0504 -0.0681
 9554SOL     OW40294   1.858   3.252   1.060 -0.6794  0.7909  0.7461
 9554SOL    HW140295   1.887   3.237   1.150  0.6408 -0.3754  0.1279
 9554SOL    HW240296   1.812   3.336   1.066 -0.2045  1.2584 -2.4415
 9555SOL     OW40297   2.421   4.504   3.610 -0.1230  0.2204  0.5137
 9555SOL    HW140298   2.488   4.471   3.551  0.5379  1.6109  0.4820
 9555SOL    HW240299   2.404   4.584   3.559  0.4642  0.1011  0.1322
 9556SOL     OW40300   4.245   3.853  16.042  0.3196 -0.4272  0.1134
 9556SOL    HW140301   4.151   3.852  16.024  0.0895  0.5879  1.3309
 9556SOL    HW240302   4.253   3.946  16.060 -0.3946 -0.3667  0.0918
 9557SOL     OW40303   4.484   2.800   7.341  0.4703  0.0817  0.5909
 9557SOL    HW140304   4.568   2.828   7.379  0.6941  0.4920 -0.2132
 9557SOL    HW240305   4.421   2.822   7.409 -2.2354 -3.2557 -0.8882
 9558SOL     OW40306   2.745   2.699   8.254 -0.2724  0.4707 -0.0403
 9558SOL    HW140307   2.702   2.782   8.234  0.0317  0.9306  1.1782
 9558SOL    HW240308   2.809   2.715   8.324 -1.3213 -0.6616  1.1719
 9559SOL     OW40309   0.310   1.124  10.599 -0.0638 -0.0019  0.1847
 9559SOL    HW140310   0.318   1.033  10.572  0.9872  0.6841 -1.8574
 9559SOL    HW240311   0.274   1.171  10.523 -2.1467 -0.3115  0.9873
 9560SOL     OW40312   3.953   2.802  13.705 -0.9193 -0.0684  0.1471
 9560SOL    HW140313   3.996   2.802  13.619 -0.2996  1.9232  0.4741
 9560SOL    HW240314   3.878   2.746  13.684 -2.2322  0.9965  2.0260
 9561SOL     OW40315   4.460   4.636   9.389  0.0473 -0.2774  0.0388
 9561SOL    HW140316   4.485   4.727   9.379  1.5216 -0.5291  1.3803
 9561SOL    HW240317   4.371   4.630   9.353 -1.4813 -0.0828  3.8046
 9562SOL     OW40318   3.189   1.103   2.049  0.1627 -0.0311  0.1453
 9562SOL    HW140319   3.124   1.162   2.088  0.2763  0.1120  0.1167
 9562SOL    HW240320   3.156   1.082   1.962  0.4454 -2.8456  0.7162
 9563SOL     OW40321   3.672   3.086  12.339  0.1763  0.4028 -0.0527
 9563SOL    HW140322   3.578   3.086  12.321  0.4229 -0.6942 -1.3061
 9563SOL    HW240323   3.693   2.998  12.309 -0.4938 -0.4075  1.8403
 9564SOL     OW40324   2.200   4.071   8.449 -0.1976 -0.4440  0.3975
 9564SOL    HW140325   2.202   3.982   8.415 -1.9977 -0.7922  1.2191
 9564SOL    HW240326   2.215   4.066   8.543 -1.8506 -1.3559  0.6059
 9565SOL     OW40327   0.021   1.855  12.181 -0.6069 -0.5766  0.1869
 9565SOL    HW140328   0.007   1.782  12.121 -1.9748  0.0026 -0.1828
 9565SOL    HW240329   0.007   1.922  12.114 -0.5030 -0.6938  0.0480
 9566SOL     OW40330   0.360   2.078   4.445  0.2871 -0.7130 -0.3201
 9566SOL    HW140331   0.351   1.994   4.401  0.7030 -0.4182 -0.9649
 9566SOL    HW240332   0.350   2.146   4.378 -0.7449 -0.2962  0.2705
 9567SOL     OW40333   0.696   3.059   1.112 -0.5021 -0.4962 -0.5371
 9567SOL    HW140334   0.725   3.002   1.040 -0.5616 -1.2269  0.0256
 9567SOL    HW240335   0.606   3.076   1.085 -0.7859 -0.2531  0.5989
 9568SOL     OW40336   0.977   1.972   7.772  0.0986  0.1863  0.1249
 9568SOL    HW140337   0.888   2.000   7.751 -0.1500 -0.2974  0.5129
 9568SOL    HW240338   1.012   2.049   7.817  0.1665 -0.6695  1.5386
 9569SOL     OW40339   1.684   1.247  13.841 -0.2609  0.1872 -1.1828
 9569SOL    HW140340   1.608   1.259  13.784 -1.1457 -0.5228 -0.1323
 9569SOL    HW240341   1.733   1.327  13.822  2.2651 -1.1374 -0.2612
 9570SOL     OW40342   3.572   3.359   3.831 -0.6821  0.1610 -0.0731
 9570SOL    HW140343   3.517   3.282   3.821 -0.2627 -0.3059  1.1978
 9570SOL    HW240344   3.550   3.372   3.923  3.6235  0.4057  0.9004
 9571SOL     OW40345   4.188   3.070   5.134 -0.5506 -0.0275  0.6230
 9571SOL    HW140346   4.111   3.095   5.083  0.5487 -0.3827 -1.2219
 9571SOL    HW240347   4.156   3.027   5.214 -0.3641  0.8701  1.1698
   4.73904   4.73904  17.75404
