Membrane in water
40347
    1TMC1    C1    1   2.187   0.913  10.859  0.5080 -0.1991 -0.4047
    1TMC1    C2    2   2.294   0.952  10.782  0.4394  1.3164 -0.0539
    1TMC1    C3    3   2.263   1.017  10.665 -0.1619 -0.1458 -0.2041
    1TMC1    C4    4   2.053   0.925  10.827 -0.4528  0.1794 -0.7669
    1TMC1    C5    5   2.031   0.990  10.706  0.9639 -0.2003  0.7795
    1TMC1    C6    6   2.131   1.042  10.629 -0.3370  0.2432  0.1790
    1TMC1     C    7   2.220   0.841  10.979  0.7109  0.2765  0.2782
    1TMC1     O    8   2.137   0.761  11.021 -0.5738 -0.2690  0.0324
    1TMC1     H    9   2.394   0.914  10.799 -0.4028 -0.7092  0.3942
    1TMC1    H1   10   1.976   0.894  10.898  1.1384 -0.1233  0.8462
    1TMC1    H2   11   2.120   1.113  10.547  0.5367  0.2547  0.0756
    1TMC1    C7   12   1.916   0.957  10.628 -0.6468  0.1365  0.2831
    1TMC1    C8   13   2.359   1.096  10.588 -0.4473 -0.4012  0.1779
    1TMC1    O1   14   1.921   0.971  10.507 -0.5136  0.2580 -0.0505
    1TMC1    O2   15   2.345   1.117  10.467  0.2909  1.0251 -0.3327
    1TMC1    O3   16   1.807   0.931  10.703 -0.6753 -0.0071  0.4629
    1TMC1    H3   17   1.811   0.948  10.800  0.1459  0.3483  0.3611
    1TMC1    O5   18   2.476   1.096  10.654  0.2717  1.1425 -0.4948
    1TMC1    H5   19   2.474   1.082  10.751 -0.4417  0.7584 -0.5668
    2MPD2     C   20   2.592   0.593  11.225  0.1888  0.1875 -0.3660
    2MPD2    C1   21   2.459   0.581  11.245 -0.6458 -0.3392 -0.1659
    2MPD2    C2   22   2.372   0.665  11.172  0.1349  0.6150  0.1198
    2MPD2    C3   23   2.428   0.770  11.090 -0.4882 -0.3467  0.5703
    2MPD2    C4   24   2.564   0.775  11.079 -0.4356 -0.1306 -0.2127
    2MPD2    C5   25   2.638   0.686  11.138  0.6487  0.9565  0.1621
    2MPD2     H   26   2.264   0.651  11.172  0.3086 -0.8863 -3.8262
    2MPD2    H1   27   2.609   0.848  11.012 -1.9587  2.2783  1.3576
    2MPD2    H2   28   2.660   0.529  11.280 -0.5180 -1.4788 -1.4101
    2MPD2    H3   29   2.743   0.694  11.113  1.0683  0.2014  1.6759
    2MPD2     N   30   2.354   0.853  11.007  0.5277  0.2689 -0.3209
    2MPD2    H5   31   2.414   0.911  10.949  2.1210 -0.9993  0.0517
    2MPD2    N1   32   2.400   0.490  11.336  0.4551 -0.5709  0.1968
    2MPD2    H7   33   2.302   0.506  11.358  0.9368  1.4747  0.7894
    3TMC1    C1   34   2.176   2.304  10.852 -0.1138 -0.1343 -0.1315
    3TMC1    C2   35   2.238   2.425  10.822  0.0662 -0.0809 -0.0670
    3TMC1    C3   36   2.309   2.431  10.702  0.0108 -0.2760 -0.2220
    3TMC1    C4   37   2.194   2.195  10.771  0.1268 -0.1289  0.4305
    3TMC1    C5   38   2.265   2.206  10.659  0.3743  0.7105  0.4634
    3TMC1    C6   39   2.331   2.316  10.624  0.3441 -0.9360  0.5405
    3TMC1     C   40   2.090   2.284  10.973  0.1464  0.0766 -0.7433
    3TMC1     O   41   2.085   2.170  11.020  0.1779 -0.4341 -0.6948
    3TMC1     H   42   2.222   2.506  10.892 -2.1383 -1.0598  0.5582
    3TMC1    H1   43   2.132   2.109  10.793  1.3425 -0.7952  1.2408
    3TMC1    H2   44   2.383   2.320  10.529  2.0486 -2.0238  1.4332
    3TMC1    C7   45   2.299   2.084  10.591  0.2493 -0.0242  0.5911
    3TMC1    C8   46   2.291   2.563  10.638  0.4305  0.8453  0.3910
    3TMC1    O1   47   2.246   1.982  10.629  0.3056 -0.0277  0.1881
    3TMC1    O2   48   2.205   2.645  10.678  0.1991 -0.0771  0.8437
    3TMC1    O3   49   2.372   2.097  10.475 -0.1526 -0.2288 -0.6875
    3TMC1    H3   50   2.360   2.185  10.434  0.4585 -0.1044 -0.5853
    3TMC1    O5   51   2.362   2.556  10.527  0.4042 -0.0860 -0.2826
    3TMC1    H5   52   2.441   2.497  10.527  0.6924  0.3055 -0.0667
    4MPD2     C   53   1.790   2.430  11.368  0.2693  0.4182  0.2728
    4MPD2    C1   54   1.782   2.526  11.269  0.1288  0.3025 -0.3235
    4MPD2    C2   55   1.865   2.516  11.161  0.6764  0.5128 -0.5417
    4MPD2    C3   56   1.956   2.412  11.145  0.0669  0.6339 -0.2415
    4MPD2    C4   57   1.971   2.322  11.246 -0.6865  0.7940  0.1363
    4MPD2    C5   58   1.886   2.328  11.356  0.4773  0.5141  0.1304
    4MPD2     H   59   1.855   2.585  11.078 -0.4285  1.0851  0.0620
    4MPD2    H1   60   2.034   2.234  11.239 -0.4869  1.0276 -0.9746
    4MPD2    H2   61   1.713   2.415  11.443  0.3508 -2.2767 -0.1637
    4MPD2    H3   62   1.886   2.242  11.422 -1.1682  0.6477  0.3117
    4MPD2     N   63   2.027   2.397  11.023  0.0542  0.3118  0.3551
    4MPD2    H5   64   2.030   2.479  10.963 -1.3698 -1.5112 -2.1761
    4MPD2    N1   65   1.689   2.633  11.262 -0.2154 -0.2881  0.1305
    4MPD2    H7   66   1.700   2.684  11.174  0.5869 -2.9948 -1.3416
    5TCq1    O1   67   1.860   3.850  10.111  0.4048 -0.5235 -0.4965
    5TCq1    C1   68   1.908   3.949  10.194  0.1482  0.6735  0.8995
    5TCq1    O2   69   1.879   4.064  10.175  0.4756 -0.1812  0.5750
    5TCq1    C2   70   1.906   3.880  10.326  0.5587  0.4566 -0.4928
    5TCq1    C3   71   1.833   3.934  10.428 -0.3451  0.0206  0.1727
    5TCq1    C4   72   1.823   3.874  10.554 -0.0280  0.3305 -0.8511
    5TCq1    C5   73   1.882   3.754  10.573  0.1003  0.3249  0.5923
    5TCq1    C6   74   1.960   3.696  10.471 -0.3875  0.2208  0.3046
    5TCq1    C7   75   1.974   3.761  10.351 -0.1596  0.0724 -0.4729
    5TCq1    C8   76   2.001   3.558  10.491 -0.5971  0.1067  0.4675
    5TCq1    O4   77   2.001   3.512  10.603  0.3900 -0.4323  0.9070
    5TCq1    C9   78   1.736   3.923  10.648  0.2120 -0.0480 -0.1555
    5TCq1    O5   79   1.636   3.996  10.617 -0.0479 -0.6379  0.5592
    5TCq1    O6   80   1.768   3.898  10.769  0.0543  0.1354  0.4145
    5TCq1    H1   81   1.870   3.755  10.136  0.7432 -0.4322 -0.2911
    5TCq1    H2   82   1.798   4.036  10.419  1.4273  0.6965  0.9029
    5TCq1    H3   83   1.873   3.713  10.673  2.1789 -1.5420  0.0132
    5TCq1    H4   84   2.033   3.720  10.270 -0.3070  1.0284 -1.0539
    6MPD2     C   85   2.123   3.323  10.242 -0.1584 -0.3943 -0.5819
    6MPD2    C1   86   2.108   3.381  10.371 -0.1310  0.2693 -0.5259
    6MPD2    C2   87   2.157   3.308  10.475  0.3554 -0.5083  0.9490
    6MPD2    C3   88   2.235   3.196  10.451 -0.0497 -0.4438 -0.6536
    6MPD2    C4   89   2.238   3.136  10.329 -0.7368 -0.1144  0.0754
    6MPD2    C5   90   2.179   3.198  10.227  0.8596 -0.5397 -0.3585
    6MPD2     H   91   2.160   3.352  10.574  1.4229 -0.4554  0.8938
    6MPD2    H1   92   2.284   3.039  10.314 -0.6619 -0.0291 -0.2441
    6MPD2    H2   93   2.092   3.376  10.153  1.6916 -0.6399 -1.3705
    6MPD2    H3   94   2.184   3.162  10.125  2.9140  0.2040 -0.5348
    6MPD2     N   95   2.298   3.141  10.560  0.0054  0.0645 -0.1464
    6MPD2    H5   96   2.269   3.194  10.642  2.2912 -1.0076  1.3335
    6MPD2    N1   97   2.044   3.503  10.379  0.6960  0.0605 -0.4420
    6MPD2    H7   98   2.014   3.538  10.289  3.1636 -0.5080 -1.4843
    7TCq1    O1   99   3.990   3.105  13.160  0.5885 -0.1530  0.2646
    7TCq1    C1  100   4.069   2.998  13.177  0.1516  0.0895 -0.3797
    7TCq1    O2  101   4.146   2.988  13.273 -0.5286  0.8206  0.5826
    7TCq1    C2  102   4.079   2.915  13.052  0.0388  0.2450 -0.5094
    7TCq1    C3  103   4.020   2.954  12.937 -0.7402  0.4395 -0.4384
    7TCq1    C4  104   4.031   2.857  12.838 -0.1116  0.0811  0.5859
    7TCq1    C5  105   4.102   2.741  12.845 -1.0244 -0.2236 -0.7956
    7TCq1    C6  106   4.150   2.711  12.968  0.9056 -0.2607 -0.2015
    7TCq1    C7  107   4.144   2.796  13.074 -0.4661  0.2616  0.1371
    7TCq1    C8  108   4.212   2.589  12.987 -0.1490  0.6767 -0.7412
    7TCq1    O4  109   4.212   2.537  13.099  0.1472  0.5795 -0.0287
    7TCq1    C9  110   3.983   2.892  12.709  0.3523 -0.3792 -0.3578
    7TCq1    O5  111   3.991   3.013  12.677  0.1967  0.1004  0.2880
    7TCq1    O6  112   3.939   2.797  12.643 -0.1352 -0.2388 -0.4090
    7TCq1    H1  113   3.916   3.090  13.097 -0.0914 -0.5810  1.1735
    7TCq1    H2  114   3.981   3.054  12.928  0.0963  0.8151  0.1192
    7TCq1    H3  115   4.114   2.687  12.751 -2.2194 -1.5862 -0.1612
    7TCq1    H4  116   4.191   2.775  13.170 -0.9312  1.6869  0.6789
    8MPD2     C  117   4.519   2.229  12.772  0.6173 -0.1557  0.3573
    8MPD2    C1  118   4.479   2.250  12.905 -0.2759 -0.7416  0.5919
    8MPD2    C2  119   4.401   2.355  12.941 -0.2372  0.7857 -0.0094
    8MPD2    C3  120   4.361   2.449  12.842 -0.5160 -0.1462  0.4730
    8MPD2    C4  121   4.410   2.438  12.713 -0.2323 -0.4666  0.3272
    8MPD2    C5  122   4.482   2.320  12.673 -0.2754 -0.0900  0.5886
    8MPD2     H  123   4.362   2.365  13.042  1.8086  1.3339  0.7167
    8MPD2    H1  124   4.362   2.497  12.636  0.7864 -0.1196 -0.0501
    8MPD2    H2  125   4.579   2.143  12.747  2.0911  1.2572 -1.0298
    8MPD2    H3  126   4.521   2.310  12.572  0.8161  0.5765  0.9304
    8MPD2     N  127   4.285   2.560  12.876 -0.1171  0.6665 -0.2484
    8MPD2    H5  128   4.264   2.628  12.804 -0.7928  1.1672  0.4213
    8MPD2    N1  129   4.511   2.142  12.993 -0.2884  0.4145  0.0900
    8MPD2    H7  130   4.562   2.069  12.944  0.9682  1.2598  0.1233
    9TMC1    C1  131   2.482   1.535  11.140  0.2286 -0.2102  0.4783
    9TMC1    C2  132   2.371   1.466  11.101  0.0324 -0.0762  0.5120
    9TMC1    C3  133   2.372   1.380  10.991  0.1683 -0.2016  0.0293
    9TMC1    C4  134   2.588   1.539  11.052 -0.0923 -0.4339  0.1417
    9TMC1    C5  135   2.586   1.464  10.941  0.1424  0.7127 -0.3330
    9TMC1    C6  136   2.479   1.386  10.903 -0.9724 -0.7379  0.5901
    9TMC1     C  137   2.465   1.633  11.243 -0.5464  0.6427 -0.3883
    9TMC1     O  138   2.526   1.736  11.216 -0.0088  0.9145 -0.5269
    9TMC1     H  139   2.286   1.457  11.167 -0.1120 -0.5733  0.2636
    9TMC1    H1  140   2.674   1.604  11.063 -0.5955  0.9256 -3.7428
    9TMC1    H2  141   2.476   1.351  10.800 -2.6380  1.7138 -0.1880
    9TMC1    C7  142   2.678   1.497  10.829  0.6535  0.0675 -0.5416
    9TMC1    C8  143   2.252   1.314  10.953  0.5550  0.0743 -0.3652
    9TMC1    O1  144   2.717   1.610  10.805 -0.3999  0.0149 -0.0326
    9TMC1    O2  145   2.164   1.284  11.034  0.0140 -0.0032 -0.1984
    9TMC1    O3  146   2.723   1.387  10.774 -0.4614 -0.4239  0.5980
    9TMC1    H3  147   2.706   1.301  10.817 -0.6586 -0.0713  1.2219
    9TMC1    O5  148   2.239   1.306  10.821  0.5626 -0.3749 -0.2203
    9TMC1    H5  149   2.304   1.369  10.783 -1.1014  1.2053 -0.4284
   10MPD2     C  150   2.343   1.777  11.492  0.3144  0.3262 -0.0641
   10MPD2    C1  151   2.357   1.645  11.469 -0.6409  0.1317  0.0751
   10MPD2    C2  152   2.327   1.560  11.579 -0.5214 -0.1097  0.2082
   10MPD2    C3  153   2.289   1.612  11.701 -0.2338 -0.0891 -0.0135
   10MPD2    C4  154   2.288   1.750  11.715 -0.2383 -0.2454  0.3289
   10MPD2    C5  155   2.306   1.829  11.612  0.5168  0.2730  0.1277
   10MPD2     H  156   2.345   1.455  11.560 -0.0560 -0.0762  0.4459
   10MPD2    H1  157   2.257   1.801  11.805  0.4604  2.1773 -0.8152
   10MPD2    H2  158   2.370   1.851  11.418 -0.8622  1.0810  0.2843
   10MPD2    H3  159   2.294   1.936  11.625  0.2943  0.2695 -0.0364
   10MPD2     N  160   2.250   1.529  11.807 -0.2619 -0.0093  0.6448
   10MPD2    H5  161   2.221   1.577  11.892 -1.0112 -1.4042  1.1728
   10MPD2    N1  162   2.398   1.574  11.353  0.3567 -1.1730 -1.0418
   10MPD2    H7  163   2.373   1.476  11.349 -1.4393 -0.7838  0.7262
   11TCq1    O1  164   2.670   0.945  14.929 -0.7027  1.2684  0.2898
   11TCq1    C1  165   2.549   1.000  14.945 -0.8153  0.3439  0.6203
   11TCq1    O2  166   2.534   1.120  14.928 -0.3286 -0.2712 -0.2646
   11TCq1    C2  167   2.464   0.894  14.895 -0.5636 -0.3357 -0.1279
   11TCq1    C3  168   2.495   0.769  14.932  0.6879 -0.2273 -0.1709
   11TCq1    C4  169   2.454   0.666  14.856 -0.5223  0.3888 -0.0549
   11TCq1    C5  170   2.380   0.686  14.746  0.1772  0.3215 -0.1473
   11TCq1    C6  171   2.348   0.817  14.714  0.2878 -0.0629  0.2456
   11TCq1    C7  172   2.390   0.920  14.786  0.4681  0.5866 -0.4040
   11TCq1    C8  173   2.284   0.845  14.585 -0.2134  0.2517 -0.1726
   11TCq1    O4  174   2.202   0.941  14.579  0.2522  0.3774  1.0278
   11TCq1    C9  175   2.491   0.539  14.894 -0.5635 -0.0210 -0.1196
   11TCq1    O5  176   2.402   0.450  14.867 -0.1403 -0.4265 -0.3241
   11TCq1    O6  177   2.612   0.520  14.928  0.2527 -0.5752 -0.8389
   11TCq1    H1  178   2.662   0.852  14.901 -0.4862  0.5842  2.4482
   11TCq1    H2  179   2.559   0.744  15.016 -1.4403 -2.0397  0.9180
   11TCq1    H3  180   2.333   0.608  14.687  0.7666  0.7190 -1.1397
   11TCq1    H4  181   2.371   1.021  14.749 -0.9519 -0.0652 -1.4506
   12MPD2     C  182   2.198   0.850  14.294  0.1281 -0.6029 -0.5714
   12MPD2    C1  183   2.291   0.761  14.347  0.2128  0.2135  0.0063
   12MPD2    C2  184   2.360   0.684  14.255 -0.3211  0.1123 -0.4563
   12MPD2    C3  185   2.343   0.705  14.124 -1.0376  0.3269  0.5195
   12MPD2    C4  186   2.244   0.787  14.067 -0.7879  0.3151 -0.6237
   12MPD2    C5  187   2.170   0.859  14.155  0.2165  0.0765 -0.4275
   12MPD2     H  188   2.428   0.609  14.292  0.8497  0.3608 -2.1372
   12MPD2    H1  189   2.219   0.786  13.961 -0.5800 -1.4501 -0.6530
   12MPD2    H2  190   2.138   0.912  14.359  0.5624 -1.3434  0.5332
   12MPD2    H3  191   2.086   0.914  14.113  1.7540  2.6544 -0.0836
   12MPD2     N  192   2.430   0.634  14.036  0.2266  0.5002  0.3279
   12MPD2    H5  193   2.397   0.643  13.940  0.8824 -0.1513  0.0384
   12MPD2    N1  194   2.331   0.761  14.483 -0.1996  0.1776 -0.3399
   12MPD2    H7  195   2.410   0.701  14.507 -1.0322 -0.1957  1.3976
   13TCq1    O1  196   2.885   1.389  11.421  0.1276 -0.1394  0.5378
   13TCq1    C1  197   2.857   1.385  11.287 -0.1694  1.0768  0.0891
   13TCq1    O2  198   2.888   1.461  11.201  0.4419  0.4757  0.0182
   13TCq1    C2  199   2.762   1.275  11.255  0.0143 -0.3232  0.4470
   13TCq1    C3  200   2.753   1.223  11.131 -0.3368 -0.3360  0.1733
   13TCq1    C4  201   2.646   1.150  11.089  0.5294  0.3569  0.6900
   13TCq1    C5  202   2.540   1.135  11.172 -0.3689 -0.6133 -0.7030
   13TCq1    C6  203   2.546   1.190  11.300 -0.1888 -0.5253  0.2988
   13TCq1    C7  204   2.656   1.267  11.343  0.0013  0.1150 -0.3035
   13TCq1    C8  205   2.420   1.204  11.372 -0.4117 -0.5779 -0.5624
   13TCq1    O4  206   2.352   1.306  11.378  0.0308  0.1980 -0.1274
   13TCq1    C9  207   2.629   1.116  10.948  0.6798  0.6813  0.2726
   13TCq1    O5  208   2.515   1.074  10.911 -0.0785 -0.2406 -0.5752
   13TCq1    O6  209   2.719   1.149  10.870 -0.6694 -0.0145  0.0827
   13TCq1    H1  210   2.870   1.301  11.461 -2.8717  0.9366  1.7399
   13TCq1    H2  211   2.824   1.243  11.052 -0.2975 -1.3316 -0.0379
   13TCq1    H3  212   2.460   1.072  11.132 -0.7765 -0.6281  0.1424
   13TCq1    H4  213   2.646   1.317  11.438 -4.1398 -0.8776 -0.2195
   14MPD2     C  214   2.235   0.888  11.409  0.0132 -0.5304 -0.0822
   14MPD2    C1  215   2.251   1.024  11.414  0.5087  0.1642 -0.0112
   14MPD2    C2  216   2.137   1.103  11.434 -0.4921  0.1154  0.7528
   14MPD2    C3  217   2.015   1.041  11.437 -0.0106 -0.2534  0.1562
   14MPD2    C4  218   1.998   0.909  11.436 -0.5087  0.1482 -0.1087
   14MPD2    C5  219   2.112   0.829  11.423 -0.6919  0.4995 -0.1514
   14MPD2     H  220   2.137   1.211  11.440  0.4665  0.1269  0.5169
   14MPD2    H1  221   1.902   0.859  11.437  0.9646 -2.6880 -0.3686
   14MPD2    H2  222   2.323   0.827  11.392  1.3490  0.9857  1.3205
   14MPD2    H3  223   2.106   0.721  11.417  3.1836  0.1956  1.5954
   14MPD2     N  224   1.910   1.138  11.454  0.1823 -0.3898  0.7495
   14MPD2    H5  225   1.930   1.237  11.445  1.2157 -0.7621 -1.0508
   14MPD2    N1  226   2.386   1.074  11.384  0.5928 -0.1586  0.2424
   14MPD2    H7  227   2.454   1.000  11.394  2.6409  1.7983  0.7576
   15TCq1    O1  228   4.605   0.804   1.982 -0.4201 -0.2842 -0.7216
   15TCq1    C1  229   4.648   0.866   1.869  0.0770 -0.4121  0.0149
   15TCq1    O2  230   0.026   0.862   1.833 -0.7099 -0.0077  0.0470
   15TCq1    C2  231   4.532   0.901   1.790 -0.0690  0.6774  0.3682
   15TCq1    C3  232   4.414   0.916   1.854  0.3463  0.5642 -0.0688
   15TCq1    C4  233   4.289   0.896   1.795  0.3256 -0.1056  0.4972
   15TCq1    C5  234   4.291   0.853   1.667  0.5239  0.1066 -0.4606
   15TCq1    C6  235   4.406   0.818   1.602 -0.6283  0.2469  0.6588
   15TCq1    C7  236   4.523   0.842   1.665 -0.8868 -0.1834 -0.4034
   15TCq1    C8  237   4.405   0.729   1.492  0.6176  0.7076 -0.5581
   15TCq1    O4  238   4.493   0.644   1.499  0.1605  0.4658 -0.4031
   15TCq1    C9  239   4.169   0.901   1.873 -0.0521 -0.1482 -0.6763
   15TCq1    O5  240   4.059   0.872   1.814 -0.0088  0.1829 -0.0405
   15TCq1    O6  241   4.183   0.899   2.000 -0.6052  0.1312  0.2760
   15TCq1    H1  242   4.507   0.803   1.988 -0.3653  0.5564  0.1912
   15TCq1    H2  243   4.410   0.977   1.944  0.9865  2.3191 -1.2219
   15TCq1    H3  244   4.192   0.833   1.628 -0.7506  0.2780  2.6755
   15TCq1    H4  245   4.611   0.805   1.614 -1.4611 -0.4881 -1.1736
   16MPD2     C  246   4.221   0.723   1.171  0.1335  0.2073 -0.2670
   16MPD2    C1  247   4.298   0.674   1.274  0.0139  0.2146  1.0298
   16MPD2    C2  248   4.378   0.561   1.251 -0.0815  0.0605 -0.2663
   16MPD2    C3  249   4.373   0.496   1.128  0.0339  0.3345  0.6400
   16MPD2    C4  250   4.296   0.547   1.021 -0.4579 -0.1008  0.6357
   16MPD2    C5  251   4.222   0.665   1.046  0.0104  0.0246 -0.1920
   16MPD2     H  252   4.440   0.520   1.330  0.0209  0.7073 -0.0096
   16MPD2    H1  253   4.281   0.495   0.927 -0.6754  1.8263 -0.4071
   16MPD2    H2  254   4.167   0.817   1.178  0.9395  0.5119  1.9322
   16MPD2    H3  255   4.153   0.706   0.973  0.8733  0.4751 -0.7588
   16MPD2     N  256   4.446   0.378   1.121  0.1236  0.0011  0.5233
   16MPD2    H5  257   4.498   0.357   1.206  0.6621  0.2174  0.2473
   16MPD2    N1  258   4.309   0.756   1.390  0.9109  0.8459 -0.4602
   16MPD2    H7  259   4.243   0.832   1.404  0.6786  0.5397  0.0914
   17TMC1    C1  260   1.265   0.600   9.677  0.8813  0.3573 -0.2594
   17TMC1    C2  261   1.255   0.581   9.813 -0.6579  0.1019 -0.1963
   17TMC1    C3  262   1.167   0.482   9.853  0.5075  0.3337 -0.8647
   17TMC1    C4  263   1.181   0.534   9.594 -0.4633  0.2751  0.5190
   17TMC1    C5  264   1.097   0.435   9.637 -0.0795 -0.4757  0.3702
   17TMC1    C6  265   1.096   0.400   9.767  0.1388 -0.2394  0.0023
   17TMC1     C  266   1.364   0.689   9.615  0.3089  0.1618 -0.1425
   17TMC1     O  267   1.342   0.708   9.496  0.8223  0.1134 -0.2489
   17TMC1     H  268   1.314   0.631   9.889 -0.4481 -0.4390  0.0041
   17TMC1    H1  269   1.197   0.540   9.487 -1.5091  0.0218  0.3516
   17TMC1    H2  270   1.026   0.323   9.800 -1.4419  0.8389 -0.8267
   17TMC1    C7  271   1.022   0.354   9.549  0.3696  0.1900 -0.4094
   17TMC1    C8  272   1.148   0.456   9.994 -0.2028  0.3091 -0.0537
   17TMC1    O1  273   0.955   0.257   9.590  0.5384  0.0594  0.0402
   17TMC1    O2  274   1.036   0.432  10.038 -0.3652 -0.2693  0.7315
   17TMC1    O3  275   1.007   0.412   9.427  0.0532  0.1536  0.1541
   17TMC1    H3  276   1.026   0.508   9.427 -1.0528  0.3670  1.9371
   17TMC1    O5  277   1.262   0.465  10.062  0.6972 -0.8832  0.4245
   17TMC1    H5  278   1.341   0.436  10.012  2.0059  2.7132  0.3508
   18MPD2     C  279   1.593   0.863   9.537  0.0448  0.5981  0.1236
   18MPD2    C1  280   1.579   0.796   9.664  0.1964  0.8188 -0.6661
   18MPD2    C2  281   1.692   0.798   9.748 -0.6252  0.4056  0.3950
   18MPD2    C3  282   1.809   0.862   9.720 -0.2628  0.2565  0.6435
   18MPD2    C4  283   1.813   0.927   9.598  0.3096 -0.2800 -0.7878
   18MPD2    C5  284   1.707   0.937   9.510  0.3708 -0.4494  0.1599
   18MPD2     H  285   1.696   0.733   9.835  2.2946 -0.0979 -0.1139
   18MPD2    H1  286   1.906   0.980   9.576  0.5142 -1.1354 -1.9894
   18MPD2    H2  287   1.508   0.871   9.471  1.9845  1.0047 -2.3632
   18MPD2    H3  288   1.716   0.994   9.418 -1.4479  0.3173  0.4504
   18MPD2     N  289   1.922   0.870   9.808 -0.0151  0.3335  0.3390
   18MPD2    H5  290   2.009   0.916   9.784  0.4482 -0.7492 -0.0422
   18MPD2    N1  291   1.463   0.721   9.705 -0.5850  0.8257 -0.7115
   18MPD2    H7  292   1.467   0.688   9.801  1.5051  1.2340 -0.6606
   19TMC2    C1  293   3.915   0.865  14.381 -0.8201  0.5508  0.0855
   19TMC2    C2  294   3.842   0.961  14.317 -0.0457  0.1383  0.4066
   19TMC2    C3  295   3.716   0.931  14.281  0.5321  0.3469 -0.3836
   19TMC2    C4  296   3.866   0.740  14.402 -0.3571  0.4800  0.2042
   19TMC2    C5  297   3.737   0.711  14.353  0.0934  0.2051 -0.2059
   19TMC2    C6  298   3.657   0.811  14.297  0.8591 -1.1343 -0.2980
   19TMC2     C  299   4.051   0.903  14.421 -0.2970 -0.6526 -0.0656
   19TMC2     O  300   4.078   1.020  14.414  0.0774 -0.1246  0.1978
   19TMC2     H  301   3.865   1.067  14.317  1.6560 -0.2244 -0.3076
   19TMC2    H1  302   3.925   0.669  14.459 -0.5242  0.0995 -0.0951
   19TMC2    H2  303   3.562   0.780  14.256  0.9028 -1.2835 -0.2844
   19TMC2    C7  304   3.699   0.573  14.354 -0.5537 -0.0168  0.7235
   19TMC2    C8  305   3.640   1.028  14.213  0.4057  0.4235 -0.2684
   19TMC2    O1  306   3.777   0.483  14.383 -0.2377  0.2842 -0.4848
   19TMC2    O2  307   3.528   0.992  14.181 -0.3970  0.4180  0.1621
   19TMC2    O5  308   3.709   1.110  14.133  0.4130 -0.8163  0.0962
   19TMC2    H5  309   3.807   1.103  14.140  0.6004  1.5189  0.0995
   20MPD2     C  310   4.290   0.958  14.578 -0.1787  0.0831 -0.2685
   20MPD2    C1  311   4.259   0.833  14.529 -0.1109  0.5294  0.5026
   20MPD2    C2  312   4.356   0.727  14.542  0.4276  0.2062  0.0615
   20MPD2    C3  313   4.477   0.753  14.595  0.0748 -0.2048  0.0401
   20MPD2    C4  314   4.505   0.884  14.632  0.3829 -0.0352  0.4706
   20MPD2    C5  315   4.414   0.984  14.630 -0.4097 -0.0147 -0.2599
   20MPD2     H  316   4.320   0.625  14.530 -0.2386  0.5590 -1.0016
   20MPD2    H1  317   4.609   0.911  14.649  0.7346 -0.7885 -0.4856
   20MPD2    H2  318   4.216   1.036  14.596 -0.0086 -0.1186  1.3260
   20MPD2    H3  319   4.442   1.086  14.654 -1.7871  0.0139  1.2180
   20MPD2     N  320   4.584   0.665  14.602 -0.3230 -0.1642 -0.0828
   20MPD2    H5  321   4.668   0.701  14.648  0.2158 -2.0916  0.4369
   20MPD2    N1  322   4.134   0.802  14.467  0.9525 -0.7861 -0.0739
   20MPD2    H7  323   4.111   0.704  14.452 -1.5564 -0.0281 -1.0731
   21TMC2    C1  324   1.806   1.048  14.521  0.3712  0.1099 -0.3725
   21TMC2    C2  325   1.892   0.991  14.607 -0.3532 -0.0537 -0.0448
   21TMC2    C3  326   1.899   1.036  14.734  0.7346 -0.7787 -0.7974
   21TMC2    C4  327   1.715   1.142  14.559  0.2828  0.2296  0.1192
   21TMC2    C5  328   1.719   1.193  14.690  0.0018  1.1752  0.3220
   21TMC2    C6  329   1.815   1.136  14.776 -0.4929 -0.2472 -0.1527
   21TMC2     C  330   1.835   1.036  14.381  0.8919  0.0168 -0.2000
   21TMC2     O  331   1.861   0.928  14.338 -0.0991  0.0579 -0.4915
   21TMC2     H  332   1.965   0.920  14.573 -0.6815 -0.9263  1.0876
   21TMC2    H1  333   1.659   1.190  14.479 -2.8952 -1.1985  1.4903
   21TMC2    H2  334   1.819   1.174  14.878 -0.5954  0.5999 -0.4601
   21TMC2    C7  335   1.685   1.330  14.707  0.3518 -0.0532  0.9460
   21TMC2    C8  336   1.935   0.946  14.838  0.3689  0.0938  0.0151
   21TMC2    O1  337   1.734   1.383  14.807 -0.2711  0.2748 -0.3145
   21TMC2    O2  338   2.030   0.870  14.824  0.4461  0.4736  0.1249
   21TMC2    O5  339   1.819   0.912  14.900  0.5095 -0.0371  0.2827
   21TMC2    H5  340   1.737   0.950  14.863 -0.5232 -2.0285  0.5608
   22MPD2     C  341   1.964   1.538  14.420  0.1357 -0.3092 -0.0632
   22MPD2    C1  342   1.991   1.435  14.511 -0.5987  0.5276 -0.0235
   22MPD2    C2  343   1.957   1.309  14.467 -0.0955  0.1745 -0.1546
   22MPD2    C3  344   1.887   1.283  14.345 -0.5295 -0.3300  0.4629
   22MPD2    C4  345   1.855   1.391  14.265 -0.2090  0.4591 -0.1829
   22MPD2    C5  346   1.893   1.516  14.300 -0.5464  0.0619  0.0910
   22MPD2     H  347   1.969   1.231  14.542  0.1762 -0.3782 -0.7750
   22MPD2    H1  348   1.805   1.386  14.169  0.1808 -1.6115 -0.2628
   22MPD2    H2  349   1.984   1.643  14.441 -0.5593  0.0029 -0.9454
   22MPD2    H3  350   1.845   1.594  14.242 -0.9626 -1.2650 -1.3488
   22MPD2     N  351   1.835   1.157  14.310 -0.4394 -0.0474 -0.3568
   22MPD2    H5  352   1.785   1.156  14.222 -2.3404  1.3418  0.7056
   22MPD2    N1  353   2.044   1.445  14.636 -0.9069  0.1593  0.2964
   22MPD2    H7  354   2.065   1.362  14.690  0.8293 -0.0059 -0.6187
   23TMC2    C1  355   2.720   2.104  14.357  1.0236 -0.2088  0.9323
   23TMC2    C2  356   2.706   2.182  14.243  0.7469 -0.4274  1.1148
   23TMC2    C3  357   2.582   2.216  14.197 -0.9800 -0.2461 -0.4943
   23TMC2    C4  358   2.617   2.078  14.440 -0.1349 -0.0155 -0.3258
   23TMC2    C5  359   2.492   2.109  14.390  0.4604  0.5791 -0.1883
   23TMC2    C6  360   2.469   2.180  14.277  0.4469 -0.0805 -0.3163
   23TMC2     C  361   2.852   2.089  14.411  0.1662  0.7900  0.3885
   23TMC2     O  362   2.864   2.057  14.529 -0.1298 -0.1034 -0.0852
   23TMC2     H  363   2.793   2.206  14.183 -0.8614 -0.8484 -1.3417
   23TMC2    H1  364   2.637   2.035  14.537  0.8070 -0.8420 -0.8829
   23TMC2    H2  365   2.377   2.172  14.221  0.4523  0.0197 -0.3398
   23TMC2    C7  366   2.381   2.056  14.476 -0.0771 -0.0786  0.6396
   23TMC2    C8  367   2.573   2.298  14.076 -0.2449  0.5295  0.9605
   23TMC2    O1  368   2.407   1.961  14.548  0.4849 -0.2212 -0.1340
   23TMC2    O2  369   2.666   2.340  14.006 -0.3152  0.2505 -0.3987
   23TMC2    O5  370   2.450   2.360  14.091  0.0227  0.1218  0.8606
   23TMC2    H5  371   2.384   2.327  14.156 -0.2936 -0.5169  0.2141
   24MPD2     C  372   3.369   2.029  14.382 -0.7176 -0.0230 -0.2243
   24MPD2    C1  373   3.280   1.999  14.481 -0.2488  0.8058 -0.6752
   24MPD2    C2  374   3.146   2.023  14.462  0.4017  0.7653  0.1096
   24MPD2    C3  375   3.092   2.081  14.344 -0.0557  0.9501 -0.4925
   24MPD2    C4  376   3.181   2.103  14.245 -0.0118  0.3211  0.4021
   24MPD2    C5  377   3.314   2.074  14.261 -0.4691 -0.0600 -0.0634
   24MPD2     H  378   3.080   1.997  14.544  0.0970  0.3131 -0.2822
   24MPD2    H1  379   3.159   2.137  14.145 -0.4166 -1.6599 -0.1882
   24MPD2    H2  380   3.476   2.024  14.392 -0.7066  1.1792  0.3393
   24MPD2    H3  381   3.389   2.089  14.184 -1.6885 -0.2316 -1.3014
   24MPD2     N  382   2.956   2.095  14.323  0.7154 -0.1558 -0.4345
   24MPD2    H5  383   2.934   2.115  14.226 -2.1200 -0.7397  0.0865
   24MPD2    N1  384   3.333   1.951  14.607  0.4325 -0.0138 -0.4788
   24MPD2    H7  385   3.278   1.955  14.692 -0.5778 -0.9464 -1.0968
   25TMC2    C1  386   2.175   0.003  11.747  0.4641  0.3974 -0.5706
   25TMC2    C2  387   2.247   4.673  11.653  0.9513  0.9929 -0.6435
   25TMC2    C3  388   2.323   4.564  11.700 -0.6224 -0.2107  0.3840
   25TMC2    C4  389   2.148   4.700  11.872  0.3856  0.7455 -0.7958
   25TMC2    C5  390   2.206   4.584  11.908  0.2126 -0.4337 -0.4144
   25TMC2    C6  391   2.286   4.516  11.826 -0.2125  0.4112 -0.3869
   25TMC2     C  392   2.081   0.093  11.694 -0.0411 -0.8359 -0.1878
   25TMC2     O  393   2.063   0.198  11.752 -0.0570 -0.0013 -0.9323
   25TMC2     H  394   2.265   4.717  11.555 -1.2778 -2.2428 -2.5055
   25TMC2    H1  395   2.072   0.019  11.924  1.3118  3.0448 -1.9522
   25TMC2    H2  396   2.331   4.420  11.848  1.0242  1.1222  0.1762
   25TMC2    C7  397   2.182   4.539  12.039  0.0058 -0.6887 -0.2256
   25TMC2    C8  398   2.375   4.469  11.605 -0.5334  0.6499 -0.9420
   25TMC2    O1  399   2.084   4.585  12.100  0.3564  0.6661 -0.7395
   25TMC2    O2  400   2.356   4.347  11.605 -0.4429  0.2885 -0.1345
   25TMC2    O5  401   2.486   4.520  11.554  0.0153 -0.0688 -0.0766
   25TMC2    H5  402   2.511   4.599  11.605  0.7648 -0.2950 -0.0934
   26MPD2     C  403   1.681   0.219  11.415 -0.0576 -0.0592 -0.0181
   26MPD2    C1  404   1.692   0.091  11.403 -0.2526 -0.1119  0.2336
   26MPD2    C2  405   1.808   0.028  11.452  0.0231 -0.5097  0.3347
   26MPD2    C3  406   1.903   0.107  11.526  0.2913 -0.0088 -0.7800
   26MPD2    C4  407   1.890   0.242  11.527  0.2501  0.1113  0.3628
   26MPD2    C5  408   1.781   0.299  11.471  0.8709  0.2467  0.1046
   26MPD2     H  409   1.822   4.661  11.434 -1.9428 -0.5340 -1.1711
   26MPD2    H1  410   1.967   0.307  11.568  0.6609  0.0787 -0.3599
   26MPD2    H2  411   1.595   0.273  11.378  0.3077  0.1372 -0.5769
   26MPD2    H3  412   1.771   0.407  11.471  0.1348  0.1845  1.1541
   26MPD2     N  413   2.007   0.039  11.595 -0.2255  0.4920  0.2810
   26MPD2    H5  414   2.024   4.678  11.583  1.3679  0.6641  1.1339
   26MPD2    N1  415   1.587   0.013  11.340 -0.2755 -0.6492 -0.2197
   26MPD2    H7  416   1.505   0.069  11.321  1.7717  1.3090 -3.2335
   27TMC2    C1  417   1.013   2.529  12.132 -0.9640  0.3375  0.7246
   27TMC2    C2  418   1.141   2.567  12.093 -0.0690  0.3462 -0.2348
   27TMC2    C3  419   1.242   2.548  12.182 -0.4573 -0.3471  0.7605
   27TMC2    C4  420   0.986   2.485  12.257  0.2534  0.2740 -0.0440
   27TMC2    C5  421   1.089   2.467  12.339 -0.5403 -0.0310  0.2869
   27TMC2    C6  422   1.217   2.495  12.302  0.7345 -0.3979 -0.2560
   27TMC2     C  423   0.914   2.500  12.030 -0.4598 -0.2710 -0.2100
   27TMC2     O  424   0.963   2.476  11.920 -0.4246  0.3023  0.3849
   27TMC2     H  425   1.156   2.591  11.988  0.6579 -0.7529 -0.3827
   27TMC2    H1  426   0.891   2.437  12.279 -0.5149  1.6100 -0.4184
   27TMC2    H2  427   1.300   2.491  12.371 -0.6208 -0.5504  1.3633
   27TMC2    C7  428   1.058   2.405  12.464  0.0625  0.1012  0.5213
   27TMC2    C8  429   1.381   2.558  12.144 -0.1729 -0.2842 -0.1647
   27TMC2    O1  430   0.941   2.403  12.503  0.3168 -0.6849  0.0057
   27TMC2    O2  431   1.468   2.488  12.194 -0.2256 -0.5020 -0.1502
   27TMC2    O5  432   1.401   2.682  12.104  0.1003 -0.2357  0.4782
   27TMC2    H5  433   1.327   2.724  12.054  0.1983  0.7082  1.1297
   28MPD2     C  434   0.468   2.276  11.896  0.3966  0.0697  0.9376
   28MPD2    C1  435   0.453   2.338  12.016  0.3162 -0.1731  0.5509
   28MPD2    C2  436   0.554   2.414  12.066  0.4364  0.1502 -0.2379
   28MPD2    C3  437   0.678   2.429  12.006  0.3635 -0.0239  0.2409
   28MPD2    C4  438   0.689   2.367  11.882  0.4513  0.0053  0.4760
   28MPD2    C5  439   0.589   2.289  11.831  0.7636  0.1740 -0.0380
   28MPD2     H  440   0.555   2.448  12.169 -0.0239  0.8940 -0.4795
   28MPD2    H1  441   0.785   2.375  11.833  0.6577 -1.6954  0.6119
   28MPD2    H2  442   0.396   2.210  11.850  1.3965 -1.2336  1.2280
   28MPD2    H3  443   0.608   2.233  11.741  0.8774 -0.4195  0.3569
   28MPD2     N  444   0.783   2.482  12.081  0.2124  0.2143  0.6240
   28MPD2    H5  445   0.769   2.514  12.176 -1.4466 -0.5804  0.6511
   28MPD2    N1  446   0.325   2.328  12.071  0.0266 -0.3415 -0.1125
   28MPD2    H7  447   0.250   2.297  12.011 -0.9891 -0.7290  1.3715
   29TMC2    C1  448   0.329   4.341  14.477  0.4943  0.6829 -0.4724
   29TMC2    C2  449   0.369   4.335  14.604 -0.2007 -0.7002 -0.3899
   29TMC2    C3  450   0.390   4.456  14.662  0.4347  0.1636  0.2545
   29TMC2    C4  451   0.294   4.456  14.411  0.1739  0.2697 -0.7568
   29TMC2    C5  452   0.309   4.572  14.479  0.0612 -0.0121  0.1907
   29TMC2    C6  453   0.360   4.577  14.601 -0.9712 -0.3244 -0.0537
   29TMC2     C  454   0.289   4.218  14.410 -1.0071  0.4864  0.0612
   29TMC2     O  455   0.360   4.121  14.423 -0.6369 -0.3330 -0.5439
   29TMC2     H  456   0.384   4.235  14.643 -1.3190 -0.6995  0.0316
   29TMC2    H1  457   0.279   4.471  14.305 -0.5719  3.5563 -0.1753
   29TMC2    H2  458   0.378   4.667  14.658 -1.2164 -0.7229  0.6631
   29TMC2    C7  459   0.294   4.700  14.410  0.7399  0.0241 -0.8896
   29TMC2    C8  460   0.433   4.470  14.796 -0.1738 -0.5006  0.0590
   29TMC2    O1  461   0.201   4.706  14.334 -0.3716 -0.0775  0.3386
   29TMC2    O2  462   0.471   4.571  14.853  0.2183 -0.0368  0.3945
   29TMC2    O5  463   0.419   4.354  14.853  0.0757 -0.4159 -0.4535
   29TMC2    H5  464   0.363   4.286  14.809 -1.5884  1.3577 -1.0692
   30MPD2     C  465   4.719   3.942  14.075 -0.4573  0.3557 -0.1760
   30MPD2    C1  466   0.118   3.925  14.110 -0.2385 -0.6242  0.0202
   30MPD2    C2  467   0.175   4.016  14.204  0.8094 -0.0468 -0.2275
   30MPD2    C3  468   0.115   4.132  14.248 -0.2290 -0.7763 -0.4315
   30MPD2    C4  469   4.722   4.146  14.208  0.3580 -0.4537 -1.2711
   30MPD2    C5  470   4.655   4.056  14.119  0.3307 -0.2723 -0.4862
   30MPD2     H  471   0.279   3.990  14.222  1.0642  2.5947  2.1435
   30MPD2    H1  472   4.670   4.236  14.238  0.5759 -0.7186 -0.1176
   30MPD2    H2  473   4.673   3.880  13.999  3.2584 -0.8608 -1.4346
   30MPD2    H3  474   4.551   4.064  14.087  0.2942 -1.1043 -0.5933
   30MPD2     N  475   0.181   4.232  14.328  0.1571  0.1754 -0.6249
   30MPD2    H5  476   0.129   4.319  14.330  1.6512  0.9978  2.5919
   30MPD2    N1  477   0.193   3.812  14.065 -0.2702 -0.1402 -0.0608
   30MPD2    H7  478   0.286   3.805  14.106  0.5396  0.9377 -1.7455
   31TMC2    C1  479   2.937   3.008  15.735 -0.7716 -0.2225  0.0379
   31TMC2    C2  480   2.816   3.054  15.785 -0.0713  1.0429 -0.3613
   31TMC2    C3  481   2.798   3.043  15.920  0.0870 -0.6779  0.2018
   31TMC2    C4  482   3.030   2.959  15.825  0.1177 -0.1935  0.0547
   31TMC2    C5  483   3.001   2.946  15.959  0.1719 -0.1232  0.0019
   31TMC2    C6  484   2.884   2.988  16.013 -0.6772 -0.0007  0.9450
   31TMC2     C  485   2.971   3.013  15.592 -0.6231  0.6006 -1.1469
   31TMC2     O  486   2.896   3.088  15.530  0.1084 -0.2853  0.3360
   31TMC2     H  487   2.743   3.082  15.710 -0.9150  0.5954  0.2910
   31TMC2    H1  488   3.129   2.940  15.786 -0.1069 -0.6594 -0.2904
   31TMC2    H2  489   2.844   2.967  16.112 -0.1339 -1.0340  0.9457
   31TMC2    C7  490   3.080   2.850  16.026 -0.1860  0.5550  0.3119
   31TMC2    C8  491   2.694   3.127  15.975 -0.1933 -0.7701  0.2530
   31TMC2    O1  492   3.136   2.768  15.955  0.2537  0.4472 -0.3026
   31TMC2    O2  493   2.651   3.093  16.086 -0.0999  0.2198 -0.0232
   31TMC2    O5  494   2.615   3.165  15.875 -0.6337  0.3896  0.2545
   31TMC2    H5  495   2.519   3.157  15.891 -0.5073  0.3814  1.0083
   32MPD2     C  496   3.283   3.026  15.183  0.6036  0.3694 -0.5773
   32MPD2    C1  497   3.171   3.102  15.208  0.5395  0.0698  0.9777
   32MPD2    C2  498   3.097   3.074  15.326  0.5118  0.0548  0.4246
   32MPD2    C3  499   3.151   2.982  15.418  0.3316  0.3903  0.7821
   32MPD2    C4  500   3.276   2.926  15.397  0.1034  0.1502  0.3594
   32MPD2    C5  501   3.339   2.946  15.277 -0.0647 -0.5174  0.2780
   32MPD2     H  502   2.998   3.114  15.345 -0.0525 -0.8829 -0.5747
   32MPD2    H1  503   3.327   2.873  15.477 -0.4377 -1.5815 -0.4266
   32MPD2    H2  504   3.336   3.034  15.088  0.4257  1.8882 -0.5494
   32MPD2    H3  505   3.436   2.899  15.261  1.1982  2.1256  0.2298
   32MPD2     N  506   3.096   2.963  15.549  0.2322 -0.1624  0.6083
   32MPD2    H5  507   3.145   2.911  15.621 -0.3186 -1.3935  0.0854
   32MPD2    N1  508   3.118   3.176  15.106  0.4087  0.3449 -0.4022
   32MPD2    H7  509   3.179   3.190  15.027  1.0371  0.3224  0.0793
   33TMC2    C1  510   2.591   1.737   9.794 -0.4478 -0.3233  0.6189
   33TMC2    C2  511   2.506   1.680   9.701 -0.6334  0.6651  0.1540
   33TMC2    C3  512   2.527   1.727   9.574  0.1472  0.2012 -0.2007
   33TMC2    C4  513   2.684   1.833   9.761  0.1100 -0.0397  0.2906
   33TMC2    C5  514   2.681   1.886   9.638  0.6489  0.3127  0.3657
   33TMC2    C6  515   2.598   1.838   9.539  0.0769 -0.1571 -0.1787
   33TMC2     C  516   2.603   1.690   9.932  0.3380  0.0778  0.0346
   33TMC2     O  517   2.687   1.738  10.008 -0.5583  0.3229  0.5301
   33TMC2     H  518   2.422   1.618   9.729 -1.3995  0.8177 -1.7872
   33TMC2    H1  519   2.758   1.869   9.832 -0.3560 -1.8298  1.6868
   33TMC2    H2  520   2.594   1.878   9.438  1.6643 -0.5410 -0.4006
   33TMC2    C7  521   2.777   1.986   9.600  0.1247  0.2666  0.3259
   33TMC2    C8  522   2.448   1.658   9.475  0.2074  0.4964  0.3281
   33TMC2    O1  523   2.861   2.022   9.682  0.1688 -0.2564  0.3450
   33TMC2    O2  524   2.336   1.612   9.502 -0.0509  0.2792 -0.0518
   33TMC2    O5  525   2.525   1.625   9.368 -0.0695  0.0820  0.6305
   33TMC2    H5  526   2.618   1.656   9.371  0.1137 -0.4008 -0.0460
   34MPD2     C  527   2.476   1.349  10.303 -0.0770 -0.0754 -0.8933
   34MPD2    C1  528   2.419   1.301  10.182  0.3223 -0.5285  0.4519
   34MPD2    C2  529   2.449   1.380  10.070  0.0996 -0.1672 -0.3786
   34MPD2    C3  530   2.521   1.495  10.075 -0.5291 -0.0103  0.5703
   34MPD2    C4  531   2.594   1.520  10.187 -0.6366 -0.6771  0.0277
   34MPD2    C5  532   2.574   1.446  10.300 -0.4300 -0.1300 -0.3343
   34MPD2     H  533   2.405   1.353   9.975  0.0748 -0.6483 -0.2338
   34MPD2    H1  534   2.653   1.612  10.187 -1.6400 -0.0288  0.6037
   34MPD2    H2  535   2.452   1.301  10.397 -4.5459  2.4864 -0.7320
   34MPD2    H3  536   2.610   1.467  10.400  0.8326  2.4214 -1.3358
   34MPD2     N  537   2.526   1.576   9.957 -0.1181  0.1772 -0.5582
   34MPD2    H5  538   2.469   1.543   9.880 -1.8576 -1.5330  1.4287
   34MPD2    N1  539   2.329   1.188  10.174  0.0579  0.6211  0.4873
   34MPD2    H7  540   2.304   1.157  10.268  2.1654  0.6247  1.0420
   35TMC2    C1  541   3.232   2.309  11.545  0.0390  0.4630  0.4738
   35TMC2    C2  542   3.128   2.393  11.518 -0.4860 -0.3195 -0.3739
   35TMC2    C3  543   3.000   2.352  11.568  0.4146 -0.0399 -0.2027
   35TMC2    C4  544   3.200   2.181  11.582 -0.2127  0.1167  0.4772
   35TMC2    C5  545   3.074   2.141  11.619 -0.5748 -0.6415  0.6399
   35TMC2    C6  546   2.971   2.230  11.614 -0.1402 -0.2737  0.1196
   35TMC2     C  547   3.366   2.360  11.540  0.3781  0.4307 -0.3317
   35TMC2     O  548   3.378   2.481  11.530  1.0036  0.1115 -0.0916
   35TMC2     H  549   3.144   2.498  11.497 -2.9465  0.5311  1.9043
   35TMC2    H1  550   3.284   2.113  11.593 -0.7771 -0.6015  0.4077
   35TMC2    H2  551   2.869   2.215  11.648  0.3420 -1.6085  0.9805
   35TMC2    C7  552   3.055   2.011  11.673 -0.3552  0.7016 -0.3681
   35TMC2    C8  553   2.897   2.446  11.604 -0.6381 -0.0009 -0.0566
   35TMC2    O1  554   3.154   1.955  11.715 -0.4594  0.1214  0.0414
   35TMC2    O2  555   2.816   2.427  11.694  0.2869 -0.3883 -0.6510
   35TMC2    O5  556   2.923   2.567  11.552 -0.3875 -0.0587 -0.3241
   35TMC2    H5  557   2.975   2.573  11.469 -1.6857 -1.7348 -1.2699
   36MPD2     C  558   3.880   2.317  11.573  0.5578 -0.9078 -0.0849
   36MPD2    C1  559   3.828   2.192  11.594  0.5383  0.7579 -0.6783
   36MPD2    C2  560   3.690   2.184  11.600  0.4872 -0.0132 -0.0373
   36MPD2    C3  561   3.607   2.295  11.589 -0.2277  0.1584 -0.3677
   36MPD2    C4  562   3.660   2.421  11.580  0.5193  0.5817  0.9874
   36MPD2    C5  563   3.802   2.435  11.569 -0.5951  0.5815  1.0559
   36MPD2     H  564   3.643   2.087  11.611  0.8764 -0.3466 -1.3216
   36MPD2    H1  565   3.602   2.512  11.576 -1.7770 -0.8719  1.0767
   36MPD2    H2  566   3.985   2.343  11.573  0.5989 -1.0464  1.3811
   36MPD2    H3  567   3.844   2.535  11.567 -2.9337  1.5871  2.9422
   36MPD2     N  568   3.463   2.266  11.566 -0.2001  0.0041 -0.1003
   36MPD2    H5  569   3.435   2.170  11.581  4.1390 -1.2687  0.0576
   36MPD2    N1  570   3.924   2.085  11.609  0.1770 -1.1033 -0.7676
   36MPD2    H7  571   4.015   2.123  11.634 -0.0330 -1.0719 -0.0583
   37TMC2    C1  572   1.703   2.515  11.944 -0.5883 -0.3933  0.2107
   37TMC2    C2  573   1.583   2.493  11.888  0.1591  0.8618 -0.3881
   37TMC2    C3  574   1.551   2.570  11.779 -0.1846 -0.3698  0.9198
   37TMC2    C4  575   1.803   2.596  11.895  0.3006 -0.2954  0.5316
   37TMC2    C5  576   1.768   2.671  11.791  0.0374  0.1380 -0.0660
   37TMC2    C6  577   1.638   2.665  11.735 -0.6625 -0.3290  0.0160
   37TMC2     C  578   1.741   2.449  12.067  0.2525 -2.0198 -0.1996
   37TMC2     O  579   1.833   2.499  12.124  0.1529 -0.3207  0.0283
   37TMC2     H  580   1.493   2.452  11.933  0.9561  0.9306  1.2355
   37TMC2    H1  581   1.902   2.604  11.937  1.3037 -2.6031 -1.3731
   37TMC2    H2  582   1.601   2.751  11.680 -2.1638 -0.9913 -0.0142
   37TMC2    C7  583   1.872   2.742  11.726 -0.6124  0.3690 -0.7262
   37TMC2    C8  584   1.409   2.578  11.747 -0.2661  0.3806 -0.4686
   37TMC2    O1  585   1.982   2.738  11.778  0.2938 -0.0684 -0.5824
   37TMC2    O2  586   1.322   2.540  11.826 -0.0581  0.1427 -0.0107
   37TMC2    O5  587   1.377   2.639  11.636 -0.0812 -0.2002 -0.1281
   37TMC2    H5  588   1.447   2.615  11.573 -1.7231  0.9234 -2.3767
   38MPD2     C  589   1.710   2.154  12.477 -0.1233 -0.1560  0.2216
   38MPD2    C1  590   1.687   2.077  12.365  0.4849 -0.1083 -0.1856
   38MPD2    C2  591   1.683   2.130  12.238  0.0875 -0.0441 -0.2781
   38MPD2    C3  592   1.710   2.264  12.220  0.1041 -0.2659  0.0839
   38MPD2    C4  593   1.726   2.343  12.336  0.5594  0.0365  0.1163
   38MPD2    C5  594   1.723   2.290  12.455 -0.1031  0.3272 -0.6256
   38MPD2     H  595   1.653   2.071  12.152  1.8016 -0.3551 -0.6594
   38MPD2    H1  596   1.731   2.451  12.331  1.2124 -0.0779 -1.7861
   38MPD2    H2  597   1.710   2.122  12.580  0.1108 -0.9877 -0.0278
   38MPD2    H3  598   1.755   2.350  12.539 -0.5587  0.8319 -0.8092
   38MPD2     N  599   1.696   2.322  12.091  0.3431  0.5344  0.3314
   38MPD2    H5  600   1.630   2.286  12.023 -1.5119  2.6985  1.0097
   38MPD2    N1  601   1.663   1.933  12.366 -0.1546  0.1804 -0.6216
   38MPD2    H7  602   1.689   1.877  12.285  3.1554 -0.9360  1.2210
   39TMC2    C1  603   4.200   0.415   1.542 -0.4532  0.0548 -0.7202
   39TMC2    C2  604   4.083   0.476   1.584  0.6478  0.3214 -0.4522
   39TMC2    C3  605   4.086   0.532   1.712  1.1742 -1.0654  0.2521
   39TMC2    C4  606   4.312   0.426   1.619  0.1807  0.0345 -0.0974
   39TMC2    C5  607   4.315   0.502   1.732  0.2870 -0.5337  0.1314
   39TMC2    C6  608   4.201   0.553   1.791 -0.1928  0.0204  0.8062
   39TMC2     C  609   4.185   0.314   1.435 -0.0275 -0.0738 -0.3062
   39TMC2     O  610   4.075   0.305   1.386 -0.6732  0.2940 -0.0859
   39TMC2     H  611   3.989   0.464   1.533 -0.4188 -1.0776  1.8601
   39TMC2    H1  612   4.402   0.380   1.578  0.3455 -0.7305  1.1224
   39TMC2    H2  613   4.191   0.587   1.893  0.7074  0.5350  0.7163
   39TMC2    C7  614   4.435   0.512   1.812  0.4198 -0.2518 -0.2319
   39TMC2    C8  615   3.963   0.524   1.779  0.3633  0.1917 -0.0157
   39TMC2    O1  616   4.431   0.536   1.932  0.0918  0.2797 -0.4437
   39TMC2    O2  617   3.903   0.419   1.770 -0.4595 -0.0526 -0.3011
   39TMC2    O5  618   3.912   0.654   1.799  0.7503  0.4880  0.0975
   39TMC2    H5  619   3.983   0.718   1.817  0.0800  1.8197 -2.0363
   40MPD2     C  620   4.376   0.013   1.344 -1.2168  0.5167 -0.1717
   40MPD2    C1  621   4.284   0.114   1.328  0.1579  0.2689  0.6467
   40MPD2    C2  622   4.195   0.107   1.224 -0.5029  0.3555  0.5819
   40MPD2    C3  623   4.190   4.736   1.141 -0.0504 -0.2904 -0.2236
   40MPD2    C4  624   4.282   4.640   1.154  0.5120  0.5514 -0.2485
   40MPD2    C5  625   4.373   4.649   1.254 -0.1133  0.7095 -0.9596
   40MPD2     H  626   4.125   0.188   1.207  0.7143  1.1181 -0.7710
   40MPD2    H1  627   4.272   4.549   1.095  3.8325  0.9776 -1.4641
   40MPD2    H2  628   4.449   0.005   1.424 -0.1608 -0.0040 -1.2010
   40MPD2    H3  629   4.424   4.554   1.271  0.4577  0.9283 -1.4312
   40MPD2     N  630   4.096   4.714   1.036  0.2199 -0.0394 -0.3537
   40MPD2    H5  631   4.120   4.637   0.974  0.7676  0.8068 -1.1879
   40MPD2    N1  632   4.287   0.224   1.422  0.5010 -0.5725  0.1454
   40MPD2    H7  633   4.366   0.223   1.486  0.2457  0.1425  0.4768
   41TMC2    C1  634   4.293   2.409  13.632  0.0516 -0.2735 -0.1797
   41TMC2    C2  635   4.406   2.440  13.554 -0.1126 -0.2200 -0.1953
   41TMC2    C3  636   4.393   2.438  13.421 -0.2067  0.4024  0.5726
   41TMC2    C4  637   4.175   2.384  13.566 -0.2071  0.2056  0.3228
   41TMC2    C5  638   4.169   2.371  13.427 -0.3131  0.5057 -0.1499
   41TMC2    C6  639   4.276   2.402  13.353 -1.0830  0.3131  0.1942
   41TMC2     C  640   4.307   2.324  13.751  0.0519 -0.5566  0.1215
   41TMC2     O  641   4.414   2.257  13.746 -0.9490  0.6619  0.4024
   41TMC2     H  642   4.505   2.453  13.596 -0.1832  0.4317 -0.2438
   41TMC2    H1  643   4.087   2.351  13.622  0.6168 -1.8861  0.3941
   41TMC2    H2  644   4.280   2.383  13.246  2.0131 -0.0154  0.3553
   41TMC2    C7  645   4.050   2.310  13.368 -0.5132 -0.2035  0.2329
   41TMC2    C8  646   4.513   2.489  13.352  0.2409 -0.2444  0.8936
   41TMC2    O1  647   3.984   2.248  13.450 -0.3070  0.0561  0.2442
   41TMC2    O2  648   4.621   2.491  13.406  0.4316  0.1123 -0.0273
   41TMC2    O5  649   4.482   2.555  13.244  0.1257  0.3679 -0.1500
   41TMC2    H5  650   4.388   2.546  13.216 -0.1529 -1.1624  1.2449
   42MPD2     C  651   4.267   2.189  14.003  0.2624 -0.8199  0.0145
   42MPD2    C1  652   4.199   2.300  13.971 -0.4832  0.3507  0.4406
   42MPD2    C2  653   4.114   2.363  14.061  0.1184  0.1929 -0.1303
   42MPD2    C3  654   4.114   2.325  14.193  0.2060  0.2680  0.8225
   42MPD2    C4  655   4.177   2.205  14.227  0.0092 -0.7580 -0.3328
   42MPD2    C5  656   4.260   2.143  14.133  0.3679  0.3820 -0.3228
   42MPD2     H  657   4.082   2.460  14.023 -1.0094 -0.8440 -1.8142
   42MPD2    H1  658   4.159   2.150  14.318 -1.1186 -0.3858 -0.3368
   42MPD2    H2  659   4.321   2.124  13.935  0.3435  0.4998 -1.1735
   42MPD2    H3  660   4.320   2.061  14.170 -0.6146 -0.2831 -0.2202
   42MPD2     N  661   4.029   2.383  14.291 -0.0151 -0.0644  0.2178
   42MPD2    H5  662   4.000   2.316  14.362  0.4115  0.3005  0.7357
   42MPD2    N1  663   4.214   2.358  13.843  0.3084 -0.4113  0.0209
   42MPD2    H7  664   4.156   2.437  13.820 -0.5081 -1.4098 -1.3230
   43TMC2    C1  665   0.370   0.729   0.802  0.1888  0.2514  0.3899
   43TMC2    C2  666   0.256   0.806   0.790  0.2361 -0.3296  0.8373
   43TMC2    C3  667   0.242   0.913   0.869 -0.0189  0.4194  0.4291
   43TMC2    C4  668   0.466   0.772   0.885 -0.4364 -0.0341 -0.3652
   43TMC2    C5  669   0.444   0.881   0.967 -0.4883 -0.0792  0.2259
   43TMC2    C6  670   0.335   0.960   0.955 -0.1779  0.5852 -0.1315
   43TMC2     C  671   0.403   0.625   0.696  0.3637 -0.0794  0.4356
   43TMC2     O  672   0.516   0.581   0.695 -0.1794  0.0980  0.2401
   43TMC2     H  673   0.172   0.776   0.729  0.4086  0.8412  0.0317
   43TMC2    H1  674   0.557   0.715   0.895 -1.4884 -2.0092 -1.8175
   43TMC2    H2  675   0.331   1.055   1.008  0.8290  0.8726 -0.5764
   43TMC2    C7  676   0.539   0.898   1.080 -0.5154 -0.0379 -0.2098
   43TMC2    C8  677   0.113   0.966   0.875 -0.0738  0.0533  0.2329
   43TMC2    O1  678   0.652   0.848   1.075 -0.0725  0.3508  0.6568
   43TMC2    O2  679   0.032   0.970   0.782 -0.0715 -0.1278 -0.9084
   43TMC2    O5  680   0.083   1.000   1.005  0.0203 -0.2953 -0.0260
   43TMC2    H5  681   0.150   0.974   1.072  2.2549  1.9107 -1.4001
   44MPD2     C  682   0.285   0.328   0.293  0.5964 -0.7306 -0.5687
   44MPD2    C1  683   0.401   0.362   0.345  0.0511 -0.4183 -0.6282
   44MPD2    C2  684   0.409   0.446   0.457 -0.1337 -0.2727 -0.2078
   44MPD2    C3  685   0.298   0.496   0.512 -0.1600  0.4046 -0.7507
   44MPD2    C4  686   0.176   0.465   0.454  0.0172  0.4669  0.0167
   44MPD2    C5  687   0.174   0.379   0.345 -0.3660  0.2997  0.3271
   44MPD2     H  688   0.510   0.477   0.484 -0.1689 -0.5521  0.2334
   44MPD2    H1  689   0.080   0.503   0.489  0.3135  0.6640  0.6114
   44MPD2    H2  690   0.274   0.268   0.204  1.8502  0.8101 -1.7596
   44MPD2    H3  691   0.074   0.368   0.304  0.3612 -1.6550 -0.9292
   44MPD2     N  692   0.295   0.588   0.621 -0.2986  0.5325  0.1406
   44MPD2    H5  693   0.205   0.630   0.642  0.5512  1.1951  2.5527
   44MPD2    N1  694   0.527   0.321   0.298  0.3594 -0.6844 -0.1442
   44MPD2    H7  695   0.612   0.359   0.338 -0.3534  0.2993  0.4397
   45TMC2    C1  696   1.251   2.829   9.797 -0.3763 -0.8538  0.0523
   45TMC2    C2  697   1.297   2.726   9.880  0.4267  0.4168 -0.0083
   45TMC2    C3  698   1.400   2.755   9.967 -0.3887  0.1518 -0.5378
   45TMC2    C4  699   1.293   2.962   9.809 -0.1293 -0.0344 -0.0723
   45TMC2    C5  700   1.385   2.986   9.908 -0.2279  0.7470  0.3414
   45TMC2    C6  701   1.446   2.883   9.977 -0.7155 -0.6436  0.1598
   45TMC2     C  702   1.159   2.791   9.692  0.5895  0.0657  0.3789
   45TMC2     O  703   1.115   2.675   9.701  0.1584 -0.0001 -0.3800
   45TMC2     H  704   1.271   2.621   9.876  1.9789  0.0031  1.1981
   45TMC2    H1  705   1.238   3.040   9.757 -0.0731 -1.5873 -2.4683
   45TMC2    H2  706   1.528   2.905  10.044  1.5288 -2.4129 -1.9995
   45TMC2    C7  707   1.447   3.115   9.913  0.2558 -0.0177  0.3751
   45TMC2    C8  708   1.461   2.643  10.045  0.6233 -0.9619  0.0998
   45TMC2    O1  709   1.495   3.140  10.018 -0.7020  0.2369 -0.0964
   45TMC2    O2  710   1.470   2.537   9.989 -0.2419 -0.1361  0.6624
   45TMC2    O5  711   1.521   2.689  10.150 -0.4249  0.1732  0.1361
   45TMC2    H5  712   1.516   2.786  10.166  2.5873  0.3442  0.1060
   46MPD2     C  713   0.989   2.733   9.456  0.2155 -0.5912 -0.3529
   46MPD2    C1  714   1.018   2.857   9.506 -0.4852 -0.4498  0.1485
   46MPD2    C2  715   0.939   2.955   9.461 -0.2146 -0.4206  0.0321
   46MPD2    C3  716   0.836   2.942   9.360  0.3697  0.4655 -0.5892
   46MPD2    C4  717   0.822   2.818   9.301 -0.2759 -1.2160 -0.4683
   46MPD2    C5  718   0.909   2.716   9.347  0.4810  0.0443  0.1471
   46MPD2     H  719   0.966   3.053   9.498  1.1905 -0.0946 -1.8721
   46MPD2    H1  720   0.756   2.800   9.217 -0.2037  3.4531 -1.5568
   46MPD2    H2  721   1.058   2.653   9.477 -0.4047 -1.4791 -1.7202
   46MPD2    H3  722   0.893   2.619   9.301 -1.6926  0.0552  0.8861
   46MPD2     N  723   0.755   3.051   9.327  0.4392  0.1909 -0.2066
   46MPD2    H5  724   0.784   3.142   9.361 -1.3716  0.5461  0.3392
   46MPD2    N1  725   1.112   2.889   9.607  0.0397 -0.3267  1.0191
   46MPD2    H7  726   1.147   2.984   9.615 -3.6230  1.0084  1.2822
   47TMC2    C1  727   3.179   3.869   9.312  0.5670 -0.9380  0.3184
   47TMC2    C2  728   3.140   3.739   9.297 -0.0381 -0.2966  0.0952
   47TMC2    C3  729   3.002   3.722   9.304 -0.1274  0.4073  0.3320
   47TMC2    C4  730   3.087   3.971   9.334  0.3305  0.3313 -0.7228
   47TMC2    C5  731   2.957   3.946   9.352  0.0885 -0.8039 -0.8791
   47TMC2    C6  732   2.914   3.816   9.341  0.0155  0.3120 -0.0051
   47TMC2     C  733   3.317   3.906   9.311 -0.1581 -1.0782  0.3423
   47TMC2     O  734   3.346   4.024   9.297 -0.5426 -0.1410 -0.1173
   47TMC2     H  735   3.212   3.659   9.310  1.9045  1.3553 -0.3180
   47TMC2    H1  736   3.117   4.074   9.350 -0.3706  0.7474 -2.0462
   47TMC2    H2  737   2.806   3.811   9.341  0.0060  0.5292  0.3040
   47TMC2    C7  738   2.884   4.054   9.400  0.2213  0.1632  0.1616
   47TMC2    C8  739   2.953   3.584   9.296 -0.7702 -0.8338 -0.4155
   47TMC2    O1  740   2.915   4.167   9.372  0.2458 -0.5873 -0.3809
   47TMC2    O2  741   2.846   3.545   9.341 -0.2555 -0.4053  0.2057
   47TMC2    O5  742   3.018   3.515   9.202 -0.1105  0.3169 -0.4115
   47TMC2    H5  743   3.088   3.564   9.153  1.0510  0.5160  1.4524
   48MPD2     C  744   3.613   3.924   9.356 -0.6105 -0.7319 -0.8212
   48MPD2    C1  745   3.551   3.806   9.329  0.4677  0.2779 -0.1849
   48MPD2    C2  746   3.635   3.696   9.315 -0.0633  0.1506 -0.3962
   48MPD2    C3  747   3.775   3.701   9.328 -0.3867 -0.4448  0.0825
   48MPD2    C4  748   3.831   3.823   9.354 -0.3194  0.3963  0.3630
   48MPD2    C5  749   3.749   3.932   9.364  0.3707  0.1671 -0.0422
   48MPD2     H  750   3.587   3.599   9.301  2.0851 -1.3092  2.3983
   48MPD2    H1  751   3.939   3.833   9.363 -0.2261 -0.3529  0.1106
   48MPD2    H2  752   3.558   4.015   9.376  1.2112 -0.1668  1.6172
   48MPD2    H3  753   3.783   4.032   9.388  1.4383 -0.1755 -0.1385
   48MPD2     N  754   3.848   3.579   9.317  0.2549 -1.1864  0.1615
   48MPD2    H5  755   3.791   3.500   9.290 -0.2091 -0.5164 -0.8296
   48MPD2    N1  756   3.407   3.800   9.307 -0.3008 -0.3864  0.3257
   48MPD2    H7  757   3.365   3.709   9.294  0.4984 -0.5871 -0.8860
   49TMC2    C1  758   1.724   1.131   9.948  0.0054 -0.1831  0.0339
   49TMC2    C2  759   1.646   1.179   9.847 -0.2171  0.3265 -0.2431
   49TMC2    C3  760   1.527   1.120   9.817  0.5037  0.4796 -0.5919
   49TMC2    C4  761   1.683   1.034  10.034 -0.2094 -0.3345 -0.3777
   49TMC2    C5  762   1.561   0.979  10.007  0.1178  0.6642 -1.0786
   49TMC2    C6  763   1.484   1.019   9.900 -0.2872  0.0134  0.3868
   49TMC2     C  764   1.849   1.203   9.965 -0.7761 -0.5551 -0.2526
   49TMC2     O  765   1.901   1.245   9.865  0.1297 -0.2074  0.2146
   49TMC2     H  766   1.679   1.270   9.797 -1.6939  1.6152  1.1228
   49TMC2    H1  767   1.752   0.996  10.109 -1.0858 -3.0271 -0.9317
   49TMC2    H2  768   1.405   0.949   9.877 -0.2517 -0.3229  1.2817
   49TMC2    C7  769   1.528   0.858  10.077  0.2359  0.1367  0.9942
   49TMC2    C8  770   1.454   1.163   9.702 -0.5955 -0.1934 -0.8434
   49TMC2    O1  771   1.446   0.784  10.017 -0.4531  0.0229 -0.0690
   49TMC2    O2  772   1.484   1.267   9.642  0.0811  0.1718  0.1232
   49TMC2    O5  773   1.332   1.105   9.688  0.2523  0.4187  0.2011
   49TMC2    H5  774   1.326   1.028   9.748  1.7671 -0.1482 -0.3754
   50MPD2     C  775   2.054   1.401  10.062 -0.0224  0.0891 -0.8456
   50MPD2    C1  776   1.971   1.327  10.146  0.0899  0.3415  0.9009
   50MPD2    C2  777   1.954   1.349  10.281  0.7444 -0.0641  0.0434
   50MPD2    C3  778   2.017   1.460  10.333 -0.2128  0.6851  0.6186
   50MPD2    C4  779   2.092   1.537  10.253  0.0371 -0.6590 -0.1068
   50MPD2    C5  780   2.108   1.509  10.121 -0.2002 -0.8649 -0.1927
   50MPD2     H  781   1.886   1.289  10.339  0.5394  0.9448  0.8502
   50MPD2    H1  782   2.155   1.610  10.303 -0.8703 -0.1390  0.2706
   50MPD2    H2  783   2.064   1.382   9.956 -0.3032 -1.9388 -0.5094
   50MPD2    H3  784   2.175   1.582  10.077 -0.6258 -1.0499 -1.1432
   50MPD2     N  785   2.001   1.515  10.463  0.1908 -0.4193 -0.2768
   50MPD2    H5  786   2.052   1.599  10.488  1.0458 -0.7123 -1.0348
   50MPD2    N1  787   1.880   1.225  10.100 -0.0845  0.4124  0.4744
   50MPD2    H7  788   1.819   1.188  10.172  1.1020  0.5114  1.5342
   51TMC2    C1  789   1.320   0.037   1.346  0.3150  0.1698 -0.2740
   51TMC2    C2  790   1.221   0.118   1.302 -0.0983 -0.5356  0.3912
   51TMC2    C3  791   1.242   0.233   1.239 -0.4127  0.4793 -0.6545
   51TMC2    C4  792   1.452   0.079   1.325 -0.2620  0.0096 -0.3827
   51TMC2    C5  793   1.475   0.192   1.247 -0.6841  0.4072  0.2966
   51TMC2    C6  794   1.371   0.266   1.196 -0.2897 -0.1595 -0.2688
   51TMC2     C  795   1.290   4.641   1.396  0.2677 -0.5789  0.0098
   51TMC2     O  796   1.366   4.549   1.377 -0.0470  0.0383  0.0317
   51TMC2     H  797   1.120   0.079   1.307 -0.1632 -0.3696  0.3894
   51TMC2    H1  798   1.537   0.024   1.362  1.7389  3.7697  0.6078
   51TMC2    H2  799   1.382   0.353   1.132 -1.4925 -0.0730 -0.3504
   51TMC2    C7  800   1.612   0.239   1.235 -0.3954  0.4267 -0.3675
   51TMC2    C8  801   1.124   0.286   1.162 -0.5110 -0.6623 -0.5064
   51TMC2    O1  802   1.687   0.203   1.325  0.1791 -0.2207  0.0105
   51TMC2    O2  803   1.138   0.322   1.046 -1.0054  0.4888  0.3093
   51TMC2    O5  804   1.014   0.297   1.243 -0.1846 -0.7966 -0.1391
   51TMC2    H5  805   1.030   0.277   1.337 -1.7925  1.6599  0.6755
   52MPD2     C  806   0.974   4.277   1.573 -0.4032  0.3114 -0.2103
   52MPD2    C1  807   1.074   4.274   1.477  0.3890 -0.4809  0.6309
   52MPD2    C2  808   1.135   4.392   1.436 -0.1321 -0.2629  0.0179
   52MPD2    C3  809   1.105   4.515   1.493 -0.0276 -0.0344 -0.1023
   52MPD2    C4  810   1.009   4.513   1.592 -0.5160  0.2446  0.1175
   52MPD2    C5  811   0.950   4.398   1.637  0.3587  0.7371  0.0072
   52MPD2     H  812   1.209   4.388   1.357  1.8769  2.9728  1.7334
   52MPD2    H1  813   0.979   4.604   1.642 -0.4678  0.5325 -0.3773
   52MPD2    H2  814   0.927   4.189   1.616 -0.0279  1.1974  1.9653
   52MPD2    H3  815   0.883   4.404   1.723  2.7594  0.7312  1.8799
   52MPD2     N  816   1.167   4.636   1.460  0.0256  0.2378 -0.0015
   52MPD2    H5  817   1.125   4.714   1.511  1.9641  0.6998  0.8814
   52MPD2    N1  818   1.127   4.152   1.420 -0.2366  0.5130  0.2703
   52MPD2    H7  819   1.205   4.154   1.355 -0.1276  0.2913  0.3962
   53TMC2    C1  820   2.503   2.868  11.428 -0.4848  0.3436  0.8859
   53TMC2    C2  821   2.533   2.751  11.369  0.9821  0.3751 -0.4411
   53TMC2    C3  822   2.581   2.659  11.454  0.4933 -0.1478  0.0308
   53TMC2    C4  823   2.497   2.882  11.563 -0.9559 -0.1802 -0.2784
   53TMC2    C5  824   2.532   2.781  11.648  0.0615  0.0906 -0.2369
   53TMC2    C6  825   2.590   2.668  11.593 -0.3053  0.9712  0.3805
   53TMC2     C  826   2.380   2.896  11.365 -0.4102 -0.2566 -0.4685
   53TMC2     O  827   2.378   2.951  11.255  0.0842  0.2287  0.1549
   53TMC2     H  828   2.517   2.745  11.261 -0.7914 -1.0471 -0.1066
   53TMC2    H1  829   2.453   2.971  11.608  2.2179 -0.1740  2.8237
   53TMC2    H2  830   2.620   2.579  11.647  3.0927  0.8874 -1.6761
   53TMC2    C7  831   2.436   2.771  11.756 -0.1173  0.5358 -0.4348
   53TMC2    C8  832   2.614   2.530  11.400 -1.0715 -0.2709 -0.0639
   53TMC2    O1  833   2.329   2.835  11.740 -0.0874  0.2376  0.4083
   53TMC2    O2  834   2.593   2.427  11.464 -0.3965  0.6265 -0.2949
   53TMC2    O5  835   2.659   2.551  11.275 -0.1211  0.1706  0.5235
   53TMC2    H5  836   2.683   2.642  11.247 -2.0623  0.1533 -1.2118
   54MPD2     C  837   2.091   2.950  11.312 -0.3936  0.5631  1.1433
   54MPD2    C1  838   2.142   2.888  11.423  0.2020 -0.1229 -0.2375
   54MPD2    C2  839   2.052   2.838  11.516 -0.3423 -0.4158  0.6248
   54MPD2    C3  840   1.913   2.849  11.510 -0.3272 -0.6402  0.0304
   54MPD2    C4  841   1.864   2.922  11.405 -0.2421  0.7482  0.0608
   54MPD2    C5  842   1.948   2.970  11.306  0.2268  0.2335 -0.3161
   54MPD2     H  843   2.099   2.794  11.603  0.0623 -0.6149  0.3068
   54MPD2    H1  844   1.760   2.948  11.390 -0.6029 -2.0975 -2.3910
   54MPD2    H2  845   2.155   3.002  11.241 -1.5873 -1.8669 -1.7359
   54MPD2    H3  846   1.910   3.026  11.221 -0.2208 -1.5015 -1.2686
   54MPD2     N  847   1.829   2.799  11.607  0.2413  0.2021 -0.4126
   54MPD2    H5  848   1.731   2.809  11.583  0.3774  1.8054 -0.3608
   54MPD2    N1  849   2.276   2.883  11.453  0.4624  0.7048  0.3401
   54MPD2    H7  850   2.298   2.853  11.547 -0.8202  1.2037  0.8031
   55TMC2    C1  851   3.251   1.411  17.706 -0.1370  0.2222  0.0082
   55TMC2    C2  852   3.332   1.512  17.665 -0.6100 -0.6467  0.7452
   55TMC2    C3  853   3.425   1.484  17.572  0.5684 -0.2794 -0.6872
   55TMC2    C4  854   3.255   1.284  17.663 -0.4984 -0.8742  0.2933
   55TMC2    C5  855   3.349   1.256  17.563 -0.3862 -0.0027  0.1649
   55TMC2    C6  856   3.437   1.353  17.523  0.2628  0.1840  0.2937
   55TMC2     C  857   3.153   1.434   0.055 -0.4297 -0.2998  0.2775
   55TMC2     O  858   3.111   1.338   0.121 -0.0631 -0.6585 -0.5458
   55TMC2     H  859   3.338   1.595  17.734  1.0057 -2.4047  2.7306
   55TMC2    H1  860   3.183   1.214  17.702 -0.7466  1.7164  4.5081
   55TMC2    H2  861   3.530   1.330  17.472  0.3365  0.9528  0.0810
   55TMC2    C7  862   3.382   1.123  17.527  0.2924 -0.1969 -0.0506
   55TMC2    C8  863   3.486   1.596  17.513  0.0511  0.3504 -0.6914
   55TMC2    O1  864   3.452   1.113  17.427 -0.2211  0.8036  0.6857
   55TMC2    O2  865   3.597   1.593  17.463  0.1549 -0.2975  0.1707
   55TMC2    O5  866   3.389   1.679  17.467  0.3208  0.0934 -0.1084
   55TMC2    H5  867   3.305   1.683  17.518  0.0675  1.2135 -0.5968
   56MPD2     C  868   2.948   1.719   0.132  0.1439  0.6798  0.6371
   56MPD2    C1  869   3.008   1.602   0.161  0.6156  0.1037 -0.8329
   56MPD2    C2  870   2.961   1.532   0.268  0.1905  0.4420 -1.0837
   56MPD2    C3  871   2.835   1.563   0.327  1.0106 -0.1665  0.0550
   56MPD2    C4  872   2.767   1.678   0.286  0.4414  0.4901 -0.9574
   56MPD2    C5  873   2.830   1.757   0.189 -0.5772 -0.1634  0.1934
   56MPD2     H  874   3.005   1.435   0.287  1.7394  1.3675 -0.0141
   56MPD2    H1  875   2.677   1.708   0.338  0.5751  1.6332 -1.3899
   56MPD2    H2  876   3.003   1.788   0.068  1.1199 -0.1394  0.5967
   56MPD2    H3  877   2.788   1.852   0.160 -2.1924 -0.2627  2.1503
   56MPD2     N  878   2.784   1.463   0.410  0.1763 -0.1201 -0.6896
   56MPD2    H5  879   2.847   1.385   0.424 -0.5528 -0.7253 -0.7738
   56MPD2    N1  880   3.111   1.564   0.074 -0.1406 -0.0271 -0.5549
   56MPD2    H7  881   3.133   1.624  17.747 -1.8863  0.7459 -0.4566
   57TMC2    C1  882   2.336   1.018  13.745  0.3976 -0.1444 -0.0576
   57TMC2    C2  883   2.278   0.952  13.638 -0.9630  0.0434  0.1938
   57TMC2    C3  884   2.358   0.866  13.573  0.0440  0.4394  0.9392
   57TMC2    C4  885   2.468   0.998  13.784  1.0078 -0.6032  0.9455
   57TMC2    C5  886   2.541   0.908  13.712  0.1954 -0.1004 -0.1401
   57TMC2    C6  887   2.491   0.847  13.602  0.5224  0.6833 -0.0909
   57TMC2     C  888   2.248   1.104  13.829 -0.3177  0.1962 -0.1968
   57TMC2     O  889   2.144   1.136  13.787 -0.7684 -0.4569 -0.2037
   57TMC2     H  890   2.176   0.968  13.604 -1.3009 -2.1756  0.2233
   57TMC2    H1  891   2.522   1.045  13.865  1.8183 -0.4611  0.3198
   57TMC2    H2  892   2.556   0.802  13.528  0.2319  1.0523 -0.5705
   57TMC2    C7  893   2.663   0.861  13.777 -0.1539 -0.5207  0.2749
   57TMC2    C8  894   2.297   0.815  13.452  0.9860  0.5798 -0.2188
   57TMC2    O1  895   2.673   0.869  13.898  0.1375  0.2689 -0.4371
   57TMC2    O2  896   2.215   0.873  13.387 -0.9287  0.1140  0.1490
   57TMC2    O5  897   2.297   0.679  13.462  0.3671 -0.1495  0.0287
   57TMC2    H5  898   2.363   0.631  13.517 -0.6273 -0.6186  0.8222
   58MPD2     C  899   2.200   1.511  14.149 -0.3322  0.0741  1.2467
   58MPD2    C1  900   2.136   1.478  14.033  0.1303  0.7458  0.3578
   58MPD2    C2  901   2.164   1.357  13.967  0.3126 -0.3062  0.1091
   58MPD2    C3  902   2.266   1.278  14.009  0.0368  0.1742  0.8243
   58MPD2    C4  903   2.335   1.320  14.123 -0.0683 -0.2255  0.3139
   58MPD2    C5  904   2.300   1.433  14.193  0.0463  0.3196 -0.4289
   58MPD2     H  905   2.121   1.342  13.869  0.5603  0.9050 -0.1818
   58MPD2    H1  906   2.421   1.260  14.150  2.3550  3.4386  0.7132
   58MPD2    H2  907   2.163   1.596  14.207 -0.5560  0.5856  0.3469
   58MPD2    H3  908   2.350   1.448  14.287  1.9222  1.3290 -1.5810
   58MPD2     N  909   2.307   1.154  13.937  0.0701 -0.6238 -0.2839
   58MPD2    H5  910   2.391   1.111  13.974 -0.3301 -1.2728 -0.1353
   58MPD2    N1  911   2.052   1.568  13.962  0.2071 -0.8531  0.1875
   58MPD2    H7  912   2.008   1.539  13.875 -0.2406  0.0941  0.0973
   59TMC2    C1  913   0.034   1.844  12.684 -0.2399  0.6947  1.0680
   59TMC2    C2  914   0.143   1.809  12.604  0.4351  0.6142 -0.2866
   59TMC2    C3  915   0.110   1.734  12.492 -0.6593 -0.0463 -0.7314
   59TMC2    C4  916   4.644   1.806  12.649  0.6264 -0.4822  0.2619
   59TMC2    C5  917   4.624   1.738  12.538  0.3196  0.2693  0.3440
   59TMC2    C6  918   4.726   1.694  12.460 -0.4233  0.5012  0.2716
   59TMC2     C  919   0.053   1.895  12.820 -0.2095 -0.0950 -0.3720
   59TMC2     O  920   4.700   1.964  12.860  0.2876  0.3263 -0.2118
   59TMC2     H  921   0.243   1.851  12.611  0.0057  1.8214 -1.4113
   59TMC2    H1  922   4.558   1.825  12.712 -0.6046 -0.6719 -1.3496
   59TMC2    H2  923   4.713   1.617  12.384  0.0088 -1.4652  2.1846
   59TMC2    C7  924   4.492   1.682  12.508  1.1223 -0.4084 -0.1977
   59TMC2    C8  925   0.210   1.685  12.399 -0.1268  0.9558  0.0616
   59TMC2    O1  926   4.408   1.663  12.596  0.3531 -0.2370  0.8584
   59TMC2    O2  927   0.193   1.652  12.284 -0.0082 -0.6275  0.3789
   59TMC2    O5  928   0.318   1.639  12.465 -0.2724  0.3275 -0.2597
   59TMC2    H5  929   0.309   1.633  12.562  0.8033 -1.2017 -0.2535
   60MPD2     C  930   0.145   1.948  13.108  0.4671 -0.1207  0.0767
   60MPD2    C1  931   0.198   1.848  13.018 -0.0842  0.4850  0.0377
   60MPD2    C2  932   0.307   1.769  13.062 -0.1151 -0.4575 -0.0997
   60MPD2    C3  933   0.354   1.782  13.192  0.6458  0.0820 -0.0307
   60MPD2    C4  934   0.295   1.867  13.278  0.4574 -0.0028 -0.0850
   60MPD2    C5  935   0.191   1.948  13.238  0.3488 -0.3126 -0.2638
   60MPD2     H  936   0.348   1.698  12.992  1.6568 -0.1689  0.6320
   60MPD2    H1  937   0.330   1.874  13.381 -1.6105  0.6996  0.5879
   60MPD2    H2  938   0.050   1.994  13.081  0.1658 -0.0655  1.2417
   60MPD2    H3  939   0.144   2.015  13.309  1.1918 -0.8781  0.8303
   60MPD2     N  940   0.459   1.705  13.246 -0.1777  0.1909  0.8341
   60MPD2    H5  941   0.485   1.718  13.343 -1.1342  2.6868  0.7543
   60MPD2    N1  942   0.153   1.832  12.885  0.1526 -0.2978 -0.8124
   60MPD2    H7  943   0.207   1.767  12.827  2.1806  0.1684  0.5486
   61TMC2    C1  944   4.295   2.230  14.574  0.3832 -0.6527  0.0127
   61TMC2    C2  945   4.282   2.100  14.610 -0.6263 -0.1295  0.2754
   61TMC2    C3  946   4.161   2.067  14.664 -0.0785  0.4161  0.0810
   61TMC2    C4  947   4.196   2.323  14.592 -0.5235 -0.0308 -0.1822
   61TMC2    C5  948   4.079   2.284  14.647 -0.6389 -0.1526 -0.0006
   61TMC2    C6  949   4.062   2.155  14.692 -0.2805  0.8914  0.6178
   61TMC2     C  950   4.423   2.286  14.609 -0.7319 -0.0787  0.0006
   61TMC2     O  951   4.509   2.206  14.644  0.3983 -0.1957  0.0271
   61TMC2     H  952   4.355   2.023  14.590  0.9382  0.9589  1.8112
   61TMC2    H1  953   4.186   2.416  14.537  0.5581 -0.4456 -1.0924
   61TMC2    H2  954   3.987   2.133  14.767 -0.0757 -2.4424 -0.1905
   61TMC2    C7  955   3.986   2.385  14.673  0.7083 -0.0823 -0.3735
   61TMC2    C8  956   4.140   1.933  14.708 -0.4012  0.2930  0.0066
   61TMC2    O1  957   4.017   2.501  14.665  0.5581 -0.0347  0.9128
   61TMC2    O2  958   4.043   1.899  14.780  0.0486  1.1889  0.0483
   61TMC2    O5  959   4.198   1.849  14.623  0.4198 -0.4457 -0.0163
   61TMC2    H5  960   4.264   1.887  14.560 -1.0563 -0.9219 -1.8582
   62MPD2     C  961   4.648   2.448  14.728 -0.6863  0.8070 -0.1594
   62MPD2    C1  962   4.528   2.499  14.679 -0.1267 -0.2981  0.9099
   62MPD2    C2  963   4.499   2.639  14.702  0.1511 -0.2065  0.8437
   62MPD2    C3  964   4.575   2.707  14.790 -0.0183  0.1125 -0.1432
   62MPD2    C4  965   4.688   2.644  14.846  0.1656  0.3184  0.5222
   62MPD2    C5  966   4.724   2.521  14.806  0.1635  0.2297 -0.2457
   62MPD2     H  967   4.408   2.677  14.657 -0.0378 -0.3315  1.1226
   62MPD2    H1  968   0.000   2.694  14.928  0.5570 -0.2353  0.6190
   62MPD2    H2  969   4.689   2.351  14.701 -0.8070  0.8471 -0.4915
   62MPD2    H3  970   0.072   2.470  14.846  0.9901  3.1053  1.6793
   62MPD2     N  971   4.530   2.841  14.816  0.2800 -0.5626 -0.0815
   62MPD2    H5  972   4.441   2.860  14.773 -0.1031  2.6584  2.1746
   62MPD2    N1  973   4.428   2.423  14.615  0.4002  0.2522  0.6655
   62MPD2    H7  974   4.347   2.476  14.584  1.0582  0.6389 -0.3990
   63TMC2    C1  975   3.783   3.047  10.565 -0.0584  0.2947  0.0710
   63TMC2    C2  976   3.888   3.067  10.654  0.2018 -0.8236 -0.1933
   63TMC2    C3  977   4.012   3.072  10.611 -0.0526  0.0390  0.0982
   63TMC2    C4  978   3.802   3.053  10.430  0.5866 -0.0376  0.3552
   63TMC2    C5  979   3.931   3.058  10.388 -0.1236  0.1120  0.3046
   63TMC2    C6  980   4.039   3.070  10.477  0.0757 -0.6342 -0.2801
   63TMC2     C  981   3.653   3.040  10.625  0.4251 -0.1705  0.1957
   63TMC2     O  982   3.638   3.068  10.738 -0.5421  0.1086 -0.4827
   63TMC2     H  983   3.861   3.077  10.758 -2.4211  1.3585 -1.0652
   63TMC2    H1  984   3.724   3.049  10.355 -2.1512 -1.5906  3.2657
   63TMC2    H2  985   4.144   3.066  10.447  0.6899  0.2747  1.7359
   63TMC2    C7  986   3.952   3.102  10.251  0.1228  0.3335  0.1387
   63TMC2    C8  987   4.111   3.151  10.689  0.1511 -0.2767  0.3043
   63TMC2    O1  988   3.867   3.071  10.167  0.4108  0.5798 -0.2040
   63TMC2    O2  989   4.163   3.254  10.649 -0.2254  0.0236  0.1457
   63TMC2    O5  990   4.091   3.113  10.817  0.2368  0.2839  0.3256
   63TMC2    H5  991   4.066   3.018  10.818 -3.3765  1.1634 -3.9605
   64MPD2     C  992   3.198   2.803  10.608  0.3820 -0.1630 -0.1509
   64MPD2    C1  993   3.295   2.754  10.526 -0.5438  0.1233 -0.0136
   64MPD2    C2  994   3.410   2.816  10.490 -0.0334 -0.3645 -0.6244
   64MPD2    C3  995   3.439   2.929  10.556  0.0715  0.0130 -0.0519
   64MPD2    C4  996   3.345   2.987  10.643 -0.3681  0.2110 -0.1620
   64MPD2    C5  997   3.219   2.923  10.668 -0.6078 -0.1261 -0.3429
   64MPD2     H  998   3.492   2.772  10.435  0.6533  0.5668 -0.3507
   64MPD2    H1  999   3.359   3.086  10.683 -0.4292  0.4973 -0.8507
   64MPD2    H2 1000   3.100   2.756  10.613  0.3601 -0.1359 -0.3365
   64MPD2    H3 1001   3.139   2.957  10.733 -0.5668 -1.7732  0.5896
   64MPD2     N 1002   3.572   2.968  10.544  0.0016 -0.4036  0.2291
   64MPD2    H5 1003   3.617   2.921  10.465  0.3978 -1.4504  1.0773
   64MPD2    N1 1004   3.275   2.626  10.467 -0.2764  0.6179 -0.0205
   64MPD2    H7 1005   3.356   2.599  10.413  1.2855  1.1177  2.0596
   65TMC2    C1 1006   0.728   2.454  16.035  0.0747 -0.2177 -0.4237
   65TMC2    C2 1007   0.837   2.535  16.082  0.3440  0.3230  0.1288
   65TMC2    C3 1008   0.834   2.664  16.039 -0.1250  0.1745 -0.1073
   65TMC2    C4 1009   0.625   2.503  15.961 -0.0452  0.5752  0.6071
   65TMC2    C5 1010   0.638   2.627  15.911 -0.0904  0.3568  0.1177
   65TMC2    C6 1011   0.738   2.707  15.947 -0.3820 -0.2424  0.1252
   65TMC2     C 1012   0.730   2.313  16.086  0.6992 -0.2073  0.4718
   65TMC2     O 1013   0.789   2.300  16.191 -0.1189 -0.0292  0.2359
   65TMC2     H 1014   0.896   2.491  16.161 -0.1693 -2.5756 -1.1280
   65TMC2    H1 1015   0.539   2.441  15.940  0.7463 -0.4086  0.3332
   65TMC2    H2 1016   0.727   2.813  15.928  0.8903  0.0099  0.8631
   65TMC2    C7 1017   0.544   2.699  15.824  0.3755  0.3364  0.6446
   65TMC2    C8 1018   0.934   2.756  16.079  0.3451 -0.9421  0.1656
   65TMC2    O1 1019   0.582   2.789  15.758  0.0342  0.0022 -0.1618
   65TMC2    O2 1020   0.926   2.878  16.066  0.4918 -0.2307 -0.1978
   65TMC2    O5 1021   1.051   2.693  16.059 -0.2611  0.1624  0.5929
   65TMC2    H5 1022   1.035   2.614  16.003  1.0507  0.3021  0.0261
   66MPD2     C 1023   0.653   2.050  16.191  0.4416 -0.2429 -0.2114
   66MPD2    C1 1024   0.611   2.100  16.074 -0.6075 -0.7741  0.0401
   66MPD2    C2 1025   0.524   2.029  15.997  0.1085  0.7933 -0.0891
   66MPD2    C3 1026   0.474   1.906  16.034 -0.0599  0.2184  0.1611
   66MPD2    C4 1027   0.527   1.846  16.150  0.7258 -0.1644 -0.7477
   66MPD2    C5 1028   0.609   1.928  16.230 -0.1038  0.0329 -0.3874
   66MPD2     H 1029   0.498   2.074  15.902  0.1603  0.6779 -0.1585
   66MPD2    H1 1030   0.503   1.747  16.190 -1.4189  0.8049  0.3701
   66MPD2    H2 1031   0.738   2.080  16.251 -0.9799  2.3100  0.5165
   66MPD2    H3 1032   0.653   1.897  16.324 -0.9602  0.2547  0.0838
   66MPD2     N 1033   0.367   1.833  15.972 -0.3291 -0.0658 -0.0396
   66MPD2    H5 1034   0.337   1.744  16.009  0.8523 -1.1552 -1.7131
   66MPD2    N1 1035   0.640   2.228  16.030 -0.0347 -0.0112  0.1616
   66MPD2    H7 1036   0.593   2.258  15.944 -0.9140  1.3669  1.1107
   67TMC2    C1 1037   0.233   1.645  14.431 -0.3126 -0.0282  0.0141
   67TMC2    C2 1038   0.235   1.710  14.308  0.1439  0.2348  0.5134
   67TMC2    C3 1039   0.292   1.832  14.283 -0.3902  0.3494 -0.3545
   67TMC2    C4 1040   0.285   1.709  14.535  0.2709 -0.1487  0.0340
   67TMC2    C5 1041   0.333   1.835  14.517 -0.3096 -0.2072 -0.4584
   67TMC2    C6 1042   0.327   1.901  14.397 -0.1883 -0.6281 -0.2302
   67TMC2     C 1043   0.154   1.526  14.453  0.1818  0.1579 -0.3491
   67TMC2     O 1044   0.160   1.478  14.564 -0.0608  0.2508  0.1854
   67TMC2     H 1045   0.215   1.653  14.218  1.7783  3.1621 -1.7284
   67TMC2    H1 1046   0.305   1.655  14.626 -0.0727 -1.2371 -0.5330
   67TMC2    H2 1047   0.365   2.001  14.384  0.2312 -0.9157 -1.2653
   67TMC2    C7 1048   0.453   1.869  14.587  0.3159  0.4779 -0.0091
   67TMC2    C8 1049   0.242   1.910  14.173  0.8702  0.8574  0.4455
   67TMC2    O1 1050   0.544   1.920  14.525 -0.1530  0.0070  0.2172
   67TMC2    O2 1051   0.146   1.880  14.105  0.1216  0.0125  0.2947
   67TMC2    O5 1052   0.345   1.984  14.136  0.1255  0.3838  0.2347
   67TMC2    H5 1053   0.411   2.003  14.206  0.5961 -2.4488  0.5587
   68MPD2     C 1054   4.692   1.317  14.428  0.2354  0.5112 -0.3080
   68MPD2    C1 1055   4.709   1.412  14.334  0.1203 -0.5042  0.7019
   68MPD2    C2 1056   4.617   1.423  14.225  0.0429 -0.1578  0.8710
   68MPD2    C3 1057   4.510   1.335  14.220 -0.2899  0.3692 -0.5311
   68MPD2    C4 1058   4.497   1.241  14.319  0.3555  0.0148 -0.6398
   68MPD2    C5 1059   4.585   1.229  14.420  0.0135  0.4291  0.0339
   68MPD2     H 1060   4.617   1.507  14.157  1.4714 -1.7941 -1.1619
   68MPD2    H1 1061   4.417   1.169  14.331  2.1818 -2.1010 -1.0285
   68MPD2    H2 1062   0.021   1.290  14.509 -0.5579 -0.6968 -0.0452
   68MPD2    H3 1063   4.581   1.155  14.500 -0.7916 -0.6909 -1.0324
   68MPD2     N 1064   4.403   1.347  14.126  0.1404 -0.0854  0.0423
   68MPD2    H5 1065   4.327   1.281  14.136 -0.9001  0.8283 -1.8001
   68MPD2    N1 1066   0.080   1.505  14.343 -0.0848 -0.2881 -0.4464
   68MPD2    H7 1067   0.080   1.575  14.270 -0.8522  2.0273  1.7361
   69TMC2    C1 1068   2.271   2.718  12.808 -0.8209 -0.5613  0.2630
   69TMC2    C2 1069   2.140   2.756  12.826  0.1929  0.1317 -0.1409
   69TMC2    C3 1070   2.073   2.823  12.725  0.3758  0.5425 -0.6174
   69TMC2    C4 1071   2.335   2.744  12.695  0.0933 -0.4091  0.3561
   69TMC2    C5 1072   2.268   2.823  12.600 -0.1389 -0.1179  0.0245
   69TMC2    C6 1073   2.136   2.853  12.607 -0.3616  0.4223  0.0275
   69TMC2     C 1074   2.329   2.636  12.918  1.1364 -0.0630 -0.3753
   69TMC2     O 1075   2.260   2.604  13.016  0.3518 -0.0660 -0.3623
   69TMC2     H 1076   2.084   2.723  12.912 -1.2224  0.4027 -0.9617
   69TMC2    H1 1077   2.438   2.718  12.673  0.5057  1.3865  0.2123
   69TMC2    H2 1078   2.082   2.910  12.533 -0.1371  0.8878  0.2239
   69TMC2    C7 1079   2.345   2.872  12.482  0.1909  0.1839 -0.4373
   69TMC2    C8 1080   1.939   2.871  12.742  0.4544  0.1593 -0.8597
   69TMC2    O1 1081   2.457   2.827  12.464  0.6082 -0.7529  0.2675
   69TMC2    O2 1082   1.859   2.902  12.658  0.6293 -0.2927  0.1342
   69TMC2    O5 1083   1.901   2.868  12.876  0.4651 -0.4601  0.0573
   69TMC2    H5 1084   1.979   2.876  12.935 -0.3356 -1.2039  1.2199
   70MPD2     C 1085   2.643   2.478  12.978  0.0884  0.1228  0.3248
   70MPD2    C1 1086   2.510   2.481  12.971 -0.0639  0.0794 -0.2497
   70MPD2    C2 1087   2.424   2.380  13.021  0.4178 -0.1714 -0.0725
   70MPD2    C3 1088   2.489   2.278  13.095  0.0941 -0.5691 -0.1072
   70MPD2    C4 1089   2.626   2.267  13.088 -0.3040 -0.1500 -0.0538
   70MPD2    C5 1090   2.707   2.367  13.035 -0.3146  0.2135  0.4378
   70MPD2     H 1091   2.316   2.390  13.012  0.5146  0.6976 -0.2713
   70MPD2    H1 1092   2.676   2.182  13.133 -0.0669 -0.0657 -0.1577
   70MPD2    H2 1093   2.707   2.561  12.949  0.0334 -0.3056 -1.0024
   70MPD2    H3 1094   2.814   2.361  13.045 -0.2187  0.2052 -0.6009
   70MPD2     N 1095   2.423   2.176  13.170 -0.2587  0.6376  0.8981
   70MPD2    H5 1096   2.488   2.099  13.188  0.7073  1.3193  0.3197
   70MPD2    N1 1097   2.462   2.602  12.909 -0.4536  0.0925 -0.8579
   70MPD2    H7 1098   2.520   2.667  12.857  0.2389  0.9044  0.9029
   71TMC2    C1 1099   3.630   4.595   1.156 -0.1485 -0.3560  0.0278
   71TMC2    C2 1100   3.707   4.701   1.198 -0.3981  0.1904 -0.2905
   71TMC2    C3 1101   3.642   0.077   1.224  0.1043 -0.5027  0.1047
   71TMC2    C4 1102   3.491   4.610   1.137  0.2648 -0.0832 -0.1909
   71TMC2    C5 1103   3.431   4.728   1.169 -0.3480  0.1220  0.8305
   71TMC2    C6 1104   3.505   0.095   1.202 -0.1428 -0.8293 -0.1608
   71TMC2     C 1105   3.707   4.489   1.098 -0.4758 -0.6681  0.6635
   71TMC2     O 1106   3.828   4.476   1.123 -0.6313  0.9470  0.1498
   71TMC2     H 1107   3.811   4.686   1.224 -0.4717  0.4453  0.1497
   71TMC2    H1 1108   3.433   4.518   1.135 -0.0190  0.0775  0.7110
   71TMC2    H2 1109   3.454   0.184   1.237 -0.6846 -0.7536 -1.1502
   71TMC2    C7 1110   3.287   0.006   1.183 -0.1895 -0.1329 -0.7629
   71TMC2    C8 1111   3.700   0.151   1.337 -0.3586 -0.5854  0.6007
   71TMC2    O1 1112   3.245   0.091   1.261 -0.4772 -0.0555 -0.8253
   71TMC2    O2 1113   3.740   0.098   1.436  0.2649  0.2606  0.0614
   71TMC2    O5 1114   3.653   0.276   1.330  0.6468  0.5953 -0.1748
   71TMC2    H5 1115   3.634   0.300   1.237  0.9921  0.8855 -0.1694
   72MPD2     C 1116   3.710   4.071   0.793 -0.1629  0.1819 -0.2397
   72MPD2    C1 1117   3.819   4.137   0.849 -0.1538  0.5667 -0.3031
   72MPD2    C2 1118   3.789   4.250   0.929 -0.8943  0.3745 -0.4379
   72MPD2    C3 1119   3.657   4.288   0.954 -0.3704  0.2402 -0.7487
   72MPD2    C4 1120   3.554   4.224   0.890  0.6677 -0.3603 -1.0111
   72MPD2    C5 1121   3.580   4.116   0.810 -0.3639 -0.2852  0.5437
   72MPD2     H 1122   3.872   4.298   0.980 -1.0610 -1.0266  1.1583
   72MPD2    H1 1123   3.451   4.249   0.913  0.7080 -0.8190 -0.3476
   72MPD2    H2 1124   3.713   3.976   0.740  0.5267  0.9254 -1.5200
   72MPD2    H3 1125   3.504   4.062   0.754 -1.1550  1.6970 -0.3117
   72MPD2     N 1126   3.621   4.412   1.029 -0.2677 -0.4960  0.9990
   72MPD2    H5 1127   3.526   4.440   1.008  0.1019 -0.1225 -0.1786
   72MPD2    N1 1128   3.953   4.096   0.822  0.6441  0.2689  0.2360
   72MPD2    H7 1129   4.036   4.147   0.849  0.9051 -1.1020  2.0450
   73TMC2    C1 1130   4.011   0.214  14.188 -0.3522  0.0278 -0.1103
   73TMC2    C2 1131   3.976   0.231  14.321  0.2639  0.5771  0.0771
   73TMC2    C3 1132   4.051   0.171  14.420  0.3588  0.2811 -0.1030
   73TMC2    C4 1133   4.116   0.138  14.154 -0.2585  0.1383  0.3419
   73TMC2    C5 1134   4.186   0.081  14.256  0.0688 -0.2710  0.3123
   73TMC2    C6 1135   4.160   0.085  14.393  0.1998  0.3259  0.2224
   73TMC2     C 1136   4.023   0.343  14.125 -0.1474  0.0379 -0.2063
   73TMC2     O 1137   4.140   0.371  14.090  0.2958 -0.0461  0.9579
   73TMC2     H 1138   3.885   0.281  14.352 -1.4431 -2.9423  0.7826
   73TMC2    H1 1139   4.161   0.147  14.056 -2.1187 -1.1622 -0.6365
   73TMC2    H2 1140   4.229   0.043  14.465  1.4480 -0.9620 -1.7283
   73TMC2    C7 1141   4.325   0.093  14.233  0.4754  0.9313  0.2705
   73TMC2    C8 1142   4.012   0.178  14.563 -0.4315  0.2970  0.2639
   73TMC2    O1 1143   4.388   0.016  14.301 -0.2715 -0.6362 -0.5478
   73TMC2    O2 1144   4.076   0.125  14.650  0.7714  0.1270 -0.0176
   73TMC2    O5 1145   3.932   0.286  14.584 -0.4138 -0.1887 -0.3293
   73TMC2    H5 1146   3.885   0.332  14.511  2.2087  1.4167 -1.0333
   74MPD2     C 1147   3.907   0.818  13.972  0.1090 -0.4707  0.7167
   74MPD2    C1 1148   4.021   0.768  14.038  0.0087 -0.7241 -0.2083
   74MPD2    C2 1149   4.017   0.639  14.086  0.1351  0.7842  0.6844
   74MPD2    C3 1150   3.907   0.556  14.073 -0.2208  0.3569 -0.2391
   74MPD2    C4 1151   3.792   0.609  14.012 -0.5984 -0.1895 -1.0663
   74MPD2    C5 1152   3.794   0.739  13.967 -0.0414  0.5596  0.6382
   74MPD2     H 1153   4.109   0.601  14.130 -1.6753 -1.1300  2.8263
   74MPD2    H1 1154   3.702   0.550  14.007  0.0653 -1.3462  0.4918
   74MPD2    H2 1155   3.894   0.917  13.930 -1.3739 -2.2553 -3.0194
   74MPD2    H3 1156   3.694   0.777  13.948 -0.1408  0.4579  0.9498
   74MPD2     N 1157   3.907   0.424  14.114 -0.0067 -0.7920  0.4974
   74MPD2    H5 1158   3.819   0.376  14.131 -0.6958  0.3020 -0.0209
   74MPD2    N1 1159   4.133   0.857  14.051  0.5931 -0.2011 -0.0805
   74MPD2    H7 1160   4.125   0.950  14.012 -0.3567 -1.1692 -2.1873
   75TMC2    C1 1161   4.271   1.417  13.931 -0.4436 -0.5140 -0.0094
   75TMC2    C2 1162   4.182   1.311  13.943 -0.6298 -0.5681 -0.3765
   75TMC2    C3 1163   4.064   1.302  13.872 -0.0435  0.1113 -0.1926
   75TMC2    C4 1164   4.245   1.519  13.839  0.2688 -0.0400 -0.1361
   75TMC2    C5 1165   4.117   1.509  13.774  0.4754 -0.0568  0.2120
   75TMC2    C6 1166   4.030   1.403  13.781  0.1859 -0.1314  0.3422
   75TMC2     C 1167   4.384   1.438  14.020  0.3668 -0.0499 -0.0285
   75TMC2     O 1168   4.449   1.541  14.004 -0.2567  0.0627 -0.2714
   75TMC2     H 1169   4.203   1.227  14.009  0.1531  1.2659  1.7010
   75TMC2    H1 1170   4.309   1.605  13.826 -0.6537  0.7056  0.2058
   75TMC2    H2 1171   3.935   1.396  13.730  0.0338  0.2171  0.5799
   75TMC2    C7 1172   4.111   1.570  13.643 -0.6699  0.2736  0.0443
   75TMC2    C8 1173   3.998   1.172  13.855 -1.2418 -0.1198 -0.2802
   75TMC2    O1 1174   4.055   1.510  13.552  0.3477  0.5113 -0.0597
   75TMC2    O2 1175   4.071   1.074  13.855 -0.3793  0.5757 -0.3818
   75TMC2    O5 1176   3.875   1.181  13.910 -0.2135 -0.3465  0.3602
   75TMC2    H5 1177   3.851   1.276  13.921  0.9737  0.0308 -0.2466
   76TMC2    C1 1178   2.997   2.043  12.033  0.1473  0.1573 -0.1174
   76TMC2    C2 1179   2.883   1.964  12.028 -0.4689 -0.3394 -0.0193
   76TMC2    C3 1180   2.871   1.851  12.105 -0.3953 -0.1140  0.2412
   76TMC2    C4 1181   3.102   1.990  12.106  0.2214 -0.5557 -0.1479
   76TMC2    C5 1182   3.093   1.871  12.179 -0.1626  0.1970  0.4353
   76TMC2    C6 1183   2.972   1.802  12.187 -0.4110  0.2443 -0.1509
   76TMC2     C 1184   3.010   2.177  11.973  0.0914 -0.2815 -0.4328
   76TMC2     O 1185   2.911   2.236  11.944 -0.2386 -0.0449 -0.0881
   76TMC2     H 1186   2.801   1.993  11.962 -0.1259 -1.2558 -0.8340
   76TMC2    H1 1187   3.191   2.051  12.117  0.8502 -1.0253 -2.8601
   76TMC2    H2 1188   2.965   1.708  12.240  1.6575 -0.1457 -0.5617
   76TMC2    C7 1189   3.211   1.820  12.249  0.4235  0.6314 -0.3605
   76TMC2    C8 1190   2.769   1.751  12.065 -0.0586  0.3591  0.6180
   76TMC2    O1 1191   3.190   1.727  12.328 -0.2075 -0.2135  0.1573
   76TMC2    O2 1192   2.655   1.782  12.037  0.1981  0.3174  0.2559
   76TMC2    O5 1193   2.814   1.630  12.101 -0.3006 -0.4372 -0.0123
   76TMC2    H5 1194   2.912   1.628  12.102 -0.2536  1.6373 -0.3441
   77MPD2     C 1195   3.273   2.601  11.855  0.2846 -0.6295 -0.3659
   77MPD2    C1 1196   3.139   2.583  11.870  0.2944 -0.4655 -0.1505
   77MPD2    C2 1197   3.086   2.457  11.899  0.8701 -0.9259  0.7998
   77MPD2    C3 1198   3.174   2.349  11.905  1.0018 -0.0067 -0.6409
   77MPD2    C4 1199   3.307   2.367  11.876  0.2580  0.0648 -0.6007
   77MPD2    C5 1200   3.359   2.491  11.865  0.2880  0.0836  0.4884
   77MPD2     H 1201   2.980   2.446  11.921  0.9675 -0.0310  1.7406
   77MPD2    H1 1202   3.377   2.285  11.883  0.3143  0.2738  1.2596
   77MPD2    H2 1203   3.322   2.696  11.834 -0.4266 -0.1075  0.3326
   77MPD2    H3 1204   3.467   2.501  11.871  0.6180 -3.0000 -0.5742
   77MPD2     N 1205   3.133   2.218  11.942  0.1072 -0.0487 -0.4470
   77MPD2    H5 1206   3.208   2.149  11.946 -0.8636 -0.9763  2.1589
   77MPD2    N1 1207   3.038   2.686  11.869  0.6818 -0.0689 -0.3092
   77MPD2    H7 1208   2.944   2.656  11.894  0.9728  0.4217  1.3826
   78TMC2    C1 1209   4.147   3.634   1.120  0.1739 -0.0908 -0.1158
   78TMC2    C2 1210   4.066   3.532   1.083 -0.3810  0.1049  0.3163
   78TMC2    C3 1211   4.112   3.407   1.098  0.5670 -0.1333  0.0888
   78TMC2    C4 1212   4.270   3.618   1.180 -0.1039 -0.0449 -0.3964
   78TMC2    C5 1213   4.322   3.488   1.174  0.3992 -0.6433  0.3757
   78TMC2    C6 1214   4.242   3.383   1.143 -1.4808  0.1527  0.4813
   78TMC2     C 1215   4.092   3.771   1.099 -0.1073  0.0077 -0.2951
   78TMC2     O 1216   3.979   3.791   1.055 -0.5316  0.1348 -0.2091
   78TMC2     H 1217   3.970   3.540   1.034 -1.2405 -0.2265  1.9554
   78TMC2    H1 1218   4.326   3.704   1.217 -1.5358 -0.5063  2.7770
   78TMC2    H2 1219   4.289   3.286   1.136  0.8014  1.2450  0.8640
   78TMC2    C7 1220   4.442   3.479   1.249 -0.5258  0.6092 -0.0726
   78TMC2    C8 1221   4.044   3.306   1.031 -0.0123 -1.0774  0.5008
   78TMC2    O1 1222   4.523   3.572   1.240 -0.0638  0.0299 -0.3594
   78TMC2    O2 1223   3.971   3.333   0.936 -0.8111 -0.1029  0.4434
   78TMC2    O5 1224   4.028   3.207   1.118 -0.0599  0.6136  0.2238
   78TMC2    H5 1225   4.086   3.224   1.195  1.7911 -2.6318 -0.4932
   79MPD1     C 1226   4.130   4.278   1.186  0.9570  0.3940  0.4507
   79MPD1    C1 1227   4.021   4.191   1.201  0.0456 -0.3416  0.7732
   79MPD1    C2 1228   4.044   4.053   1.174  0.4132  0.0052 -0.6197
   79MPD1    C3 1229   4.164   4.009   1.120  0.2279  0.2111 -0.1679
   79MPD1    C4 1230   4.271   4.097   1.105 -0.6420  0.3803 -0.6485
   79MPD1    C5 1231   4.251   4.233   1.131 -0.5665  0.4222  0.5463
   79MPD1     H 1232   3.962   3.982   1.178 -0.6691  1.3105  0.4166
   79MPD1    H1 1233   4.369   4.062   1.074 -0.5980  0.1301 -0.2340
   79MPD1    H2 1234   4.121   4.378   1.228  2.1657  0.5208  0.4017
   79MPD1    H3 1235   4.326   4.311   1.129  1.0661 -1.1010  2.6242
   79MPD1     N 1236   4.190   3.872   1.094  0.0631  0.5193 -0.2538
   79MPD1    H5 1237   4.287   3.842   1.091  0.2300  0.9709  0.5462
   79MPD1    N1 1238   3.910   4.230   1.268 -0.2069  0.3773 -0.2246
   79MPD1    H6 1239   3.885   4.325   1.243 -1.1431  0.7635  2.1334
   79MPD1    H7 1240   3.833   4.163   1.267 -0.5137  0.7265  0.0131
   80TMC2    C1 1241   1.828   0.876  11.923 -0.2922 -0.1097 -0.1225
   80TMC2    C2 1242   1.834   0.830  11.793 -0.0736  0.4099  0.6818
   80TMC2    C3 1243   1.869   0.698  11.771 -0.2834 -0.2340 -0.7433
   80TMC2    C4 1244   1.834   0.778  12.024  0.5140 -0.2559  0.7140
   80TMC2    C5 1245   1.853   0.645  11.994  0.1023 -0.4076 -0.1675
   80TMC2    C6 1246   1.880   0.607  11.869  0.4181  0.3188  0.3111
   80TMC2     C 1247   1.805   1.011  11.959  0.2730  1.0293 -0.5367
   80TMC2     O 1248   1.771   1.031  12.075  0.3015 -0.4548 -0.5439
   80TMC2     H 1249   1.832   0.900  11.710  0.6872 -0.4706 -0.0780
   80TMC2    H1 1250   1.840   0.816  12.125 -2.2938  0.4915  0.5977
   80TMC2    H2 1251   1.887   0.501  11.846 -0.2496  0.6869 -1.5229
   80TMC2    C7 1252   1.879   0.545  12.106 -0.4180 -0.3248  0.2926
   80TMC2    C8 1253   1.854   0.641  11.639 -0.6962  0.6935  0.6453
   80TMC2    O1 1254   1.912   0.439  12.059 -0.0237 -0.0009 -0.4015
   80TMC2    O2 1255   1.770   0.690  11.555 -0.0496  0.0721  0.5344
   80TMC2    O5 1256   1.959   0.560  11.614  0.3904  0.4089 -0.2525
   80TMC2    H5 1257   2.025   0.562  11.687 -1.0261  0.4032  1.0191
   81MPD2     C 1258   1.882   1.330  11.794  0.5121 -0.0836 -0.1736
   81MPD2    C1 1259   1.827   1.248  11.886  0.2503  0.1299  0.0301
   81MPD2    C2 1260   1.781   1.307  12.003 -0.4737  0.0816 -0.0468
   81MPD2    C3 1261   1.808   1.445  12.031  0.2439  0.1823  0.4361
   81MPD2    C4 1262   1.870   1.526  11.938  0.9553 -0.4110  0.1710
   81MPD2    C5 1263   1.907   1.461  11.820  0.2580  0.2043  0.6773
   81MPD2     H 1264   1.725   1.242  12.070  1.0124 -0.4798  0.6494
   81MPD2    H1 1265   1.909   1.625  11.957  1.2434 -0.4412 -0.2594
   81MPD2    H2 1266   1.917   1.292  11.699 -0.1625  2.8672 -1.6064
   81MPD2    H3 1267   1.949   1.531  11.749  0.1942  1.0994  1.5287
   81MPD2     N 1268   1.768   1.514  12.145  0.0418  0.2755 -0.7898
   81MPD2    H5 1269   1.799   1.611  12.154  0.2631  0.0275  1.1169
   81MPD2    N1 1270   1.837   1.104  11.868  0.7073 -0.3635  0.6056
   81MPD2    H7 1271   1.890   1.071  11.788  0.5198 -0.7805  0.6516
   82TMC2    C1 1272   0.638   1.400  10.981  0.5543 -0.0225  0.1481
   82TMC2    C2 1273   0.730   1.452  11.067  0.3696  0.6726  0.6994
   82TMC2    C3 1274   0.722   1.413  11.192  0.3667 -1.5071  0.5180
   82TMC2    C4 1275   0.546   1.303  11.021 -0.0306 -0.2644 -0.4227
   82TMC2    C5 1276   0.555   1.255  11.145 -1.0098  0.4397 -0.4764
   82TMC2    C6 1277   0.636   1.314  11.235 -0.4745  0.3232 -0.0477
   82TMC2     C 1278   0.594   1.472  10.862 -0.3099 -0.0412  0.7591
   82TMC2     O 1279   0.475   1.448  10.838 -0.9437  0.4278 -0.3449
   82TMC2     H 1280   0.790   1.536  11.035 -2.5462  3.1241  1.6003
   82TMC2    H1 1281   0.461   1.273  10.961  0.7599 -0.4742 -1.4510
   82TMC2    H2 1282   0.630   1.284  11.339 -0.1699 -2.0367 -0.6965
   82TMC2    C7 1283   0.440   1.181  11.198  0.4315 -0.2871 -0.4121
   82TMC2    C8 1284   0.769   1.506  11.295 -0.3120 -0.1521  0.7598
   82TMC2    O1 1285   0.411   1.209  11.313 -0.1100 -0.0693 -0.0087
   82TMC2    O2 1286   0.886   1.545  11.300 -0.3772  0.3736 -0.3446
   82TMC2    O5 1287   0.668   1.546  11.379 -0.1684  0.8668 -0.5160
   82TMC2    H5 1288   0.578   1.525  11.347 -0.4743  2.1857 -0.5480
   83MPD2     C 1289   0.570   1.869  10.549 -1.1166 -0.0956  0.0316
   83MPD2    C1 1290   0.474   1.812  10.628 -0.3146  0.5132  0.2526
   83MPD2    C2 1291   0.513   1.707  10.708  0.7097  0.3415 -0.6797
   83MPD2    C3 1292   0.641   1.652  10.704 -0.3420  0.3085 -0.1439
   83MPD2    C4 1293   0.731   1.708  10.620 -0.0036  0.0975  0.4421
   83MPD2    C5 1294   0.692   1.809  10.540  0.0046 -0.1281 -0.3699
   83MPD2     H 1295   0.438   1.659  10.769  0.8298 -0.4270 -1.1363
   83MPD2    H1 1296   0.829   1.662  10.614  0.0185  0.1518  0.3920
   83MPD2    H2 1297   0.552   1.955  10.486 -1.0509 -1.5348 -1.9560
   83MPD2    H3 1298   0.765   1.856  10.475  1.0768 -0.7912  0.3685
   83MPD2     N 1299   0.685   1.559  10.803 -0.2881  1.0313  0.5944
   83MPD2    H5 1300   0.783   1.541  10.822 -0.8017 -0.4238  1.8431
   83MPD2    N1 1301   0.348   1.861  10.632 -0.0852 -0.8614  0.4531
   83MPD2    H7 1302   0.332   1.934  10.563  2.6149  0.8703  1.6827
   84TMC2    C1 1303   1.837   1.506  10.900  0.0642  0.3284  0.2099
   84TMC2    C2 1304   1.846   1.643  10.915 -0.4548 -0.4469  0.1045
   84TMC2    C3 1305   1.897   1.711  10.807  0.5616  0.1303 -0.7250
   84TMC2    C4 1306   1.876   1.447  10.786  0.4195  0.3634 -0.2722
   84TMC2    C5 1307   1.920   1.525  10.685  0.7246 -0.2404  0.2252
   84TMC2    C6 1308   1.932   1.657  10.685 -0.5159 -0.1738  0.3202
   84TMC2     C 1309   1.739   1.422  10.968  0.6320  0.1277 -0.5569
   84TMC2     O 1310   1.717   1.314  10.910 -0.3380  0.0366  0.0551
   84TMC2     H 1311   1.812   1.698  11.002  2.3175 -2.3084  2.3365
   84TMC2    H1 1312   1.873   1.339  10.782  0.1042  0.3864 -0.6935
   84TMC2    H2 1313   1.977   1.722  10.611 -0.0635  1.2757  1.8835
   84TMC2    C7 1314   1.939   1.455  10.565 -0.2156  0.4803 -0.0044
   84TMC2    C8 1315   1.857   1.853  10.795 -0.1132  0.3990  0.1551
   84TMC2    O1 1316   1.883   1.349  10.563  0.4477  0.0352  0.4305
   84TMC2    O2 1317   1.774   1.899  10.869  0.3287 -0.0543 -0.5598
   84TMC2    O5 1318   1.962   1.906  10.731 -0.3059 -0.2928  0.2121
   84TMC2    H5 1319   1.941   2.000  10.715  1.2034 -0.1674 -1.0107
   85TMC2    C1 1320   2.890   3.714  16.211 -0.3031  0.4559 -0.1955
   85TMC2    C2 1321   2.892   3.838  16.249  0.5525  0.2751 -0.1638
   85TMC2    C3 1322   2.931   3.929  16.159  0.3087  0.0845  0.7663
   85TMC2    C4 1323   2.917   3.665  16.082 -0.1582  0.3177  0.2822
   85TMC2    C5 1324   2.972   3.763  16.000 -0.0095 -0.5540  0.5056
   85TMC2    C6 1325   2.984   3.889  16.039 -0.0421  0.2028  0.0779
   85TMC2     C 1326   2.870   3.618  16.312  0.0701 -0.1456  0.2977
   85TMC2     O 1327   2.931   3.636  16.413 -0.0134 -0.2272 -0.4607
   85TMC2     H 1328   2.851   3.869  16.344 -0.3966 -2.0459  0.1788
   85TMC2    H1 1329   2.920   3.561  16.053 -0.2234  0.2217  0.6138
   85TMC2    H2 1330   3.044   3.959  15.982 -0.7707  0.9533  0.2312
   85TMC2    C7 1331   3.009   3.723  15.871  0.8090 -0.6012 -0.3696
   85TMC2    C8 1332   2.950   4.067  16.210  0.4254 -0.2887 -0.1007
   85TMC2    O1 1333   3.039   3.607  15.860 -0.3162  0.6129  0.6969
   85TMC2    O2 1334   3.020   4.073  16.313 -0.5235  0.3264 -0.0372
   85TMC2    O5 1335   2.948   4.150  16.110 -0.2723 -0.2551 -0.6000
   85TMC2    H5 1336   2.898   4.110  16.036 -1.8984 -0.6206  0.7029
   86MPD2     C 1337   2.575   3.260  16.526  0.2026  0.7491 -0.3648
   86MPD2    C1 1338   2.577   3.235  16.387  0.5528 -0.3898 -0.7518
   86MPD2    C2 1339   2.642   3.323  16.302 -0.7315 -1.2173  0.1782
   86MPD2    C3 1340   2.719   3.427  16.361 -0.1703 -0.0712 -0.2885
   86MPD2    C4 1341   2.724   3.452  16.499 -0.1917 -0.2067  0.3759
   86MPD2    C5 1342   2.651   3.359  16.576  0.1517 -0.0872  0.1633
   86MPD2     H 1343   2.644   3.306  16.195  0.9090  1.1559 -0.1785
   86MPD2    H1 1344   2.796   3.516  16.550 -0.4235 -0.0026  0.4482
   86MPD2    H2 1345   2.528   3.202  16.605  0.5712  0.1645 -0.5785
   86MPD2    H3 1346   2.650   3.369  16.684  0.1290 -1.6481  0.3043
   86MPD2     N 1347   2.784   3.517  16.273 -0.1353 -0.9280  0.5433
   86MPD2    H5 1348   2.758   3.506  16.176 -0.0242 -0.3931  0.4540
   86MPD2    N1 1349   2.510   3.127  16.331 -0.8756  0.0573 -0.5092
   86MPD2    H7 1350   2.523   3.107  16.233  0.0055 -0.9744 -0.1784
   87TMC2    C1 1351   0.407   1.842   1.307 -0.1137 -0.0912 -0.3169
   87TMC2    C2 1352   0.439   1.799   1.435  0.4194 -0.3404  0.1453
   87TMC2    C3 1353   0.410   1.878   1.547  0.1966  0.5112 -0.6148
   87TMC2    C4 1354   0.340   1.962   1.294 -0.7873  0.6429  0.6430
   87TMC2    C5 1355   0.312   2.034   1.405  0.7654  0.1357 -0.6391
   87TMC2    C6 1356   0.351   2.001   1.532 -0.1417 -0.1127 -0.0476
   87TMC2     C 1357   0.459   1.774   1.191  0.2509 -0.0435  0.5896
   87TMC2     O 1358   0.452   1.837   1.088 -0.0119 -0.0046  0.4206
   87TMC2     H 1359   0.459   1.693   1.450 -2.5270 -0.9502 -0.1939
   87TMC2    H1 1360   0.311   2.000   1.196  1.9568  2.0919  0.4000
   87TMC2    H2 1361   0.349   2.070   1.615 -4.1300  0.1157 -0.3237
   87TMC2    C7 1362   0.230   2.157   1.391 -1.0184  0.8298 -0.9624
   87TMC2    C8 1363   0.451   1.829   1.676  0.2056  0.6537 -0.4963
   87TMC2    O1 1364   0.226   2.224   1.288 -0.1714 -0.2663  0.5299
   87TMC2    O2 1365   0.419   1.895   1.773  0.5222 -0.1680 -0.1386
   87TMC2    O5 1366   0.584   1.798   1.661 -0.3447 -0.1132 -0.6026
   87TMC2    H5 1367   0.617   1.786   1.569 -1.9571 -0.0564 -1.1784
   88MPD2     C 1368   4.717   2.285   1.640  0.0687 -0.2536 -0.1054
   88MPD2    C1 1369   0.075   2.294   1.540 -0.4075  0.4566 -0.1640
   88MPD2    C2 1370   0.071   2.405   1.460  0.0838  0.3473 -0.1308
   88MPD2    C3 1371   4.726   2.510   1.485 -0.1400  0.2993  0.0343
   88MPD2    C4 1372   4.631   2.498   1.580 -0.2414 -0.7675 -0.7549
   88MPD2    C5 1373   4.622   2.386   1.653 -0.1473  0.3147  0.0426
   88MPD2     H 1374   0.154   2.417   1.391 -0.1217  0.7230 -0.3159
   88MPD2    H1 1375   4.563   2.581   1.592  4.0558  2.9262 -1.9314
   88MPD2    H2 1376   4.712   2.192   1.695  0.9372  0.5409  1.3278
   88MPD2    H3 1377   4.550   2.385   1.734  1.5727 -0.2511  1.5802
   88MPD2     N 1378   4.725   2.629   1.414  0.0407 -0.1603 -0.3183
   88MPD2    H5 1379   4.650   2.696   1.427  0.1566 -0.1369  0.2277
   88MPD2    N1 1380   0.159   2.180   1.508 -0.2677  0.3967  0.4369
   88MPD2    H7 1381   0.158   2.104   1.576  0.3552 -0.9199 -1.0188
   89TMC2    C1 1382   0.492   0.644   1.590  0.2976 -0.6359 -0.6318
   89TMC2    C2 1383   0.434   0.617   1.463  0.1518 -0.3496 -0.1913
   89TMC2    C3 1384   0.522   0.577   1.364 -0.2498 -0.0103  0.0991
   89TMC2    C4 1385   0.626   0.645   1.606 -0.1395  0.0799 -0.2473
   89TMC2    C5 1386   0.711   0.638   1.494 -0.2410  0.3507  0.6678
   89TMC2    C6 1387   0.659   0.589   1.379  0.1282 -0.5636 -0.0091
   89TMC2     C 1388   0.409   0.630   1.710 -0.8045  0.2078 -0.4676
   89TMC2     O 1389   0.451   0.665   1.819  0.4689  0.3249  0.2191
   89TMC2     H 1390   0.326   0.623   1.456  0.0742 -1.0813  0.3606
   89TMC2    H1 1391   0.662   0.682   1.702 -1.4817  1.4543 -0.2689
   89TMC2    H2 1392   0.725   0.589   1.293  1.3390  3.0241  0.9390
   89TMC2    C7 1393   0.852   0.626   1.522  0.1882 -0.8391  0.2692
   89TMC2    C8 1394   0.464   0.581   1.232 -0.1230  0.0483 -1.1122
   89TMC2    O1 1395   0.879   0.653   1.636 -0.4517  0.3215  0.2278
   89TMC2    O2 1396   0.364   0.652   1.228 -0.5110  0.7542  0.1843
   89TMC2    O5 1397   0.547   0.550   1.135 -0.2185 -0.0934 -0.3384
   89TMC2    H5 1398   0.626   0.491   1.145  1.1142  1.8106  0.3415
   90MPD2     C 1399   4.716   0.479   1.914 -0.2755  0.4596  0.6173
   90MPD2    C1 1400   4.682   0.509   1.786 -0.7863 -0.6032 -0.7213
   90MPD2    C2 1401   0.042   0.553   1.705  0.2598  0.1447  0.0408
   90MPD2    C3 1402   0.175   0.558   1.757 -0.3494 -0.0234 -0.2840
   90MPD2    C4 1403   0.200   0.540   1.895 -0.3831  0.0146  0.0763
   90MPD2    C5 1404   0.098   0.495   1.975 -0.2658  0.1419 -0.2807
   90MPD2     H 1405   0.031   0.572   1.599  1.3842  1.0741  0.0933
   90MPD2    H1 1406   0.299   0.551   1.939 -1.1629 -0.2902  1.8731
   90MPD2    H2 1407   4.641   0.453   1.989 -0.6014  1.4739  0.6357
   90MPD2    H3 1408   0.113   0.483   2.082 -0.2670 -3.4502 -0.6894
   90MPD2     N 1409   0.283   0.593   1.675 -0.7812  0.8149 -0.4436
   90MPD2    H5 1410   0.254   0.578   1.579  0.3891 -0.5147 -0.5867
   90MPD2    N1 1411   4.550   0.505   1.738 -0.6826  0.2733  0.1021
   90MPD2    H7 1412   4.534   0.512   1.638 -1.9383  0.3809  0.3073
   91TMC2    C1 1413   2.227   4.310  16.348 -0.1093 -0.0752  0.4036
   91TMC2    C2 1414   2.274   4.386  16.243  0.0767  1.5705  0.2210
   91TMC2    C3 1415   2.188   4.396  16.133 -0.4855  1.1204  0.4524
   91TMC2    C4 1416   2.108   4.235  16.340  0.1136 -0.3728 -0.5665
   91TMC2    C5 1417   2.044   4.237  16.223  0.1828  0.2043  0.5180
   91TMC2    C6 1418   2.083   4.319  16.120 -0.3712  0.1278  0.1162
   91TMC2     C 1419   2.317   4.272  16.458  0.0140 -0.8546  0.6411
   91TMC2     O 1420   2.267   4.211  16.550 -0.3899 -0.7148  0.2232
   91TMC2     H 1421   2.365   4.445  16.254  0.8566  0.5828 -0.8713
   91TMC2    H1 1422   2.072   4.185  16.429  0.7386 -0.4725 -0.3679
   91TMC2    H2 1423   2.021   4.319  16.031  0.5806 -1.5715 -0.5505
   91TMC2    C7 1424   1.932   4.144  16.205  0.7287 -0.1333  0.4936
   91TMC2    C8 1425   2.235   4.456  16.013  0.7778  0.3566  1.2089
   91TMC2    O1 1426   1.879   4.111  16.314  0.4490 -0.5306 -0.3630
   91TMC2    O2 1427   2.221   4.405  15.902  0.0905 -0.1142 -0.4037
   91TMC2    O5 1428   2.320   4.558  16.051 -0.0157 -0.0547 -0.0829
   91TMC2    H5 1429   2.307   4.590  16.143 -1.4421  1.0150 -0.6535
   92MPD2     C 1430   2.528   4.144  16.601  0.0639 -0.0183 -0.5047
   92MPD2    C1 1431   2.546   4.252  16.525  1.2964 -0.3762 -0.1847
   92MPD2    C2 1432   2.667   4.313  16.538 -0.5353 -0.2046 -0.7145
   92MPD2    C3 1433   2.760   4.274  16.634  0.0764  0.1200 -0.0357
   92MPD2    C4 1434   2.730   4.166  16.716 -0.4578 -0.1072 -0.9652
   92MPD2    C5 1435   2.611   4.099  16.699  0.0093 -0.0887 -0.7568
   92MPD2     H 1436   2.681   4.403  16.480  0.9494 -1.3284 -2.1070
   92MPD2    H1 1437   2.795   4.135  16.797  0.6282  2.3364 -0.9149
   92MPD2    H2 1438   2.434   4.092  16.595 -0.2199  0.5899 -1.2733
   92MPD2    H3 1439   2.578   4.007  16.745 -3.0078  0.7324 -1.2722
   92MPD2     N 1440   2.889   4.328  16.651 -0.0496 -0.1483  0.3140
   92MPD2    H5 1441   2.961   4.280  16.705  0.5063  1.0563  0.6316
   92MPD2    N1 1442   2.448   4.304  16.441  0.2317  0.9994 -0.1125
   92MPD2    H7 1443   2.467   4.365  16.362 -0.2655  0.9039 -0.3029
   93TMC2    C1 1444   4.219   4.171  13.962  0.0645  0.7547 -0.6474
   93TMC2    C2 1445   4.100   4.214  14.021  0.0138  0.4154  0.0678
   93TMC2    C3 1446   4.105   4.337  14.070 -0.5029 -0.1856 -0.3075
   93TMC2    C4 1447   4.334   4.245  13.965  0.0707 -0.3835  0.2064
   93TMC2    C5 1448   4.322   4.374  14.017  0.3735  0.1312 -0.7635
   93TMC2    C6 1449   4.210   4.419  14.070  0.2001  0.0143  0.1012
   93TMC2     C 1450   4.227   4.031  13.919 -0.3023 -0.6691  0.3198
   93TMC2     O 1451   4.335   3.972  13.921  0.3226  0.7740 -0.0129
   93TMC2     H 1452   4.009   4.159  14.041  1.0606 -0.9015  1.1631
   93TMC2    H1 1453   4.423   4.214  13.912 -0.0176 -0.1560 -0.0724
   93TMC2    H2 1454   4.206   4.513  14.122 -1.2561  0.5473 -0.9788
   93TMC2    C7 1455   4.431   4.469  13.998  0.6943  0.0998  0.0126
   93TMC2    C8 1456   4.003   4.383  14.165  0.4744 -0.1255 -0.6974
   93TMC2    O1 1457   4.542   4.413  14.011 -0.2092  0.3755  0.3822
   93TMC2    O2 1458   4.024   4.476  14.242  0.3826 -0.3447 -0.3152
   93TMC2    O5 1459   3.887   4.307  14.161 -0.0126  0.5088 -0.2714
   93TMC2    H5 1460   3.871   4.254  14.081 -2.1275  1.9092 -0.7884
   94MPD2     C 1461   4.127   3.744  13.842  0.8293  0.8263  0.5825
   94MPD2    C1 1462   4.061   3.862  13.828 -0.5386 -0.0805 -0.6367
   94MPD2    C2 1463   3.933   3.860  13.790  0.0275 -0.2837 -0.0943
   94MPD2    C3 1464   3.865   3.747  13.756  0.1213  0.1842 -0.2123
   94MPD2    C4 1465   3.935   3.624  13.756  0.5585 -0.4866  0.6045
   94MPD2    C5 1466   4.069   3.630  13.787 -0.0511 -0.1929  0.3709
   94MPD2     H 1467   3.880   3.954  13.794  1.4052  0.5904 -2.3181
   94MPD2    H1 1468   3.897   3.530  13.719 -1.4195  0.8570 -0.7652
   94MPD2    H2 1469   4.227   3.728  13.880  0.7875 -3.1653 -1.0561
   94MPD2    H3 1470   4.130   3.540  13.789  0.8267  0.3794 -0.5407
   94MPD2     N 1471   3.722   3.743  13.719  0.2387  0.2672 -0.2072
   94MPD2    H5 1472   3.682   3.653  13.697  1.7635 -0.8523  1.6544
   94MPD2    N1 1473   4.106   3.992  13.871  0.5536 -0.1394  0.5812
   94MPD2    H7 1474   4.028   4.058  13.870  1.9481  1.4972  0.8131
   95TMC2    C1 1475   4.090   2.048  16.157 -0.3971 -0.2390  0.0640
   95TMC2    C2 1476   3.961   2.024  16.170  0.3078 -0.0084 -0.4865
   95TMC2    C3 1477   3.867   2.126  16.139 -0.4720  0.0973 -0.7591
   95TMC2    C4 1478   4.132   2.174  16.128  0.8312 -0.1488 -0.3955
   95TMC2    C5 1479   4.038   2.268  16.095 -0.6169  0.2905  0.0343
   95TMC2    C6 1480   3.906   2.251  16.102 -0.2726  0.3245  0.1954
   95TMC2     C 1481   4.183   1.943  16.127  0.1908  0.5731 -0.4483
   95TMC2     O 1482   4.303   1.961  16.149  0.4456 -0.5560 -0.4767
   95TMC2     H 1483   3.925   1.923  16.185  0.2985  0.1771  0.7449
   95TMC2    H1 1484   4.238   2.191  16.138  0.5735  1.3923 -0.3045
   95TMC2    H2 1485   3.836   2.328  16.073  0.6480  1.4961  1.0727
   95TMC2    C7 1486   4.086   2.387  16.033  0.1131  0.5150 -0.0760
   95TMC2    C8 1487   3.725   2.088  16.141  0.4297  0.0985  0.3831
   95TMC2    O1 1488   4.010   2.484  16.046 -0.3521  0.4424 -0.1174
   95TMC2    O2 1489   3.691   1.972  16.173  0.0147 -0.8483 -0.1457
   95TMC2    O5 1490   3.647   2.190  16.094  0.1421  0.0965 -0.3971
   95TMC2    H5 1491   3.703   2.268  16.075  2.2767 -1.4727 -0.4893
   96MPD2     C 1492   4.306   1.542  15.838 -0.0081  0.4701 -0.2842
   96MPD2    C1 1493   4.386   1.641  15.886 -0.6213 -0.0672 -0.1823
   96MPD2    C2 1494   4.328   1.746  15.958 -0.4451  0.6021 -0.3093
   96MPD2    C3 1495   4.193   1.749  15.973 -0.1521 -0.3713  0.6766
   96MPD2    C4 1496   4.116   1.646  15.925 -0.0089 -0.1468  0.3289
   96MPD2    C5 1497   4.174   1.542  15.857 -0.4888 -0.0947  0.1354
   96MPD2     H 1498   4.393   1.819  16.005 -1.4511  0.6293  1.0510
   96MPD2    H1 1499   4.010   1.637  15.947  0.3032  0.4223  2.0597
   96MPD2    H2 1500   4.351   1.450  15.801  1.0407  0.4911  0.9381
   96MPD2    H3 1501   4.116   1.457  15.824 -1.7513  0.5321  0.7397
   96MPD2     N 1502   4.124   1.849  16.046  0.7636  0.2811  0.1987
   96MPD2    H5 1503   4.025   1.862  16.031  0.2498 -3.1629  0.4107
   96MPD2    N1 1504   4.525   1.635  15.856  0.1180  0.1932 -0.5353
   96MPD2    H7 1505   4.561   1.565  15.791  0.5613  0.9548 -1.1114
   97TMC2    C1 1506   1.739   4.125  17.737 -0.3361  0.5679  0.4352
   97TMC2    C2 1507   1.697   4.040  17.639  0.1042 -0.4826  0.0124
   97TMC2    C3 1508   1.747   4.056  17.512  0.6579  0.3795  0.5404
   97TMC2    C4 1509   1.820   4.233  17.698 -0.0915  0.5919 -0.2179
   97TMC2    C5 1510   1.846   4.258  17.567 -0.2374 -0.7031 -0.7028
   97TMC2    C6 1511   1.814   4.162  17.467 -0.5165  0.0172  0.1762
   97TMC2     C 1512   1.672   4.119   0.117 -0.5285  0.3614 -0.6026
   97TMC2     O 1513   1.602   4.018   0.128 -0.8865  0.2934 -0.0013
   97TMC2     H 1514   1.626   3.959  17.651 -0.4479  0.0581  0.3911
   97TMC2    H1 1515   1.842   4.318   0.010 -3.0820 -0.3675  2.1827
   97TMC2    H2 1516   1.846   4.181  17.365  0.2512 -0.3988  0.3443
   97TMC2    C7 1517   1.885   4.391  17.532  0.6407 -0.3282  0.5581
   97TMC2    C8 1518   1.710   3.963  17.412 -0.1080  0.0217 -0.0745
   97TMC2    O1 1519   1.933   4.460  17.623 -0.2793  0.0818  0.2605
   97TMC2    O2 1520   1.601   3.908  17.408 -0.2126 -0.1152 -0.5400
   97TMC2    O5 1521   1.811   3.959  17.327 -0.3683  0.4849 -0.2655
   97TMC2    H5 1522   1.893   4.000  17.362 -0.5480  1.0750 -0.5399
   98MPD2     C 1523   1.441   4.402   0.484 -0.2185  0.3881  0.1908
   98MPD2    C1 1524   1.405   4.284   0.415 -0.3759 -0.4670  0.4189
   98MPD2    C2 1525   1.493   4.216   0.326  0.5270  0.0470  0.0521
   98MPD2    C3 1526   1.604   4.284   0.294 -0.3116  0.3824 -0.4354
   98MPD2    C4 1527   1.639   4.393   0.366  0.3877  0.2333 -0.2063
   98MPD2    C5 1528   1.565   4.449   0.463  1.3113 -0.4430  0.2731
   98MPD2     H 1529   1.460   4.128   0.271 -0.5409  1.4556 -1.5698
   98MPD2    H1 1530   1.727   4.441   0.325  1.9786 -2.6927 -0.1830
   98MPD2    H2 1531   1.385   4.454   0.560 -4.1260 -2.5841 -0.6299
   98MPD2    H3 1532   1.607   4.540   0.504  3.0048 -1.7745  1.4770
   98MPD2     N 1533   1.687   4.236   0.188 -0.1980  0.6713 -0.9274
   98MPD2    H5 1534   1.749   4.299   0.139  0.7308  1.3208  1.0434
   98MPD2    N1 1535   1.282   4.227   0.460  0.3220  0.2870 -0.2541
   98MPD2    H7 1536   1.230   4.280   0.530  2.2567 -0.9885  2.1672
   99TMC2    C1 1537   0.396   1.173   1.875  0.7423  0.6271 -0.6099
   99TMC2    C2 1538   0.436   1.179   2.009  0.0319  0.1748 -0.0394
   99TMC2    C3 1539   0.342   1.209   2.101  0.4139  0.1599  0.4949
   99TMC2    C4 1540   0.267   1.187   1.842  0.2654 -0.0416 -0.8740
   99TMC2    C5 1541   0.175   1.221   1.943  0.5449 -0.3092  0.0794
   99TMC2    C6 1542   0.208   1.238   2.077  0.0072 -0.9262  0.0197
   99TMC2     C 1543   0.493   1.140   1.776 -0.1229  0.1580  0.3438
   99TMC2     O 1544   0.611   1.154   1.807  0.5267  0.2509 -0.4444
   99TMC2     H 1545   0.535   1.155   2.047  0.0070 -0.3003 -0.2725
   99TMC2    H1 1546   0.236   1.189   1.738 -2.2423  1.3484 -0.1074
   99TMC2    H2 1547   0.132   1.268   2.148  1.0392  0.8028  0.3984
   99TMC2    C7 1548   0.033   1.247   1.903  0.4045 -0.5519  0.2790
   99TMC2    C8 1549   0.390   1.244   2.229  0.0697 -0.3026  0.4782
   99TMC2    O1 1550   4.698   1.271   1.999  0.5076  0.2493  0.3587
   99TMC2    O2 1551   0.498   1.292   2.254 -0.4870  0.5253  0.0127
   99TMC2    O5 1552   0.282   1.242   2.315 -0.1258 -0.0341 -0.7580
   99TMC2    H5 1553   0.206   1.187   2.288 -0.1409  0.2054 -1.1956
  100MPD2     C 1554   0.660   1.006   1.569  0.1163 -1.0792  0.5624
  100MPD2    C1 1555   0.526   1.037   1.552 -0.5948 -0.5681  0.0361
  100MPD2    C2 1556   0.470   1.017   1.425 -0.9991 -0.4031  0.5018
  100MPD2    C3 1557   0.550   0.983   1.314 -0.8692 -0.3456 -0.4516
  100MPD2    C4 1558   0.689   0.968   1.338 -0.3540 -0.5130  0.1012
  100MPD2    C5 1559   0.743   0.969   1.462 -0.2394 -0.0328  0.1038
  100MPD2     H 1560   0.369   1.055   1.412 -1.3683 -1.2614  0.9048
  100MPD2    H1 1561   0.752   0.958   1.251  0.8949  0.5095  0.8784
  100MPD2    H2 1562   0.711   1.011   1.664 -0.5494  1.4504  0.7770
  100MPD2    H3 1563   0.850   0.965   1.478 -0.5299  0.3259  2.1882
  100MPD2     N 1564   0.491   0.974   1.186 -0.0022  1.4322  0.0046
  100MPD2    H5 1565   0.394   1.002   1.182 -0.0068  1.4270  0.0730
  100MPD2    N1 1566   0.445   1.083   1.663 -0.1104  0.2686  0.6226
  100MPD2    H7 1567   0.344   1.071   1.656 -0.4725  3.2177  0.6582
  101TMC2    C1 1568   1.070   2.345  13.033 -0.1194  0.0760  0.1869
  101TMC2    C2 1569   0.968   2.419  13.085 -0.2283  1.0579 -0.2487
  101TMC2    C3 1570   0.938   2.542  13.028  0.8863  0.1277  1.0936
  101TMC2    C4 1571   1.135   2.391  12.917 -0.2923 -0.8038 -1.0892
  101TMC2    C5 1572   1.093   2.503  12.853  0.3612  0.2257  0.6224
  101TMC2    C6 1573   0.990   2.576  12.910 -0.0175  0.8413  0.4164
  101TMC2     C 1574   1.081   2.211  13.091  0.0330 -0.4698 -0.1656
  101TMC2     O 1575   0.985   2.181  13.158 -0.4367  0.3537 -0.1007
  101TMC2     H 1576   0.909   2.380  13.167  1.8661 -1.1263  0.1890
  101TMC2    H1 1577   1.214   2.333  12.870 -0.1523 -0.3418 -1.4310
  101TMC2    H2 1578   0.963   2.673  12.870 -0.5244  1.4025  2.1527
  101TMC2    C7 1579   1.180   2.573  12.753 -0.5182 -0.0086 -0.0128
  101TMC2    C8 1580   0.798   2.573  13.050  0.5195  0.4558  0.5568
  101TMC2    O1 1581   1.302   2.553  12.741  0.0646 -0.2561 -0.0472
  101TMC2    O2 1582   0.719   2.484  13.015  0.2896 -0.4578 -0.3985
  101TMC2    O5 1583   0.783   2.704  13.031  1.0000 -0.4309 -0.2193
  101TMC2    H5 1584   0.861   2.754  13.065 -1.0507  2.7729 -0.2610
  102MPD2     C 1585   1.332   1.947  13.059  0.1247  0.0902  0.9063
  102MPD2    C1 1586   1.213   1.997  13.100  0.0718  0.5057  0.2874
  102MPD2    C2 1587   1.114   1.916  13.142 -0.5979 -0.6601  0.0835
  102MPD2    C3 1588   1.129   1.784  13.151 -0.0225  0.0442 -0.2100
  102MPD2    C4 1589   1.245   1.732  13.101  0.8294 -0.1885  0.0432
  102MPD2    C5 1590   1.349   1.810  13.060  0.3830 -0.0119  0.5142
  102MPD2     H 1591   1.016   1.958  13.160 -0.5670 -0.5353 -0.0325
  102MPD2    H1 1592   1.253   1.624  13.096  1.8742 -0.3143  3.7363
  102MPD2    H2 1593   1.399   2.029  13.035  0.1801  0.1142  1.1455
  102MPD2    H3 1594   1.442   1.766  13.026  0.4267  0.2352  0.3105
  102MPD2     N 1595   1.016   1.710  13.182  0.0995 -0.1555 -0.3014
  102MPD2    H5 1596   0.927   1.758  13.188  1.2323  1.9965 -1.0388
  102MPD2    N1 1597   1.196   2.135  13.076  0.8181 -0.1503  0.3607
  102MPD2    H7 1598   1.272   2.181  13.027 -0.6218  1.2440 -0.6009
  103TMC2    C1 1599   3.912   2.161  12.363  0.3929  0.1310 -0.9957
  103TMC2    C2 1600   3.968   2.254  12.289 -0.5433 -0.3971 -0.0142
  103TMC2    C3 1601   4.053   2.348  12.342  0.4525 -0.1764  0.1655
  103TMC2    C4 1602   3.933   2.166  12.499  0.0068 -0.5586  0.4923
  103TMC2    C5 1603   4.015   2.261  12.554 -0.5239 -0.4310 -0.0198
  103TMC2    C6 1604   4.077   2.349  12.477  0.0469 -0.3486 -0.7125
  103TMC2     C 1605   3.810   2.080  12.292 -0.0071  0.0030  0.8094
  103TMC2     O 1606   3.760   2.130  12.189  0.3444  0.4656  0.3740
  103TMC2     H 1607   3.952   2.252  12.182  0.4786 -0.5920 -0.1539
  103TMC2    H1 1608   3.869   2.100  12.557  0.3337 -0.2567  1.2058
  103TMC2    H2 1609   4.164   2.404  12.513 -2.3066  1.8086  1.6832
  103TMC2    C7 1610   4.023   2.291  12.699  0.0204 -0.5842 -0.0266
  103TMC2    C8 1611   4.152   2.398  12.248 -0.4972  0.6228 -0.2816
  103TMC2    O1 1612   4.028   2.411  12.732  0.2009 -0.3495  0.1522
  103TMC2    O2 1613   4.184   2.344  12.146  0.6154 -0.2462 -0.5238
  103TMC2    O5 1614   4.234   2.476  12.309  0.0402  1.2936  0.3033
  103TMC2    H5 1615   4.182   2.529  12.373  0.7307 -0.1261  2.0453
  104MPD2     C 1616   3.703   1.735  12.348  0.2019 -0.1575  0.0344
  104MPD2    C1 1617   3.686   1.863  12.310 -0.3169  0.0125 -0.1058
  104MPD2    C2 1618   3.571   1.911  12.257 -0.1810  0.3375  0.2142
  104MPD2    C3 1619   3.461   1.827  12.258  0.1264 -0.0086  0.8621
  104MPD2    C4 1620   3.478   1.699  12.300  0.0801  0.3445  0.3342
  104MPD2    C5 1621   3.595   1.654  12.344  0.0850  0.0008  0.5697
  104MPD2     H 1622   3.561   2.008  12.210  1.4611  0.3064 -0.2230
  104MPD2    H1 1623   3.396   1.628  12.308  0.4257 -0.1894 -0.8845
  104MPD2    H2 1624   3.798   1.697  12.385  0.1808 -1.5635 -1.3358
  104MPD2    H3 1625   3.594   1.559  12.396  3.7437 -0.4271 -0.1466
  104MPD2     N 1626   3.333   1.878  12.209 -0.5250 -0.6753  0.4730
  104MPD2    H5 1627   3.329   1.970  12.168 -0.9398 -0.1109  1.7805
  104MPD2    N1 1628   3.795   1.951  12.340  0.2453 -0.4762 -1.0474
  104MPD2    H7 1629   3.872   1.918  12.396 -0.1858  2.8507  1.4905
  105TMC2    C1 1630   0.752   1.517   0.310 -0.1544 -0.2099 -0.3979
  105TMC2    C2 1631   0.782   1.651   0.310  0.3351  0.4569 -0.3128
  105TMC2    C3 1632   0.757   1.718   0.425  0.1437 -0.0605  0.3512
  105TMC2    C4 1633   0.689   1.457   0.419 -0.8638 -0.2557 -0.4128
  105TMC2    C5 1634   0.676   1.525   0.537  0.6359 -1.1166 -0.5114
  105TMC2    C6 1635   0.707   1.659   0.541  0.3684 -0.2354 -0.2153
  105TMC2     C 1636   0.803   1.428   0.204  0.0745 -0.4138  0.6864
  105TMC2     O 1637   0.754   1.317   0.208  0.2813  0.2915  0.3852
  105TMC2     H 1638   0.826   1.709   0.229  2.5695 -2.6396 -1.3198
  105TMC2    H1 1639   0.667   1.351   0.413 -0.3315 -0.1613 -3.7832
  105TMC2    H2 1640   0.710   1.714   0.634  0.1181  0.3912 -0.5814
  105TMC2    C7 1641   0.655   1.449   0.660 -0.3993 -0.1759  0.4495
  105TMC2    C8 1642   0.795   1.857   0.445 -0.3046  0.4118 -0.1254
  105TMC2    O1 1643   0.692   1.333   0.658  0.7248 -0.1198  0.3290
  105TMC2    O2 1644   0.819   1.908   0.556 -0.3229  0.1906 -0.1086
  105TMC2    O5 1645   0.781   1.920   0.322 -0.2647  0.1653 -0.0028
  105TMC2    H5 1646   0.753   1.857   0.252 -0.3250  1.3306 -1.0238
  106MPD2     C 1647   1.066   1.273  17.555 -0.2098 -0.7895  0.2724
  106MPD2    C1 1648   1.078   1.409  17.552 -0.0283  0.0072 -0.1995
  106MPD2    C2 1649   1.017   1.475  17.655  0.6919  0.8050  0.3036
  106MPD2    C3 1650   0.952   1.410   0.006  0.1728 -0.1008  0.1252
  106MPD2    C4 1651   0.938   1.276   0.001  0.2528  0.1798 -0.7592
  106MPD2    C5 1652   0.984   1.212  17.643  0.1217 -0.2422 -0.0124
  106MPD2     H 1653   1.032   1.583  17.655 -0.1117  0.9159  0.1806
  106MPD2    H1 1654   0.885   1.215   0.074  1.5273  0.5862  0.5066
  106MPD2    H2 1655   1.096   1.216  17.468 -0.8759  1.5683 -1.5167
  106MPD2    H3 1656   0.977   1.104  17.650 -3.0965 -0.0262  0.1211
  106MPD2     N 1657   0.893   1.490   0.111  0.1483  0.1440  0.0823
  106MPD2    H5 1658   0.934   1.581   0.127 -2.3421  0.7026  3.2426
  106MPD2    N1 1659   1.148   1.494  17.460 -0.3440 -0.8041  0.1223
  106MPD2    H7 1660   1.142   1.594  17.474 -2.6624 -1.0635  0.9872
  107TMC2    C1 1661   1.134   1.628  11.822  0.5630 -0.4223  0.3591
  107TMC2    C2 1662   1.222   1.729  11.850  0.4012  0.5211 -0.8460
  107TMC2    C3 1663   1.311   1.759  11.747  0.0814 -0.4076 -0.3645
  107TMC2    C4 1664   1.139   1.545  11.715 -0.2495 -0.1471 -0.0413
  107TMC2    C5 1665   1.233   1.575  11.616  0.8553 -0.1110  1.1532
  107TMC2    C6 1666   1.320   1.677  11.632  0.3355  0.7663 -0.4618
  107TMC2     C 1667   1.047   1.589  11.930 -0.5692 -0.6676  0.6142
  107TMC2     O 1668   1.015   1.470  11.940  0.0735  0.1253 -0.0278
  107TMC2     H 1669   1.212   1.792  11.937 -1.0649  2.0820 -2.1386
  107TMC2    H1 1670   1.083   1.452  11.712 -1.8959  0.8489 -0.0019
  107TMC2    H2 1671   1.394   1.709  11.559  0.3644  1.6148 -0.0513
  107TMC2    C7 1672   1.257   1.460  11.520 -0.5212  0.9724 -0.3736
  107TMC2    C8 1673   1.401   1.872  11.762 -0.2564  0.2937 -0.1269
  107TMC2    O1 1674   1.201   1.352  11.536  0.6274  0.5587  0.6067
  107TMC2    O2 1675   1.483   1.877  11.852 -0.0945  0.1155 -0.3614
  107TMC2    O5 1676   1.413   1.931  11.642 -0.5025  0.2893 -0.1103
  107TMC2    H5 1677   1.327   1.916  11.598 -0.7757  1.3639  0.0632
  108MPD2     C 1678   0.836   1.827  12.123 -0.3005  0.6028 -0.0227
  108MPD2    C1 1679   0.886   1.699  12.087  1.4695  0.9071  0.6600
  108MPD2    C2 1680   0.825   1.582  12.144 -0.9994 -0.6584  0.3141
  108MPD2    C3 1681   0.721   1.598  12.236  0.6515  0.6699  0.0302
  108MPD2    C4 1682   0.659   1.722  12.253  0.1449  0.1071 -0.6111
  108MPD2    C5 1683   0.720   1.834  12.206  0.1935  0.2533  0.4510
  108MPD2     H 1684   0.865   1.484  12.124 -1.1396 -1.3070  3.1823
  108MPD2    H1 1685   0.579   1.729  12.326  2.0823 -1.8185  1.6750
  108MPD2    H2 1686   0.870   1.918  12.075  1.2464 -0.0951 -0.2350
  108MPD2    H3 1687   0.663   1.925  12.219  2.3084  1.8590 -1.5431
  108MPD2     N 1688   0.669   1.486  12.305 -0.2251  0.1028 -0.5822
  108MPD2    H5 1689   0.608   1.513  12.382 -1.9272 -1.2117 -1.4726
  108MPD2    N1 1690   0.991   1.698  11.992 -0.3676 -0.8217  0.5926
  108MPD2    H7 1691   1.024   1.790  11.964 -1.3757 -0.9098 -0.8339
  109TMC2    C1 1692   0.579   4.394   1.570 -0.6269 -0.2683  0.1199
  109TMC2    C2 1693   0.466   4.468   1.599  0.3227 -0.2142 -0.2803
  109TMC2    C3 1694   0.416   4.549   1.495  0.2276 -0.4842  0.4119
  109TMC2    C4 1695   0.636   4.384   1.452  0.7504  0.5803  0.9881
  109TMC2    C5 1696   0.586   4.460   1.346  0.2922  0.5266 -0.3453
  109TMC2    C6 1697   0.473   4.540   1.372  1.1666 -0.0515 -0.2519
  109TMC2     C 1698   0.627   4.302   1.670  0.3270  0.0737  0.4724
  109TMC2     O 1699   0.615   4.338   1.785  0.0503 -0.7400  0.3956
  109TMC2     H 1700   0.425   4.460   1.699 -0.8518 -0.4601 -0.7796
  109TMC2    H1 1701   0.722   4.317   1.448  0.2070  0.1183 -2.9904
  109TMC2    H2 1702   0.443   4.610   1.295  2.8703 -0.1312 -0.9828
  109TMC2    C7 1703   0.631   4.422   1.216  0.0596 -0.7444 -0.5982
  109TMC2    C8 1704   0.281   4.601   1.498  0.9783 -1.1951 -0.5572
  109TMC2    O1 1705   0.745   4.380   1.215  0.1047 -1.0423  0.1377
  109TMC2    O2 1706   0.211   4.598   1.396 -0.1161  0.3578  0.4642
  109TMC2    O5 1707   0.249   4.656   1.621 -0.0912 -0.1143 -0.7100
  109TMC2    H5 1708   0.331   4.663   1.674 -0.7710  0.8471  0.2104
  110MPD2     C 1709   0.748   3.819   1.808  0.4243 -0.0041  0.7347
  110MPD2    C1 1710   0.720   3.821   1.670  0.3017  0.8303 -0.9671
  110MPD2    C2 1711   0.676   3.938   1.614  0.4838 -0.5129 -0.4418
  110MPD2    C3 1712   0.679   4.055   1.686  0.0649 -0.1433 -0.2573
  110MPD2    C4 1713   0.719   4.055   1.816 -0.1285 -0.7391  0.4882
  110MPD2    C5 1714   0.757   3.940   1.872  0.2699 -0.0010  0.4968
  110MPD2     H 1715   0.653   3.936   1.508 -0.9023 -0.8429 -0.1372
  110MPD2    H1 1716   0.722   4.141   1.882 -0.5297 -0.1667 -0.2523
  110MPD2    H2 1717   0.770   3.729   1.864  0.4577  1.8091  3.6028
  110MPD2    H3 1718   0.789   3.942   1.976 -0.9155  0.8216  0.8420
  110MPD2     N 1719   0.642   4.176   1.613 -0.3948 -0.2953 -0.0156
  110MPD2    H5 1720   0.633   4.172   1.512 -1.1450  3.1165 -0.0781
  110MPD2    N1 1721   0.708   3.693   1.604  0.0980 -0.1422 -0.3535
  110MPD2    H7 1722   0.743   3.609   1.649  2.1479  1.0650  0.2926
  111TMC2    C1 1723   0.883   2.993  11.726 -0.3744  0.6170  0.4543
  111TMC2    C2 1724   0.803   2.982  11.838  0.1242  0.6628 -0.4662
  111TMC2    C3 1725   0.870   2.928  11.947  0.0928  0.3918  0.4055
  111TMC2    C4 1726   1.013   2.953  11.721  0.1205 -0.7610 -0.1323
  111TMC2    C5 1727   1.073   2.894  11.830  0.3484 -0.2319 -0.6624
  111TMC2    C6 1728   0.999   2.881  11.941  0.4162  0.2081  0.1955
  111TMC2     C 1729   0.828   3.075  11.617  0.3100  0.6244  0.0823
  111TMC2     O 1730   0.909   3.117  11.534  0.3558  0.5420  0.2279
  111TMC2     H 1731   0.707   3.029  11.850 -0.3419 -0.5370  0.5019
  111TMC2    H1 1732   1.068   2.952  11.628  2.0790 -1.6214  1.0319
  111TMC2    H2 1733   1.041   2.831  12.028  0.4531  0.9302  0.5945
  111TMC2    C7 1734   1.211   2.866  11.842  0.2581  1.3451  0.1454
  111TMC2    C8 1735   0.792   2.900  12.065 -0.5080 -0.4010 -0.3976
  111TMC2    O1 1736   1.252   2.822  11.947  0.1715  0.2493  0.6124
  111TMC2    O2 1737   0.823   2.803  12.128 -0.6074 -0.0810  0.3253
  111TMC2    O5 1738   0.716   2.996  12.112 -0.0399 -0.3894  0.0737
  111TMC2    H5 1739   0.712   3.073  12.051 -1.5386 -0.0981  0.5568
  112MPD2     C 1740   0.446   3.237  11.310 -0.5376  0.1001  0.7768
  112MPD2    C1 1741   0.583   3.258  11.313 -0.0192  0.3533  0.4980
  112MPD2    C2 1742   0.664   3.191  11.403 -0.5068 -0.2629 -0.4299
  112MPD2    C3 1743   0.618   3.112  11.500  0.3635  0.2374 -0.4986
  112MPD2    C4 1744   0.483   3.094  11.503  0.5198 -0.4173  0.5341
  112MPD2    C5 1745   0.404   3.153  11.412  0.1830  0.8056 -0.6921
  112MPD2     H 1746   0.770   3.206  11.385 -0.3049 -0.2721  0.7941
  112MPD2    H1 1747   0.437   3.045  11.587 -1.5314  0.6956  0.0519
  112MPD2    H2 1748   0.371   3.274  11.241 -1.5467  0.2911  1.9686
  112MPD2    H3 1749   0.296   3.144  11.424  0.2770  1.3160  0.4996
  112MPD2     N 1750   0.698   3.061  11.603  0.4011 -0.0514 -0.6244
  112MPD2    H5 1751   0.655   2.995  11.668 -2.4222  0.5938 -1.8441
  112MPD2    N1 1752   0.639   3.338  11.215  0.5822 -0.2199  0.4577
  112MPD2    H7 1753   0.740   3.350  11.217  0.5163  0.5766 -0.7065
  113TMC2    C1 1754   4.158   1.601   0.695 -0.4472 -0.2009  0.0368
  113TMC2    C2 1755   4.064   1.700   0.697  0.2401  0.0824  0.1879
  113TMC2    C3 1756   3.942   1.671   0.655  0.9396 -0.3737 -0.4722
  113TMC2    C4 1757   4.122   1.475   0.652 -0.2031  0.4515  0.3226
  113TMC2    C5 1758   3.994   1.448   0.617  0.6699  0.3060  0.3979
  113TMC2    C6 1759   3.898   1.549   0.619  0.3290  0.2892 -0.6441
  113TMC2     C 1760   4.273   1.611   0.775  0.3443 -0.1753 -0.0297
  113TMC2     O 1761   4.254   1.695   0.865 -0.4670  0.3338 -0.2101
  113TMC2     H 1762   4.101   1.798   0.722  2.6534 -1.0536  1.0701
  113TMC2    H1 1763   4.190   1.390   0.645 -0.6458  0.0199  1.2922
  113TMC2    H2 1764   3.792   1.540   0.596  0.8385  0.6385 -3.1785
  113TMC2    C7 1765   3.961   1.320   0.554  0.2317  0.1198  0.2435
  113TMC2    C8 1766   3.836   1.760   0.689 -0.5903  0.8493  0.0974
  113TMC2    O1 1767   4.053   1.240   0.523  0.3789 -0.0544 -0.2085
  113TMC2    O2 1768   3.722   1.725   0.709 -0.3246  0.7945  0.0511
  113TMC2    O5 1769   3.888   1.881   0.722  0.3123 -0.5049  0.2447
  113TMC2    H5 1770   3.817   1.947   0.735  0.4547 -0.5489  1.3030
  114MPD2     C 1771   4.574   1.325   1.087  0.2965  0.1870 -0.1555
  114MPD2    C1 1772   4.511   1.449   1.106  1.1110  0.1733 -0.3578
  114MPD2    C2 1773   4.445   1.505   0.994 -1.0707 -0.1166 -0.3271
  114MPD2    C3 1774   4.430   1.443   0.876  0.6017 -0.4622  0.5465
  114MPD2    C4 1775   4.491   1.324   0.861  0.5360  0.1947  0.1883
  114MPD2    C5 1776   4.565   1.270   0.958  0.5933 -0.2173  0.8807
  114MPD2     H 1777   4.403   1.604   1.011  0.2120  0.2409  0.8048
  114MPD2    H1 1778   4.499   1.271   0.767 -0.0548 -0.5635  0.5639
  114MPD2    H2 1779   4.631   1.270   1.161 -0.4315 -0.0899  0.2076
  114MPD2    H3 1780   4.619   1.179   0.935  1.1145 -0.1667  1.8796
  114MPD2     N 1781   4.353   1.501   0.774  0.9338 -0.2331  0.5663
  114MPD2    H5 1782   4.352   1.438   0.696 -0.5349  1.4498 -0.7909
  114MPD2    N1 1783   4.513   1.523   1.227  0.4187  0.4380  0.2555
  114MPD2    H7 1784   4.450   1.602   1.236 -0.2083 -0.1923  1.4082
  115TMC2    C1 1785   0.462   3.755   0.052  0.7364 -0.6711 -0.7685
  115TMC2    C2 1786   0.585   3.725   0.006  0.3443  0.4353  0.8684
  115TMC2    C3 1787   0.676   3.823  17.736  0.7017 -0.0562  0.1801
  115TMC2    C4 1788   0.423   3.885   0.072  1.2587  0.8680  0.3619
  115TMC2    C5 1789   0.506   3.979   0.029  0.3568 -0.4462 -0.2935
  115TMC2    C6 1790   0.636   3.953  17.744 -0.5106  0.2681 -0.1651
  115TMC2     C 1791   0.366   3.645   0.053 -0.3862  0.2828 -0.0524
  115TMC2     O 1792   0.405   3.540  17.749  0.5536 -0.4235  0.1450
  115TMC2     H 1793   0.617   3.622   0.002 -2.6023 -0.5721  2.9178
  115TMC2    H1 1794   0.317   3.901   0.090  0.6921  2.1512 -4.3291
  115TMC2    H2 1795   0.712   4.030  17.745 -0.8891  0.6320  0.8494
  115TMC2    C7 1796   0.457   4.114   0.009  0.1097  0.2626 -0.0556
  115TMC2    C8 1797   0.803   3.782  17.690 -0.8457  0.1872  0.7002
  115TMC2    O1 1798   0.355   4.149   0.067 -0.2865 -0.4513 -0.0612
  115TMC2    O2 1799   0.850   3.676  17.723  0.4989  0.0244 -0.2833
  115TMC2    O5 1800   0.869   3.882  17.640  0.7049 -0.2854  0.0812
  115TMC2    H5 1801   0.813   3.957  17.610  0.2181 -0.8869 -0.5240
  116MPD2     C 1802   4.651   3.400   0.065 -0.1073 -0.9165 -0.2246
  116MPD2    C1 1803   0.032   3.369  17.750 -0.5628 -0.2569 -0.4831
  116MPD2    C2 1804   0.145   3.453   0.006  0.1328 -0.0515  0.3841
  116MPD2    C3 1805   0.141   3.567   0.085  0.8172 -0.3619 -0.4456
  116MPD2    C4 1806   0.023   3.594   0.151  0.3563  0.1319 -1.0447
  116MPD2    C5 1807   4.647   3.517   0.139 -0.0362 -0.5307  0.7336
  116MPD2     H 1808   0.234   3.433  17.699 -0.5028 -1.0574 -0.2383
  116MPD2    H1 1809   0.014   3.685   0.210 -0.5701 -2.2166  2.3851
  116MPD2    H2 1810   4.572   3.326   0.059 -0.3499 -0.6148 -0.8825
  116MPD2    H3 1811   4.554   3.550   0.183 -0.8088 -0.1038 -1.2010
  116MPD2     N 1812   0.242   3.663   0.103 -0.4411 -0.7322 -0.1165
  116MPD2    H5 1813   0.220   3.750   0.149 -0.7696 -0.4737 -0.7739
  116MPD2    N1 1814   0.029   3.242  17.676  0.0551  0.2087  0.2541
  116MPD2    H7 1815   4.678   3.197  17.659  0.3045  0.2016 -1.0371
  117TMC2    C1 1816   3.443   4.548  13.980  0.4774 -1.1002 -0.0231
  117TMC2    C2 1817   3.550   4.480  13.919  0.1005 -0.4323 -0.9387
  117TMC2    C3 1818   3.668   4.537  13.959 -0.6178  0.2203 -0.3599
  117TMC2    C4 1819   3.450   4.647  14.068 -0.5552  0.0075  0.4067
  117TMC2    C5 1820   3.572   4.682  14.107  0.0600  0.2558 -0.6550
  117TMC2    C6 1821   3.680   4.628  14.054  0.0709  0.5078  0.3510
  117TMC2     C 1822   3.317   4.509  13.927  0.0121  0.0737 -0.3798
  117TMC2     O 1823   3.291   4.396  13.895  0.0189 -0.5353 -0.2688
  117TMC2     H 1824   3.532   4.418  13.832  1.4713 -0.0402 -1.4929
  117TMC2    H1 1825   3.366   4.708  14.100 -0.6389  0.6106 -0.9807
  117TMC2    H2 1826   3.775   4.673  14.079 -0.4535  2.3367 -0.8469
  117TMC2    C7 1827   3.582   0.075  14.174  0.1219  0.3621  0.0837
  117TMC2    C8 1828   3.791   4.493  13.896  0.4643  0.2557 -0.2244
  117TMC2    O1 1829   3.666   0.151  14.125  0.3597 -0.4294  0.4580
  117TMC2    O2 1830   3.902   4.519  13.939  0.2511  0.3137  0.1686
  117TMC2    O5 1831   3.771   4.448  13.769 -0.1436 -0.7130 -0.0248
  117TMC2    H5 1832   3.677   4.446  13.739 -0.7277 -1.3231  1.8530
  118MPD2     C 1833   3.339   0.219  14.406  0.4966  0.2730  0.1461
  118MPD2    C1 1834   3.459   0.214  14.336  0.1073  0.2956 -0.4660
  118MPD2    C2 1835   3.538   0.329  14.333 -0.6588 -0.2626 -0.2993
  118MPD2    C3 1836   3.489   0.448  14.379  0.1549 -0.0742 -0.4882
  118MPD2    C4 1837   3.366   0.453  14.443 -0.1153 -0.2764  0.1091
  118MPD2    C5 1838   3.296   0.337  14.462  0.3265  0.1618  0.0111
  118MPD2     H 1839   3.635   0.314  14.288 -0.1054  3.7458 -0.4423
  118MPD2    H1 1840   3.328   0.545  14.484 -1.4422 -0.2579 -1.1702
  118MPD2    H2 1841   3.272   0.136  14.425 -1.9981  1.8788 -1.8351
  118MPD2    H3 1842   3.205   0.332  14.519  0.9048 -0.2355  0.8925
  118MPD2     N 1843   3.562   0.566  14.376  0.2858  0.2601 -0.3447
  118MPD2    H5 1844   3.514   0.655  14.385  0.2525  0.1827  0.2338
  118MPD2    N1 1845   3.477   0.091  14.267  0.0391 -0.1881  0.0697
  118MPD2    H7 1846   3.413   0.012  14.272  0.3773 -0.3878  1.2920
  119TMC2    C1 1847   2.121   1.410  13.543  0.1609  0.6541 -0.2005
  119TMC2    C2 1848   2.243   1.353  13.505  0.5407 -0.3396 -0.2727
  119TMC2    C3 1849   2.240   1.251  13.418  0.0239 -0.2647  0.2836
  119TMC2    C4 1850   2.002   1.350  13.514 -0.0155 -0.1121 -0.2437
  119TMC2    C5 1851   2.004   1.237  13.438 -0.1264 -0.8886  0.3580
  119TMC2    C6 1852   2.121   1.189  13.378  0.1501 -0.4596 -0.4130
  119TMC2     C 1853   2.124   1.552  13.589  0.0826  0.0284  0.2512
  119TMC2     O 1854   2.034   1.586  13.661  0.1387 -0.4886  0.5583
  119TMC2     H 1855   2.334   1.371  13.560  0.1356 -1.2378  0.6898
  119TMC2    H1 1856   1.909   1.402  13.532  0.4725  0.6556  0.0790
  119TMC2    H2 1857   2.109   1.125  13.292  2.0926  0.8704 -1.6763
  119TMC2    C7 1858   1.883   1.160  13.403  0.4559  0.3160  0.3931
  119TMC2    C8 1859   2.367   1.188  13.389  0.1431 -0.2616 -0.3815
  119TMC2    O1 1860   1.883   1.101  13.299  0.1606 -0.3858  0.7814
  119TMC2    O2 1861   2.468   1.184  13.458  0.0353 -0.3988 -0.1445
  119TMC2    O5 1862   2.358   1.133  13.270 -0.5395  0.3132  0.0755
  119TMC2    H5 1863   2.279   1.156  13.217  0.7792  3.5700 -0.5123
  120MPD2     C 1864   2.300   2.027  13.651  0.3346 -0.8597 -0.9384
  120MPD2    C1 1865   2.170   1.978  13.653 -0.1909 -0.0248 -0.5193
  120MPD2    C2 1866   2.161   1.840  13.624 -0.4450  0.0491  0.5815
  120MPD2    C3 1867   2.264   1.752  13.618 -0.0257 -0.5481 -0.2262
  120MPD2    C4 1868   2.391   1.801  13.624  0.0777  0.7538  0.0410
  120MPD2    C5 1869   2.404   1.933  13.642  0.2807 -0.1520 -0.4080
  120MPD2     H 1870   2.061   1.799  13.612 -0.4460  0.1238  0.3336
  120MPD2    H1 1871   2.480   1.740  13.613 -0.7888 -0.3202 -1.0256
  120MPD2    H2 1872   2.322   2.131  13.676  0.1242 -1.0323 -0.0261
  120MPD2    H3 1873   2.504   1.976  13.645  0.3095 -0.2690  0.4759
  120MPD2     N 1874   2.252   1.612  13.595  0.1305 -0.6774 -0.5070
  120MPD2    H5 1875   2.330   1.559  13.557  1.2455  1.3571 -1.1043
  120MPD2    N1 1876   2.067   2.073  13.665  0.7135 -0.5525  0.3056
  120MPD2    H7 1877   2.084   2.172  13.655  1.2208 -0.5673  1.0780
  121TMC2    C1 1878   3.524   2.684  13.988 -0.0860  0.4110  0.1431
  121TMC2    C2 1879   3.505   2.623  13.870  0.8623  0.6191  0.1748
  121TMC2    C3 1880   3.406   2.525  13.870 -0.6194 -0.1947  0.7235
  121TMC2    C4 1881   3.456   2.648  14.100  0.1262 -0.0004 -0.4838
  121TMC2    C5 1882   3.353   2.561  14.090 -0.3981 -0.3474 -0.4740
  121TMC2    C6 1883   3.323   2.496  13.977 -0.5081  0.5799 -0.4856
  121TMC2     C 1884   3.599   2.807  13.986  0.6714 -0.2363 -0.6405
  121TMC2     O 1885   3.625   2.852  14.098  0.1120  0.6923  0.0341
  121TMC2     H 1886   3.579   2.618  13.791  0.9045 -2.2897  0.3794
  121TMC2    H1 1887   3.475   2.701  14.193 -0.7694 -0.4726 -0.0286
  121TMC2    H2 1888   3.253   2.414  13.984 -1.3382  1.1459 -2.2525
  121TMC2    C7 1889   3.287   2.518  14.207  0.0468  0.3757 -0.0375
  121TMC2    C8 1890   3.366   2.476  13.743  0.3087 -0.5902 -0.2421
  121TMC2    O1 1891   3.348   2.515  14.312 -0.5297  0.2198  0.1177
  121TMC2    O2 1892   3.333   2.357  13.734  0.4690 -0.0609 -0.4354
  121TMC2    O5 1893   3.395   2.561  13.647 -0.4381 -0.2281 -0.1546
  121TMC2    H5 1894   3.401   2.654  13.680  0.3041 -0.7717  1.2585
  122MPD2     C 1895   3.733   3.062  13.921 -0.2239  0.0744  0.0207
  122MPD2    C1 1896   3.649   3.000  13.833 -0.6688 -0.1280 -0.1036
  122MPD2    C2 1897   3.615   3.065  13.713 -0.2796  0.1986 -0.1935
  122MPD2    C3 1898   3.657   3.196  13.689  0.2997  0.2261 -1.1576
  122MPD2    C4 1899   3.755   3.242  13.770  0.3970 -0.2581 -0.4001
  122MPD2    C5 1900   3.794   3.183  13.887 -0.0875  0.4707 -0.2964
  122MPD2     H 1901   3.550   3.025  13.635 -0.8986  2.2862 -0.7496
  122MPD2    H1 1902   3.788   3.345  13.765  0.0677 -0.1258  0.1645
  122MPD2    H2 1903   3.753   3.016  14.017 -0.0927  2.6665  1.2285
  122MPD2    H3 1904   3.868   3.228  13.953  1.4893 -1.3124 -0.8457
  122MPD2     N 1905   3.609   3.263  13.572  0.3055 -0.5887  0.2056
  122MPD2    H5 1906   3.545   3.206  13.517  0.9075 -1.5025  0.4455
  122MPD2    N1 1907   3.593   2.872  13.861 -0.3602 -0.7250  0.4556
  122MPD2    H7 1908   3.528   2.830  13.796  1.8088 -2.4022 -0.6202
  123TMC2    C1 1909   1.643   2.331  10.953 -0.6732  0.4247 -0.3402
  123TMC2    C2 1910   1.630   2.463  10.942  0.0472 -0.2310  0.1281
  123TMC2    C3 1911   1.702   2.530  10.849  0.1920 -0.3966  0.5642
  123TMC2    C4 1912   1.717   2.258  10.862 -0.0952 -0.3039 -0.1852
  123TMC2    C5 1913   1.793   2.328  10.772  0.5292  0.3832 -0.3172
  123TMC2    C6 1914   1.788   2.469  10.770 -0.1871  0.4519  0.1952
  123TMC2     C 1915   1.531   2.270  11.025 -0.2880  0.4619 -0.7962
  123TMC2     O 1916   1.458   2.339  11.097 -0.5023  0.1711 -0.5007
  123TMC2     H 1917   1.562   2.515  11.009  0.7364  2.2010 -1.0735
  123TMC2    H1 1918   1.730   2.151  10.872  1.7112 -0.0750 -0.0309
  123TMC2    H2 1919   1.849   2.531  10.705 -1.1224  0.7648 -0.3835
  123TMC2    C7 1920   1.850   2.250  10.669 -0.2503 -0.7877  0.2622
  123TMC2    C8 1921   1.699   2.673  10.865 -0.0970  0.7321 -0.4935
  123TMC2    O1 1922   1.895   2.144  10.718  0.4825  0.1755  0.2981
  123TMC2    O2 1923   1.682   2.722  10.971  0.5755 -0.5327 -0.2302
  123TMC2    O5 1924   1.653   2.725  10.746 -0.1955 -0.1301 -0.0255
  123TMC2    H5 1925   1.672   2.662  10.673  1.1493  0.9102 -0.5638
  124MPD2     C 1926   1.243   1.863  11.171  0.4671 -0.9576  0.0845
  124MPD2    C1 1927   1.337   1.820  11.079  0.4155  0.3426 -0.3444
  124MPD2    C2 1928   1.435   1.906  11.022 -0.2608 -0.1866 -0.6262
  124MPD2    C3 1929   1.422   2.044  11.060 -0.9389 -0.0111 -0.5699
  124MPD2    C4 1930   1.318   2.087  11.138  0.1190  0.5670 -1.5276
  124MPD2    C5 1931   1.232   1.995  11.190  0.6180 -0.2581  0.5910
  124MPD2     H 1932   1.511   1.866  10.955  1.6083  1.6158  0.4366
  124MPD2    H1 1933   1.305   2.193  11.155  2.0472  0.6190 -0.3742
  124MPD2    H2 1934   1.167   1.792  11.202  1.0348 -0.8480  1.6812
  124MPD2    H3 1935   1.151   2.033  11.250 -1.8641 -2.9351 -1.0805
  124MPD2     N 1936   1.520   2.132  11.005 -0.0330 -0.3330 -0.1843
  124MPD2    H5 1937   1.587   2.100  10.936  1.0820  0.8975  0.3224
  124MPD2    N1 1938   1.320   1.691  11.029  0.0027  0.5282 -0.4034
  124MPD2    H7 1939   1.244   1.633  11.062  0.8257  0.0582  0.6802
  125TMC2    C1 1940   2.486   0.160   9.653 -0.1996  0.6055 -0.8856
  125TMC2    C2 1941   2.614   0.207   9.657  0.1885  0.6918 -0.3090
  125TMC2    C3 1942   2.710   0.115   9.673 -0.6841  0.5334 -0.1305
  125TMC2    C4 1943   2.443   0.034   9.662  0.3178  0.1062 -0.0198
  125TMC2    C5 1944   2.542   4.683   9.687 -0.4900 -0.2717  0.0002
  125TMC2    C6 1945   2.673   4.722   9.700 -0.0323 -0.1431  0.6802
  125TMC2     C 1946   2.387   0.260   9.611  0.8058  0.1230 -0.2632
  125TMC2     O 1947   2.434   0.353   9.541  0.4174  0.3666  0.0330
  125TMC2     H 1948   2.636   0.301   9.608  1.6579 -0.5906 -2.1495
  125TMC2    H1 1949   2.341   0.007   9.640  0.2037  0.7943 -0.3517
  125TMC2    H2 1950   2.745   4.648   9.732  1.4482  0.2722 -1.6615
  125TMC2    C7 1951   2.518   4.539   9.661  0.6884  0.4391 -0.1118
  125TMC2    C8 1952   2.849   0.149   9.706  0.0834  0.0319 -0.3709
  125TMC2    O1 1953   2.400   4.511   9.680 -0.1671  0.2361  0.1200
  125TMC2    O2 1954   2.948   0.083   9.668  0.4238  0.3477  0.0980
  125TMC2    O5 1955   2.848   0.289   9.714 -0.2636  0.4498 -0.5360
  125TMC2    H5 1956   2.767   0.329   9.753 -0.4744  0.0314 -0.5468
  126MPD1     C 1957   1.936   0.492   9.678 -0.3379  0.0963  0.5829
  126MPD1    C1 1958   1.947   0.389   9.766  0.0762  0.7419 -0.0246
  126MPD1    C2 1959   2.061   0.305   9.760  0.6351  0.0717 -0.0235
  126MPD1    C3 1960   2.158   0.327   9.665 -0.0231 -0.0059 -0.6019
  126MPD1    C4 1961   2.151   0.437   9.584  0.0868  0.3621 -0.2570
  126MPD1    C5 1962   2.042   0.520   9.595  0.1397 -0.5545 -0.3742
  126MPD1     H 1963   2.073   0.221   9.827 -1.4518 -0.0840  0.1556
  126MPD1    H1 1964   2.221   0.459   9.505 -1.7245  1.6199 -1.5065
  126MPD1    H2 1965   1.862   0.572   9.677  0.0601  0.4312 -1.3715
  126MPD1    H3 1966   2.031   0.597   9.519  0.7898  1.1468  1.2365
  126MPD1     N 1967   2.270   0.243   9.679  0.1734 -0.4272 -0.2422
  126MPD1    H5 1968   2.273   0.171   9.751 -1.4159 -2.5313 -2.2823
  126MPD1    N1 1969   1.837   0.355   9.850 -0.2780  0.6581  0.4525
  126MPD1    H6 1970   1.777   0.433   9.875 -0.7403  0.0439  1.2634
  126MPD1    H7 1971   1.865   0.304   9.934 -1.8409 -1.0418 -0.0627
  127TMC2    C1 1972   3.529   2.571   9.413 -0.1952 -0.2750 -0.4186
  127TMC2    C2 1973   3.566   2.540   9.539  0.4657 -0.1077 -0.3422
  127TMC2    C3 1974   3.491   2.443   9.600 -0.5188 -0.2217  1.1618
  127TMC2    C4 1975   3.436   2.498   9.340  0.0451 -0.6130 -0.2704
  127TMC2    C5 1976   3.376   2.394   9.403  0.5553 -0.1734 -0.2836
  127TMC2    C6 1977   3.390   2.376   9.542 -0.2556 -0.1864 -0.1256
  127TMC2     C 1978   3.589   2.693   9.355  0.5839  0.2064 -0.1768
  127TMC2     O 1979   3.671   2.748   9.428  0.5557  0.0984  0.4270
  127TMC2     H 1980   3.648   2.585   9.593  0.5793  0.1108 -0.6956
  127TMC2    H1 1981   3.405   2.520   9.238 -1.1511  1.0241  0.4638
  127TMC2    H2 1982   3.351   2.282   9.581 -1.4461  0.0529 -0.7311
  127TMC2    C7 1983   3.276   2.321   9.323  0.5157 -0.7847  0.0173
  127TMC2    C8 1984   3.508   2.425   9.747 -0.2588 -0.4999  1.2255
  127TMC2    O1 1985   3.268   2.332   9.200 -0.3502  0.2486  0.1748
  127TMC2    O2 1986   3.598   2.474   9.807 -0.3554  0.8699 -0.4006
  127TMC2    O5 1987   3.392   2.373   9.795 -0.3719 -0.2695  0.1336
  127TMC2    H5 1988   3.321   2.358   9.729 -0.5360 -0.1816  0.2904
  128MPD2     C 1989   3.507   2.865   9.028  0.9936  0.6582  0.6472
  128MPD2    C1 1990   3.590   2.827   9.137  0.1670  0.1372  0.2101
  128MPD2    C2 1991   3.708   2.904   9.159  0.0945 -0.6239 -0.1605
  128MPD2    C3 1992   3.741   3.004   9.074 -0.6394 -0.2935  0.4932
  128MPD2    C4 1993   3.658   3.041   8.972 -0.0414  0.1489 -0.6435
  128MPD2    C5 1994   3.546   2.971   8.948 -0.1417 -0.0702 -0.7413
  128MPD2     H 1995   3.776   2.883   9.240 -0.2570  0.1205  0.3289
  128MPD2    H1 1996   3.673   3.131   8.915  0.1340 -0.1613 -1.0845
  128MPD2    H2 1997   3.414   2.811   9.017  0.8707  0.5901  2.0174
  128MPD2    H3 1998   3.483   3.019   8.874  0.2686  2.0567  0.2773
  128MPD2     N 1999   3.847   3.087   9.113  0.4669  0.2641 -0.0076
  128MPD2    H5 2000   3.892   3.064   9.201 -0.1550 -1.0730 -0.0295
  128MPD2    N1 2001   3.541   2.726   9.228 -0.2612 -0.0232 -0.6383
  128MPD2    H7 2002   3.465   2.678   9.181 -0.8699  0.4205 -0.1191
  129TMC2    C1 2003   1.738   2.992   1.341 -0.9237  0.9483 -0.0079
  129TMC2    C2 2004   1.797   3.048   1.231  0.4090 -0.1385 -0.1249
  129TMC2    C3 2005   1.878   2.975   1.151  0.0611  0.1898  0.2168
  129TMC2    C4 2006   1.764   2.860   1.375  0.2952  0.2550  0.2327
  129TMC2    C5 2007   1.860   2.793   1.301 -0.2030  0.0053  0.5146
  129TMC2    C6 2008   1.912   2.841   1.181  0.4929 -0.4615  0.1796
  129TMC2     C 2009   1.600   3.019   1.372 -0.5091  0.7460 -0.5071
  129TMC2     O 2010   1.535   2.926   1.410 -0.1038 -0.8972  0.6339
  129TMC2     H 2011   1.779   3.150   1.199 -1.7832 -0.5088 -0.0730
  129TMC2    H1 2012   1.741   2.830   1.476 -1.6625 -1.8672 -0.8230
  129TMC2    H2 2013   1.966   2.775   1.114  0.7927 -0.6575  0.6199
  129TMC2    C7 2014   1.866   2.647   1.328 -0.0838  0.1458  0.2012
  129TMC2    C8 2015   1.955   3.050   1.058  0.6667 -0.4888 -0.1819
  129TMC2    O1 2016   1.782   2.600   1.406 -0.3509 -0.5051  0.3109
  129TMC2    O2 2017   1.916   3.162   1.022 -0.0762  0.2836  0.7534
  129TMC2    O5 2018   2.071   2.982   1.041  0.3461  0.5338 -0.2412
  129TMC2    H5 2019   2.087   2.929   1.121 -1.5308 -2.2554 -1.7302
  130MPD2     C 2020   1.328   3.116   1.465  0.8918  0.0537 -0.3564
  130MPD2    C1 2021   1.424   3.195   1.406 -0.3583 -0.4367  0.0160
  130MPD2    C2 2022   1.392   3.326   1.373  0.3973  0.4725  0.3522
  130MPD2    C3 2023   1.265   3.372   1.396 -0.7612  0.0407 -0.3013
  130MPD2    C4 2024   1.170   3.294   1.467 -0.8045 -0.1555 -1.0171
  130MPD2    C5 2025   1.206   3.161   1.498  0.3713  0.0294  0.0849
  130MPD2     H 2026   1.463   3.384   1.315  0.8543  1.1354  1.5858
  130MPD2    H1 2027   1.063   3.311   1.472 -1.0132 -1.9591  0.8467
  130MPD2    H2 2028   1.347   3.011   1.487  3.2288  0.8270  1.3735
  130MPD2    H3 2029   1.134   3.104   1.556  1.0914 -1.7548 -0.7889
  130MPD2     N 2030   1.237   3.497   1.345 -0.3669  0.4517 -0.5837
  130MPD2    H5 2031   1.311   3.548   1.299  0.7377 -1.4080 -0.8756
  130MPD2    N1 2032   1.553   3.146   1.366  0.4504 -0.4270 -0.4181
  130MPD2    H7 2033   1.619   3.209   1.322 -0.1249  1.5844  1.6259
  131TMC2    C1 2034   1.533   2.165  10.298  0.1715 -0.4731 -0.6085
  131TMC2    C2 2035   1.518   2.258  10.390  0.2143  0.3166  0.0215
  131TMC2    C3 2036   1.581   2.380  10.374 -0.2746 -0.5231 -0.1890
  131TMC2    C4 2037   1.619   2.185  10.191 -0.2086  0.0653  0.1537
  131TMC2    C5 2038   1.694   2.307  10.191  0.8143 -0.4865 -0.3000
  131TMC2    C6 2039   1.679   2.408  10.286  0.3545 -0.2043 -0.3326
  131TMC2     C 2040   1.486   2.028  10.333  0.2718  0.2366 -0.0308
  131TMC2     O 2041   1.462   2.011  10.452  0.4255 -0.1187 -0.3871
  131TMC2     H 2042   1.446   2.251  10.470 -0.8329 -1.2159 -1.0493
  131TMC2    H1 2043   1.644   2.101  10.126  1.0098  1.6718 -1.4785
  131TMC2    H2 2044   1.741   2.497  10.285  0.2721 -0.1552 -0.9927
  131TMC2    C7 2045   1.758   2.342  10.068  0.7952  0.0089 -0.3562
  131TMC2    C8 2046   1.559   2.482  10.475  0.1663 -0.1215  0.6012
  131TMC2    O1 2047   1.783   2.242  10.002  0.9109 -0.1189 -0.0971
  131TMC2    O2 2048   1.659   2.555  10.502 -0.3700  0.4673  0.6432
  131TMC2    O5 2049   1.428   2.509  10.501  0.0102 -0.1141 -0.3652
  131TMC2    H5 2050   1.373   2.454  10.442  0.5896  1.4522 -2.3607
  132MPD2     C 2051   1.372   1.760  10.118  0.1861 -0.1027 -0.7065
  132MPD2    C1 2052   1.416   1.814  10.229  0.9012  1.0054 -0.1786
  132MPD2    C2 2053   1.403   1.744  10.343 -0.1708 -0.2598  0.8476
  132MPD2    C3 2054   1.353   1.615  10.347 -0.0874  0.7767  0.2366
  132MPD2    C4 2055   1.305   1.564  10.230  0.4648 -0.1723  0.1174
  132MPD2    C5 2056   1.318   1.637  10.123  0.6873 -0.3862 -0.4636
  132MPD2     H 2057   1.436   1.776  10.441  1.2894 -0.1849  0.3383
  132MPD2    H1 2058   1.239   1.478  10.231 -0.5321  0.5866 -0.5239
  132MPD2    H2 2059   1.380   1.802  10.018 -2.5298  0.2152 -0.7903
  132MPD2    H3 2060   1.281   1.589  10.033  1.5840 -1.0439 -0.4887
  132MPD2     N 2061   1.336   1.565  10.474  0.5106  0.2649  0.3297
  132MPD2    H5 2062   1.391   1.602  10.551  3.1841 -1.2334 -0.8517
  132MPD2    N1 2063   1.460   1.949  10.222  0.2758  0.1431  0.4672
  132MPD2    H7 2064   1.470   1.984  10.128  2.2053 -4.3655 -0.9749
  133TMC2    C1 2065   1.149   3.917   9.629 -0.2867  0.1858  0.8363
  133TMC2    C2 2066   1.145   4.012   9.733 -0.1230  0.3329 -0.0459
  133TMC2    C3 2067   1.261   4.075   9.765  0.6104  0.5758  0.1881
  133TMC2    C4 2068   1.264   3.891   9.563  0.2027  0.7377 -0.2655
  133TMC2    C5 2069   1.374   3.960   9.601  0.0544 -1.1983 -0.4062
  133TMC2    C6 2070   1.375   4.046   9.699 -1.0068 -0.0773  0.5423
  133TMC2     C 2071   1.040   3.832   9.587 -0.3339 -1.0880  0.2833
  133TMC2     O 2072   1.064   3.730   9.524  0.2190 -0.7835 -0.2804
  133TMC2     H 2073   1.056   4.025   9.793  0.2131  0.1788  0.4869
  133TMC2    H1 2074   1.268   3.805   9.497 -0.2303  0.7171 -0.2642
  133TMC2    H2 2075   1.472   4.087   9.726 -1.2576 -0.7597  2.4690
  133TMC2    C7 2076   1.495   3.944   9.522  0.3476  0.5344  0.0077
  133TMC2    C8 2077   1.265   4.161   9.882  0.0902 -0.1288 -0.6132
  133TMC2    O1 2078   1.504   3.839   9.462  0.0099 -0.3790 -0.3738
  133TMC2    O2 2079   1.181   4.247   9.911 -0.7947  0.4182  0.2218
  133TMC2    O5 2080   1.344   4.094   9.967  0.3143 -0.0748  0.0194
  133TMC2    H5 2081   1.378   4.003   9.956 -0.4103 -0.0477 -2.4105
  134MPD2     C 2082   0.692   3.957   9.604 -0.2816  0.6134 -0.3050
  134MPD2    C1 2083   0.791   3.865   9.574 -0.0224  1.1312  0.5133
  134MPD2    C2 2084   0.754   3.753   9.508  0.1775 -0.5313 -0.0114
  134MPD2    C3 2085   0.630   3.737   9.458 -0.1783  0.3808 -0.1702
  134MPD2    C4 2086   0.531   3.826   9.485 -0.4015  0.3931  0.1655
  134MPD2    C5 2087   0.566   3.927   9.567 -0.2363 -0.6028  0.4128
  134MPD2     H 2088   0.826   3.673   9.500 -1.4918 -1.9716 -0.4831
  134MPD2    H1 2089   0.432   3.823   9.443 -0.8315 -0.9496  1.2460
  134MPD2    H2 2090   0.711   4.044   9.665 -1.5656  1.1295 -0.6461
  134MPD2    H3 2091   0.482   3.993   9.583 -0.7476 -1.8798  2.9287
  134MPD2     N 2092   0.589   3.622   9.386 -0.3743 -0.1651 -0.1437
  134MPD2    H5 2093   0.490   3.611   9.366 -0.3052  1.3327 -1.3625
  134MPD2    N1 2094   0.924   3.893   9.623  0.0628 -0.5710  0.0935
  134MPD2    H7 2095   0.938   3.983   9.669 -0.4193 -1.0860  1.2418
  135TMC2    C1 2096   3.312   4.367   9.481 -0.0044  0.5844  0.1766
  135TMC2    C2 2097   3.221   4.463   9.486 -0.0780 -0.2103  0.0437
  135TMC2    C3 2098   3.107   4.439   9.562 -0.1206 -0.2706 -0.5003
  135TMC2    C4 2099   3.302   4.250   9.542  0.7072  0.0487 -0.0473
  135TMC2    C5 2100   3.198   4.226   9.615 -0.6679 -0.4180  0.6279
  135TMC2    C6 2101   3.093   4.318   9.625 -0.1046 -0.4729  0.3428
  135TMC2     C 2102   3.431   4.397   9.407  0.4643 -0.0119  0.0044
  135TMC2     O 2103   3.463   4.515   9.396  0.2364  0.4687  0.1986
  135TMC2     H 2104   3.230   4.558   9.434  0.1796  0.1500  0.7474
  135TMC2    H1 2105   3.387   4.183   9.538 -0.7411 -1.9123  2.0909
  135TMC2    H2 2106   3.009   4.295   9.689  0.8981  0.7107  2.0860
  135TMC2    C7 2107   3.180   4.080   9.658  0.1057  0.7788 -0.5718
  135TMC2    C8 2108   2.988   4.504   9.520 -0.7441 -0.0082 -0.5629
  135TMC2    O1 2109   3.270   4.015   9.607 -0.1739 -0.5183 -0.3552
  135TMC2    O2 2110   2.894   4.540   9.587 -0.3219 -0.8815 -0.4617
  135TMC2    O5 2111   2.974   4.471   9.389  0.3497  0.4312 -0.0582
  135TMC2    H5 2112   3.056   4.435   9.349  1.0416 -1.3771  3.0760
  136MPD2     C 2113   3.695   4.377   9.266  0.3489 -0.3511 -0.4093
  136MPD2    C1 2114   3.594   4.280   9.263 -0.8341 -0.2785  0.5621
  136MPD2    C2 2115   3.605   4.179   9.169  0.1707 -0.3602  0.2819
  136MPD2    C3 2116   3.713   4.170   9.080 -0.5370 -0.1375 -0.3033
  136MPD2    C4 2117   3.813   4.269   9.085  0.3976  0.2999  0.1520
  136MPD2    C5 2118   3.800   4.369   9.174 -0.6416 -0.4877 -0.5405
  136MPD2     H 2119   3.520   4.112   9.169  0.8775 -1.2481 -0.1729
  136MPD2    H1 2120   3.899   4.266   9.018 -0.5742  0.2208 -1.0951
  136MPD2    H2 2121   3.680   4.444   9.350  1.8945 -1.8189  1.0488
  136MPD2    H3 2122   3.890   4.427   9.192 -1.3242  0.3019  0.3003
  136MPD2     N 2123   3.736   4.050   9.011  0.2502 -0.0139  0.1543
  136MPD2    H5 2124   3.824   4.040   8.961  1.7627 -1.2564  3.0558
  136MPD2    N1 2125   3.480   4.288   9.349 -0.4942 -0.2432  0.1162
  136MPD2    H7 2126   3.417   4.209   9.353 -0.1800 -0.3737  2.1141
  137TMC2    C1 2127   2.379   2.450   9.161 -0.2948 -0.4729  0.2993
  137TMC2    C2 2128   2.338   2.333   9.099 -0.0366  0.5203 -0.1057
  137TMC2    C3 2129   2.270   2.345   8.978 -0.2674  0.3934 -0.3308
  137TMC2    C4 2130   2.320   2.573   9.139 -0.6191 -0.5723 -0.4889
  137TMC2    C5 2131   2.228   2.567   9.027 -0.2480  0.3789 -1.0090
  137TMC2    C6 2132   2.213   2.459   8.940  0.3476  0.4096  0.1383
  137TMC2     C 2133   2.480   2.440   9.267 -0.4776  0.4551 -0.9251
  137TMC2     O 2134   2.535   2.542   9.295 -0.5493  0.2410 -0.2063
  137TMC2     H 2135   2.391   2.240   9.116  1.8958  1.9875  1.9488
  137TMC2    H1 2136   2.354   2.663   9.188  2.3227 -2.4431  0.8949
  137TMC2    H2 2137   2.139   2.477   8.863  1.3895  4.1478 -0.0013
  137TMC2    C7 2138   2.155   2.687   8.987 -0.1008 -0.1470 -0.5244
  137TMC2    C8 2139   2.233   2.220   8.908 -0.2829 -0.0332 -0.3274
  137TMC2    O1 2140   2.114   2.707   8.870  0.1260 -0.0602  0.6388
  137TMC2    O2 2141   2.314   2.132   8.884 -0.5676 -0.0082 -0.1878
  137TMC2    O5 2142   2.105   2.212   8.939  0.0414  0.1166  0.4335
  137TMC2    H5 2143   2.062   2.295   8.971  0.2468  1.1198 -1.8798
  138MPD2     C 2144   2.470   2.209   9.555  0.0872 -0.4279 -0.4354
  138MPD2    C1 2145   2.516   2.315   9.481 -0.5575  0.0348 -0.5094
  138MPD2    C2 2146   2.600   2.412   9.542  0.3891  0.2675  1.2894
  138MPD2    C3 2147   2.634   2.405   9.673  0.5117 -0.0497  0.2330
  138MPD2    C4 2148   2.597   2.295   9.750  0.1716 -0.0103  0.0153
  138MPD2    C5 2149   2.514   2.203   9.687 -0.3582  0.7597 -0.0743
  138MPD2     H 2150   2.634   2.496   9.483  1.7728  0.4285  2.3075
  138MPD2    H1 2151   2.621   2.275   9.854 -0.0384  1.2556  0.3133
  138MPD2    H2 2152   2.406   2.133   9.510 -0.0263 -0.5215 -0.1164
  138MPD2    H3 2153   2.487   2.118   9.749 -1.8846  0.1687 -1.5468
  138MPD2     N 2154   2.706   2.510   9.724  0.3337 -0.3522 -0.3646
  138MPD2    H5 2155   2.728   2.579   9.652 -1.4482 -1.2943 -1.8106
  138MPD2    N1 2156   2.469   2.328   9.346 -0.3148 -0.3624 -0.1587
  138MPD2    H7 2157   2.427   2.243   9.309 -1.7917  0.5009 -0.4685
  139TMC2    C1 2158   3.469   1.005  13.783 -0.1634 -0.3369 -0.2596
  139TMC2    C2 2159   3.566   1.074  13.723 -0.3077  0.3734 -0.3443
  139TMC2    C3 2160   3.535   1.180  13.641  0.0853 -0.7958  0.6587
  139TMC2    C4 2161   3.335   1.050  13.770 -0.0624 -0.8577 -0.3631
  139TMC2    C5 2162   3.306   1.169  13.708 -0.1274  0.6080  0.6162
  139TMC2    C6 2163   3.409   1.240  13.643 -0.1681 -0.2165  0.5296
  139TMC2     C 2164   3.491   0.867  13.820 -1.1248 -0.1626  0.4318
  139TMC2     O 2165   3.561   0.810  13.740  0.0215 -0.1333  0.1139
  139TMC2     H 2166   3.671   1.050  13.735 -0.4175 -0.8449 -1.7866
  139TMC2    H1 2167   3.263   0.973  13.795 -0.4421 -1.1156 -2.2654
  139TMC2    H2 2168   3.391   1.330  13.584  2.3140  1.0710  1.7039
  139TMC2    C7 2169   3.175   1.226  13.707 -0.2610 -0.1505  0.0778
  139TMC2    C8 2170   3.646   1.249  13.577  0.2012  0.4161  0.2099
  139TMC2    O1 2171   3.156   1.312  13.619  0.3476  0.3980  0.0448
  139TMC2    O2 2172   3.762   1.243  13.624 -0.1535  0.0104 -0.5898
  139TMC2    O5 2173   3.609   1.279  13.449 -0.1771  0.3016  0.3027
  139TMC2    H5 2174   3.512   1.269  13.440  0.0061 -0.8549 -0.3225
  140MPD2     C 2175   3.333   0.657  14.062  0.3874  0.6488 -0.6966
  140MPD2    C1 2176   3.411   0.683  13.958 -0.0974  0.1189  0.5141
  140MPD2    C2 2177   3.483   0.579  13.899  0.2538  0.3129 -0.3960
  140MPD2    C3 2178   3.458   0.447  13.933  0.4350 -0.6128  0.3125
  140MPD2    C4 2179   3.363   0.425  14.031  0.0115  0.0486  0.1792
  140MPD2    C5 2180   3.305   0.526  14.089  0.2004  0.0005 -0.2922
  140MPD2     H 2181   3.540   0.583  13.807  1.4298 -1.2496  0.2622
  140MPD2    H1 2182   3.332   0.322  14.048 -1.0822  0.3037 -0.2643
  140MPD2    H2 2183   3.290   0.739  14.119 -0.7427 -0.7392  0.4597
  140MPD2    H3 2184   3.240   0.504  14.173  0.8970  0.2252  0.3041
  140MPD2     N 2185   3.514   0.340  13.859  0.8442 -0.0671  0.0758
  140MPD2    H5 2186   3.579   0.359  13.783  0.0597  0.1599 -0.5431
  140MPD2    N1 2187   3.417   0.820  13.918 -0.2045 -0.9035 -0.4678
  140MPD2    H7 2188   3.355   0.884  13.967  0.5134  0.7664 -1.7039
  141TMC2    C1 2189   3.856   2.527  14.364 -0.2859  0.1769 -0.1928
  141TMC2    C2 2190   3.772   2.418  14.366 -0.2092  0.2506 -0.3445
  141TMC2    C3 2191   3.650   2.451  14.415 -0.1834 -0.0401 -0.0065
  141TMC2    C4 2192   3.827   2.654  14.408  0.3620 -0.9388 -0.2260
  141TMC2    C5 2193   3.715   2.673  14.478  0.0017  0.9734 -0.9262
  141TMC2    C6 2194   3.616   2.576  14.474  0.2783  0.8759 -0.2539
  141TMC2     C 2195   3.972   2.509  14.282  0.4681  0.2605  1.1689
  141TMC2     O 2196   4.017   2.607  14.216 -0.0832 -0.1111  0.2568
  141TMC2     H 2197   3.803   2.316  14.343  0.6028  0.3096  0.4784
  141TMC2    H1 2198   3.899   2.729  14.378 -0.8576 -0.0754 -0.9914
  141TMC2    H2 2199   3.517   2.592  14.515  0.2372  1.0199 -0.4084
  141TMC2    C7 2200   3.707   2.796  14.553 -0.3103 -0.3781  0.1902
  141TMC2    C8 2201   3.577   2.327  14.447  0.0001 -0.4243 -0.2144
  141TMC2    O1 2202   3.594   2.843  14.561  0.3698  0.1317  0.1011
  141TMC2    O2 2203   3.623   2.213  14.456  0.4442  0.2576 -0.5586
  141TMC2    O5 2204   3.456   2.359  14.500 -0.6130 -0.0715 -0.3242
  141TMC2    H5 2205   3.421   2.438  14.454  0.0271  0.0812 -0.5361
  142TMC2    C1 2206   1.652   1.523  10.218 -0.7077 -0.4369 -0.7719
  142TMC2    C2 2207   1.666   1.529  10.081  0.3496  0.0601 -0.2140
  142TMC2    C3 2208   1.713   1.649  10.028  0.2972 -0.1588 -0.2649
  142TMC2    C4 2209   1.702   1.618  10.301  0.0559 -0.9045  0.0484
  142TMC2    C5 2210   1.755   1.726  10.249  0.0910 -0.1004  0.7943
  142TMC2    C6 2211   1.759   1.753  10.111  0.2220 -0.0290 -0.4848
  142TMC2     C 2212   1.604   1.399  10.261  0.5199 -0.1171  0.4037
  142TMC2     O 2213   1.593   1.309  10.180 -0.5340  0.2675 -0.3870
  142TMC2     H 2214   1.629   1.443  10.027  0.8997 -0.6518  0.5484
  142TMC2    H1 2215   1.676   1.622  10.407 -0.9119  1.3379 -0.2756
  142TMC2    H2 2216   1.787   1.846  10.063  4.0520 -1.3575 -0.8055
  142TMC2    C7 2217   1.802   1.835  10.337  0.0708  0.3201  0.7681
  142TMC2    C8 2218   1.747   1.664   9.889 -0.0943  0.3617 -0.7405
  142TMC2    O1 2219   1.746   1.839  10.444 -0.1936 -0.5969  0.2616
  142TMC2    O2 2220   1.850   1.713   9.851 -0.0442  0.6502 -0.3619
  142TMC2    O5 2221   1.682   1.574   9.815 -0.1332 -0.2625  0.1374
  142TMC2    H5 2222   1.603   1.532   9.856  0.2999 -0.6978  0.5223
  143MPD2     C 2223   1.447   1.086  10.627  0.1857  0.7639 -0.0208
  143MPD2    C1 2224   1.417   1.085  10.491  0.6514  0.2732 -0.0065
  143MPD2    C2 2225   1.480   1.188  10.422 -0.1790 -0.6592  0.0904
  143MPD2    C3 2226   1.564   1.286  10.477  0.1532 -0.2830  0.1908
  143MPD2    C4 2227   1.588   1.287  10.611 -0.1720 -0.2085  0.0124
  143MPD2    C5 2228   1.526   1.186  10.685  0.7403 -0.1898 -0.4156
  143MPD2     H 2229   1.450   1.192  10.318 -0.5689  1.9581  0.3170
  143MPD2    H1 2230   1.635   1.370  10.663  1.2125 -0.3291 -1.0523
  143MPD2    H2 2231   1.406   1.012  10.696  0.7314  0.7648  0.3033
  143MPD2    H3 2232   1.542   1.182  10.792  2.4242 -0.8927 -0.6893
  143MPD2     N 2233   1.618   1.387  10.398 -0.1715  0.6290 -0.3223
  143MPD2    H5 2234   1.683   1.451  10.444  0.6179  0.5645 -1.3466
  143MPD2    N1 2235   1.327   0.988  10.450  0.2224 -0.2875 -0.4389
  143MPD2    H7 2236   1.294   0.925  10.523 -2.5441  0.2096 -1.2510
  144TMC2    C1 2237   4.357   0.058   0.638  0.4183  0.2963 -0.5232
  144TMC2    C2 2238   4.392   4.674   0.577  0.3589 -0.4378  0.2077
  144TMC2    C3 2239   4.519   4.654   0.534  0.5626 -0.0700 -0.3299
  144TMC2    C4 2240   4.466   0.149   0.651 -0.0421  0.0541 -0.1465
  144TMC2    C5 2241   4.593   0.128   0.599  0.6773 -0.4451 -0.5771
  144TMC2    C6 2242   4.627   0.005   0.547 -0.0476 -0.2702  0.8739
  144TMC2     C 2243   4.222   0.106   0.625 -0.5343  0.0431  0.0115
  144TMC2     O 2244   4.139   0.034   0.574  0.1535  0.0751 -0.0299
  144TMC2     H 2245   4.317   4.599   0.557  1.9022 -1.5054 -1.5926
  144TMC2    H1 2246   4.437   0.237   0.708 -1.1475  1.5279 -2.9759
  144TMC2    H2 2247   4.724   4.727   0.500 -0.1490  0.7664  0.3167
  144TMC2    C7 2248   4.705   0.204   0.643 -0.4267 -0.6085 -0.0737
  144TMC2    C8 2249   4.541   4.514   0.504 -0.4361 -0.7727 -0.0436
  144TMC2    O1 2250   0.075   0.154   0.659  0.4665 -0.2281 -0.3017
  144TMC2    O2 2251   4.458   4.454   0.437  0.5752 -0.4264 -0.5916
  144TMC2    O5 2252   4.679   4.493   0.496  0.1972  0.2008 -0.4376
  144TMC2    H5 2253   4.728   4.556   0.553  0.7282 -1.0456  0.4800
  145MPD2     C 2254   3.845   0.416   0.727  0.2048  0.1662 -0.0975
  145MPD2    C1 2255   3.870   0.337   0.616 -0.4228 -0.8009  0.1120
  145MPD2    C2 2256   3.991   0.274   0.606 -1.2071  0.4799 -0.6348
  145MPD2    C3 2257   4.086   0.294   0.704 -0.4283  0.0473  0.0393
  145MPD2    C4 2258   4.058   0.375   0.813  1.0368 -0.6759 -0.3918
  145MPD2    C5 2259   3.943   0.445   0.820  0.3367  0.0045 -0.2655
  145MPD2     H 2260   4.005   0.209   0.521  0.1827 -1.6282  1.2343
  145MPD2    H1 2261   4.125   0.378   0.898  0.1255 -0.7495  0.3356
  145MPD2    H2 2262   3.747   0.450   0.761  0.4379 -0.1664  0.9022
  145MPD2    H3 2263   3.933   0.515   0.903 -1.0975 -0.6732  0.1328
  145MPD2     N 2264   4.200   0.214   0.706 -0.0351 -0.2189 -0.3747
  145MPD2    H5 2265   4.268   0.229   0.781  0.8384  0.5267 -1.3123
  145MPD2    N1 2266   3.784   0.305   0.511  0.6516  0.3927  0.9276
  145MPD2    H7 2267   3.826   0.259   0.431  0.1127 -2.2126  2.1600
  146TMC2    C1 2268   0.975   3.427  12.346 -0.0005 -0.2917  0.1200
  146TMC2    C2 2269   0.941   3.498  12.228  0.4198 -0.5728  0.1643
  146TMC2    C3 2270   1.042   3.558  12.151 -0.2645  0.0766  0.5663
  146TMC2    C4 2271   1.097   3.390  12.378 -0.3946 -0.1960  0.1715
  146TMC2    C5 2272   1.196   3.448  12.290 -0.0978  0.0960  0.2490
  146TMC2    C6 2273   1.174   3.541  12.190 -0.7865 -0.2332 -0.5325
  146TMC2     C 2274   0.882   3.444  12.455  0.2751 -0.1119  0.2462
  146TMC2     O 2275   0.781   3.509  12.419 -0.3983 -0.4972  0.4268
  146TMC2     H 2276   0.842   3.527  12.195  0.3460 -0.4982  0.4581
  146TMC2    H1 2277   1.114   3.342  12.474 -0.9008 -0.7840 -0.0314
  146TMC2    H2 2278   1.252   3.577  12.124 -1.4468  0.0278 -1.1647
  146TMC2    C7 2279   1.335   3.417  12.331 -0.1220 -0.9645  0.4261
  146TMC2    C8 2280   0.997   3.664  12.063 -0.7497 -0.8715 -0.1710
  146TMC2    O1 2281   1.426   3.476  12.274 -1.1384 -0.2003 -0.3817
  146TMC2    O2 2282   0.936   3.648  11.959  0.3055 -0.2572  0.1302
  146TMC2    O5 2283   1.093   3.753  12.081 -0.5464 -0.3011  0.1596
  146TMC2    H5 2284   1.142   3.742  12.165 -0.8078  0.8161  0.4556
  147MPD2     C 2285   1.701   3.213  12.637  0.0125  0.2745 -0.3774
  147MPD2    C1 2286   1.583   3.136  12.645  0.0265 -0.9375  0.0810
  147MPD2    C2 2287   1.470   3.185  12.580 -0.0481  0.2075 -0.1756
  147MPD2    C3 2288   1.474   3.292  12.488  0.6216  0.4082 -0.4012
  147MPD2    C4 2289   1.593   3.352  12.458  0.0640 -0.0635  0.0455
  147MPD2    C5 2290   1.703   3.311  12.541  0.3611 -0.3270 -0.3350
  147MPD2     H 2291   1.379   3.129  12.598 -1.3720  2.6373  0.6741
  147MPD2    H1 2292   1.611   3.429  12.384  1.7237 -0.6371 -0.1497
  147MPD2    H2 2293   1.798   3.186  12.678 -1.0615 -0.9605  1.3738
  147MPD2    H3 2294   1.799   3.361  12.533  0.9494 -1.6644 -1.6733
  147MPD2     N 2295   1.347   3.329  12.437 -0.2153 -0.1749  0.5135
  147MPD2    H5 2296   1.262   3.286  12.472 -0.8162  0.6744  0.0912
  147MPD2    N1 2297   1.585   3.010  12.715 -0.9334 -0.3627  0.5670
  147MPD2    H7 2298   1.674   2.974  12.747 -0.3990  1.2370  0.8743
  148TMC2    C1 2299   0.820   2.809  10.412 -0.3838  0.3804 -0.3665
  148TMC2    C2 2300   0.795   2.871  10.531  0.9654  0.0440 -0.9398
  148TMC2    C3 2301   0.870   2.823  10.637 -0.0479  0.5341 -0.2570
  148TMC2    C4 2302   0.911   2.710  10.397  0.2301  0.1287 -0.2309
  148TMC2    C5 2303   0.991   2.673  10.499 -0.3806 -0.2858 -0.2198
  148TMC2    C6 2304   0.968   2.727  10.621 -0.5144  0.2197 -0.8860
  148TMC2     C 2305   0.724   2.839  10.310 -0.5631 -0.4082  0.0488
  148TMC2     O 2306   0.692   2.958  10.302 -0.2734  0.0437 -0.1775
  148TMC2     H 2307   0.721   2.949  10.544  0.1598 -0.6522 -1.3891
  148TMC2    H1 2308   0.910   2.673  10.295 -0.8333 -3.3314  1.0283
  148TMC2    H2 2309   1.021   2.710  10.714 -0.1791 -2.1581 -1.5196
  148TMC2    C7 2310   1.033   2.537  10.494 -0.0988  0.0677 -0.2846
  148TMC2    C8 2311   0.862   2.903  10.757 -1.0236  0.2758 -0.4195
  148TMC2    O1 2312   0.998   2.473  10.396 -0.1369  0.0806  0.2681
  148TMC2    O2 2313   0.958   2.927  10.830 -0.1116 -0.1455 -0.4428
  148TMC2    O5 2314   0.738   2.883  10.811 -1.0459  0.5316 -0.4788
  148TMC2    H5 2315   0.682   2.834  10.748 -2.6894 -1.7863  2.7763
  149MPD2     C 2316   0.507   2.824  10.097  0.0316 -0.4713  0.6431
  149MPD2    C1 2317   0.569   2.713  10.159 -0.8334  0.1872  0.9892
  149MPD2    C2 2318   0.513   2.589  10.144  0.7670  0.2656  0.1705
  149MPD2    C3 2319   0.405   2.568  10.059  0.4846 -0.0268 -0.2308
  149MPD2    C4 2320   0.353   2.683   9.999  0.2059  0.3546  0.4879
  149MPD2    C5 2321   0.391   2.807  10.024  0.2059  0.1498 -0.3363
  149MPD2     H 2322   0.559   2.509  10.202  1.5310  1.1546  0.7837
  149MPD2    H1 2323   0.272   2.673   9.927  0.5153 -0.6789  0.2803
  149MPD2    H2 2324   0.541   2.924  10.124 -1.7040  0.3937 -0.3538
  149MPD2    H3 2325   0.348   2.895   9.977 -2.6286  0.2212  2.3986
  149MPD2     N 2326   0.338   2.440  10.040  0.0858  0.3819 -0.2296
  149MPD2    H5 2327   0.273   2.428   9.962  1.7127 -3.0562 -1.0594
  149MPD2    N1 2328   0.679   2.725  10.246  0.1040 -0.1808 -0.5358
  149MPD2    H7 2329   0.715   2.633  10.268  0.9988  0.2948 -0.0130
  150TMC2    C1 2330   3.127   1.286  12.327 -0.2106 -0.4090  0.7174
  150TMC2    C2 2331   3.091   1.351  12.213  0.3755 -0.4738  0.0953
  150TMC2    C3 2332   3.198   1.398  12.140 -0.5904 -0.4520 -0.1012
  150TMC2    C4 2333   3.257   1.270  12.377 -0.9855 -0.2122 -0.0222
  150TMC2    C5 2334   3.354   1.321  12.298 -0.4014 -0.3654 -0.3034
  150TMC2    C6 2335   3.333   1.381  12.176 -0.1740 -0.0491  0.5357
  150TMC2     C 2336   3.021   1.256  12.423  0.0646 -0.0215  0.3591
  150TMC2     O 2337   3.052   1.232  12.537 -0.2941  0.0014  0.0060
  150TMC2     H 2338   2.992   1.350  12.170  0.3896  0.1363  0.0408
  150TMC2    H1 2339   3.274   1.199  12.457 -2.9334 -1.2247 -0.4929
  150TMC2    H2 2340   3.414   1.418  12.114 -1.5884 -0.2584 -1.4326
  150TMC2    C7 2341   3.494   1.316  12.338  0.1671  0.1450 -0.2841
  150TMC2    C8 2342   3.164   1.515  12.065 -0.0212  0.2060 -0.5269
  150TMC2    O1 2343   3.578   1.327  12.249  0.7348 -0.2294  0.4005
  150TMC2    O2 2344   3.053   1.565  12.063 -0.2795 -0.4770  0.3119
  150TMC2    O5 2345   3.275   1.545  11.993  0.0203  0.4867 -0.6300
  150TMC2    H5 2346   3.273   1.637  11.957  0.1257  0.7802  0.1226
  151MPD2     C 2347   2.534   1.214  12.536  0.0876 -0.2370 -0.3013
  151MPD2    C1 2348   2.543   1.235  12.406  0.0793  0.3842 -0.1150
  151MPD2    C2 2349   2.666   1.227  12.342 -0.4822  0.3620  0.3003
  151MPD2    C3 2350   2.775   1.212  12.416  0.3581  0.0228 -0.5014
  151MPD2    C4 2351   2.767   1.187  12.554 -0.5097  0.5602  0.1339
  151MPD2    C5 2352   2.645   1.175  12.609  0.3117 -0.2163  0.4482
  151MPD2     H 2353   2.680   1.234  12.235 -1.8663  1.5832  0.2041
  151MPD2    H1 2354   2.853   1.165  12.617  1.3809  2.0925 -1.8959
  151MPD2    H2 2355   2.435   1.200  12.578  0.4813 -1.1903  0.3127
  151MPD2    H3 2356   2.626   1.135  12.708 -0.5113  0.2716  0.4877
  151MPD2     N 2357   2.898   1.243  12.357 -0.4634  0.2879  0.4559
  151MPD2    H5 2358   2.897   1.244  12.256  0.9240  0.9987  0.4484
  151MPD2    N1 2359   2.430   1.258  12.335 -0.4278  0.1964  0.5469
  151MPD2    H7 2360   2.339   1.252  12.378 -0.0470  0.0263  1.3246
  152TMC2    C1 2361   3.004   1.091  13.139 -0.4887  0.3690  0.2510
  152TMC2    C2 2362   3.102   1.061  13.228 -0.5970 -0.8814 -0.3114
  152TMC2    C3 2363   3.223   1.125  13.211  0.5430 -0.0824 -0.3340
  152TMC2    C4 2364   3.026   1.193  13.049 -0.1912  0.2151 -0.2308
  152TMC2    C5 2365   3.145   1.256  13.043  0.9235  0.2407  0.2422
  152TMC2    C6 2366   3.256   1.220  13.120 -0.0862 -0.5407 -0.4336
  152TMC2     C 2367   2.868   1.026  13.145 -0.3109 -0.4515 -0.0359
  152TMC2     O 2368   2.778   1.079  13.083  0.3167 -0.0537 -0.6753
  152TMC2     H 2369   3.089   0.994  13.313 -0.8089  0.7659  0.9567
  152TMC2    H1 2370   2.949   1.204  12.974  0.7056  2.5618 -0.7931
  152TMC2    H2 2371   3.334   1.291  13.146 -0.7393  0.0483 -0.0605
  152TMC2    C7 2372   3.161   1.340  12.928 -0.5268  0.3842 -0.3410
  152TMC2    C8 2373   3.319   1.105  13.315 -0.2379 -0.3318 -0.6698
  152TMC2    O1 2374   3.063   1.365  12.863  0.5889  0.0426 -0.2628
  152TMC2    O2 2375   3.379   1.189  13.376 -0.6613 -0.1441 -0.1490
  152TMC2    O5 2376   3.352   0.979  13.304 -0.0630 -0.5487  0.3524
  152TMC2    H5 2377   3.290   0.942  13.237 -0.7372  0.8384  0.2274
  153MPD2     C 2378   2.763   0.700  13.291  0.8093  0.1226 -0.3958
  153MPD2    C1 2379   2.744   0.822  13.224 -0.8338 -0.7170  0.3995
  153MPD2    C2 2380   2.621   0.854  13.172  0.0058  0.4524  0.2592
  153MPD2    C3 2381   2.526   0.755  13.170 -0.0539 -0.8605  0.1142
  153MPD2    C4 2382   2.541   0.637  13.240  0.1786  1.3056  0.0727
  153MPD2    C5 2383   2.662   0.611  13.304  0.9306  0.7042  0.3278
  153MPD2     H 2384   2.592   0.950  13.131  0.8120  0.1508 -1.0095
  153MPD2    H1 2385   2.455   0.573  13.254  0.9243  0.2412 -0.1433
  153MPD2    H2 2386   2.855   0.679  13.345 -0.0882 -0.2386  1.0139
  153MPD2    H3 2387   2.678   0.515  13.353  0.9213  0.0769 -0.8947
  153MPD2     N 2388   2.404   0.781  13.111 -0.2857  0.2095 -0.4151
  153MPD2    H5 2389   2.392   0.874  13.074  5.7631  1.6894  1.3072
  153MPD2    N1 2390   2.866   0.907  13.217 -0.5371  0.2115 -0.2667
  153MPD2    H7 2391   2.944   0.869  13.269 -0.7947 -0.0221 -0.0548
  154TMC2    C1 2392   0.043   1.686   0.710 -0.3822  0.9175  0.0295
  154TMC2    C2 2393   0.046   1.601   0.811 -0.3994  0.0032  0.5995
  154TMC2    C3 2394   0.141   1.509   0.811 -0.3810 -0.1532  0.0288
  154TMC2    C4 2395   0.131   1.677   0.606 -0.6567 -0.4638 -0.2211
  154TMC2    C5 2396   0.218   1.576   0.603 -0.1758 -1.0108  0.0443
  154TMC2    C6 2397   0.230   1.491   0.708  0.2323 -0.1419 -0.0067
  154TMC2     C 2398   4.658   1.764   0.692  0.2698  0.2675 -0.3742
  154TMC2     O 2399   4.603   1.791   0.796  0.3985 -0.0797 -0.2164
  154TMC2     H 2400   4.709   1.592   0.888  2.2389  0.9441  3.2821
  154TMC2    H1 2401   0.119   1.741   0.519  0.3909 -0.7757 -0.6053
  154TMC2    H2 2402   0.312   1.420   0.712  1.2207  0.9479 -0.6955
  154TMC2    C7 2403   0.279   1.533   0.478 -0.6230  0.3035  0.3976
  154TMC2    C8 2404   0.186   1.462   0.939  0.0009 -0.8355 -0.1810
  154TMC2    O1 2405   0.299   1.413   0.462  0.4255 -0.2615 -0.0342
  154TMC2    O2 2406   0.145   1.523   1.035 -0.2896  0.5184 -0.0509
  154TMC2    O5 2407   0.191   1.323   0.936  0.1313  0.2840 -0.1697
  154TMC2    H5 2408   0.173   1.291   0.845 -2.0277 -0.0986  0.4036
  155MPD2     C 2409   4.437   1.789   0.404 -0.4463 -0.1665  0.3742
  155MPD2    C1 2410   4.484   1.814   0.531  0.1854 -0.2290 -0.4371
  155MPD2    C2 2411   4.424   1.913   0.599  0.4095  0.2402 -0.4063
  155MPD2    C3 2412   4.302   1.963   0.562 -0.2630  0.8661 -0.4540
  155MPD2    C4 2413   4.247   1.926   0.446 -0.3302 -0.1081 -0.2738
  155MPD2    C5 2414   4.321   1.850   0.355  0.7170  0.2501  0.4726
  155MPD2     H 2415   4.467   1.946   0.693  0.5794  0.2567 -0.4907
  155MPD2    H1 2416   4.151   1.964   0.414  0.4396  1.8476 -0.3016
  155MPD2    H2 2417   4.497   1.719   0.346 -3.4676 -0.2905 -2.5181
  155MPD2    H3 2418   4.277   1.831   0.258  0.0675  1.5521  0.5154
  155MPD2     N 2419   4.229   2.042   0.652  0.5168  0.2641 -0.6568
  155MPD2    H5 2420   4.264   2.054   0.747  0.5639  0.1134 -0.6561
  155MPD2    N1 2421   4.606   1.766   0.567 -0.0129 -0.3590 -0.6371
  155MPD2    H7 2422   4.656   1.699   0.509 -0.1467 -0.5110 -0.5760
  156TMC2    C1 2423   2.989   3.344  11.230 -0.6489 -0.8372 -0.3855
  156TMC2    C2 2424   2.967   3.220  11.182  0.4200 -0.1322 -0.1211
  156TMC2    C3 2425   2.913   3.215  11.056  0.0913 -0.4094  0.6676
  156TMC2    C4 2426   2.950   3.464  11.160 -0.5777 -0.1309 -0.1388
  156TMC2    C5 2427   2.887   3.442  11.040  0.2293  0.2929 -0.2333
  156TMC2    C6 2428   2.868   3.323  10.978  0.3472 -1.0703 -0.8967
  156TMC2     C 2429   3.019   3.371  11.369  1.2097  0.0741  0.1440
  156TMC2     O 2430   2.976   3.480  11.405 -0.5350 -0.1006 -0.0896
  156TMC2     H 2431   3.001   3.126  11.223  0.3985 -0.5610 -1.0717
  156TMC2    H1 2432   2.963   3.565  11.200  1.6550 -0.0094 -1.1777
  156TMC2    H2 2433   2.815   3.311  10.885 -0.2284 -0.4062 -0.6516
  156TMC2    C7 2434   2.776   3.538  11.006 -0.5084  0.1796  0.4262
  156TMC2    C8 2435   2.882   3.092  10.991  0.1796 -0.7065  0.6311
  156TMC2    O1 2436   2.675   3.494  10.952 -0.0750  0.1721  0.5295
  156TMC2    O2 2437   2.803   3.009  11.037 -0.2250 -0.3735 -0.2345
  156TMC2    O5 2438   2.916   3.106  10.863  0.8439  0.6017  0.1601
  156TMC2    H5 2439   2.983   3.173  10.838 -0.7775  1.3560 -2.1453
  157MPD2     C 2440   3.234   3.231  11.641 -0.1643 -0.5404  0.1814
  157MPD2    C1 2441   3.128   3.293  11.580 -0.1119 -0.0638  0.1648
  157MPD2    C2 2442   3.065   3.394  11.658  0.5565  0.8867  0.1821
  157MPD2    C3 2443   3.100   3.416  11.793  0.9604 -0.8745 -0.4502
  157MPD2    C4 2444   3.203   3.350  11.851 -0.2926  0.2240 -0.7156
  157MPD2    C5 2445   3.266   3.252  11.779 -0.4073  0.3810 -0.9566
  157MPD2     H 2446   2.976   3.445  11.623 -0.2732 -0.8502 -0.2798
  157MPD2    H1 2447   3.243   3.373  11.949  2.7617 -0.8350 -1.7410
  157MPD2    H2 2448   3.276   3.143  11.594  1.4911 -0.8969  2.3307
  157MPD2    H3 2449   3.339   3.191  11.831  1.0366  2.1748 -0.8548
  157MPD2     N 2450   3.033   3.518  11.856  0.7122 -0.3405 -0.5813
  157MPD2    H5 2451   2.974   3.576  11.796  0.9403  0.4209 -0.0654
  157MPD2    N1 2452   3.094   3.274  11.445  0.2727 -0.3307 -0.0836
  157MPD2    H7 2453   3.138   3.200  11.392 -0.6389 -0.0031 -1.2826
  158TMC2    C1 2454   3.722   2.411  13.517 -0.3381  0.0891  0.0212
  158TMC2    C2 2455   3.808   2.487  13.443  0.2378  0.4363  0.3390
  158TMC2    C3 2456   3.758   2.542  13.329  0.0634  0.7507 -0.1050
  158TMC2    C4 2457   3.596   2.381  13.480  0.4035 -0.6024 -0.3690
  158TMC2    C5 2458   3.544   2.451  13.374 -0.3940 -0.2639  0.8336
  158TMC2    C6 2459   3.624   2.528  13.293 -0.0967  0.1160 -0.5729
  158TMC2     C 2460   3.752   2.381  13.656 -1.5591  0.1465 -1.1867
  158TMC2     O 2461   3.848   2.441  13.705  0.1901  0.4888 -0.3720
  158TMC2     H 2462   3.910   2.497  13.478  0.9301  0.1517 -1.5831
  158TMC2    H1 2463   3.533   2.321  13.544  2.6923 -2.8958 -0.2318
  158TMC2    H2 2464   3.588   2.573  13.201  0.6459  1.0035 -0.4225
  158TMC2    C7 2465   3.410   2.418  13.327 -0.5732  0.5142 -0.2190
  158TMC2    C8 2466   3.849   2.637  13.263 -0.5763 -0.4710 -0.8615
  158TMC2    O1 2467   3.375   2.481  13.231  0.3895 -0.1975 -0.4458
  158TMC2    O2 2468   3.960   2.668  13.306  0.1151 -0.5439 -0.1749
  158TMC2    O5 2469   3.814   2.645  13.133 -0.2311  0.3601  0.0216
  158TMC2    H5 2470   3.724   2.610  13.113 -0.2968  0.2631  0.4685
  159MPD2     C 2471   3.713   2.116  14.094  0.2356 -0.5305 -0.8171
  159MPD2    C1 2472   3.637   2.049  13.995 -0.0046  1.0081 -0.1944
  159MPD2    C2 2473   3.620   2.105  13.867 -0.0135 -0.8459  0.2938
  159MPD2    C3 2474   3.694   2.218  13.835  0.2391  0.6295 -0.0420
  159MPD2    C4 2475   3.770   2.272  13.933  0.6196  0.1852 -0.1970
  159MPD2    C5 2476   3.777   2.227  14.059 -0.1428 -1.0567 -0.2007
  159MPD2     H 2477   3.553   2.056  13.798 -0.6483 -2.1690  1.8209
  159MPD2    H1 2478   3.832   2.360  13.918  0.8562 -0.1641 -1.3159
  159MPD2    H2 2479   3.713   2.084  14.198  0.5551  2.5527  0.1310
  159MPD2    H3 2480   3.848   2.270  14.129 -0.7352  0.0574 -0.2845
  159MPD2     N 2481   3.684   2.275  13.707 -0.3776  0.3571 -0.0180
  159MPD2    H5 2482   3.623   2.227  13.642 -1.9947  1.7552  0.4633
  159MPD2    N1 2483   3.560   1.938  14.040 -0.3901 -0.4518 -0.4429
  159MPD2    H7 2484   3.580   1.889  14.127  1.0521  0.3983 -0.2961
  160TMC2    C1 2485   3.094   0.613   1.909  0.2510  0.6908 -0.0596
  160TMC2    C2 2486   3.161   0.539   2.005 -0.1397 -0.0510 -0.1343
  160TMC2    C3 2487   3.200   0.411   1.964  0.6386  0.4182 -0.1280
  160TMC2    C4 2488   3.080   0.572   1.781 -0.0341  0.7265 -0.1426
  160TMC2    C5 2489   3.133   0.452   1.742  0.2331 -0.0911  0.6987
  160TMC2    C6 2490   3.186   0.367   1.837  0.0563 -0.8447 -0.5814
  160TMC2     C 2491   3.053   0.745   1.949 -0.6864  0.6615  0.8380
  160TMC2     O 2492   3.112   0.788   2.050  0.0193 -0.1250 -0.4616
  160TMC2     H 2493   3.179   0.579   2.104 -0.5690 -1.5397  0.5415
  160TMC2    H1 2494   3.046   0.646   1.709 -0.0488  1.6096  0.7698
  160TMC2    H2 2495   3.233   0.273   1.810  0.1146 -0.5779 -1.4006
  160TMC2    C7 2496   3.176   0.427   1.611 -0.6649 -0.2662 -0.0284
  160TMC2    C8 2497   3.290   0.342   2.055  0.2332  0.1114 -0.5449
  160TMC2    O1 2498   3.230   0.319   1.581 -0.2385 -0.4827  0.0895
  160TMC2    O2 2499   3.352   0.251   2.011 -0.3967  0.1478 -0.4550
  160TMC2    O5 2500   3.236   0.342   2.179 -0.4512 -0.2111  0.4371
  160TMC2    H5 2501   3.168   0.410   2.197 -0.5057  0.3491 -1.7737
  161MPD2     C 2502   2.926   1.012   1.983  0.5160  0.3797 -0.6441
  161MPD2    C1 2503   2.877   0.911   1.896  0.1991  0.0369  0.7145
  161MPD2    C2 2504   2.767   0.930   1.819 -0.4493 -0.0910  0.2548
  161MPD2    C3 2505   2.702   1.055   1.830  0.0267  0.0802  0.4069
  161MPD2    C4 2506   2.752   1.154   1.909 -0.6077 -0.3047  0.2493
  161MPD2    C5 2507   2.864   1.132   1.990 -0.1847  0.2731  0.7347
  161MPD2     H 2508   2.731   0.850   1.755 -1.1030  0.1381  0.3365
  161MPD2    H1 2509   2.709   1.253   1.910 -0.9247 -0.4516  0.8310
  161MPD2    H2 2510   3.012   0.999   2.048  0.2819  0.5654 -0.2986
  161MPD2    H3 2511   2.906   1.213   2.048 -4.5604  2.3528  0.9973
  161MPD2     N 2512   2.584   1.090   1.755 -0.4915  0.2681 -0.2368
  161MPD2    H5 2513   2.551   1.184   1.772 -0.2005 -0.0123  1.8749
  161MPD2    N1 2514   2.933   0.785   1.892 -0.0772  0.8747  0.3401
  161MPD2    H7 2515   2.896   0.717   1.826  1.0531 -0.3170  0.9448
  162TMC2    C1 2516   0.870   2.608   1.268 -0.3823  0.2095 -0.0759
  162TMC2    C2 2517   0.745   2.662   1.287 -0.3607  0.1714 -1.0601
  162TMC2    C3 2518   0.684   2.629   1.404  0.4881 -0.5159 -0.3854
  162TMC2    C4 2519   0.919   2.510   1.353  0.2069 -0.4828 -0.6197
  162TMC2    C5 2520   0.844   2.478   1.464  0.5552 -0.3544 -0.5983
  162TMC2    C6 2521   0.734   2.551   1.499  0.5788  0.4883  0.0163
  162TMC2     C 2522   0.918   2.584   1.128  0.2852  0.6152  1.1310
  162TMC2     O 2523   0.990   2.485   1.103  0.1497  0.0053 -0.3845
  162TMC2     H 2524   0.696   2.717   1.208  1.1106  0.8793 -1.4658
  162TMC2    H1 2525   0.997   2.447   1.312  0.8814  1.2842 -2.0220
  162TMC2    H2 2526   0.667   2.518   1.577  1.4507 -0.3274  0.4179
  162TMC2    C7 2527   0.867   2.364   1.549  0.1138  0.6778 -0.1148
  162TMC2    C8 2528   0.561   2.694   1.442  0.4842 -0.0881  0.3427
  162TMC2    O1 2529   0.790   2.345   1.641 -0.6695 -0.0424  0.1122
  162TMC2    O2 2530   0.523   2.705   1.561 -0.6072  0.5791  0.5934
  162TMC2    O5 2531   0.530   2.784   1.345  0.4022  0.5189  0.3390
  162TMC2    H5 2532   0.524   2.740   1.258 -1.0664  0.6826  0.3673
  163MPD2     C 2533   0.908   2.677   0.623 -0.2651 -0.1121  0.5535
  163MPD2    C1 2534   0.978   2.591   0.695  0.3948 -0.4114  0.4947
  163MPD2    C2 2535   0.974   2.594   0.834 -0.2991 -0.7652 -0.1581
  163MPD2    C3 2536   0.889   2.676   0.897  0.5604 -0.2151  0.6056
  163MPD2    C4 2537   0.810   2.768   0.822 -0.3548  0.2696  0.0238
  163MPD2    C5 2538   0.817   2.758   0.683 -0.5188  0.2740 -0.5406
  163MPD2     H 2539   1.030   2.524   0.894  0.0240  0.7441  1.2990
  163MPD2    H1 2540   0.733   2.834   0.861 -0.8095 -0.2822  0.0555
  163MPD2    H2 2541   0.911   2.671   0.515  1.4633 -0.2439  0.6130
  163MPD2    H3 2542   0.752   2.825   0.627  0.3149  0.4984 -1.2343
  163MPD2     N 2543   0.868   2.677   1.041 -0.1250 -0.2466 -0.5751
  163MPD2    H5 2544   0.800   2.742   1.079  2.3859  0.8703  2.0769
  163MPD2    N1 2545   1.054   2.495   0.622 -0.0290  0.4123  0.3102
  163MPD2    H7 2546   1.021   2.477   0.528  2.9984  0.4911 -0.7541
  164TMC2    C1 2547   1.496   2.758  11.281  0.2653 -0.7326 -0.3945
  164TMC2    C2 2548   1.561   2.863  11.213  0.3961  0.6724  0.3704
  164TMC2    C3 2549   1.483   2.981  11.205 -0.8126 -0.3323  0.0888
  164TMC2    C4 2550   1.372   2.762  11.330  0.0278  0.1092 -0.0500
  164TMC2    C5 2551   1.302   2.872  11.323 -0.9427  0.1233 -0.0371
  164TMC2    C6 2552   1.361   2.977  11.264 -0.6968 -0.0799  0.6436
  164TMC2     C 2553   1.583   2.655  11.338  0.2578  0.2488  0.3018
  164TMC2     O 2554   1.558   2.607  11.448 -0.1257  0.5939 -0.2983
  164TMC2     H 2555   1.669   2.861  11.204  0.3252 -1.5068  0.1381
  164TMC2    H1 2556   1.330   2.672  11.373 -0.2861 -0.7831 -2.2323
  164TMC2    H2 2557   1.301   3.067  11.256 -1.4621 -0.5147  1.4203
  164TMC2    C7 2558   1.159   2.865  11.341 -0.5290 -0.4916  0.8638
  164TMC2    C8 2559   1.556   3.109  11.216  0.0567 -0.1639 -0.2687
  164TMC2    O1 2560   1.099   2.956  11.289  0.3648  0.1552  0.2618
  164TMC2    O2 2561   1.554   3.171  11.318 -0.2270 -0.3005  0.0313
  164TMC2    O5 2562   1.654   3.108  11.122  0.2590  0.4133 -0.4374
  164TMC2    H5 2563   1.621   3.059  11.043 -4.8658  1.7422  0.8937
  165TMC2    C1 2564   2.182   0.624   1.356  0.0012  0.0206 -0.1922
  165TMC2    C2 2565   2.223   0.582   1.479  0.1190 -0.0726  0.2513
  165TMC2    C3 2566   2.346   0.625   1.526  0.0471 -0.1776  0.4415
  165TMC2    C4 2567   2.258   0.699   1.272  1.6257 -0.1820  0.3430
  165TMC2    C5 2568   2.379   0.731   1.323 -0.2894  0.0520 -0.2305
  165TMC2    C6 2569   2.431   0.698   1.447  0.2256 -0.1462 -0.0375
  165TMC2     C 2570   2.065   0.547   1.306  0.0462  0.5990 -0.1060
  165TMC2     O 2571   1.975   0.525   1.384 -0.4813 -0.3018  0.2705
  165TMC2     H 2572   2.167   0.509   1.537 -0.7145  1.1741  0.9982
  165TMC2    H1 2573   2.227   0.717   1.170  0.9013  2.4407  1.0464
  165TMC2    H2 2574   2.535   0.717   1.469 -0.1083  1.9346 -0.2087
  165TMC2    C7 2575   2.476   0.801   1.236 -0.4103 -0.4331  0.0248
  165TMC2    C8 2576   2.390   0.568   1.652  0.3314 -0.1905 -0.3141
  165TMC2    O1 2577   2.594   0.770   1.249 -0.0874  0.1630 -0.3994
  165TMC2    O2 2578   2.347   0.467   1.709  0.3881 -0.0110 -0.0903
  165TMC2    O5 2579   2.494   0.643   1.694  0.1416 -0.2904 -0.0844
  165TMC2    H5 2580   2.508   0.730   1.650  1.8624  0.4654  1.9669
  166MPD2     C 2581   1.810   0.294   0.932  0.6087 -0.7651 -0.1627
  166MPD2    C1 2582   1.773   0.312   1.066 -0.3503  0.4430  0.1361
  166MPD2    C2 2583   1.857   0.374   1.153 -0.4884  0.7236  0.3418
  166MPD2    C3 2584   1.991   0.414   1.112  0.4075  0.2454 -0.1629
  166MPD2    C4 2585   2.026   0.387   0.982 -0.2458 -0.3831  0.5194
  166MPD2    C5 2586   1.938   0.334   0.891 -0.0473 -0.1332 -0.1863
  166MPD2     H 2587   1.813   0.402   1.248 -1.0263 -1.7118  0.8188
  166MPD2    H1 2588   2.124   0.416   0.945  0.3722 -1.4723  1.2531
  166MPD2    H2 2589   1.742   0.246   0.863 -0.6497  0.6587  0.0983
  166MPD2    H3 2590   1.975   0.309   0.793  0.7628  3.0344 -0.6693
  166MPD2     N 2591   2.087   0.492   1.181 -0.2256  0.1293  0.4481
  166MPD2    H5 2592   2.177   0.501   1.135 -0.5754  0.2175 -0.2211
  166MPD2    N1 2593   1.643   0.281   1.108  0.5100 -0.1077 -0.8242
  166MPD2    H7 2594   1.578   0.252   1.035 -0.1612  3.5262 -1.6775
  167TMC2    C1 2595   0.744   1.968  12.950 -0.7077  0.0230 -0.1214
  167TMC2    C2 2596   0.708   2.078  13.022  0.3717 -0.7104  0.1014
  167TMC2    C3 2597   0.580   2.110  13.025 -0.1104  0.7148 -0.3626
  167TMC2    C4 2598   0.648   1.904  12.882  0.8525  0.3393  0.0428
  167TMC2    C5 2599   0.522   1.950  12.868  0.1489 -0.1426 -0.0018
  167TMC2    C6 2600   0.490   2.059  12.942 -0.2451  0.0870 -0.1050
  167TMC2     C 2601   0.876   1.948  12.899 -0.5999 -0.2882 -0.1964
  167TMC2     O 2602   0.902   1.835  12.862  0.0737 -0.0363 -0.4436
  167TMC2     H 2603   0.771   2.109  13.105 -1.7803  0.5356  1.2847
  167TMC2    H1 2604   0.686   1.814  12.836  1.6855 -0.1724  1.7185
  167TMC2    H2 2605   0.392   2.100  12.921 -0.7266 -0.6904  0.6375
  167TMC2    C7 2606   0.493   1.986  12.731  0.4110 -0.5834 -0.2869
  167TMC2    C8 2607   0.545   2.190  13.139 -0.0530 -0.7890 -0.0147
  167TMC2    O1 2608   0.384   2.021  12.702 -0.2611  0.0061  0.2132
  167TMC2    O2 2609   0.616   2.199  13.235 -0.7123 -0.5204  0.1337
  167TMC2    O5 2610   0.463   2.288  13.092  0.3272  0.3638  0.5125
  167TMC2    H5 2611   0.446   2.299  12.996 -0.3845 -0.1938  0.5755
  168MPD2     C 2612   1.128   1.977  12.764  0.5454  0.3961 -0.5888
  168MPD2    C1 2613   1.036   2.072  12.767 -0.6268  0.3098 -0.0728
  168MPD2    C2 2614   1.053   2.183  12.683 -0.8327 -0.1419  0.3227
  168MPD2    C3 2615   1.155   2.204  12.596  0.6863 -0.0398  0.1917
  168MPD2    C4 2616   1.254   2.112  12.603  0.2350 -0.3063 -0.4282
  168MPD2    C5 2617   1.240   2.001  12.684 -0.3162 -0.2078 -0.6798
  168MPD2     H 2618   0.975   2.259  12.688  0.4483  1.1329  0.8531
  168MPD2    H1 2619   1.338   2.111  12.534  0.6886 -0.2849  0.1166
  168MPD2    H2 2620   1.124   1.892  12.832  1.9500  0.3669 -0.5516
  168MPD2    H3 2621   1.334   1.948  12.698  1.5281  3.3616  0.6940
  168MPD2     N 2622   1.154   2.311  12.492  0.2860  0.0290 -0.1543
  168MPD2    H5 2623   1.232   2.306  12.427 -1.3945 -0.8662 -2.1167
  168MPD2    N1 2624   0.924   2.068  12.853  0.2127  0.0632  0.4212
  168MPD2    H7 2625   0.865   2.150  12.857 -0.4023 -0.3662 -0.0111
  169MPD1     C 2626   3.097   1.956   8.504 -0.0048  0.5191 -0.0704
  169MPD1    C1 2627   3.111   2.057   8.600 -0.0241 -0.3890 -0.9930
  169MPD1    C2 2628   3.119   2.020   8.733  0.0769  0.3474 -0.2301
  169MPD1    C3 2629   3.095   1.890   8.766  0.7560 -0.7365  0.5617
  169MPD1    C4 2630   3.070   1.792   8.674 -0.5887 -0.1917 -0.3868
  169MPD1    C5 2631   3.080   1.826   8.540  0.0944 -0.0139  0.1874
  169MPD1     H 2632   3.127   2.089   8.816 -1.5295  0.8503 -0.5070
  169MPD1    H1 2633   3.065   1.685   8.691  1.1831 -0.0479  1.0001
  169MPD1    H2 2634   3.095   1.979   8.398 -3.1148  1.1412  0.1248
  169MPD1    H3 2635   3.085   1.756   8.458 -2.6949 -0.3483  0.2782
  169MPD1     N 2636   3.090   1.859   8.899  0.1952  0.0007  0.2902
  169MPD1    H5 2637   3.133   1.928   8.960 -0.9838  1.5503 -0.6543
  169MPD1    N1 2638   3.105   2.191   8.557 -0.0565  0.0473  0.0148
  169MPD1    H6 2639   3.159   2.252   8.617 -0.4058  3.3219 -2.9916
  169MPD1    H7 2640   3.140   2.205   8.462 -1.3293  2.9322 -0.0483
  170MPD1     C 2641   1.111   3.725  13.325  0.7099 -0.3214  0.4349
  170MPD1    C1 2642   1.207   3.640  13.369  0.5130 -0.4245 -0.5299
  170MPD1    C2 2643   1.317   3.698  13.431  0.9864  0.0536 -0.4566
  170MPD1    C3 2644   1.332   3.836  13.451  0.1643 -0.7312 -0.7123
  170MPD1    C4 2645   1.235   3.917  13.401  0.3822 -0.2931  0.1704
  170MPD1    C5 2646   1.122   3.859  13.343  0.8025  0.2977  0.0427
  170MPD1     H 2647   1.396   3.633  13.468  0.1188  0.1407  1.5312
  170MPD1    H1 2648   1.242   4.025  13.394 -1.9978 -0.2149 -0.9143
  170MPD1    H2 2649   1.023   3.671  13.293  0.7054 -1.5122  2.4762
  170MPD1    H3 2650   1.042   3.918  13.302 -1.6229 -1.6309  2.0019
  170MPD1     N 2651   1.446   3.882  13.516 -0.5181 -0.3747 -0.1367
  170MPD1    H5 2652   1.515   3.817  13.554  0.1206  0.4114  0.0439
  170MPD1    N1 2653   1.191   3.501  13.357 -0.7398 -0.0740 -0.6454
  170MPD1    H6 2654   1.276   3.453  13.384 -0.4633 -0.6173 -2.4578
  170MPD1    H7 2655   1.174   3.462  13.264 -0.6781 -1.0266 -0.2552
  171MPD1     C 2656   0.038   0.173  15.224 -0.2724 -0.1472 -0.2878
  171MPD1    C1 2657   0.099   0.294  15.270  0.2160  0.0057  0.0305
  171MPD1    C2 2658   0.199   0.286  15.366  0.2337  0.3319  0.9381
  171MPD1    C3 2659   0.242   0.163  15.412 -0.5197  0.2633  0.1260
  171MPD1    C4 2660   0.180   0.046  15.367  0.0559 -0.1814 -0.3758
  171MPD1    C5 2661   0.085   0.056  15.270  0.5730 -0.2413  0.1238
  171MPD1     H 2662   0.250   0.372  15.406  1.4232 -1.0532  2.3986
  171MPD1    H1 2663   0.210   4.697  15.423 -1.0009 -1.7059 -2.1772
  171MPD1    H2 2664   4.692   0.175  15.155 -0.8654  2.1801  0.4924
  171MPD1    H3 2665   0.041   4.706  15.225 -1.5154  1.3197 -0.9037
  171MPD1     N 2666   0.338   0.145  15.515  0.5961 -0.2963 -0.2097
  171MPD1    H5 2667   0.364   0.050  15.539  2.4617  0.2371 -0.1592
  171MPD1    N1 2668   0.046   0.423  15.238 -0.0142 -0.0354  0.4224
  171MPD1    H6 2669   0.120   0.493  15.235  0.3892 -0.5742 -1.6788
  171MPD1    H7 2670   0.009   0.430  15.144  2.1437  0.6478 -0.3846
  172MPD1     C 2671   3.614   4.504   0.298  0.1259  0.3913 -0.2363
  172MPD1    C1 2672   3.631   4.621   0.367  0.1588  0.2692  0.6844
  172MPD1    C2 2673   3.754   4.685   0.348 -0.1523 -0.9233  0.0451
  172MPD1    C3 2674   3.858   4.625   0.277 -0.0577  0.0746 -0.6049
  172MPD1    C4 2675   3.833   4.507   0.217  0.5230 -0.1291 -0.0650
  172MPD1    C5 2676   3.710   4.444   0.224 -0.2154  0.4780 -0.1683
  172MPD1     H 2677   3.771   0.042   0.399 -0.7641 -0.3782 -0.7660
  172MPD1    H1 2678   3.909   4.458   0.157  2.1260  1.5684  0.5706
  172MPD1    H2 2679   3.524   4.445   0.306 -0.7063  1.3495 -2.4097
  172MPD1    H3 2680   3.693   4.357   0.161 -1.7755  0.3234  0.4833
  172MPD1     N 2681   3.982   4.691   0.245  0.3639  0.4302 -0.4113
  172MPD1    H5 2682   4.056   4.636   0.203  1.5904  1.3518  0.5384
  172MPD1    N1 2683   3.515   4.689   0.418 -0.3157 -0.1208  0.1880
  172MPD1    H6 2684   3.455   4.617   0.456  0.0811 -0.7346 -0.3318
  172MPD1    H7 2685   3.530   0.021   0.490 -0.2683  0.7514 -0.6638
  173MPD1     C 2686   1.708   0.115  14.007 -1.1742  0.2176 -0.8814
  173MPD1    C1 2687   1.573   0.115  14.035  1.7031 -0.0667 -0.4982
  173MPD1    C2 2688   1.521   0.021  14.117  0.0818 -0.3883  0.5897
  173MPD1    C3 2689   1.606   4.659  14.159  0.2871  0.2101  0.0247
  173MPD1    C4 2690   1.739   4.647  14.113  0.1126 -0.7079 -0.2341
  173MPD1    C5 2691   1.787   0.007  14.033 -0.6989  0.8539  0.1210
  173MPD1     H 2692   1.419   0.018  14.154  0.3286 -0.6246  1.2443
  173MPD1    H1 2693   1.812   4.576  14.148 -1.1500 -1.7515  0.2773
  173MPD1    H2 2694   1.750   0.199  13.952 -1.4783  0.6138 -0.5076
  173MPD1    H3 2695   1.890   4.738  13.999 -0.1009  1.4185  1.7913
  173MPD1     N 2696   1.543   4.565  14.246 -0.1393  0.0497 -0.2867
  173MPD1    H5 2697   1.442   4.568  14.252 -0.2024 -1.8459 -0.4242
  173MPD1    N1 2698   1.503   0.234  14.004 -0.7661 -0.4446 -0.1436
  173MPD1    H6 2699   1.403   0.217  14.011 -0.5301 -1.4611  0.7755
  173MPD1    H7 2700   1.519   0.265  13.909 -2.0383  1.1726  0.1607
  174MPD1     C 2701   1.923   3.777  14.719 -0.5835 -0.4801 -0.5104
  174MPD1    C1 2702   1.792   3.765  14.760  0.7434  0.0716  0.0849
  174MPD1    C2 2703   1.691   3.843  14.696  0.3258  0.1926 -0.3075
  174MPD1    C3 2704   1.728   3.940  14.604  0.6491 -0.5036  0.2179
  174MPD1    C4 2705   1.861   3.947  14.563 -0.4948  0.1121 -0.9219
  174MPD1    C5 2706   1.953   3.862  14.620 -0.2802  0.0389 -0.3629
  174MPD1     H 2707   1.585   3.822  14.698  0.5340 -0.6800  1.9546
  174MPD1    H1 2708   1.899   4.017  14.490  0.2157  2.0090  1.2552
  174MPD1    H2 2709   2.002   3.720  14.768 -0.2409 -0.5261 -1.1171
  174MPD1    H3 2710   2.055   3.855  14.584  0.5990  1.8635  1.8406
  174MPD1     N 2711   1.643   4.043  14.553 -0.2946  0.0444 -0.1618
  174MPD1    H5 2712   1.687   4.098  14.480  0.9654 -2.1349 -1.0459
  174MPD1    N1 2713   1.762   3.701  14.882  0.0633 -0.3663 -0.0333
  174MPD1    H6 2714   1.825   3.622  14.897  1.3591  0.4201 -1.4566
  174MPD1    H7 2715   1.670   3.657  14.875 -0.4501  0.3407  2.0886
  175MPD1     C 2716   3.998   0.421  15.363 -0.2987  0.3884  0.1534
  175MPD1    C1 2717   3.932   0.542  15.360 -0.0897  0.0557  1.0741
  175MPD1    C2 2718   3.979   0.639  15.448 -0.2103  0.2317  0.0305
  175MPD1    C3 2719   4.061   0.605  15.552  0.3324  0.2019  0.4663
  175MPD1    C4 2720   4.103   0.471  15.563 -0.7880 -1.0225 -0.7940
  175MPD1    C5 2721   4.071   0.383  15.468  0.2567 -0.0549  0.3808
  175MPD1     H 2722   3.952   0.742  15.429 -1.1944 -0.0698 -0.1658
  175MPD1    H1 2723   4.176   0.445  15.638 -3.0198 -0.1356  1.6709
  175MPD1    H2 2724   3.969   0.348  15.288 -0.2696  0.2370  0.2895
  175MPD1    H3 2725   4.104   0.280  15.476 -1.5087 -0.6409  0.2082
  175MPD1     N 2726   4.096   0.692  15.656 -0.1692  0.3261 -0.0814
  175MPD1    H5 2727   4.150   0.647  15.729  0.6277  1.1235 -0.1671
  175MPD1    N1 2728   3.862   0.588  15.248  0.6845 -0.4382 -0.1226
  175MPD1    H6 2729   3.812   0.522  15.189 -0.8195  1.2277 -0.7146
  175MPD1    H7 2730   3.798   0.666  15.261 -0.6151 -1.4346 -0.4940
  176MPD1     C 2731   0.975   3.325   0.487 -0.2926 -0.5998  0.1077
  176MPD1    C1 2732   1.017   3.455   0.497 -0.0926  0.3104  0.1367
  176MPD1    C2 2733   1.067   3.516   0.382  0.2893 -0.5805  0.9424
  176MPD1    C3 2734   1.061   3.460   0.258  0.4183  0.0105 -0.0659
  176MPD1    C4 2735   1.006   3.331   0.252  0.2921  0.4439 -0.5999
  176MPD1    C5 2736   0.972   3.257   0.363  0.4328  0.5657  0.0326
  176MPD1     H 2737   1.119   3.611   0.393 -0.8595  0.4237 -2.2889
  176MPD1    H1 2738   1.007   3.279   0.157 -2.1012  0.1176 -0.4482
  176MPD1    H2 2739   0.940   3.271   0.574  0.3957  0.0150  0.7648
  176MPD1    H3 2740   0.947   3.152   0.357 -2.5499  1.2602  0.0707
  176MPD1     N 2741   1.101   3.527   0.144  0.5239  0.2827  0.3356
  176MPD1    H5 2742   1.143   3.619   0.157  1.9913 -0.1490 -1.4492
  176MPD1    N1 2743   1.045   3.503   0.624  0.6532 -0.1621  0.1757
  176MPD1    H6 2744   0.975   3.483   0.696 -0.1510  1.0368 -0.2791
  176MPD1    H7 2745   1.063   3.602   0.633  0.0479 -0.2509  2.4039
  177MPD1     C 2746   4.661   2.862   9.316 -0.3003 -0.5071  0.0935
  177MPD1    C1 2747   4.574   2.833   9.210 -0.7600  0.2736 -0.7163
  177MPD1    C2 2748   4.462   2.912   9.202 -0.7331  0.1601 -0.4262
  177MPD1    C3 2749   4.446   3.022   9.278 -0.2137 -0.0763  0.7158
  177MPD1    C4 2750   4.532   3.048   9.378  0.3817  0.1922 -0.1263
  177MPD1    C5 2751   4.642   2.975   9.395  0.1741 -0.2545  0.1990
  177MPD1     H 2752   4.384   2.897   9.129  1.0511  2.2555 -2.7763
  177MPD1    H1 2753   4.518   3.127   9.452  0.0285  0.3144 -0.3265
  177MPD1    H2 2754   4.737   2.787   9.335  0.3268 -0.4209 -2.0117
  177MPD1    H3 2755   4.711   2.999   9.475  0.8440 -0.4069 -0.3390
  177MPD1     N 2756   4.330   3.095   9.257 -0.8493 -0.0073  0.4849
  177MPD1    H5 2757   4.255   3.052   9.203 -1.1564  1.3202 -0.1308
  177MPD1    N1 2758   4.592   2.722   9.126  0.5207 -0.8815 -0.6060
  177MPD1    H6 2759   4.547   2.725   9.034  0.2655  0.2072 -0.4473
  177MPD1    H7 2760   4.692   2.705   9.121  0.3997 -1.2945 -1.7711
  178MPD1     C 2761   1.357   3.315   0.107  0.3868 -0.4356 -0.6312
  178MPD1    C1 2762   1.354   3.212   0.014 -0.2384  0.3642 -0.0433
  178MPD1    C2 2763   1.443   3.202  17.660 -0.3274 -0.1232 -0.1744
  178MPD1    C3 2764   1.542   3.293  17.646  0.3794 -0.9353  0.1289
  178MPD1    C4 2765   1.554   3.391  17.744 -0.0751 -0.1425 -0.9494
  178MPD1    C5 2766   1.463   3.402   0.094 -0.2943  0.3416  0.2754
  178MPD1     H 2767   1.442   3.121  17.589 -1.0130  0.8379 -1.2551
  178MPD1    H1 2768   1.635   3.463  17.733  0.8784 -0.8898  1.1154
  178MPD1    H2 2769   1.293   3.321   0.194  0.4008 -2.0972 -0.4983
  178MPD1    H3 2770   1.488   3.472   0.173 -1.0339  0.9279 -0.0069
  178MPD1     N 2771   1.628   3.284  17.532  0.4026  0.2833  0.3430
  178MPD1    H5 2772   1.596   3.209  17.472  1.4193  1.6339 -1.9080
  178MPD1    N1 2773   1.267   3.106   0.039  0.4817 -0.7325 -0.3698
  178MPD1    H6 2774   1.192   3.140   0.100  1.1715  0.7473 -0.3493
  178MPD1    H7 2775   1.235   3.054  17.709 -0.2232 -0.6632 -0.1350
  179MPD1     C 2776   0.948   2.283  15.374 -0.8255  0.0095 -0.3138
  179MPD1    C1 2777   0.995   2.254  15.498  0.5489 -0.2161  0.2965
  179MPD1    C2 2778   1.036   2.122  15.518 -0.2714  0.1592  0.0245
  179MPD1    C3 2779   1.027   2.027  15.425  0.9844 -0.2166 -0.0136
  179MPD1    C4 2780   0.964   2.064  15.304  0.5154  0.1626 -0.1506
  179MPD1    C5 2781   0.921   2.191  15.278  0.4930 -0.7310 -0.2694
  179MPD1     H 2782   1.087   2.108  15.613  0.7856  0.0773 -0.5561
  179MPD1    H1 2783   0.950   1.984  15.232 -0.5148  0.3177 -0.1195
  179MPD1    H2 2784   0.928   2.386  15.344 -2.1684 -0.3206 -0.5603
  179MPD1    H3 2785   0.883   2.214  15.179 -0.3472  0.5587  0.3467
  179MPD1     N 2786   1.062   1.889  15.437 -0.6582  0.0439 -0.0026
  179MPD1    H5 2787   1.040   1.835  15.354  1.7150 -0.3610 -0.3763
  179MPD1    N1 2788   1.019   2.359  15.589 -0.0266 -0.0673 -0.3269
  179MPD1    H6 2789   1.021   2.321  15.684 -1.1368  2.0128  0.5285
  179MPD1    H7 2790   0.959   2.440  15.574  0.5257  0.2359 -0.9272
  180MPD1     C 2791   1.418   2.643  14.925  0.1882  0.3995  0.1940
  180MPD1    C1 2792   1.400   2.777  14.951  0.2248 -0.8244  0.3252
  180MPD1    C2 2793   1.272   2.828  14.954  0.1412  0.0602  0.4573
  180MPD1    C3 2794   1.169   2.759  14.905  0.3976  0.4637 -0.7234
  180MPD1    C4 2795   1.191   2.630  14.860  0.3374 -0.0260  0.1594
  180MPD1    C5 2796   1.318   2.569  14.877  0.3366 -0.2171 -0.0022
  180MPD1     H 2797   1.270   2.935  14.974  0.8797 -0.2032  1.8793
  180MPD1    H1 2798   1.113   2.567  14.817  0.3782 -1.0863  1.6520
  180MPD1    H2 2799   1.510   2.595  14.958  1.6117  2.3400 -0.9728
  180MPD1    H3 2800   1.324   2.463  14.855 -1.0649 -0.7768  2.3625
  180MPD1     N 2801   1.048   2.824  14.887  0.3162  0.1529  0.5997
  180MPD1    H5 2802   1.049   2.920  14.918  1.3747  0.4171 -0.2404
  180MPD1    N1 2803   1.500   2.853  15.015 -0.1332  0.0695 -0.1936
  180MPD1    H6 2804   1.590   2.818  14.983  0.8105  2.6195 -0.2669
  180MPD1    H7 2805   1.478   2.949  14.990 -0.9027  0.1246  0.7114
  181MPD1     C 2806   2.757   4.575  10.053  0.0030  0.2025 -0.4733
  181MPD1    C1 2807   2.808   4.658  10.142 -0.4184  0.9520  0.2283
  181MPD1    C2 2808   2.913   0.003  10.113 -0.0114  0.2712  0.7375
  181MPD1    C3 2809   2.991   4.715  10.002 -0.3110 -0.0016 -0.2184
  181MPD1    C4 2810   2.947   4.617   9.919  0.0401 -0.1163  0.0833
  181MPD1    C5 2811   2.837   4.544   9.944 -0.3389  0.0920  0.2386
  181MPD1     H 2812   2.951   0.071  10.189  2.2731  0.9055 -1.0007
  181MPD1    H1 2813   3.013   4.597   9.835 -0.9977 -1.4910 -0.4101
  181MPD1    H2 2814   2.662   4.523  10.062  0.0974  0.3783  1.5726
  181MPD1    H3 2815   2.818   4.462   9.877  2.1080 -0.0561 -0.2477
  181MPD1     N 2816   3.114   0.050   9.975  0.2319  0.5865  0.1024
  181MPD1    H5 2817   3.169   0.023   9.894  0.6326  2.8924 -0.3959
  181MPD1    N1 2818   2.735   4.668  10.257 -0.1022  0.1138 -0.4294
  181MPD1    H6 2819   2.686   4.581  10.279  0.0383  0.2001  0.2275
  181MPD1    H7 2820   2.802   4.676  10.334  0.4144  3.7851 -1.2506
  182MPD1     C 2821   2.882   0.352   1.276 -0.3340  1.2159 -0.2237
  182MPD1    C1 2822   2.742   0.351   1.279 -0.1997  0.5541 -0.3953
  182MPD1    C2 2823   2.674   0.309   1.161  0.0073 -0.3041  0.0592
  182MPD1    C3 2824   2.744   0.258   1.056 -0.0211  0.4020  0.7388
  182MPD1    C4 2825   2.881   0.259   1.060  0.3432  0.0986 -0.2250
  182MPD1    C5 2826   2.954   0.313   1.159  0.1789 -0.8362  0.8651
  182MPD1     H 2827   2.566   0.317   1.160 -0.0057 -0.6882 -1.3446
  182MPD1    H1 2828   2.932   0.219   0.973 -1.4219 -1.5164 -0.5159
  182MPD1    H2 2829   2.933   0.383   1.366  0.9271 -2.8275  0.4775
  182MPD1    H3 2830   3.062   0.303   1.156  0.2512  0.1708 -0.0459
  182MPD1     N 2831   2.685   0.189   0.944  0.0834  0.2629  0.6672
  182MPD1    H5 2832   2.746   0.154   0.870 -0.0010  0.8252  0.3275
  182MPD1    N1 2833   2.679   0.416   1.384  0.2774 -0.1692  0.1573
  182MPD1    H6 2834   2.732   0.414   1.471  0.9036  2.4845 -0.1668
  182MPD1    H7 2835   2.582   0.386   1.387 -0.1218  0.9910 -1.1356
  183MPD1     C 2836   0.142   0.776  10.057 -0.0712  0.4250  0.0186
  183MPD1    C1 2837   0.062   0.669  10.088 -0.4277  0.1305  0.3725
  183MPD1    C2 2838   4.678   0.660  10.028  0.2130  0.3910 -0.1434
  183MPD1    C3 2839   4.629   0.764   9.949 -0.7839  0.2386  0.4175
  183MPD1    C4 2840   4.700   0.879   9.932  0.4300  0.1845  0.1893
  183MPD1    C5 2841   0.089   0.879   9.982  0.6548  0.6449  0.6363
  183MPD1     H 2842   4.640   0.559  10.017 -0.5029  0.5499  0.9268
  183MPD1    H1 2843   4.658   0.962   9.876  0.3479 -0.4586 -0.6956
  183MPD1    H2 2844   0.244   0.777  10.094 -0.2851  1.3435  0.5871
  183MPD1    H3 2845   0.144   0.970   9.958  3.2558 -1.2445 -0.5887
  183MPD1     N 2846   4.512   0.742   9.877  0.5660  0.0287 -0.3736
  183MPD1    H5 2847   4.476   0.648   9.891 -0.8070  0.5446 -0.4181
  183MPD1    N1 2848   0.112   0.552  10.145 -0.2151 -0.4761 -0.2654
  183MPD1    H6 2849   0.042   0.502  10.200  1.0381 -2.0625 -0.1037
  183MPD1    H7 2850   0.185   0.576  10.210 -1.9467 -0.2953  1.6020
  184MPD1     C 2851   2.970   2.448   9.555 -0.8554  0.1790 -0.4834
  184MPD1    C1 2852   3.079   2.501   9.607 -0.0636  0.8422  0.4107
  184MPD1    C2 2853   3.149   2.603   9.551 -0.3661  0.0498  0.7775
  184MPD1    C3 2854   3.105   2.669   9.436  0.5735  0.9829 -0.1293
  184MPD1    C4 2855   2.991   2.616   9.374 -0.5730  0.0002  0.8046
  184MPD1    C5 2856   2.927   2.515   9.442 -0.6434 -0.1677  0.1002
  184MPD1     H 2857   3.241   2.631   9.601 -0.4463 -0.5336  1.2509
  184MPD1    H1 2858   2.939   2.664   9.292 -1.4883 -0.6806  0.9921
  184MPD1    H2 2859   2.914   2.374   9.611  0.2693  0.3042  0.7867
  184MPD1    H3 2860   2.842   2.468   9.393 -0.1248 -0.2002 -0.7680
  184MPD1     N 2861   3.166   2.787   9.379  0.3417 -0.0111  0.3633
  184MPD1    H5 2862   3.120   2.821   9.296  1.4105  2.0971  0.6397
  184MPD1    N1 2863   3.123   2.429   9.717  0.0235 -0.3511 -0.3027
  184MPD1    H6 2864   3.167   2.493   9.783 -0.1246 -1.4102  0.8235
  184MPD1    H7 2865   3.052   2.383   9.772 -1.0092  0.9982 -0.5189
  185MPD1     C 2866   2.867   3.210   8.706  0.7299  0.2842 -1.3898
  185MPD1    C1 2867   2.927   3.309   8.778 -0.4593  0.1604  0.0467
  185MPD1    C2 2868   3.012   3.270   8.878 -0.1030 -0.1338  0.2316
  185MPD1    C3 2869   3.044   3.143   8.903 -0.3102 -0.0695  0.2437
  185MPD1    C4 2870   2.981   3.044   8.832  0.8308  0.1675 -0.2858
  185MPD1    C5 2871   2.897   3.080   8.731  0.3156 -0.4128 -0.0260
  185MPD1     H 2872   3.052   3.349   8.941  0.0824  0.1464 -0.2358
  185MPD1    H1 2873   3.018   2.942   8.839  1.5458  0.4692  0.3359
  185MPD1    H2 2874   2.808   3.229   8.617 -0.6276  1.4545 -0.2373
  185MPD1    H3 2875   2.849   3.003   8.673  1.6165 -0.6695 -0.7655
  185MPD1     N 2876   3.135   3.104   9.009 -0.0224  0.0087  0.5468
  185MPD1    H5 2877   3.144   3.005   9.028 -0.6396 -0.5416 -2.0111
  185MPD1    N1 2878   2.913   3.437   8.723 -0.1080  1.0789  0.9913
  185MPD1    H6 2879   2.834   3.461   8.664  1.6131  0.7030 -1.4548
  185MPD1    H7 2880   2.913   3.508   8.796  2.0101  0.4807  1.5714
  186MPD1     C 2881   1.419   2.638  16.056  0.8310 -0.3182  0.3076
  186MPD1    C1 2882   1.405   2.560  16.172  0.3090 -0.1792  0.0912
  186MPD1    C2 2883   1.514   2.489  16.215 -0.3497  0.1742 -0.0426
  186MPD1    C3 2884   1.633   2.487  16.141 -0.4717 -0.4485  0.4290
  186MPD1    C4 2885   1.644   2.574  16.035  0.1911  0.1046  0.1510
  186MPD1    C5 2886   1.534   2.643  15.994 -0.5668 -0.3243 -0.4248
  186MPD1     H 2887   1.512   2.449  16.316  0.5480 -1.5578 -0.7244
  186MPD1    H1 2888   1.735   2.576  15.977  0.0386 -0.6821 -0.1251
  186MPD1    H2 2889   1.335   2.692  16.012 -0.0830 -3.6780 -2.0974
  186MPD1    H3 2890   1.545   2.716  15.914 -2.6684  2.2247  1.6199
  186MPD1     N 2891   1.736   2.414  16.188  0.5484 -0.3932  0.1286
  186MPD1    H5 2892   1.723   2.362  16.274 -0.6018  1.8038  1.2591
  186MPD1    N1 2893   1.292   2.582  16.251 -0.0071 -0.4733  0.0299
  186MPD1    H6 2894   1.266   2.502  16.308  2.1712  1.2676  3.4421
  186MPD1    H7 2895   1.216   2.620  16.195 -1.1999  0.3927  2.2342
  187MPD1     C 2896   1.501   4.472   0.041  0.0419  0.3402  0.2353
  187MPD1    C1 2897   1.577   4.499  17.678 -0.3429 -0.1304  0.3602
  187MPD1    C2 2898   1.539   4.439  17.560  0.3861  0.2423 -0.2627
  187MPD1    C3 2899   1.447   4.334  17.558 -0.4153  0.0487  0.4229
  187MPD1    C4 2900   1.382   4.306  17.678 -0.2418 -0.1684 -0.0892
  187MPD1    C5 2901   1.401   4.385   0.039 -0.0758 -0.4088  0.1100
  187MPD1     H 2902   1.588   4.474  17.471 -0.5561  1.3545 -0.3478
  187MPD1    H1 2903   1.302   4.233  17.684 -1.4946  1.2559  0.4610
  187MPD1    H2 2904   1.510   4.530   0.133  0.5681  1.7712 -0.7191
  187MPD1    H3 2905   1.343   4.373   0.130 -0.0138  1.2168  0.3551
  187MPD1     N 2906   1.410   4.261  17.440 -0.0322  0.5915  0.5593
  187MPD1    H5 2907   1.340   4.189  17.451  1.3610 -1.0423 -1.1516
  187MPD1    N1 2908   1.676   4.595  17.678  0.0352  0.1763 -0.0822
  187MPD1    H6 2909   1.736   4.591   0.009  0.8878  1.0298 -0.6594
  187MPD1    H7 2910   1.727   4.581  17.591 -1.4127  0.7767 -1.0167
  188MPD1     C 2911   1.147   4.139  10.599  0.3375 -0.3340  0.9035
  188MPD1    C1 2912   1.172   4.178  10.471 -0.6201 -0.0582 -0.9044
  188MPD1    C2 2913   1.150   4.088  10.371 -0.0596  0.0242  0.3904
  188MPD1    C3 2914   1.122   3.958  10.398  0.5643 -0.1864  0.1921
  188MPD1    C4 2915   1.135   3.914  10.528  0.0421  0.2448 -0.1628
  188MPD1    C5 2916   1.155   4.002  10.630 -0.2565 -0.5249  0.0433
  188MPD1     H 2917   1.150   4.113  10.265  1.9079 -0.2156  0.3317
  188MPD1    H1 2918   1.126   3.808  10.550  0.7349  0.1540 -0.3206
  188MPD1    H2 2919   1.155   4.210  10.681 -0.3312 -0.7778  1.3554
  188MPD1    H3 2920   1.150   3.973  10.734 -0.3231  0.7274  0.3917
  188MPD1     N 2921   1.101   3.857  10.298 -0.1012  0.5293 -0.1154
  188MPD1    H5 2922   1.095   3.765  10.341  2.1140  0.7357  0.6574
  188MPD1    N1 2923   1.179   4.314  10.450 -0.5314 -0.1721 -0.8523
  188MPD1    H6 2924   1.247   4.360  10.510 -0.1795 -0.3419 -1.1199
  188MPD1    H7 2925   1.218   4.326  10.356  3.3963  2.5870  1.1553
  189MPD1     C 2926   3.123   4.714  17.641 -0.3966  0.5919  0.2489
  189MPD1    C1 2927   3.020   4.628  17.679 -0.8835  0.2975  0.6613
  189MPD1    C2 2928   2.894   4.677  17.663 -0.1603  0.9352  0.6102
  189MPD1    C3 2929   2.864   0.060  17.607 -0.4959  0.4518 -0.0356
  189MPD1    C4 2930   2.967   0.139  17.565 -0.4303 -0.5040  0.3715
  189MPD1    C5 2931   3.105   0.101  17.582 -0.7098 -0.5509  0.0321
  189MPD1     H 2932   2.815   4.613  17.697  1.7733 -1.9064 -0.2387
  189MPD1    H1 2933   2.949   0.230  17.508  0.3919  0.1225  1.1093
  189MPD1    H2 2934   3.226   4.689  17.664 -0.1032  1.9703  0.4630
  189MPD1    H3 2935   3.187   0.162  17.545 -0.1422 -2.7884 -2.4032
  189MPD1     N 2936   2.730   0.089  17.602  0.2401 -0.0800 -0.7782
  189MPD1    H5 2937   2.670   0.008  17.613  0.1483  0.0731 -0.1151
  189MPD1    N1 2938   3.049   4.501  17.729  0.6025  0.1131 -0.1696
  189MPD1    H6 2939   3.140   4.507   0.023  0.7811  3.6627 -0.9829
  189MPD1    H7 2940   2.994   4.486   0.063 -1.9572 -3.3308 -2.4410
  190MPD1     C 2941   1.168   3.129  15.898 -0.3630 -0.1501  0.1570
  190MPD1    C1 2942   1.232   3.039  15.978  0.0407 -0.9757  0.2932
  190MPD1    C2 2943   1.363   3.012  15.961 -0.0733 -1.0438 -0.5322
  190MPD1    C3 2944   1.438   3.070  15.865 -0.2676 -1.1538  0.2002
  190MPD1    C4 2945   1.377   3.146  15.771  0.2607  0.6770 -0.1131
  190MPD1    C5 2946   1.243   3.169  15.784  1.1906  0.5294  0.0924
  190MPD1     H 2947   1.391   2.937  16.035  1.6015 -0.4402 -0.5494
  190MPD1    H1 2948   1.424   3.196  15.687 -1.2765 -0.0582 -1.3982
  190MPD1    H2 2949   1.067   3.164  15.917  0.1688  2.0415 -1.1041
  190MPD1    H3 2950   1.198   3.239  15.714  1.2221  0.5362  0.0792
  190MPD1     N 2951   1.572   3.039  15.854 -0.0210  0.1483 -0.0831
  190MPD1    H5 2952   1.621   2.998  15.933  2.0997  0.1924 -1.3833
  190MPD1    N1 2953   1.176   3.005  16.097 -0.1809 -0.0478 -0.2819
  190MPD1    H6 2954   1.214   2.917  16.131 -2.3042 -1.1336 -0.7274
  190MPD1    H7 2955   1.077   2.985  16.085  0.1823 -2.0987  0.1890
  191MPD1     C 2956   0.677   4.561  13.700  0.2600 -0.4555  1.3012
  191MPD1    C1 2957   0.554   4.615  13.660 -0.8069  0.3006 -0.0641
  191MPD1    C2 2958   0.556   4.730  13.576  0.5307  0.0442  0.7725
  191MPD1    C3 2959   0.677   0.032  13.526  0.9581  0.2628  0.4934
  191MPD1    C4 2960   0.793   4.712  13.565 -0.7654 -0.5544 -0.2735
  191MPD1    C5 2961   0.788   4.609  13.649  0.2686 -0.3977  0.2143
  191MPD1     H 2962   0.459   0.032  13.548  0.5286 -0.2214  0.4026
  191MPD1    H1 2963   0.893   0.004  13.535  0.4617 -1.4794  2.8642
  191MPD1    H2 2964   0.679   4.489  13.780 -1.4112 -0.5965  1.2146
  191MPD1    H3 2965   0.881   4.567  13.684 -0.3353 -3.8656 -2.2507
  191MPD1     N 2966   0.675   0.131  13.425  0.0558  0.4731  0.1665
  191MPD1    H5 2967   0.582   0.150  13.389  0.1998  3.3222  1.3641
  191MPD1    N1 2968   0.430   4.566  13.708  0.3509 -0.0966 -0.6173
  191MPD1    H6 2969   0.356   4.572  13.638  0.1410  0.4675 -0.3498
  191MPD1    H7 2970   0.426   4.467  13.732 -1.0495 -0.1771 -1.1822
  192MPD1     C 2971   0.243   0.998  13.309  0.4495 -0.6583  0.4530
  192MPD1    C1 2972   0.255   0.890  13.393  0.1075 -0.3203  0.4970
  192MPD1    C2 2973   0.336   0.788  13.350 -0.3263  0.6478  0.5680
  192MPD1    C3 2974   0.409   0.790  13.233  0.0059 -0.2642 -0.0314
  192MPD1    C4 2975   0.396   0.906  13.154 -0.5561 -0.0061  0.2214
  192MPD1    C5 2976   0.314   1.005  13.192 -0.0070 -0.0400 -0.1838
  192MPD1     H 2977   0.339   0.697  13.408  1.8668  0.2456 -0.1379
  192MPD1    H1 2978   0.456   0.920  13.065 -1.1057  0.5710 -0.0536
  192MPD1    H2 2979   0.177   1.081  13.334  0.2794 -0.9632  1.0222
  192MPD1    H3 2980   0.296   1.093  13.131  1.3494 -0.3423 -1.0011
  192MPD1     N 2981   0.489   0.679  13.195  0.0641  0.2446 -0.3592
  192MPD1    H5 2982   0.530   0.688  13.102  1.2575  0.1344  0.1642
  192MPD1    N1 2983   0.173   0.872  13.510  0.1301 -0.1704 -0.4900
  192MPD1    H6 2984   0.127   0.955  13.547 -0.0941 -0.4679 -0.0917
  192MPD1    H7 2985   0.217   0.821  13.586  1.8553 -0.3519 -1.6136
  193MPD1     C 2986   0.158   0.450  16.559 -0.1644 -0.2070  0.2202
  193MPD1    C1 2987   0.147   0.562  16.637 -0.0966 -0.2790  0.0386
  193MPD1    C2 2988   0.259   0.646  16.652  0.1542 -0.5007 -0.7140
  193MPD1    C3 2989   0.385   0.609  16.599  0.0701  0.5331  0.1919
  193MPD1    C4 2990   0.385   0.502  16.519 -0.2388 -0.3890  0.3530
  193MPD1    C5 2991   0.274   0.420  16.497  0.1859 -0.1252 -0.0666
  193MPD1     H 2992   0.236   0.738  16.705  0.0394 -0.5007 -0.7619
  193MPD1    H1 2993   0.480   0.472  16.475  0.3338 -0.9048  1.9522
  193MPD1    H2 2994   0.069   0.388  16.548  0.4474 -1.2000  0.9055
  193MPD1    H3 2995   0.292   0.331  16.437 -2.0283 -0.4847 -0.1950
  193MPD1     N 2996   0.505   0.677  16.622 -0.4300  0.2511 -0.2514
  193MPD1    H5 2997   0.590   0.623  16.611  0.9931  2.1715  1.3615
  193MPD1    N1 2998   0.036   0.582  16.715 -0.2284 -0.4320 -0.0679
  193MPD1    H6 2999   4.695   0.540  16.667 -1.8603  2.4823  0.0673
  193MPD1    H7 3000   0.024   0.683  16.712  0.2745 -0.3702  0.0999
  194MPD1     C 3001   2.445   2.804  17.309  0.2112  0.1535  0.0291
  194MPD1    C1 3002   2.523   2.794  17.193 -0.5832 -0.0906 -0.3177
  194MPD1    C2 3003   2.614   2.691  17.189  0.3438  0.9996 -0.2031
  194MPD1    C3 3004   2.614   2.586  17.281  0.3293  1.4139 -0.2765
  194MPD1    C4 3005   2.534   2.601  17.393  0.5741 -0.1296 -0.9348
  194MPD1    C5 3006   2.451   2.713  17.411 -0.1420  0.1353 -0.6061
  194MPD1     H 3007   2.693   2.688  17.114 -1.6027 -0.3926 -2.1937
  194MPD1    H1 3008   2.540   2.532  17.477 -0.9270 -1.0612 -1.5942
  194MPD1    H2 3009   2.380   2.891  17.315  1.2345  0.9313 -0.1703
  194MPD1    H3 3010   2.405   2.725  17.509  0.6224 -1.5203 -0.0569
  194MPD1     N 3011   2.701   2.473  17.266  0.4105 -0.1051 -0.7738
  194MPD1    H5 3012   2.702   2.413  17.348 -3.0557  1.1458  0.2103
  194MPD1    N1 3013   2.537   2.910  17.120  0.5321  0.3187  0.0940
  194MPD1    H6 3014   2.448   2.951  17.091 -0.1262 -1.2516 -0.1131
  194MPD1    H7 3015   2.593   2.904  17.035 -2.4445  0.1438 -1.8525
  195MPD1     C 3016   0.644   0.224   0.772 -0.3215 -0.1352 -0.3174
  195MPD1    C1 3017   0.525   0.228   0.701  0.3214 -0.4575  0.4799
  195MPD1    C2 3018   0.512   0.136   0.595 -0.0716 -0.3457  0.0459
  195MPD1    C3 3019   0.606   0.040   0.572  0.0739  0.1211  0.6481
  195MPD1    C4 3020   0.728   0.040   0.638 -0.5830  0.4313  0.3784
  195MPD1    C5 3021   0.745   0.138   0.736  0.2306  0.2129  0.0734
  195MPD1     H 3022   0.414   0.142   0.549 -0.7155  0.9499  1.5505
  195MPD1    H1 3023   0.809   4.708   0.625 -0.9874 -0.1677  1.0704
  195MPD1    H2 3024   0.657   0.291   0.856  1.3979 -1.5039  0.5058
  195MPD1    H3 3025   0.846   0.166   0.764  0.3425 -0.3555  0.2236
  195MPD1     N 3026   0.585   4.688   0.464 -0.4775 -0.3437  0.0497
  195MPD1    H5 3027   0.661   4.624   0.445  0.5645  0.4399  1.5832
  195MPD1    N1 3028   0.416   0.294   0.756 -0.0857  0.3122 -0.5869
  195MPD1    H6 3029   0.346   0.319   0.686  0.6931 -2.7344 -2.4749
  195MPD1    H7 3030   0.447   0.378   0.804 -1.6965  1.4167 -1.4716
  196MPD1     C 3031   4.347   3.181   0.788 -0.1505 -0.0672 -0.4568
  196MPD1    C1 3032   4.435   3.282   0.835  0.4712  0.1947  0.0790
  196MPD1    C2 3033   4.418   3.409   0.778  0.2568 -0.7519  0.6511
  196MPD1    C3 3034   4.309   3.442   0.699  0.3080 -0.4933  0.4702
  196MPD1    C4 3035   4.219   3.340   0.664  0.0074 -0.5528  0.1529
  196MPD1    C5 3036   4.239   3.209   0.705 -0.0805  0.4635  0.0952
  196MPD1     H 3037   4.487   3.482   0.817  0.4958 -1.3333  1.3284
  196MPD1    H1 3038   4.131   3.366   0.606  0.0612 -0.4717  0.1066
  196MPD1    H2 3039   4.354   3.080   0.826 -2.5406  0.0350  0.2261
  196MPD1    H3 3040   4.168   3.131   0.680  0.5658 -0.1141  0.0402
  196MPD1     N 3041   4.274   3.575   0.674  0.1446  0.6517  0.3416
  196MPD1    H5 3042   4.189   3.607   0.629  0.0850  0.3090  0.2162
  196MPD1    N1 3043   4.560   3.254   0.896 -0.3423 -0.2507 -0.6634
  196MPD1    H6 3044   4.614   3.330   0.937  2.5336 -2.1710 -0.8494
  196MPD1    H7 3045   4.544   3.175   0.959  2.8994  0.7296  1.3669
  197MPD1     C 3046   3.772   0.688  17.488 -0.5530  0.3260 -0.1180
  197MPD1    C1 3047   3.911   0.677  17.509 -0.3617 -0.1603  0.1549
  197MPD1    C2 3048   3.995   0.754  17.433  0.6131 -0.2114  0.3572
  197MPD1    C3 3049   3.949   0.842  17.341 -0.7716  0.8692 -0.3566
  197MPD1    C4 3050   3.811   0.860  17.323 -0.6309 -0.4280  0.5062
  197MPD1    C5 3051   3.726   0.776  17.387  0.5904  0.1944 -0.1753
  197MPD1     H 3052   4.099   0.741  17.462  0.6023 -1.3673 -0.1011
  197MPD1    H1 3053   3.769   0.925  17.248 -1.7177  0.1242  1.5821
  197MPD1    H2 3054   3.697   0.631  17.541  0.1413 -0.6148 -0.1412
  197MPD1    H3 3055   3.622   0.781  17.356  0.5818 -1.1706 -0.3766
  197MPD1     N 3056   4.040   0.914  17.260  0.2476  0.1604 -0.4645
  197MPD1    H5 3057   3.997   0.976  17.192  0.1296  0.6014  0.0140
  197MPD1    N1 3058   3.960   0.611  17.622  0.1322 -0.2050 -0.5432
  197MPD1    H6 3059   3.899   0.543  17.667  1.2615 -0.8810 -0.0357
  197MPD1    H7 3060   4.045   0.558  17.603 -1.1821 -1.7634 -2.0433
  198MPD1     C 3061   0.958   3.325  15.223 -0.5475 -0.0538  0.0076
  198MPD1    C1 3062   1.025   3.304  15.338  0.3650  0.0597  0.3623
  198MPD1    C2 3063   1.118   3.404  15.374 -0.1606 -0.7161  0.1581
  198MPD1    C3 3064   1.133   3.528  15.307  0.1444 -0.2088  0.0820
  198MPD1    C4 3065   1.053   3.545  15.194  0.0283 -0.7296  0.5721
  198MPD1    C5 3066   0.967   3.442  15.155 -0.1171  0.7388 -0.2978
  198MPD1     H 3067   1.181   3.384  15.460  0.5965 -2.5098 -0.8354
  198MPD1    H1 3068   1.054   3.637  15.138  1.1212 -1.6560 -0.9541
  198MPD1    H2 3069   0.888   3.255  15.180 -0.8797  0.7077 -0.7059
  198MPD1    H3 3070   0.903   3.455  15.068 -1.7225 -2.3797  0.4247
  198MPD1     N 3071   1.227   3.627  15.351  0.2320 -0.2544  0.2620
  198MPD1    H5 3072   1.298   3.595  15.416  0.0188  0.0524  0.6478
  198MPD1    N1 3073   1.021   3.173  15.398 -0.4109  0.4563 -0.2942
  198MPD1    H6 3074   1.050   3.179  15.496  0.7963 -0.2002 -0.6062
  198MPD1    H7 3075   0.929   3.134  15.412  1.0437 -2.6607  0.4653
  199MPD1     C 3076   3.912   1.645  10.012  0.1442 -0.6525  0.3689
  199MPD1    C1 3077   3.893   1.612  10.142  0.0839  0.1904 -0.3875
  199MPD1    C2 3078   3.777   1.555  10.173  0.7701 -0.4952 -0.2275
  199MPD1    C3 3079   3.663   1.554  10.086  0.1827  0.7165  0.4448
  199MPD1    C4 3080   3.678   1.622   9.970  1.0259  0.4704 -0.8202
  199MPD1    C5 3081   3.803   1.659   9.934 -0.7941  0.0080 -0.5187
  199MPD1     H 3082   3.764   1.516  10.274  0.8170 -1.5082 -0.6127
  199MPD1    H1 3083   3.594   1.649   9.907  1.4734 -0.0837 -1.6566
  199MPD1    H2 3084   4.002   1.684   9.967 -0.3462  0.1842  0.1073
  199MPD1    H3 3085   3.831   1.701   9.837 -1.5135 -2.0340 -1.6005
  199MPD1     N 3086   3.539   1.499  10.120 -0.3050  0.3106  0.5426
  199MPD1    H5 3087   3.467   1.514  10.050  0.6009 -0.8440 -0.6420
  199MPD1    N1 3088   4.001   1.616  10.233 -0.6384  0.4218  0.3949
  199MPD1    H6 3089   4.078   1.682  10.224 -2.2967  1.9900 -2.3115
  199MPD1    H7 3090   3.972   1.609  10.331 -0.3697  2.1215  0.5822
  200MPD1     C 3091   3.001   0.818  16.149 -0.7781  0.3798 -0.4106
  200MPD1    C1 3092   3.052   0.732  16.054  0.0652 -0.0579 -0.4299
  200MPD1    C2 3093   3.020   0.761  15.918  0.2611  0.0769  0.4318
  200MPD1    C3 3094   2.956   0.869  15.880 -0.4129  0.1085 -0.5287
  200MPD1    C4 3095   2.917   0.959  15.976  0.3496  0.5923  0.4399
  200MPD1    C5 3096   2.935   0.927  16.107  0.8942 -0.3869 -0.2843
  200MPD1     H 3097   3.056   0.687  15.848 -1.7247 -0.7382  0.2685
  200MPD1    H1 3098   2.863   1.051  15.955  0.7278  0.1540 -2.3752
  200MPD1    H2 3099   3.018   0.804  16.255  0.8364 -0.6401 -0.8093
  200MPD1    H3 3100   2.909   1.004  16.178  1.4792  0.9560 -1.5378
  200MPD1     N 3101   2.932   0.890  15.739  0.2618 -0.1837  0.3008
  200MPD1    H5 3102   2.952   0.815  15.674 -0.9756  0.4059 -0.7598
  200MPD1    N1 3103   3.093   0.600  16.090 -0.5933 -0.0146 -0.1281
  200MPD1    H6 3104   3.146   0.604  16.177 -1.1658 -1.4550  0.2875
  200MPD1    H7 3105   3.158   0.566  16.019  1.1905  2.8915  0.1188
  201MPD1     C 3106   4.062   4.362  13.607 -0.3397  0.3350  0.6962
  201MPD1    C1 3107   4.048   4.232  13.580 -0.0570 -0.1100  0.2508
  201MPD1    C2 3108   4.167   4.166  13.551  0.3366 -0.2545  1.1981
  201MPD1    C3 3109   4.284   4.206  13.607 -0.4448 -0.0952 -0.0859
  201MPD1    C4 3110   4.292   4.335  13.665 -0.1601  0.3327  0.3912
  201MPD1    C5 3111   4.179   4.406  13.660  0.2586  0.3236  0.3827
  201MPD1     H 3112   4.159   4.065  13.512 -1.3973 -0.2689  1.5718
  201MPD1    H1 3113   4.386   4.378  13.696 -0.2923 -1.1687  2.8231
  201MPD1    H2 3114   3.988   4.438  13.587  0.6324  1.0360 -0.2353
  201MPD1    H3 3115   4.189   4.512  13.681 -2.6534  1.1532 -2.4943
  201MPD1     N 3116   4.405   4.126  13.590  0.3474 -0.5091 -0.0166
  201MPD1    H5 3117   4.401   4.035  13.545 -0.5458 -1.3028  1.6989
  201MPD1    N1 3118   3.927   4.178  13.531 -0.5298 -0.1401 -0.2985
  201MPD1    H6 3119   3.840   4.206  13.577 -1.0916 -0.5628 -1.1071
  201MPD1    H7 3120   3.937   4.078  13.547 -1.0137 -0.6837 -3.4042
  202MPD1     C 3121   0.458   0.411   9.392 -0.7603  0.5041  0.1020
  202MPD1    C1 3122   0.539   0.335   9.474  0.3859  0.4022 -0.4730
  202MPD1    C2 3123   0.466   0.230   9.536 -0.1927 -0.5916 -0.6095
  202MPD1    C3 3124   0.329   0.233   9.553  0.4327 -0.1297 -0.2485
  202MPD1    C4 3125   0.254   0.326   9.486 -0.3403 -0.0674  0.1009
  202MPD1    C5 3126   0.320   0.408   9.404  0.1592  0.5224 -0.6246
  202MPD1     H 3127   0.528   0.163   9.595 -0.6579  1.3232  2.0526
  202MPD1    H1 3128   0.146   0.330   9.488 -0.4548 -1.4100 -3.4465
  202MPD1    H2 3129   0.490   0.476   9.312 -0.6873  1.1371  0.6472
  202MPD1    H3 3130   0.268   0.476   9.338 -1.2330 -0.3184 -0.3915
  202MPD1     N 3131   0.260   0.130   9.618  0.0297  0.0718 -0.3780
  202MPD1    H5 3132   0.160   0.141   9.606 -0.5663 -2.5701  2.2553
  202MPD1    N1 3133   0.674   0.313   9.435 -0.1325 -0.2201 -0.8516
  202MPD1    H6 3134   0.736   0.276   9.508  1.1021  2.0902 -0.7248
  202MPD1    H7 3135   0.716   0.403   9.411  0.8752 -0.8240 -1.3617
  203MPD1     C 3136   2.999   0.168  12.382  0.2261 -0.5675 -0.0992
  203MPD1    C1 3137   2.960   0.080  12.286  0.1937 -0.7137 -0.3479
  203MPD1    C2 3138   2.984   4.679  12.298  0.5819 -0.2400  0.3151
  203MPD1    C3 3139   3.023   4.628  12.422  0.7719 -0.3694 -0.0001
  203MPD1    C4 3140   3.067   4.721  12.514 -0.3923  0.1004 -0.0230
  203MPD1    C5 3141   3.052   0.119  12.499 -0.0102 -0.9337  0.9457
  203MPD1     H 3142   2.949   4.618  12.215  4.0426 -1.2710 -0.3625
  203MPD1    H1 3143   3.115   4.687  12.605 -2.1329  1.2639  1.3249
  203MPD1    H2 3144   2.995   0.276  12.373 -0.7475 -0.5148  1.0876
  203MPD1    H3 3145   3.079   0.191  12.576 -0.5737  1.7771 -1.3774
  203MPD1     N 3146   3.054   4.492  12.425 -0.3805 -0.7946 -0.0562
  203MPD1    H5 3147   3.052   4.445  12.336 -0.2548 -1.5408  0.3372
  203MPD1    N1 3148   2.909   0.128  12.160 -0.0492  0.2022 -0.1953
  203MPD1    H6 3149   2.845   0.064  12.113  0.6016 -0.2023 -0.5310
  203MPD1    H7 3150   2.879   0.223  12.179 -0.1266  0.8600 -3.7802
  204MPD1     C 3151   2.881   1.574  17.573  0.5250  0.0494  0.2515
  204MPD1    C1 3152   2.955   1.596  17.460 -0.7154 -0.2919  0.1612
  204MPD1    C2 3153   3.019   1.480  17.401  0.9063  0.6058 -0.1364
  204MPD1    C3 3154   2.994   1.358  17.452 -0.5190 -0.3334 -0.4482
  204MPD1    C4 3155   2.911   1.340  17.569 -0.1383  0.5556 -1.2694
  204MPD1    C5 3156   2.863   1.451  17.630 -0.4306  0.0351  0.1407
  204MPD1     H 3157   3.099   1.500  17.331  2.1101 -0.4707  0.9440
  204MPD1    H1 3158   2.877   1.242  17.601  0.5026  1.3692  1.8659
  204MPD1    H2 3159   2.835   1.663  17.614 -0.9280  0.1012 -1.4946
  204MPD1    H3 3160   2.799   1.448  17.717 -2.7315  1.4193 -1.5219
  204MPD1     N 3161   3.050   1.244  17.388  0.6850  0.2754  0.0013
  204MPD1    H5 3162   3.084   1.265  17.295  1.6974 -0.4846  0.2057
  204MPD1    N1 3163   2.995   1.724  17.419 -0.4941 -0.1209  0.0026
  204MPD1    H6 3164   2.928   1.800  17.421 -0.8145 -0.3548 -1.7831
  204MPD1    H7 3165   3.025   1.721  17.322  2.1177  1.1267  0.7601
  205MPD1     C 3166   3.716   4.572  17.026  0.3877 -0.2890 -0.8804
  205MPD1    C1 3167   3.653   4.453  17.074 -0.6185  0.4316 -0.4450
  205MPD1    C2 3168   3.519   4.455  17.101  0.2370  0.1213 -0.2700
  205MPD1    C3 3169   3.439   4.560  17.052 -0.5140  0.4809  0.0987
  205MPD1    C4 3170   3.498   4.670  16.995  0.2733 -0.0792 -0.4065
  205MPD1    C5 3171   3.638   4.680  16.991  0.0790  0.0674  0.4705
  205MPD1     H 3172   3.470   4.368  17.142 -0.7723  1.1502  0.7301
  205MPD1    H1 3173   3.431   0.006  16.954 -0.6877 -0.2450  0.8904
  205MPD1    H2 3174   3.822   4.570  17.007  0.8548 -1.2725  1.8325
  205MPD1    H3 3175   3.686   0.028  16.945  2.4815 -1.7699 -0.4897
  205MPD1     N 3176   3.300   4.575  17.077  0.8777  0.4121 -0.5013
  205MPD1    H5 3177   3.265   4.662  17.039 -0.8906  0.0090  0.1862
  205MPD1    N1 3178   3.741   4.352  17.125  0.2632 -0.2235 -0.7575
  205MPD1    H6 3179   3.682   4.269  17.134 -0.2204  0.0070 -1.7030
  205MPD1    H7 3180   3.817   4.327  17.062  1.5187  3.6350 -0.7330
  206MPD1     C 3181   3.990   1.754  16.576  0.2078  0.1402 -0.5034
  206MPD1    C1 3182   3.915   1.835  16.664 -0.0524 -0.2570 -0.8576
  206MPD1    C2 3183   3.800   1.889  16.621 -0.0442 -0.2356  0.3414
  206MPD1    C3 3184   3.754   1.867  16.491 -0.4412 -0.0134  0.2873
  206MPD1    C4 3185   3.830   1.777  16.411  0.1024 -0.0238  0.0911
  206MPD1    C5 3186   3.940   1.721  16.455 -0.1836  0.2895 -0.3386
  206MPD1     H 3187   3.746   1.952  16.691 -2.3865  0.1072 -1.7707
  206MPD1    H1 3188   3.799   1.743  16.313  0.6142  0.7949 -0.3543
  206MPD1    H2 3189   4.087   1.713  16.602  1.3003  4.0496  1.6426
  206MPD1    H3 3190   3.991   1.649  16.392 -0.6431  0.5992 -1.0730
  206MPD1     N 3191   3.638   1.918  16.434 -0.0595 -0.0482  0.0467
  206MPD1    H5 3192   3.623   1.891  16.338 -1.6675  1.3654 -0.1014
  206MPD1    N1 3193   3.943   1.852  16.797  0.2062  0.2101  0.2820
  206MPD1    H6 3194   4.037   1.823  16.824 -1.3905 -3.5776  1.8050
  206MPD1    H7 3195   3.933   1.950  16.822  3.0159  1.3274 -3.0426
  207MPD1     C 3196   0.675   0.653   9.644  0.4158  0.3116 -0.5616
  207MPD1    C1 3197   0.685   0.778   9.701  1.0260 -1.0092  0.0499
  207MPD1    C2 3198   0.760   0.782   9.822  0.0970  0.0877 -0.5582
  207MPD1    C3 3199   0.822   0.673   9.883 -0.2024  0.3432 -0.7903
  207MPD1    C4 3200   0.795   0.550   9.830 -0.6095  0.0705 -0.4767
  207MPD1    C5 3201   0.730   0.545   9.711 -0.3913  0.2127  0.1221
  207MPD1     H 3202   0.767   0.878   9.872 -3.4915  0.1099 -0.1080
  207MPD1    H1 3203   0.852   0.463   9.863  0.7005  0.3064 -2.1013
  207MPD1    H2 3204   0.624   0.644   9.548 -0.9893 -0.5475  0.2603
  207MPD1    H3 3205   0.712   0.451   9.660  1.9376  0.6791 -1.5201
  207MPD1     N 3206   0.906   0.679   9.994 -0.5237 -0.0100 -0.4074
  207MPD1    H5 3207   0.930   0.594  10.045  2.3949  0.7261 -0.5371
  207MPD1    N1 3208   0.646   0.893   9.635 -0.1004 -0.8780  0.0699
  207MPD1    H6 3209   0.562   0.873   9.581  0.2073 -1.0003 -0.3716
  207MPD1    H7 3210   0.627   0.970   9.698  3.5459  0.8429 -0.9053
  208MPD1     C 3211   3.787   4.025  17.691 -0.2933 -0.3695  0.3685
  208MPD1    C1 3212   3.763   4.087   0.062 -0.5772 -0.0349  0.0741
  208MPD1    C2 3213   3.632   4.079   0.109  0.2335  0.2254 -0.3351
  208MPD1    C3 3214   3.534   3.985   0.061 -0.1729  1.0726 -0.3502
  208MPD1    C4 3215   3.571   3.914  17.704  0.2848  0.1642  0.3039
  208MPD1    C5 3216   3.693   3.939  17.640 -0.1975  0.1904  0.5728
  208MPD1     H 3217   3.613   4.140   0.197 -1.6094  0.8697 -1.1768
  208MPD1    H1 3218   3.509   3.840  17.654  0.7522 -0.1768  0.2234
  208MPD1    H2 3219   3.886   4.028  17.649 -0.4434  4.8375  0.4071
  208MPD1    H3 3220   3.715   3.889  17.546  0.6355 -1.9550  1.9096
  208MPD1     N 3221   3.411   3.985   0.128 -0.1400  0.3511  0.1219
  208MPD1    H5 3222   3.403   4.056   0.199 -2.5925 -0.4911  0.6680
  208MPD1    N1 3223   3.857   4.181   0.101  0.1582 -0.2581  0.1211
  208MPD1    H6 3224   3.953   4.152   0.086  0.7101  1.2154  0.8214
  208MPD1    H7 3225   3.845   4.213   0.197 -0.1961 -1.8417  0.6065
  209MPD1     C 3226   0.779   4.074  10.952  0.7312 -1.0002 -0.2403
  209MPD1    C1 3227   0.814   4.140  10.835  0.4753  0.2407 -0.4837
  209MPD1    C2 3228   0.884   4.260  10.834 -0.1741  0.1954  0.5634
  209MPD1    C3 3229   0.913   4.327  10.948  0.0986 -1.1794  0.0524
  209MPD1    C4 3230   0.878   4.264  11.068 -0.5968  1.0444  0.0667
  209MPD1    C5 3231   0.820   4.143  11.064 -0.1798 -0.5150 -0.1103
  209MPD1     H 3232   0.903   4.303  10.737 -1.5798  0.3127  0.3273
  209MPD1    H1 3233   0.898   4.306  11.166  3.5145 -1.2630  0.2306
  209MPD1    H2 3234   0.740   3.973  10.950 -0.3379 -0.5522 -2.2990
  209MPD1    H3 3235   0.811   4.095  11.161 -0.6792  1.1791  0.6854
  209MPD1     N 3236   0.969   4.452  10.942  0.3953 -0.4160  0.9315
  209MPD1    H5 3237   0.977   4.496  10.851 -0.4511  1.1713  1.6223
  209MPD1    N1 3238   0.770   4.081  10.715  0.2413 -0.3232 -0.1402
  209MPD1    H6 3239   0.738   3.984  10.723  1.9001 -0.8306  0.1899
  209MPD1    H7 3240   0.845   4.090  10.648 -0.4047 -0.1400 -0.8414
  210MPD1     C 3241   1.292   0.252  11.754 -0.8008  0.7212  0.2563
  210MPD1    C1 3242   1.383   0.268  11.652  0.2686  0.2790  0.9419
  210MPD1    C2 3243   1.335   0.246  11.523 -0.5327  0.1732  0.2069
  210MPD1    C3 3244   1.215   0.179  11.501  0.0282 -0.3628  0.1419
  210MPD1    C4 3245   1.132   0.145  11.605  0.1163  0.3112 -0.7866
  210MPD1    C5 3246   1.166   0.194  11.725 -0.7867 -0.5488 -0.0722
  210MPD1     H 3247   1.394   0.285  11.441 -0.5321  0.2284  0.2336
  210MPD1    H1 3248   1.040   0.091  11.589  0.5797 -0.8885  0.5739
  210MPD1    H2 3249   1.324   0.279  11.855 -1.1314  0.6561  0.3764
  210MPD1    H3 3250   1.099   0.171  11.808  0.4846 -1.9295  0.5653
  210MPD1     N 3251   1.169   0.141  11.375  0.6508 -0.3434  0.2190
  210MPD1    H5 3252   1.081   0.091  11.364  0.9644 -0.7084 -0.6656
  210MPD1    N1 3253   1.496   0.342  11.675  0.3237  0.1270 -0.8321
  210MPD1    H6 3254   1.536   0.327  11.768  0.5556  2.1470 -0.5980
  210MPD1    H7 3255   1.572   0.332  11.607  0.6159 -2.2108 -0.1612
  211MPD1     C 3256   3.752   3.998  16.965  0.6168  0.4653  0.1517
  211MPD1    C1 3257   3.775   4.052  16.839  0.2392 -0.6915  0.3570
  211MPD1    C2 3258   3.688   4.147  16.780 -0.3971  0.2089  0.1396
  211MPD1    C3 3259   3.578   4.187  16.845  0.4298 -0.4502  0.2097
  211MPD1    C4 3260   3.553   4.123  16.968  0.0877 -0.4756  0.5966
  211MPD1    C5 3261   3.638   4.037  17.026  0.3098  0.3352  0.4842
  211MPD1     H 3262   3.704   4.176  16.677 -1.4801 -0.1382 -0.1211
  211MPD1    H1 3263   3.475   4.164  17.031  0.7817  2.0981 -0.2214
  211MPD1    H2 3264   3.811   3.925  17.018  0.6381  0.5461  0.2377
  211MPD1    H3 3265   3.620   4.000  17.126 -0.2436 -2.0421 -0.4850
  211MPD1     N 3266   3.489   4.281  16.783  0.1894  0.0095  0.8007
  211MPD1    H5 3267   3.519   4.340  16.707  1.5267  0.1112  1.4008
  211MPD1    N1 3268   3.900   4.024  16.780  0.4659 -0.4617 -0.7533
  211MPD1    H6 3269   3.895   4.023  16.679 -0.9961  1.8247 -0.7153
  211MPD1    H7 3270   3.930   3.933  16.814 -0.2537  0.0597  1.2974
  212MPD1     C 3271   2.959   2.954  16.798 -0.1324  0.0752  0.1501
  212MPD1    C1 3272   2.823   2.991  16.784 -0.5407 -0.0024 -0.4933
  212MPD1    C2 3273   2.729   2.887  16.778  0.6313  0.1777 -0.3403
  212MPD1    C3 3274   2.758   2.761  16.830 -0.7596  0.0277 -0.0037
  212MPD1    C4 3275   2.883   2.728  16.852 -0.3451  0.3249  0.1515
  212MPD1    C5 3276   2.990   2.821  16.833  0.2349 -0.0872 -0.1000
  212MPD1     H 3277   2.628   2.906  16.746  0.2294  0.4058  1.0796
  212MPD1    H1 3278   2.914   2.629  16.884  2.6348 -0.0198 -3.8370
  212MPD1    H2 3279   3.043   3.023  16.789  0.6551 -0.9641 -0.4347
  212MPD1    H3 3280   3.091   2.788  16.853  0.0507 -1.0056 -0.6789
  212MPD1     N 3281   2.660   2.662  16.853 -0.5791 -0.3022  0.6098
  212MPD1    H5 3282   2.692   2.574  16.891 -0.9348 -0.5545  0.3290
  212MPD1    N1 3283   2.792   3.119  16.740 -0.5924 -0.3410 -0.2378
  212MPD1    H6 3284   2.699   3.145  16.772  0.1263 -0.5841  2.0117
  212MPD1    H7 3285   2.847   3.190  16.788  0.3654 -2.6813  2.1110
  213MPD1     C 3286   0.833   3.379  16.126 -0.4705  0.1509  0.0843
  213MPD1    C1 3287   0.824   3.250  16.074  0.0513 -0.6790 -0.4188
  213MPD1    C2 3288   0.763   3.249  15.950 -0.4024 -0.4209 -0.5069
  213MPD1    C3 3289   0.758   3.358  15.857 -0.6602 -0.4445 -0.7321
  213MPD1    C4 3290   0.789   3.481  15.912  0.0213 -0.7795  0.5441
  213MPD1    C5 3291   0.831   3.489  16.037 -0.1722  0.0050  0.4140
  213MPD1     H 3292   0.725   3.157  15.907  1.2428 -0.9239 -0.8669
  213MPD1    H1 3293   0.779   3.574  15.856  2.1654 -1.0694 -0.3069
  213MPD1    H2 3294   0.880   3.391  16.223  0.1766 -0.5367 -0.1380
  213MPD1    H3 3295   0.855   3.585  16.082 -0.1882 -0.1712  0.7961
  213MPD1     N 3296   0.708   3.336  15.727  0.4918  0.0712 -0.3055
  213MPD1    H5 3297   0.685   3.246  15.687  1.5589 -0.2333 -0.2364
  213MPD1    N1 3298   0.811   3.138  16.156  0.2607  0.0370  0.0933
  213MPD1    H6 3299   0.870   3.142  16.239 -0.9459 -0.7874  0.9834
  213MPD1    H7 3300   0.832   3.056  16.098  0.0258 -1.3403  1.9732
  214MPD1     C 3301   0.066   2.801  15.243 -0.2247 -0.5809 -0.6791
  214MPD1    C1 3302   0.173   2.773  15.327  0.0576 -0.7887 -0.4117
  214MPD1    C2 3303   0.259   2.880  15.351  0.0623 -0.1043 -0.3643
  214MPD1    C3 3304   0.234   3.001  15.291 -0.0161 -0.3516 -0.1929
  214MPD1    C4 3305   0.128   3.026  15.217 -0.1374  0.5848 -0.0846
  214MPD1    C5 3306   0.042   2.921  15.188 -0.1577  0.1226 -0.1511
  214MPD1     H 3307   0.345   2.856  15.413 -0.6132  0.1419  0.6582
  214MPD1    H1 3308   0.114   3.126  15.179 -2.8833 -0.1526 -1.0173
  214MPD1    H2 3309   4.732   2.727  15.210  0.2283 -1.1642 -0.3653
  214MPD1    H3 3310   4.689   2.940  15.133 -1.4288 -1.7683  1.3117
  214MPD1     N 3311   0.313   3.116  15.317 -0.0271  0.2049 -0.8507
  214MPD1    H5 3312   0.290   3.209  15.284 -0.4539  0.6114  0.5683
  214MPD1    N1 3313   0.209   2.642  15.378 -0.4403  0.4747 -0.1055
  214MPD1    H6 3314   0.252   2.638  15.470 -0.2219  1.9963 -0.1302
  214MPD1    H7 3315   0.123   2.588  15.383 -0.2647  0.1179 -0.9924
  215MPD1     C 3316   0.751   4.475  10.148 -0.2371  0.6111 -0.1515
  215MPD1    C1 3317   0.695   4.599  10.128 -0.4288 -0.1447  0.1309
  215MPD1    C2 3318   0.701   4.677  10.244  0.2350  0.5289 -0.3866
  215MPD1    C3 3319   0.777   4.655  10.352  0.3160 -0.5241  0.0807
  215MPD1    C4 3320   0.841   4.533  10.363  0.1482 -0.3428  0.2550
  215MPD1    C5 3321   0.815   4.440  10.264  0.5779 -0.3934  0.6449
  215MPD1     H 3322   0.648   0.033  10.240  1.7746  1.4388  0.5358
  215MPD1    H1 3323   0.901   4.509  10.450 -0.6812  2.8060  1.7040
  215MPD1    H2 3324   0.727   4.392  10.083  0.2591  1.1027 -0.9580
  215MPD1    H3 3325   0.850   4.338  10.269 -0.8907 -0.9878 -0.9209
  215MPD1     N 3326   0.783   0.019  10.452 -0.5777 -0.3027 -0.2215
  215MPD1    H5 3327   0.737   0.108  10.433  2.2662  1.3884  0.8089
  215MPD1    N1 3328   0.599   4.607  10.026 -0.0021 -0.3152  0.0588
  215MPD1    H6 3329   0.623   4.548   9.947  0.7421 -0.8987  0.7210
  215MPD1    H7 3330   0.567   4.697   9.991  0.1879  0.4886  1.9458
  216MPD1     C 3331   1.869   1.012   0.598 -0.4964  0.4807 -0.2733
  216MPD1    C1 3332   1.967   1.011   0.494 -0.1047  0.2298  0.6942
  216MPD1    C2 3333   1.981   1.123   0.415 -0.3939  0.3254 -0.2031
  216MPD1    C3 3334   1.923   1.240   0.451  0.0689 -0.2564  0.2066
  216MPD1    C4 3335   1.828   1.238   0.550  0.1173 -0.2160 -0.2262
  216MPD1    C5 3336   1.804   1.129   0.620 -0.2143 -0.8325  0.3734
  216MPD1     H 3337   2.063   1.134   0.345 -1.9947  0.0527 -2.1094
  216MPD1    H1 3338   1.786   1.335   0.576 -0.2659 -0.5176  0.3000
  216MPD1    H2 3339   1.841   0.922   0.652 -0.3418  0.3108 -0.4759
  216MPD1    H3 3340   1.735   1.129   0.703  0.1308  1.5937  0.6867
  216MPD1     N 3341   1.950   1.362   0.377 -0.3509  0.2007  0.0844
  216MPD1    H5 3342   2.011   1.355   0.296  0.3679  0.4223  0.6077
  216MPD1    N1 3343   2.050   0.900   0.473  0.2043 -0.3289  0.4510
  216MPD1    H6 3344   2.113   0.890   0.394 -1.1256  0.3937 -0.6983
  216MPD1    H7 3345   2.070   0.854   0.561  1.3976  1.7453  1.2629
  217MPD1     C 3346   3.465   3.068   8.551 -0.7481  0.3386  0.4496
  217MPD1    C1 3347   3.382   3.139   8.641  0.4161 -0.2949 -0.1486
  217MPD1    C2 3348   3.434   3.254   8.709 -0.7806  0.0541 -0.3436
  217MPD1    C3 3349   3.569   3.288   8.692 -0.9163 -0.2923 -0.4069
  217MPD1    C4 3350   3.651   3.212   8.606  0.3880 -0.0483  0.1323
  217MPD1    C5 3351   3.595   3.103   8.542  0.3753  0.1385 -0.7950
  217MPD1     H 3352   3.380   3.305   8.788  1.2848  2.7244 -0.6830
  217MPD1    H1 3353   3.757   3.224   8.586  0.3921 -1.4626 -0.6903
  217MPD1    H2 3354   3.430   2.981   8.497 -0.1048  0.0708  0.4727
  217MPD1    H3 3355   3.660   3.040   8.482  0.6173 -1.0997  0.7725
  217MPD1     N 3356   3.636   3.397   8.754 -0.4582 -0.1931 -0.0812
  217MPD1    H5 3357   3.735   3.408   8.733  0.1484 -2.7016  1.4237
  217MPD1    N1 3358   3.254   3.095   8.668  0.3714 -1.0771 -0.1168
  217MPD1    H6 3359   3.192   3.164   8.712  0.3391  1.1074 -3.6452
  217MPD1    H7 3360   3.209   3.063   8.583  0.4114  1.4339 -1.0561
  218MPD1     C 3361   4.276   0.759  13.741 -0.5265 -0.5486  0.5122
  218MPD1    C1 3362   4.319   0.854  13.647  0.1467 -0.7233  0.3616
  218MPD1    C2 3363   4.430   0.814  13.576  0.1706  0.1731 -0.4648
  218MPD1    C3 3364   4.496   0.688  13.602  0.8580  0.2281  0.4889
  218MPD1    C4 3365   4.449   0.606  13.712 -0.3971 -0.5398  1.0501
  218MPD1    C5 3366   4.338   0.640  13.777  0.4202 -0.3030  0.1017
  218MPD1     H 3367   4.468   0.880  13.499 -1.4168  2.4371  0.6609
  218MPD1    H1 3368   4.483   0.510  13.750  1.0894  0.2328  1.6810
  218MPD1    H2 3369   4.188   0.778  13.801 -0.7264  0.2028 -0.0317
  218MPD1    H3 3370   4.300   0.571  13.851  0.0101 -1.9745 -1.6615
  218MPD1     N 3371   4.606   0.655  13.519  0.5049 -0.4330  0.3759
  218MPD1    H5 3372   4.629   0.709  13.436  0.0030  0.3046  0.7168
  218MPD1    N1 3373   4.239   0.967  13.612  0.2811 -0.0472  0.7296
  218MPD1    H6 3374   4.297   1.049  13.594  0.0103  0.0811  0.4616
  218MPD1    H7 3375   4.172   1.004  13.680  1.7625  0.4329  1.9516
  219MPD1     C 3376   0.078   0.973  12.757  0.1709 -0.2373 -0.8371
  219MPD1    C1 3377   0.092   0.842  12.735  0.1528  0.4601  0.1714
  219MPD1    C2 3378   0.099   0.757  12.843  0.2090 -0.4531 -1.6076
  219MPD1    C3 3379   0.066   0.798  12.970  0.1803 -0.0524 -0.6895
  219MPD1    C4 3380   0.049   0.933  12.991 -0.0916  0.7153  0.3436
  219MPD1    C5 3381   0.047   1.018  12.880 -0.3676 -0.6447 -0.3760
  219MPD1     H 3382   0.110   0.653  12.814  1.8623 -0.3514 -1.3440
  219MPD1    H1 3383   0.028   0.963  13.093 -0.7829 -2.0869  1.0087
  219MPD1    H2 3384   0.101   1.043  12.677 -1.5894  0.6131 -0.6062
  219MPD1    H3 3385   0.022   1.123  12.889  2.2068  0.0352 -0.9721
  219MPD1     N 3386   0.065   0.708  13.079 -0.2060 -0.1262 -0.1736
  219MPD1    H5 3387   0.039   0.751  13.167  0.5810  2.2074 -1.0906
  219MPD1    N1 3388   0.129   0.806  12.610 -0.0368 -0.2377  0.2818
  219MPD1    H6 3389   0.089   0.873  12.544  0.6535 -0.6041 -0.5191
  219MPD1    H7 3390   0.118   0.708  12.583  0.4562  0.1088 -1.2059
  220MPD1     C 3391   4.608   0.894   9.259 -0.5321 -0.7205  0.0177
  220MPD1    C1 3392   4.550   0.801   9.347  0.6125  0.6573 -0.2383
  220MPD1    C2 3393   4.626   0.752   9.452 -0.0145 -0.0465  0.1313
  220MPD1    C3 3394   0.023   0.791   9.460 -0.7249  0.2997  0.7778
  220MPD1    C4 3395   0.076   0.889   9.380 -0.2255  0.0688 -0.4504
  220MPD1    C5 3396   4.737   0.935   9.273 -0.5535  0.7639 -0.5804
  220MPD1     H 3397   4.592   0.679   9.524  3.4214 -0.8309  0.9696
  220MPD1    H1 3398   0.179   0.925   9.378 -0.4626  0.7632 -0.2643
  220MPD1    H2 3399   4.550   0.936   9.177 -0.2164  0.8126  0.5776
  220MPD1    H3 3400   0.035   1.021   9.218  0.0191  1.3673  0.7250
  220MPD1     N 3401   0.104   0.714   9.549 -0.4488  0.2518 -0.4701
  220MPD1    H5 3402   0.064   0.656   9.622 -1.0685  1.2086 -0.0550
  220MPD1    N1 3403   4.416   0.758   9.327  0.1400  0.6223  0.3168
  220MPD1    H6 3404   4.416   0.656   9.326  1.8680  0.6040  0.7993
  220MPD1    H7 3405   4.392   0.793   9.234  3.1038  1.2165 -0.2505
  221MPD1     C 3406   3.209   4.009  17.411  0.3148  0.0777 -0.4261
  221MPD1    C1 3407   3.282   3.896  17.390  0.0144  0.6029 -0.2846
  221MPD1    C2 3408   3.316   3.857  17.258 -0.6258 -0.1634 -0.0412
  221MPD1    C3 3409   3.289   3.945  17.154 -0.5662 -0.7334  0.8188
  221MPD1    C4 3410   3.227   4.064  17.180  0.4721 -0.4108  0.0377
  221MPD1    C5 3411   3.177   4.095  17.306 -0.3671 -0.0344  0.0002
  221MPD1     H 3412   3.377   3.768  17.248  1.0628  0.8775  1.0083
  221MPD1    H1 3413   3.210   4.136  17.101 -2.7385  0.5055  1.5836
  221MPD1    H2 3414   3.176   4.035  17.511  2.2846  1.9654 -0.2741
  221MPD1    H3 3415   3.126   4.190  17.312  2.4862  1.5076 -0.3081
  221MPD1     N 3416   3.321   3.903  17.020  0.1526 -0.0617 -0.5650
  221MPD1    H5 3417   3.293   3.966  16.947 -3.1338 -1.9465 -0.9518
  221MPD1    N1 3418   3.298   3.796  17.488  0.5107  0.2236 -0.1999
  221MPD1    H6 3419   3.385   3.744  17.486  0.7012  0.5527 -0.4113
  221MPD1    H7 3420   3.304   3.829  17.584 -0.7274  2.9162 -1.0294
  222MPD1     C 3421   2.137   2.510  17.549  0.0119 -0.4659  0.2926
  222MPD1    C1 3422   2.090   2.417  17.641  0.3798  0.5831  0.5562
  222MPD1    C2 3423   2.002   2.457  17.741 -0.1059  0.1841  0.0547
  222MPD1    C3 3424   1.998   2.592   0.020 -0.1337 -0.0794 -0.0294
  222MPD1    C4 3425   2.049   2.688  17.686 -0.6722  0.1261  0.8997
  222MPD1    C5 3426   2.117   2.644  17.575  0.1268 -0.3262 -0.1500
  222MPD1     H 3427   1.966   2.381   0.057  1.2736 -0.9214 -0.4499
  222MPD1    H1 3428   2.032   2.794  17.703  0.3016  0.5703 -0.9127
  222MPD1    H2 3429   2.195   2.488  17.459 -1.9737 -1.7100 -0.6814
  222MPD1    H3 3430   2.150   2.726  17.513 -0.6301 -0.0108 -0.1360
  222MPD1     N 3431   1.918   2.624   0.135  0.3069 -0.6597  0.9551
  222MPD1    H5 3432   1.902   2.723   0.154  0.7844  0.1525 -2.8639
  222MPD1    N1 3433   2.097   2.281  17.603  0.4450 -0.2251  0.0953
  222MPD1    H6 3434   2.185   2.259  17.558  0.1145  0.6693 -0.9845
  222MPD1    H7 3435   2.085   2.213  17.678 -1.1510  0.1671  0.1925
  223MPD1     C 3436   1.501   2.100   0.875  0.1129  0.5001  0.4862
  223MPD1    C1 3437   1.587   2.074   0.768  0.7557  0.1977  0.3405
  223MPD1    C2 3438   1.641   2.180   0.699  0.3227 -0.2540 -0.4814
  223MPD1    C3 3439   1.596   2.308   0.720  0.4196 -0.1094  0.9270
  223MPD1    C4 3440   1.496   2.328   0.816  0.4730  0.1636 -0.5912
  223MPD1    C5 3441   1.468   2.229   0.908 -0.0684 -0.4549 -0.8159
  223MPD1     H 3442   1.729   2.166   0.636  1.3347  1.7787  0.4761
  223MPD1    H1 3443   1.451   2.425   0.838  0.7281  0.4610 -1.3576
  223MPD1    H2 3444   1.461   2.020   0.935  0.7850  0.6091  1.0895
  223MPD1    H3 3445   1.397   2.249   0.988 -0.0761 -1.5083 -0.5556
  223MPD1     N 3446   1.644   2.414   0.638 -0.2343 -0.4174  0.9189
  223MPD1    H5 3447   1.726   2.398   0.579 -0.5327 -1.3835  0.7757
  223MPD1    N1 3448   1.626   1.945   0.739  0.0645 -0.2879  0.0494
  223MPD1    H6 3449   1.556   1.876   0.767 -0.5577  0.3148  0.0039
  223MPD1    H7 3450   1.651   1.931   0.641 -1.9504 -0.3924 -0.4665
  224MPD1     C 3451   4.328   0.487   9.159  0.1263 -0.0244  0.2111
  224MPD1    C1 3452   4.428   0.409   9.205  0.4903  0.2485 -0.1942
  224MPD1    C2 3453   4.400   0.288   9.257  0.1568 -0.2908 -0.2007
  224MPD1    C3 3454   4.266   0.252   9.260  0.3309  0.1385  0.0975
  224MPD1    C4 3455   4.164   0.336   9.214 -0.6732 -0.0110  0.2831
  224MPD1    C5 3456   4.196   0.456   9.165  0.4528  0.4282 -0.5078
  224MPD1     H 3457   4.480   0.225   9.295  0.5361 -0.3073 -1.0248
  224MPD1    H1 3458   4.061   0.302   9.211 -0.1443 -1.6076  0.6978
  224MPD1    H2 3459   4.348   0.589   9.129  2.0477 -0.3216  0.5005
  224MPD1    H3 3460   4.125   0.536   9.145 -0.2727  0.4286  1.9927
  224MPD1     N 3461   4.229   0.127   9.307 -0.2507  0.3548 -0.3655
  224MPD1    H5 3462   4.132   0.096   9.306  0.2352 -1.1368 -1.8666
  224MPD1    N1 3463   4.559   0.461   9.219  0.1777  0.4616 -0.8587
  224MPD1    H6 3464   4.578   0.539   9.157  1.8546  0.5443 -0.2269
  224MPD1    H7 3465   4.630   0.396   9.186  0.7955  0.3354  0.7346
  225MPD1     C 3466   0.369   1.056  11.930  0.7637  0.8170 -0.3747
  225MPD1    C1 3467   0.256   1.054  11.851 -0.4427  0.7689  0.0758
  225MPD1    C2 3468   0.136   1.026  11.917  0.1184  0.1019 -0.3267
  225MPD1    C3 3469   0.134   0.975  12.049 -0.0179 -0.2255 -0.1334
  225MPD1    C4 3470   0.249   0.982  12.119  0.5032  0.1100 -0.0145
  225MPD1    C5 3471   0.363   1.030  12.061 -0.1594  0.2609 -0.3795
  225MPD1     H 3472   0.040   1.041  11.869  0.0067 -0.5447 -0.3161
  225MPD1    H1 3473   0.240   0.935  12.217  0.9541 -1.8787 -0.9341
  225MPD1    H2 3474   0.463   1.087  11.886  0.2527  2.1731 -0.5203
  225MPD1    H3 3475   0.457   1.026  12.116  0.0725 -0.1551 -0.8007
  225MPD1     N 3476   0.013   0.954  12.122 -0.0371  0.1506 -0.0203
  225MPD1    H5 3477   0.014   0.964  12.223 -3.0863  1.4002 -0.0896
  225MPD1    N1 3478   0.262   1.114  11.725  0.0927 -0.0913  0.1937
  225MPD1    H6 3479   0.181   1.092  11.667 -1.4402  2.1643  1.4897
  225MPD1    H7 3480   0.345   1.079  11.677 -0.7531 -0.3341 -1.1170
  226MPD1     C 3481   3.326   0.314   9.667 -0.0184  0.3311  0.2238
  226MPD1    C1 3482   3.429   0.391   9.636 -0.5989 -0.5013 -0.8686
  226MPD1    C2 3483   3.400   0.525   9.629 -0.4941 -0.3729  0.8253
  226MPD1    C3 3484   3.272   0.581   9.663  0.2391 -0.7843  0.5300
  226MPD1    C4 3485   3.170   0.494   9.706  0.0833 -0.0883 -0.4700
  226MPD1    C5 3486   3.197   0.360   9.705 -0.1431 -0.0841 -0.6246
  226MPD1     H 3487   3.475   0.580   9.574  0.6145 -1.1289  1.5883
  226MPD1    H1 3488   3.079   0.532   9.751  0.0332 -1.6263  0.7137
  226MPD1    H2 3489   3.322   0.206   9.660 -0.4193  0.3245  0.5321
  226MPD1    H3 3490   3.115   0.297   9.739 -1.0568  1.2585 -0.3491
  226MPD1     N 3491   3.255   0.721   9.665  0.7267 -0.0711  0.3371
  226MPD1    H5 3492   3.338   0.776   9.643  0.2282  0.3957 -0.3677
  226MPD1    N1 3493   3.551   0.346   9.584  0.3969 -0.2852  0.1421
  226MPD1    H6 3494   3.622   0.418   9.601 -1.2289  1.4150 -0.2853
  226MPD1    H7 3495   3.579   0.257   9.624  1.0860  0.6445  1.7097
  227MPD1     C 3496   2.703   1.328   9.142 -0.6797 -0.2166  0.5654
  227MPD1    C1 3497   2.638   1.262   9.241 -0.1319  0.0576  0.8753
  227MPD1    C2 3498   2.723   1.213   9.344  0.0277 -0.3889  0.1431
  227MPD1    C3 3499   2.860   1.247   9.359  0.1633 -0.4698  0.0893
  227MPD1    C4 3500   2.917   1.329   9.262 -0.3199 -0.4035 -0.2036
  227MPD1    C5 3501   2.839   1.359   9.158  0.2557 -0.3601  0.4642
  227MPD1     H 3502   2.681   1.145   9.417 -0.0701 -1.1688 -0.6254
  227MPD1    H1 3503   3.024   1.346   9.258 -0.5513  0.5120 -2.2638
  227MPD1    H2 3504   2.647   1.357   9.055 -1.8185 -3.0937  0.3352
  227MPD1    H3 3505   2.880   1.431   9.088  0.6576  1.5862  2.6905
  227MPD1     N 3506   2.918   1.194   9.475 -0.1377  0.2703 -0.3609
  227MPD1    H5 3507   2.864   1.128   9.529 -0.9623  2.0516  0.9703
  227MPD1    N1 3508   2.510   1.216   9.231 -0.7113  0.2100  0.4746
  227MPD1    H6 3509   2.471   1.212   9.325  0.6714 -2.2725  0.9397
  227MPD1    H7 3510   2.451   1.282   9.180 -0.1247  1.3074  1.2029
  228MPD1     C 3511   2.116   2.329  12.700  0.3731  0.1672  0.5004
  228MPD1    C1 3512   2.063   2.408  12.603  0.2011 -0.3538  0.4688
  228MPD1    C2 3513   1.955   2.484  12.636 -0.2574 -0.5622 -0.3834
  228MPD1    C3 3514   1.906   2.490  12.762 -0.6388  0.0871  0.2563
  228MPD1    C4 3515   1.966   2.416  12.864  0.5098  0.3249 -0.1740
  228MPD1    C5 3516   2.072   2.333  12.830  0.2728 -0.0064 -0.4138
  228MPD1     H 3517   1.906   2.546  12.561  1.6548 -0.4744 -1.5614
  228MPD1    H1 3518   1.936   2.408  12.968  1.4534  0.6287  0.1202
  228MPD1    H2 3519   2.205   2.271  12.680  0.5278  0.6999 -0.3543
  228MPD1    H3 3520   2.117   2.269  12.906  0.7918  1.3258  0.4196
  228MPD1     N 3521   1.788   2.570  12.787  0.5353 -0.6698  0.1625
  228MPD1    H5 3522   1.750   2.623  12.709  0.3121 -0.0335  0.7088
  228MPD1    N1 3523   2.100   2.393  12.470 -0.2628 -0.3990  0.3058
  228MPD1    H6 3524   2.194   2.355  12.460 -0.1668  0.1306 -0.7991
  228MPD1    H7 3525   2.082   2.482  12.424 -0.1016 -0.0944  0.8333
  229MPD1     C 3526   1.442   2.405  14.584 -0.0142  0.2204  0.4283
  229MPD1    C1 3527   1.324   2.343  14.575  0.3726  0.9044  0.7932
  229MPD1    C2 3528   1.327   2.207  14.597  0.3660 -0.5441  0.3386
  229MPD1    C3 3529   1.434   2.156  14.668 -0.0671 -0.6456  0.2196
  229MPD1    C4 3530   1.545   2.233  14.692 -0.4082  0.2502  0.8069
  229MPD1    C5 3531   1.554   2.348  14.636  0.5323 -0.0591 -0.2910
  229MPD1     H 3532   1.232   2.159  14.576  0.8647 -1.9705  1.3579
  229MPD1    H1 3533   1.627   2.190  14.748 -1.3237 -2.4247  0.1274
  229MPD1    H2 3534   1.440   2.509  14.554  2.9702  0.2942  0.4799
  229MPD1    H3 3535   1.634   2.419  14.651  0.2993  0.1618 -0.0744
  229MPD1     N 3536   1.434   2.031  14.724 -0.0437  0.4981  0.4104
  229MPD1    H5 3537   1.511   2.007  14.785 -0.0022 -0.2956  0.0447
  229MPD1    N1 3538   1.220   2.409  14.517 -0.3143  0.1758  0.0111
  229MPD1    H6 3539   1.218   2.506  14.546  1.9268  0.2714 -0.1199
  229MPD1    H7 3540   1.131   2.366  14.541  1.0283 -2.3354  0.4928
  230MPD1     C 3541   1.584   1.751  15.639  0.8066  0.0552  0.3039
  230MPD1    C1 3542   1.619   1.640  15.563 -0.6050 -0.3464  0.0393
  230MPD1    C2 3543   1.577   1.629  15.435 -0.4672  0.2082 -0.1882
  230MPD1    C3 3544   1.514   1.729  15.367  0.1458  0.5667 -0.1989
  230MPD1    C4 3545   1.512   1.850  15.431 -0.4579 -0.1242 -0.3220
  230MPD1    C5 3546   1.552   1.858  15.562  0.1911  0.1805 -0.2713
  230MPD1     H 3547   1.590   1.538  15.378  1.1892  0.2543  0.1172
  230MPD1    H1 3548   1.467   1.941  15.392  1.7113  1.5659  1.0638
  230MPD1    H2 3549   1.576   1.756  15.747 -1.9443 -0.5888  0.1062
  230MPD1    H3 3550   1.531   1.955  15.605 -0.2356 -0.1450  0.2643
  230MPD1     N 3551   1.474   1.708  15.236 -0.3503 -0.0927 -0.5263
  230MPD1    H5 3552   1.506   1.624  15.188 -0.1307 -0.3386  0.0427
  230MPD1    N1 3553   1.648   1.520  15.630  0.2399  0.3445 -0.6055
  230MPD1    H6 3554   1.701   1.451  15.577 -1.1795 -0.5732 -0.8246
  230MPD1    H7 3555   1.697   1.536  15.718  1.1667 -1.6465 -0.7690
  231MPD1     C 3556   0.349   3.544  15.658  0.2746 -0.0755 -0.3018
  231MPD1    C1 3557   0.265   3.505  15.547  0.3977 -0.4915 -0.1161
  231MPD1    C2 3558   0.272   3.589  15.436 -0.3296  0.3390 -0.6486
  231MPD1    C3 3559   0.355   3.704  15.435  0.2088 -0.2989  0.0238
  231MPD1    C4 3560   0.441   3.730  15.548 -0.1565 -0.3994  0.0317
  231MPD1    C5 3561   0.430   3.655  15.660 -0.2202 -0.2005  0.9521
  231MPD1     H 3562   0.211   3.572  15.348 -0.3863 -0.0786 -0.5264
  231MPD1    H1 3563   0.507   3.815  15.555 -0.6129 -0.0570  0.1763
  231MPD1    H2 3564   0.349   3.487  15.750 -1.6617  0.3846 -0.0205
  231MPD1    H3 3565   0.485   3.677  15.751  2.4878 -0.6349 -0.5736
  231MPD1     N 3566   0.364   3.771  15.312 -0.4060  0.0678 -0.3904
  231MPD1    H5 3567   0.304   3.731  15.241 -0.8409  1.6714 -0.9265
  231MPD1    N1 3568   0.175   3.398  15.560  0.1061 -0.0728  0.2509
  231MPD1    H6 3569   0.207   3.322  15.619  0.3856  2.4637  3.3523
  231MPD1    H7 3570   0.143   3.365  15.469  0.6924 -2.7103  1.0022
  232MPD1     C 3571   2.650   0.514   0.309 -0.4212  0.5471  0.6679
  232MPD1    C1 3572   2.580   0.431   0.227  0.3208 -0.1248 -0.1066
  232MPD1    C2 3573   2.449   0.463   0.205  0.5842  0.3898  0.2737
  232MPD1    C3 3574   2.383   0.567   0.261 -0.5785 -0.1984  0.2555
  232MPD1    C4 3575   2.456   0.644   0.349  0.2293  0.1507  0.1862
  232MPD1    C5 3576   2.593   0.620   0.369  0.1696  0.2241 -0.8195
  232MPD1     H 3577   2.380   0.411   0.139  0.6404  1.0356 -0.3032
  232MPD1    H1 3578   2.413   0.729   0.401 -1.9424  0.4065 -1.9807
  232MPD1    H2 3579   2.757   0.496   0.313  0.0534  3.1505 -0.2852
  232MPD1    H3 3580   2.646   0.664   0.452 -0.0702  0.2106 -0.6576
  232MPD1     N 3581   2.249   0.589   0.231 -0.4510 -0.4226  0.9282
  232MPD1    H5 3582   2.197   0.525   0.171 -2.5743  1.7811  0.4414
  232MPD1    N1 3583   2.648   0.314   0.184 -0.5718  0.4228  0.0112
  232MPD1    H6 3584   2.747   0.330   0.164 -0.5222 -3.1314 -2.6924
  232MPD1    H7 3585   2.603   0.262   0.108 -0.0647 -0.3918  0.2666
  233MPD1     C 3586   1.378   3.919   1.581  0.2218 -0.0214 -0.1495
  233MPD1    C1 3587   1.429   4.045   1.565 -0.2661 -0.3504 -0.2316
  233MPD1    C2 3588   1.509   4.068   1.458  0.3047  0.5494 -0.2500
  233MPD1    C3 3589   1.533   3.969   1.365  0.3816 -0.0176 -0.4861
  233MPD1    C4 3590   1.471   3.846   1.383 -0.3000 -0.3780  0.2742
  233MPD1    C5 3591   1.399   3.817   1.496  0.1577 -0.2778 -0.4116
  233MPD1     H 3592   1.549   4.168   1.447 -0.9043  1.1746  1.0137
  233MPD1    H1 3593   1.476   3.771   1.305 -3.2947 -0.0163 -0.2588
  233MPD1    H2 3594   1.302   3.907   1.658  0.3364  0.3476  0.0247
  233MPD1    H3 3595   1.344   3.725   1.512  0.2336 -0.0780  0.9725
  233MPD1     N 3596   1.607   3.993   1.247  0.3406 -0.5946  0.1694
  233MPD1    H5 3597   1.648   3.919   1.192 -0.5294 -1.6587  0.9498
  233MPD1    N1 3598   1.397   4.146   1.659  0.2104  0.6233 -0.6549
  233MPD1    H6 3599   1.410   4.241   1.627  2.7236  0.8046  0.8505
  233MPD1    H7 3600   1.315   4.141   1.719  0.2150  2.5001 -0.5012
  234MPD1     C 3601   0.576   3.406   8.943 -0.0158 -0.5956 -0.1101
  234MPD1    C1 3602   0.476   3.311   8.951 -0.0240 -0.3736 -0.3513
  234MPD1    C2 3603   0.351   3.351   9.007  0.4526  0.4599  0.3485
  234MPD1    C3 3604   0.340   3.466   9.080  0.0470  0.5434  0.4710
  234MPD1    C4 3605   0.444   3.557   9.073 -0.2999  0.2609  0.5150
  234MPD1    C5 3606   0.561   3.519   9.015 -0.4135  0.8570 -0.2401
  234MPD1     H 3607   0.262   3.291   9.021  1.5652 -1.4708 -0.7328
  234MPD1    H1 3608   0.431   3.656   9.114  1.9935  1.2770 -1.1882
  234MPD1    H2 3609   0.663   3.389   8.881 -1.2756 -0.6079 -1.8567
  234MPD1    H3 3610   0.640   3.593   9.007 -0.1200  0.4525 -1.0709
  234MPD1     N 3611   0.227   3.490   9.159  0.0229  0.3216 -0.8451
  234MPD1    H5 3612   0.155   3.420   9.153 -0.5495  0.9938 -1.8196
  234MPD1    N1 3613   0.480   3.197   8.869 -0.2016  0.2123 -0.0590
  234MPD1    H6 3614   0.575   3.163   8.853 -0.4962 -0.5844 -0.1622
  234MPD1    H7 3615   0.431   3.114   8.902  1.4538 -0.1172  1.5931
  235MPD1     C 3616   0.875   1.038  11.313 -0.2405  0.4392  0.4663
  235MPD1    C1 3617   0.943   1.154  11.344  0.2805  0.3972 -0.4391
  235MPD1    C2 3618   1.007   1.226  11.245 -1.1527  0.3768  0.0096
  235MPD1    C3 3619   1.015   1.179  11.116 -0.7412 -0.0802  0.4158
  235MPD1    C4 3620   0.956   1.060  11.086 -0.0958 -0.3719  0.2806
  235MPD1    C5 3621   0.887   0.994  11.186 -0.7332 -0.2046  0.1373
  235MPD1     H 3622   1.065   1.317  11.256 -0.4886 -0.2304  1.5001
  235MPD1    H1 3623   0.955   1.025  10.984 -1.4851 -0.8380  0.4423
  235MPD1    H2 3624   0.801   0.989  11.375  0.5156 -0.4720  0.6376
  235MPD1    H3 3625   0.801   0.932  11.162 -2.2688  1.7711  0.5106
  235MPD1     N 3626   1.097   1.248  11.025  0.2051 -0.4672  0.4344
  235MPD1    H5 3627   1.120   1.342  11.057 -1.4831  0.1126 -0.0475
  235MPD1    N1 3628   0.928   1.211  11.472  0.3281  0.0657 -0.4001
  235MPD1    H6 3629   0.996   1.287  11.478  0.5478 -0.1872  0.3105
  235MPD1    H7 3630   0.944   1.147  11.549 -2.2037 -0.3529 -0.2551
  236MPD1     C 3631   4.153   2.193   9.955  0.0089 -0.1896 -0.4132
  236MPD1    C1 3632   4.252   2.293   9.924 -0.4965  1.0462 -0.3357
  236MPD1    C2 3633   4.381   2.253   9.930  0.7050  0.6577  0.0924
  236MPD1    C3 3634   4.424   2.126   9.972 -0.0567 -0.6727  0.4591
  236MPD1    C4 3635   4.332   2.036  10.004 -0.4439 -0.2073 -0.3399
  236MPD1    C5 3636   4.198   2.071  10.005  0.4620  0.2544  0.1652
  236MPD1     H 3637   4.457   2.327   9.911  0.2042  0.7966 -1.3537
  236MPD1    H1 3638   4.360   1.937  10.039  3.8095  0.7064 -1.1778
  236MPD1    H2 3639   4.048   2.211   9.971 -0.0894  0.8958 -2.3344
  236MPD1    H3 3640   4.120   2.000  10.032 -0.2419  0.1646 -2.0352
  236MPD1     N 3641   4.560   2.106   9.995 -0.1725  0.2794 -0.4482
  236MPD1    H5 3642   4.580   2.017  10.040  1.6449  0.7873 -0.2256
  236MPD1    N1 3643   4.210   2.420   9.878 -0.1929  0.3469 -0.2145
  236MPD1    H6 3644   4.274   2.495   9.900 -0.1736  0.1147  0.4968
  236MPD1    H7 3645   4.117   2.451   9.905 -0.1335  0.5305 -0.2243
  237MPD1     C 3646   0.548   0.361  15.001  0.3135 -0.1908  0.6796
  237MPD1    C1 3647   0.546   0.263  14.908 -0.5808 -0.1972  0.4716
  237MPD1    C2 3648   0.563   0.130  14.952 -0.2114 -0.0788 -0.1483
  237MPD1    C3 3649   0.577   0.098  15.081  0.0613 -0.1133 -0.1574
  237MPD1    C4 3650   0.558   0.198  15.174  0.4440 -0.0182  0.3494
  237MPD1    C5 3651   0.549   0.327  15.133 -0.5345  0.3403  0.2544
  237MPD1     H 3652   0.579   0.056  14.874 -0.5005  0.2883 -0.5517
  237MPD1    H1 3653   0.528   0.180  15.277 -0.4062  0.7627  0.2373
  237MPD1    H2 3654   0.537   0.464  14.968  1.3766 -0.9543 -1.9926
  237MPD1    H3 3655   0.528   0.401  15.209  0.7213  0.8360  0.1316
  237MPD1     N 3656   0.575   4.702  15.124 -0.2762  0.0767 -0.0419
  237MPD1    H5 3657   0.554   4.637  15.050  1.7127  1.1516 -1.5485
  237MPD1    N1 3658   0.547   0.298  14.771  0.3594 -0.0146  0.5160
  237MPD1    H6 3659   0.507   0.392  14.767  1.4201  0.3203 -2.1547
  237MPD1    H7 3660   0.483   0.241  14.716 -1.1304  1.9866  0.1675
  238MPD1     C 3661   1.970   3.383  15.125  0.2871  0.3422  0.4363
  238MPD1    C1 3662   1.867   3.301  15.172 -0.2750 -0.0677 -0.7746
  238MPD1    C2 3663   1.761   3.268  15.084  0.1737  0.1404  0.6557
  238MPD1    C3 3664   1.765   3.305  14.952 -0.1130  0.1722  0.5560
  238MPD1    C4 3665   1.875   3.374  14.904 -0.6781 -0.1682  0.4077
  238MPD1    C5 3666   1.973   3.405  14.990  0.9943 -0.3054 -1.5271
  238MPD1     H 3667   1.680   3.212  15.129  1.5563 -0.9714  1.7733
  238MPD1    H1 3668   1.893   3.423  14.808  0.1652  2.4293  1.9006
  238MPD1    H2 3669   2.048   3.409  15.196  0.3989  0.3002  0.3275
  238MPD1    H3 3670   2.061   3.455  14.952 -1.1130  3.7241 -1.0464
  238MPD1     N 3671   1.660   3.267  14.860 -0.2234  0.3118 -0.4489
  238MPD1    H5 3672   1.674   3.289  14.762 -2.1903  0.1384 -0.7594
  238MPD1    N1 3673   1.859   3.277  15.311 -0.0541  0.0535  0.5993
  238MPD1    H6 3674   1.953   3.258  15.343 -0.8185 -1.1617  2.0941
  238MPD1    H7 3675   1.809   3.190  15.327 -0.2989 -0.1653 -1.3443
  239MPD1     C 3676   1.982   3.732  15.420  0.0311 -0.2046 -0.4423
  239MPD1    C1 3677   2.108   3.763  15.379  0.7784 -0.0771  0.0300
  239MPD1    C2 3678   2.135   3.814  15.260 -0.2953 -0.4539  0.5467
  239MPD1    C3 3679   2.031   3.842  15.174  0.1445  0.0253  0.1178
  239MPD1    C4 3680   1.904   3.800  15.203  0.0961  0.4175 -0.0898
  239MPD1    C5 3681   1.878   3.754  15.338  0.4208 -0.2960 -0.3530
  239MPD1     H 3682   2.237   3.839  15.232 -1.1253  1.2830 -0.9033
  239MPD1    H1 3683   1.825   3.816  15.131 -0.6295 -0.0924  0.5950
  239MPD1    H2 3684   1.957   3.703  15.522 -2.9256 -0.7934 -1.3471
  239MPD1    H3 3685   1.779   3.723  15.370  0.5570 -0.1122  0.2536
  239MPD1     N 3686   2.045   3.900  15.043  0.1957 -0.1424 -0.3271
  239MPD1    H5 3687   1.958   3.924  14.996 -1.0095 -0.0266  1.9619
  239MPD1    N1 3688   2.208   3.760  15.475  0.1052 -0.2608  0.0760
  239MPD1    H6 3689   2.189   3.687  15.543 -2.9664  1.8770  1.5340
  239MPD1    H7 3690   2.298   3.747  15.429 -0.7820 -0.1068 -1.6992
  240MPD1     C 3691   1.509   4.395  13.887 -0.2139 -0.2824  0.0274
  240MPD1    C1 3692   1.403   4.324  13.840  1.2922  0.0828 -0.6381
  240MPD1    C2 3693   1.351   4.220  13.915  0.5839  0.1507 -0.3542
  240MPD1    C3 3694   1.422   4.175  14.022  0.9965  0.0505 -0.7780
  240MPD1    C4 3695   1.539   4.242  14.062 -0.5688 -0.9964  0.1356
  240MPD1    C5 3696   1.577   4.347  13.993 -0.2219 -0.3768  0.4222
  240MPD1     H 3697   1.264   4.171  13.874 -0.5475  1.8435  0.0294
  240MPD1    H1 3698   1.602   4.222  14.148 -0.5166  0.7958  0.4928
  240MPD1    H2 3699   1.538   4.492  13.848  4.9723 -2.3536 -1.3167
  240MPD1    H3 3700   1.673   4.392  14.015 -1.1306  1.8006 -0.0110
  240MPD1     N 3701   1.381   4.058  14.083  0.3341  0.7047 -0.5830
  240MPD1    H5 3702   1.307   4.005  14.038  0.9646 -1.8150  1.3687
  240MPD1    N1 3703   1.321   4.385  13.741 -0.1292 -0.0031 -0.0344
  240MPD1    H6 3704   1.258   4.319  13.698 -0.4280 -0.8333  1.6816
  240MPD1    H7 3705   1.374   4.438  13.672  0.6025 -0.1151  0.4420
  241MPD1     C 3706   1.290   3.611  14.967  0.1658  0.2341 -0.0814
  241MPD1    C1 3707   1.400   3.555  14.909 -0.6081  0.0479  0.1223
  241MPD1    C2 3708   1.413   3.566  14.773 -0.4091 -0.0908 -0.5109
  241MPD1    C3 3709   1.305   3.598  14.691  0.0750  0.0854  0.3245
  241MPD1    C4 3710   1.186   3.614  14.758 -0.2156 -0.5701  0.6094
  241MPD1    C5 3711   1.179   3.633  14.891  0.2162 -0.2952  0.2472
  241MPD1     H 3712   1.505   3.544  14.721 -0.1762  1.6697 -0.8309
  241MPD1    H1 3713   1.091   3.621  14.707 -0.4197  0.2758  1.1045
  241MPD1    H2 3714   1.276   3.628  15.073 -0.4266 -0.6552 -0.0182
  241MPD1    H3 3715   1.085   3.664  14.936 -0.0945 -2.9178  1.3783
  241MPD1     N 3716   1.312   3.606  14.550 -0.4365 -0.0582 -0.6664
  241MPD1    H5 3717   1.227   3.624  14.498 -0.6412  1.3204  0.1306
  241MPD1    N1 3718   1.510   3.528  14.988  0.4165  0.3077 -0.0002
  241MPD1    H6 3719   1.567   3.455  14.945  1.9693  1.0516  0.8204
  241MPD1    H7 3720   1.482   3.486  15.076  0.0893  2.3480  0.8520
  242MPD1     C 3721   0.957   2.903  15.671 -0.4653 -0.7041 -0.3010
  242MPD1    C1 3722   0.906   2.883  15.544  0.3855  0.3112 -0.1935
  242MPD1    C2 3723   0.964   2.795  15.454 -0.1634 -0.1227  0.0844
  242MPD1    C3 3724   1.080   2.733  15.491 -0.0776 -0.5683 -0.6024
  242MPD1    C4 3725   1.128   2.748  15.620  0.2697  0.6268  0.2457
  242MPD1    C5 3726   1.066   2.835  15.710 -0.4687 -0.8652  0.7778
  242MPD1     H 3727   0.920   2.782  15.356 -0.3938  1.7403 -0.0640
  242MPD1    H1 3728   1.222   2.706  15.654 -0.5619 -0.4466  1.1906
  242MPD1    H2 3729   0.914   2.966  15.748  1.3748 -0.9345  0.9324
  242MPD1    H3 3730   1.097   2.853  15.812 -1.2757 -0.1943  0.9085
  242MPD1     N 3731   1.144   2.639  15.403 -1.0313 -0.1998  0.1933
  242MPD1    H5 3732   1.220   2.583  15.440 -0.5842 -0.8587 -1.7253
  242MPD1    N1 3733   0.823   2.978  15.498  0.4052 -0.1766  0.4421
  242MPD1    H6 3734   0.772   2.948  15.415  0.7674 -2.3454  1.0085
  242MPD1    H7 3735   0.749   3.000  15.565 -0.8103  2.9595 -1.9178
  243MPD1     C 3736   2.415   1.782   0.195  0.5303 -0.8524  0.8018
  243MPD1    C1 3737   2.465   1.851   0.088  0.4211 -0.1541  0.1173
  243MPD1    C2 3738   2.496   1.776  17.725 -0.1630  0.2674  0.4415
  243MPD1    C3 3739   2.496   1.636  17.727  0.2036  0.0258  0.7069
  243MPD1    C4 3740   2.457   1.572   0.096  0.0909 -0.1800 -0.6813
  243MPD1    C5 3741   2.406   1.647   0.196 -0.3112 -0.6177 -0.2685
  243MPD1     H 3742   2.518   1.834  17.637  1.1127  0.3286  0.8072
  243MPD1    H1 3743   2.434   1.466   0.096 -0.8456  0.0314  1.1891
  243MPD1    H2 3744   2.370   1.829   0.282 -0.0160  0.6697 -0.3126
  243MPD1    H3 3745   2.365   1.593   0.281 -0.9096  0.9106  0.4008
  243MPD1     N 3746   2.522   1.566  17.607  0.3691  0.0356  0.3628
  243MPD1    H5 3747   2.535   1.627  17.527  3.9485 -1.6024 -0.3179
  243MPD1    N1 3748   2.439   1.983   0.072  0.2446  0.1550 -0.8754
  243MPD1    H6 3749   2.506   2.016   0.003 -0.7948  0.9982 -1.4726
  243MPD1    H7 3750   2.440   2.050   0.148  2.3318 -1.2799  0.3623
  244MPD1     C 3751   2.791   0.702   0.015 -0.2445 -0.1833 -0.2799
  244MPD1    C1 3752   2.799   0.828   0.064  0.1032 -0.9037 -0.5506
  244MPD1    C2 3753   2.767   0.938  17.735 -0.3041  0.6745 -0.1945
  244MPD1    C3 3754   2.729   0.921  17.605 -0.1537  0.2520  0.7067
  244MPD1    C4 3755   2.743   0.795  17.549  0.3007 -0.3626 -0.0775
  244MPD1    C5 3756   2.767   0.690  17.629  0.3682  0.2612  0.0879
  244MPD1     H 3757   2.762   1.036   0.030 -0.3106  0.3787  0.4299
  244MPD1    H1 3758   2.740   0.781  17.441  1.2205 -0.8400 -0.0440
  244MPD1    H2 3759   2.806   0.608   0.067  2.0782  0.1506 -0.3190
  244MPD1    H3 3760   2.782   0.589  17.593 -2.2877 -0.1010 -0.0111
  244MPD1     N 3761   2.687   1.036  17.539  0.6838  0.2717  0.7671
  244MPD1    H5 3762   2.656   1.118  17.591 -1.6009 -0.1809  0.1498
  244MPD1    N1 3763   2.817   0.842   0.200  0.0367  0.0148 -0.6890
  244MPD1    H6 3764   2.881   0.774   0.240  0.9053 -0.0499 -2.2328
  244MPD1    H7 3765   2.853   0.933   0.229  1.5082 -0.1642 -1.9503
  245MPD1     C 3766   0.126   1.345  12.805  0.0397  1.4132 -0.1336
  245MPD1    C1 3767   0.196   1.405  12.906  0.0757  0.0174  0.3876
  245MPD1    C2 3768   0.124   1.499  12.978 -0.4859  0.5738 -0.2948
  245MPD1    C3 3769   4.727   1.526  12.952 -0.2274  0.1975 -0.5739
  245MPD1    C4 3770   4.668   1.472  12.843 -0.5517  0.4534 -0.4337
  245MPD1    C5 3771   4.735   1.386  12.773  0.1082  0.0984 -0.4472
  245MPD1     H 3772   0.171   1.544  13.065  1.3197  0.2831 -1.1208
  245MPD1    H1 3773   4.569   1.500  12.808 -0.6744  1.6352  0.8641
  245MPD1    H2 3774   0.171   1.268  12.744 -2.0171  0.6691 -0.7194
  245MPD1    H3 3775   4.692   1.341  12.684  0.5692  3.3731 -2.3648
  245MPD1     N 3776   4.652   1.616  13.033  0.0573  0.7824 -0.1172
  245MPD1    H5 3777   4.700   1.652  13.115  0.0217  0.5370  0.0096
  245MPD1    N1 3778   0.329   1.377  12.939 -0.1054 -0.3959 -0.2622
  245MPD1    H6 3779   0.367   1.291  12.901  2.5725 -0.3039  2.1534
  245MPD1    H7 3780   0.346   1.390  13.039  1.5546 -2.1672 -0.3089
  246MPD1     C 3781   1.918   4.139   9.298 -0.5870 -0.2444 -0.3619
  246MPD1    C1 3782   1.849   4.240   9.363  0.8213 -0.0833 -0.1614
  246MPD1    C2 3783   1.732   4.208   9.430 -0.2837  0.4417 -0.3332
  246MPD1    C3 3784   1.676   4.083   9.422  0.7342  0.2266 -0.1584
  246MPD1    C4 3785   1.737   3.990   9.338  0.3464  0.1476  0.4743
  246MPD1    C5 3786   1.847   4.018   9.273 -0.2834 -0.5635  0.2391
  246MPD1     H 3787   1.690   4.289   9.487  2.0781  0.5924  1.2035
  246MPD1    H1 3788   1.708   3.886   9.335 -2.7848  0.9997  1.0565
  246MPD1    H2 3789   2.014   4.163   9.255 -0.4779  1.2098  0.6937
  246MPD1    H3 3790   1.894   3.934   9.224 -0.7167 -0.1399 -0.9029
  246MPD1     N 3791   1.564   4.061   9.512 -0.4513  0.4672  0.0030
  246MPD1    H5 3792   1.527   4.132   9.574  0.5361  1.1078 -0.1292
  246MPD1    N1 3793   1.902   4.369   9.361 -0.2150 -0.8594  0.4852
  246MPD1    H6 3794   1.858   4.426   9.433 -0.3653 -1.1719  0.6413
  246MPD1    H7 3795   2.004   4.372   9.365 -0.1939  0.5996 -1.3533
  247MPD1     C 3796   4.392   2.660  15.719  0.3814  0.2769  0.0500
  247MPD1    C1 3797   4.277   2.700  15.788  0.8207  0.3787 -0.3656
  247MPD1    C2 3798   4.218   2.610  15.879 -0.4687  0.3596 -1.1450
  247MPD1    C3 3799   4.268   2.477  15.888  0.3806  0.6869  0.4957
  247MPD1    C4 3800   4.380   2.441  15.810 -0.1456 -0.5626  0.1470
  247MPD1    C5 3801   4.442   2.535  15.731 -0.0478 -0.3289 -0.2091
  247MPD1     H 3802   4.141   2.655  15.941 -0.3629 -0.3080 -0.5279
  247MPD1    H1 3803   4.425   2.343  15.809 -0.6762 -0.8020 -0.8660
  247MPD1    H2 3804   4.446   2.728  15.654 -3.6249  1.2236 -2.2726
  247MPD1    H3 3805   4.531   2.510  15.675  0.7583 -1.5499  1.5951
  247MPD1     N 3806   4.204   2.372  15.968 -0.2628 -0.1454  0.2165
  247MPD1    H5 3807   4.249   2.282  15.964  0.6590  0.2844  0.7760
  247MPD1    N1 3808   4.234   2.829  15.779 -0.2632  0.2385 -0.0221
  247MPD1    H6 3809   4.135   2.840  15.800 -0.1421 -1.4306  1.4636
  247MPD1    H7 3810   4.244   2.865  15.685 -1.7386 -0.1315 -0.3221
  248MPD1     C 3811   0.522   1.631   0.052  0.1953  0.3939 -0.1606
  248MPD1    C1 3812   0.504   1.752   0.114 -0.0759  0.6316 -0.3836
  248MPD1    C2 3813   0.420   1.754   0.226 -0.0334 -0.2959 -0.7373
  248MPD1    C3 3814   0.367   1.636   0.281  0.3556 -0.3331  0.9775
  248MPD1    C4 3815   0.394   1.517   0.213 -0.1479 -0.8313 -0.2046
  248MPD1    C5 3816   0.460   1.521   0.093  0.1144 -0.2691 -0.2515
  248MPD1     H 3817   0.407   1.846   0.281 -1.4476 -0.5820 -0.5924
  248MPD1    H1 3818   0.344   1.422   0.232  0.3096 -0.6664  1.8306
  248MPD1    H2 3819   0.569   1.620  17.706  1.8824  0.2347  0.6789
  248MPD1    H3 3820   0.475   1.428   0.040 -1.1991  0.0979 -1.2619
  248MPD1     N 3821   0.298   1.642   0.403 -0.4398 -0.5810 -0.6186
  248MPD1    H5 3822   0.269   1.733   0.437 -1.0575 -1.4479  1.1623
  248MPD1    N1 3823   0.571   1.868   0.070 -0.1895  0.2445 -0.1176
  248MPD1    H6 3824   0.604   1.860  17.725 -0.1052  1.3639 -0.1858
  248MPD1    H7 3825   0.508   1.948   0.079 -0.0888  0.1946  0.9501
  249MPD1     C 3826   1.517   0.563  10.487 -0.5779 -0.5595 -0.2062
  249MPD1    C1 3827   1.589   0.679  10.514  0.1483 -0.7105  0.7231
  249MPD1    C2 3828   1.606   0.766  10.412 -1.1407 -0.5005  0.2367
  249MPD1    C3 3829   1.553   0.748  10.287 -0.0414  0.2699 -0.3331
  249MPD1    C4 3830   1.494   0.632  10.261  0.2281  0.1606 -0.1479
  249MPD1    C5 3831   1.477   0.538  10.361 -0.3815  0.3670 -0.1814
  249MPD1     H 3832   1.655   0.861  10.434 -1.4806 -0.7697  2.1749
  249MPD1    H1 3833   1.471   0.599  10.161  0.4220  1.1698 -0.5243
  249MPD1    H2 3834   1.504   0.491  10.566  0.9126  0.8398  1.2928
  249MPD1    H3 3835   1.445   0.438  10.334 -1.0314  0.1815  1.3113
  249MPD1     N 3836   1.582   0.849  10.198 -0.2657  0.3291 -0.0869
  249MPD1    H5 3837   1.633   0.930  10.233  0.2469 -0.5550  1.2213
  249MPD1    N1 3838   1.610   0.716  10.644  0.4322 -0.5999 -0.8057
  249MPD1    H6 3839   1.697   0.768  10.656  0.6109 -1.7386  2.6558
  249MPD1    H7 3840   1.623   0.635  10.704 -0.9868 -3.1339 -3.9112
  250MPD2     C 3841   3.186   4.645  13.237  0.0565 -0.3549 -0.0872
  250MPD2    C1 3842   3.139   0.025  13.174  0.2665 -0.1805  0.9659
  250MPD2    C2 3843   3.054   0.000  13.066  0.2019  0.8964  0.6187
  250MPD2    C3 3844   3.011   4.611  13.038  1.2574  0.1143  0.5720
  250MPD2    C4 3845   3.060   4.501  13.106 -0.6608 -0.1690 -0.2639
  250MPD2    C5 3846   3.143   4.524  13.204  0.2084 -1.0056  0.5663
  250MPD2     H 3847   3.012   0.082  13.008  0.7625  0.4286 -0.4509
  250MPD2    H1 3848   3.024   4.404  13.076  2.1323 -1.9691  2.2415
  250MPD2    H2 3849   3.265   4.644  13.311 -1.0088 -1.7622  1.0123
  250MPD2    H3 3850   3.179   4.436  13.257 -1.1618 -0.7995  1.8553
  250MPD2     N 3851   2.923   4.583  12.933 -0.4762 -0.0137  0.2053
  250MPD2    H5 3852   2.907   4.484  12.921 -2.3821  0.1065  1.6454
  250MPD2    N1 3853   3.200   0.147  13.213  0.8317 -0.0508 -0.1915
  250MPD2    H7 3854   3.243   0.143  13.305  1.5750 -0.6000 -0.5601
  251TMC3    C1 3855   3.249   0.369  13.230 -0.5160  0.2461  0.5253
  251TMC3    C2 3856   3.197   0.497  13.234 -0.1493 -0.1625 -0.3565
  251TMC3    C3 3857   3.255   0.598  13.303  0.1111  0.2127 -0.3936
  251TMC3    C4 3858   3.367   0.344  13.306  0.2409 -0.2380 -0.5128
  251TMC3    C5 3859   3.424   0.452  13.372  0.2406 -0.6343  0.1384
  251TMC3    C6 3860   3.371   0.580  13.372  0.7924  0.3950  0.0774
  251TMC3     C 3861   3.187   0.263  13.150  0.2397  0.4337 -0.1967
  251TMC3     O 3862   3.132   0.290  13.043 -0.1385  0.2061  0.1033
  251TMC3     H 3863   3.101   0.508  13.184 -0.5617 -0.7488  0.2916
  251TMC3    H1 3864   3.408   0.245  13.318  2.1771  0.6088 -0.0799
  251TMC3    H2 3865   3.413   0.662  13.428  1.4677  0.7376 -0.9170
  251TMC3    C7 3866   3.511   0.420  13.476  1.2898 -0.7475  0.6990
  251TMC3    C8 3867   3.165   0.677  13.381 -0.4599  0.2957 -0.1017
  251TMC3    O1 3868   3.496   0.316  13.542 -0.1186 -0.6626 -0.0324
  251TMC3    O2 3869   3.083   0.752  13.328 -0.2353 -0.3068  0.2286
  252TMC3    C1 3870   3.077   1.751   9.107 -0.4472 -0.1181 -0.6448
  252TMC3    C2 3871   3.197   1.795   9.159  0.2944 -0.6001 -0.0932
  252TMC3    C3 3872   3.220   1.800   9.297  0.8956  0.7787 -0.8136
  252TMC3    C4 3873   2.993   1.681   9.190 -0.4138  0.0514  0.8342
  252TMC3    C5 3874   3.014   1.683   9.322  0.2848  0.0926 -0.5893
  252TMC3    C6 3875   3.126   1.749   9.382  0.4220  0.0376  0.3928
  252TMC3     C 3876   3.047   1.746   8.964  0.3940  0.3248  0.1294
  252TMC3     O 3877   3.000   1.641   8.918  0.2032 -0.2302 -0.5451
  252TMC3     H 3878   3.266   1.846   9.093  1.0233 -0.6327  0.6415
  252TMC3    H1 3879   2.897   1.643   9.157 -2.4342  1.9366  4.5790
  252TMC3    H2 3880   3.119   1.789   9.483 -1.0722 -0.2520  0.4051
  252TMC3    C7 3881   2.899   1.640   9.409 -0.5199  0.1141  0.8673
  252TMC3    C8 3882   3.302   1.909   9.344  0.6714  0.7668  0.0377
  252TMC3    O1 3883   2.778   1.636   9.374 -0.0978  0.4535  0.0553
  252TMC3    O2 3884   3.336   1.987   9.257  0.3695 -0.0855  0.5213
  253MPD2     C 3885   4.436   0.055  15.394 -0.1883  0.6217  0.2646
  253MPD2    C1 3886   4.314   4.730  15.414  0.5203  0.4531  0.3020
  253MPD2    C2 3887   4.250   4.736  15.533  0.0518 -0.2029  0.5431
  253MPD2    C3 3888   4.302   0.087  15.631 -0.8196 -0.5874  0.3761
  253MPD2    C4 3889   4.408   0.158  15.599  0.7223  0.1485  0.3839
  253MPD2    C5 3890   4.479   0.139  15.486  0.2576  0.2703  0.2274
  253MPD2     H 3891   4.159   4.679  15.550  0.0904  0.0576  1.6218
  253MPD2    H1 3892   4.465   0.222  15.665 -0.4536 -0.3315  1.8624
  253MPD2    H2 3893   4.489   0.046  15.300 -1.0247  1.5483 -0.2950
  253MPD2    H3 3894   4.565   0.199  15.457  2.0522 -1.6865  1.5003
  253MPD2     N 3895   4.244   0.112  15.760 -0.0224  0.1161 -0.7186
  253MPD2    H5 3896   4.298   0.175  15.819 -1.8970  0.5322  0.5663
  253MPD2    N1 3897   4.240   4.667  15.316  0.1162  0.2790  0.1901
  253MPD2    H7 3898   4.145   4.644  15.344  0.3746 -0.7274  0.2300
  254TMC3    C1 3899   4.117   0.083  15.958  0.2602  0.2352 -0.1982
  254TMC3    C2 3900   4.103   0.217  15.989  0.5598 -0.0599  0.1550
  254TMC3    C3 3901   4.075   0.241  16.122  0.4168  0.2186  0.1075
  254TMC3    C4 3902   4.081   4.721  16.043 -0.1919  0.3216 -0.0136
  254TMC3    C5 3903   4.040   0.014  16.166 -0.2985  0.1070  0.5990
  254TMC3    C6 3904   4.037   0.145  16.213  1.4580  0.1606 -0.4006
  254TMC3     C 3905   4.145   0.037  15.817 -0.4713  0.1020 -0.7340
  254TMC3     O 3906   4.063   4.689  15.783  0.0388  0.1008  0.1873
  254TMC3     H 3907   4.141   0.291  15.920 -1.9142  0.6966 -0.3933
  254TMC3    H1 3908   4.110   4.621  16.011 -0.6749  0.2936 -0.3596
  254TMC3    H2 3909   4.002   0.178  16.310 -0.7103 -0.5451 -0.9516
  254TMC3    C7 3910   4.026   4.645  16.262  1.0882 -0.2538 -0.1430
  254TMC3    C8 3911   4.031   0.374  16.148 -0.3118  0.3757 -0.0376
  254TMC3    O1 3912   4.070   4.531  16.232  0.0242 -0.2517  0.0139
  254TMC3    O2 3913   4.055   0.419  16.261 -0.2137 -0.2788  0.0987
  255MPD2     C 3914   2.677   3.220  10.424  0.0214  0.3423  0.1862
  255MPD2    C1 3915   2.683   3.251  10.289  0.5473  0.6856 -0.0736
  255MPD2    C2 3916   2.758   3.171  10.208 -0.4686  0.5791 -0.1389
  255MPD2    C3 3917   2.827   3.063  10.251  0.0294 -0.1812  0.1563
  255MPD2    C4 3918   2.825   3.031  10.387 -0.5193  0.1709 -0.5484
  255MPD2    C5 3919   2.742   3.111  10.466  0.1482  1.1750  0.0525
  255MPD2     H 3920   2.774   3.210  10.108  0.3670 -1.3736 -0.7503
  255MPD2    H1 3921   2.879   2.946  10.428 -0.3657  0.3426 -0.3984
  255MPD2    H2 3922   2.616   3.269  10.499 -2.2927 -0.1155 -1.3972
  255MPD2    H3 3923   2.726   3.072  10.566  0.5159  0.1808 -0.2751
  255MPD2     N 3924   2.887   2.987  10.150 -0.3673 -0.2618  0.8918
  255MPD2    H5 3925   2.879   3.020  10.054 -1.4867 -0.2488  0.9864
  255MPD2    N1 3926   2.638   3.375  10.233  0.1862 -0.0021  0.0382
  255MPD2    H7 3927   2.662   3.391  10.136 -0.3650  1.8062  0.1960
  256TMC3    C1 3928   2.527   3.585  10.226 -0.0734  0.5086 -0.0096
  256TMC3    C2 3929   2.620   3.640  10.135 -0.2426  0.5322 -0.2229
  256TMC3    C3 3930   2.577   3.742  10.060 -0.0563 -0.3196  0.0950
  256TMC3    C4 3931   2.399   3.631  10.226  0.6287  0.0607  0.6304
  256TMC3    C5 3932   2.362   3.725  10.139 -0.7442  0.2101  0.1786
  256TMC3    C6 3933   2.453   3.793  10.059 -0.1722 -0.1948  0.0455
  256TMC3     C 3934   2.555   3.464  10.296  0.6717  0.2961  0.4420
  256TMC3     O 3935   2.506   3.452  10.408 -0.2479 -0.3407 -0.0654
  256TMC3     H 3936   2.724   3.609  10.143  0.6587  3.0857 -1.7921
  256TMC3    H1 3937   2.322   3.569  10.270 -1.8266  1.2702 -1.9500
  256TMC3    H2 3938   2.422   3.857   9.977  1.0008  0.8124  0.3834
  256TMC3    C7 3939   2.232   3.702  10.075  0.5950 -0.0831  0.0279
  256TMC3    C8 3940   2.667   3.813   9.967 -0.2607  0.0105  0.1987
  256TMC3    O1 3941   2.200   3.585  10.066  0.2323 -0.6458  0.2253
  256TMC3    O2 3942   2.658   3.933   9.946  0.1459 -0.0427 -0.2470
  257MPD2     C 3943   2.017   4.722  13.593  0.2242  0.2527  0.1865
  257MPD2    C1 3944   1.918   4.680  13.502  0.2237 -0.2299  0.0795
  257MPD2    C2 3945   1.852   4.556  13.523 -0.4555 -0.2949 -0.8771
  257MPD2    C3 3946   1.889   4.475  13.627 -0.2646 -0.0616 -0.1141
  257MPD2    C4 3947   1.987   4.516  13.712 -0.0773 -0.6577 -0.5431
  257MPD2    C5 3948   2.049   4.638  13.699 -0.1334 -0.5323  0.7165
  257MPD2     H 3949   1.780   4.517  13.451  0.0720 -1.0351 -1.0116
  257MPD2    H1 3950   2.019   4.458  13.798  2.6641  0.5368 -0.7560
  257MPD2    H2 3951   2.086   0.066  13.574  0.2613  0.1122 -0.2812
  257MPD2    H3 3952   2.131   4.669  13.763 -0.8106  1.1991  0.7658
  257MPD2     N 3953   1.804   4.362  13.648  0.7643 -0.0984  0.6153
  257MPD2    H5 3954   1.730   4.341  13.582  1.1528  0.7385 -0.0782
  257MPD2    N1 3955   1.891   0.021  13.391  0.0332  0.0471  0.5841
  257MPD2    H7 3956   1.943   0.106  13.370 -0.9125  0.5479  0.2784
  258TMC3    C1 3957   1.718   4.172  13.761  0.7915 -0.8580  0.5698
  258TMC3    C2 3958   1.634   4.163  13.657  0.1112  0.4410 -0.1742
  258TMC3    C3 3959   1.565   4.042  13.645 -0.7104 -0.0547  0.0797
  258TMC3    C4 3960   1.756   4.069  13.840 -0.2393 -0.4484  0.4234
  258TMC3    C5 3961   1.691   3.955  13.818 -1.0203 -0.6039 -0.8321
  258TMC3    C6 3962   1.586   3.934  13.731 -0.4664 -0.5305 -0.6259
  258TMC3     C 3963   1.805   4.289  13.764 -0.4020  0.6903  0.7258
  258TMC3     O 3964   1.877   4.305  13.861 -0.1393  0.1013 -0.5256
  258TMC3     H 3965   1.595   4.248  13.601 -1.4794  1.9978  3.3113
  258TMC3    H1 3966   1.834   4.088  13.914  0.5750  0.8076 -0.7649
  258TMC3    H2 3967   1.535   3.839  13.722  0.1217 -0.6752 -2.4398
  258TMC3    C7 3968   1.708   3.854  13.922 -0.3711 -0.3533 -0.5394
  258TMC3    C8 3969   1.461   4.020  13.545 -0.7033  0.0820  0.7398
  258TMC3    O1 3970   1.605   3.805  13.963 -0.6188  0.7258 -0.1152
  258TMC3    O2 3971   1.419   4.119  13.484 -0.1345  0.3339  0.2543
  259MPD2     C 3972   0.845   1.657   1.087 -0.6179 -0.2244 -0.4733
  259MPD2    C1 3973   0.873   1.519   1.074  0.1870  0.0220  0.1652
  259MPD2    C2 3974   0.922   1.468   0.957  0.9284 -0.0158  0.3092
  259MPD2    C3 3975   0.927   1.547   0.842  0.6445 -0.1992 -0.2254
  259MPD2    C4 3976   0.902   1.680   0.857 -0.3324 -0.1237 -0.5044
  259MPD2    C5 3977   0.868   1.732   0.975  0.5912 -0.2588 -0.5033
  259MPD2     H 3978   0.953   1.368   0.930  1.4660 -0.5674  3.0141
  259MPD2    H1 3979   0.900   1.748   0.772  0.1023  2.3946  1.5258
  259MPD2    H2 3980   0.812   1.705   1.178  1.9420  0.2288  0.1992
  259MPD2    H3 3981   0.852   1.839   0.984 -1.2429 -0.7918  2.6661
  259MPD2     N 3982   0.974   1.497   0.719 -0.1571  0.4928  0.6406
  259MPD2    H5 3983   0.993   1.398   0.713  0.1558  0.5866  0.0215
  259MPD2    N1 3984   0.849   1.445   1.193  0.1582  0.0958 -0.0575
  259MPD2    H7 3985   0.820   1.500   1.274 -1.5435 -2.4963  1.0850
  260TMC3    C1 3986   1.067   1.472   0.505  0.2223 -0.0756 -0.4999
  260TMC3    C2 3987   1.165   1.518   0.415  0.3834  0.0312 -0.2018
  260TMC3    C3 3988   1.204   1.427   0.320  0.2010  1.2472  0.0805
  260TMC3    C4 3989   1.020   1.347   0.502  0.0741  0.3410 -0.2363
  260TMC3    C5 3990   1.061   1.265   0.401  0.0220 -0.0730  0.1914
  260TMC3    C6 3991   1.147   1.303   0.299 -0.5900 -0.2610  0.3406
  260TMC3     C 3992   1.019   1.569   0.606  0.4790 -0.1991  0.1132
  260TMC3     O 3993   1.016   1.684   0.579  0.1295 -0.8245 -0.0364
  260TMC3     H 3994   1.213   1.614   0.432 -0.0095 -0.0443  1.4110
  260TMC3    H1 3995   0.940   1.321   0.570  1.1091  0.0348  0.8678
  260TMC3    H2 3996   1.186   1.233   0.226  1.2810 -0.1919  1.2558
  260TMC3    C7 3997   0.979   1.144   0.375 -0.3869  0.6279 -1.0623
  260TMC3    C8 3998   1.322   1.460   0.239  0.0266 -0.0366 -0.4542
  260TMC3    O1 3999   1.015   1.074   0.282  0.1488  0.4836  0.2211
  260TMC3    O2 4000   1.329   1.570   0.185 -0.2099 -0.1444  0.2079
  261MPD2     C 4001   2.660   4.487  12.127  0.6453 -0.3816  0.1488
  261MPD2    C1 4002   2.626   4.600  12.186 -0.1950  0.1347  0.0517
  261MPD2    C2 4003   2.581   4.707  12.117  0.0201  0.0636 -0.3882
  261MPD2    C3 4004   2.571   4.709  11.976 -0.3655 -0.2840 -0.1466
  261MPD2    C4 4005   2.614   4.589  11.917 -0.1358 -0.1982 -0.0289
  261MPD2    C5 4006   2.659   4.483  11.992  0.7962 -0.9867  0.4356
  261MPD2     H 4007   2.551   0.052  12.178  2.1131 -0.0913  0.8745
  261MPD2    H1 4008   2.614   4.568  11.810 -2.4277 -1.4036  0.2166
  261MPD2    H2 4009   2.673   4.390  12.173 -1.6586 -1.2604 -1.0266
  261MPD2    H3 4010   2.693   4.394  11.939  0.5079  0.5204 -2.2921
  261MPD2     N 4011   2.524   0.079  11.899  0.0926 -0.0140  0.0087
  261MPD2    H5 4012   2.486   0.161  11.946 -0.3381  0.4529 -1.1489
  261MPD2    N1 4013   2.640   4.579  12.329 -0.0297 -0.4661 -0.4140
  261MPD2    H7 4014   2.647   4.483  12.359  1.0762 -0.7220 -1.5042
  262TMC3    C1 4015   2.459   0.210  11.715  0.1673 -0.3556 -0.4143
  262TMC3    C2 4016   2.367   0.278  11.794  0.4102  0.1669 -0.1370
  262TMC3    C3 4017   2.306   0.386  11.733 -0.2509 -0.1616 -0.2469
  262TMC3    C4 4018   2.492   0.249  11.584  0.3001  0.5191  0.2697
  262TMC3    C5 4019   2.408   0.341  11.522  0.1490 -0.3685 -0.2193
  262TMC3    C6 4020   2.319   0.414  11.597 -0.1153 -0.2237  0.2744
  262TMC3     C 4021   2.532   0.093  11.765 -0.0118  0.7169  0.2389
  262TMC3     O 4022   2.559   0.021  11.667  0.1270  0.1825 -0.1784
  262TMC3     H 4023   2.338   0.248  11.894 -1.4498 -0.1138 -0.7558
  262TMC3    H1 4024   2.575   0.202  11.532 -0.3860  0.4644 -0.7776
  262TMC3    H2 4025   2.264   0.497  11.554 -0.5097 -2.2789 -3.1469
  262TMC3    C7 4026   2.469   0.385  11.394 -0.5856  0.1134  0.1714
  262TMC3    C8 4027   2.268   0.501  11.815  0.7639 -0.8650  0.8114
  262TMC3    O1 4028   2.572   0.330  11.356 -0.2712 -0.2094  0.4880
  262TMC3    O2 4029   2.194   0.581  11.760  0.9375 -0.0397 -0.4874
  263MPD2     C 4030   3.314   3.970  11.017  0.1231 -0.2074 -0.2328
  263MPD2    C1 4031   3.326   4.090  11.090 -0.0312  0.2745  0.1219
  263MPD2    C2 4032   3.303   4.213  11.026  0.3418 -0.2265  0.0797
  263MPD2    C3 4033   3.280   4.215  10.888 -0.5968  0.5053  0.3323
  263MPD2    C4 4034   3.266   4.096  10.817 -0.2718 -0.1326  0.3583
  263MPD2    C5 4035   3.275   3.977  10.888 -0.3336 -0.1745  0.3878
  263MPD2     H 4036   3.327   4.300  11.085  0.3076 -0.6893  0.7696
  263MPD2    H1 4037   3.230   4.088  10.715  0.7339 -0.1042  0.0066
  263MPD2    H2 4038   3.336   3.873  11.060  1.9176  0.3862  0.2005
  263MPD2    H3 4039   3.255   3.886  10.832 -0.6115  0.2083 -0.1355
  263MPD2     N 4040   3.276   4.349  10.834 -0.0594  0.3645 -0.4485
  263MPD2    H5 4041   3.266   4.431  10.892 -0.8408 -0.4829  0.6239
  263MPD2    N1 4042   3.384   4.083  11.220  0.2923 -0.2084  0.4938
  263MPD2    H7 4043   3.428   3.997  11.250  0.7701  0.5863  2.0796
  264TMC3    C1 4044   3.302   4.520  10.665  0.5400 -0.4233 -0.3974
  264TMC3    C2 4045   3.283   4.617  10.766 -0.5449  0.0334  0.4251
  264TMC3    C3 4046   3.320   0.004  10.739  0.3745  0.2388  0.1717
  264TMC3    C4 4047   3.360   4.542  10.546 -0.1502  0.3032  0.9905
  264TMC3    C5 4048   3.411   4.668  10.529 -0.1087 -0.0234  0.1987
  264TMC3    C6 4049   3.392   0.023  10.621 -0.0965 -0.5102 -0.0299
  264TMC3     C 4050   3.284   4.382  10.698  0.1346 -0.2671 -0.2746
  264TMC3     O 4051   3.281   4.303  10.601  0.4309 -0.2569  0.1752
  264TMC3     H 4052   3.214   4.592  10.846 -0.4686 -2.0848 -0.1506
  264TMC3    H1 4053   3.377   4.464  10.472 -1.6619 -0.5418  1.5295
  264TMC3    H2 4054   3.435   0.122  10.611 -2.5936  0.4833 -0.7861
  264TMC3    C7 4055   3.504   4.684  10.417 -0.5989 -0.1513  0.0029
  264TMC3    C8 4056   3.277   0.114  10.813 -0.0250  0.5329  0.4433
  264TMC3    O1 4057   3.573   4.589  10.383  0.2680 -0.4253 -0.0464
  264TMC3    O2 4058   3.318   0.223  10.770 -0.2195 -0.1367 -0.4624
  265MPD2     C 4059   0.762   4.381  15.761  0.4857  1.1681 -0.0302
  265MPD2    C1 4060   0.790   4.486  15.674  0.1554 -0.8490  0.9686
  265MPD2    C2 4061   0.839   4.457  15.554 -0.4001  0.1021  0.6806
  265MPD2    C3 4062   0.872   4.322  15.517  0.1832  0.1882  0.6265
  265MPD2    C4 4063   0.854   4.226  15.616 -0.3466 -0.3282 -0.6657
  265MPD2    C5 4064   0.793   4.252  15.736 -0.5478 -0.1873 -0.6651
  265MPD2     H 4065   0.862   4.539  15.487  0.5958  0.7602  1.8344
  265MPD2    H1 4066   0.884   4.123  15.605  1.1100 -0.1006  1.1104
  265MPD2    H2 4067   0.721   4.392  15.861 -1.6358 -0.2108 -0.7608
  265MPD2    H3 4068   0.771   4.174  15.808 -0.2324  1.8067  1.5657
  265MPD2     N 4069   0.938   4.281  15.404 -0.3185  0.0485 -0.1626
  265MPD2    H5 4070   0.948   4.183  15.381  0.9423  0.1230  0.0702
  265MPD2    N1 4071   0.741   4.618  15.697  0.1560  0.4082 -1.0231
  265MPD2    H7 4072   0.767   4.681  15.623 -2.8734  2.2757 -0.4839
  266TMC3    C1 4073   0.611   0.043  15.809  0.2715  0.0952 -0.2723
  266TMC3    C2 4074   0.592   0.099  15.935  0.2040  0.2706 -0.4927
  266TMC3    C3 4075   0.507   0.206  15.942 -0.2243 -0.1063  0.5269
  266TMC3    C4 4076   0.560   0.090  15.691 -0.2290  0.0323  0.8067
  266TMC3    C5 4077   0.479   0.202  15.702 -0.4433  0.1273  0.1662
  266TMC3    C6 4078   0.445   0.250  15.826  0.5052 -0.4708 -0.0722
  266TMC3     C 4079   0.674   4.652  15.812  0.3500 -0.1978  0.0505
  266TMC3     O 4080   0.674   4.600  15.924 -0.4656  0.2142 -0.4420
  266TMC3     H 4081   0.646   0.074  16.025  0.2428 -3.1142 -1.4605
  266TMC3    H1 4082   0.587   0.033  15.603 -2.1390  0.7104 -0.2300
  266TMC3    H2 4083   0.380   0.337  15.834 -0.5382 -1.3494  1.0856
  266TMC3    C7 4084   0.389   0.246  15.597 -0.2360  0.1794  0.6246
  266TMC3    C8 4085   0.524   0.303  16.051 -0.4923 -0.5120  0.1716
  266TMC3    O1 4086   0.356   0.364  15.612 -0.0561 -0.4149  0.1810
  266TMC3    O2 4087   0.627   0.304  16.111  0.9198 -0.1197  0.2286
  267MPD2     C 4088   2.438   2.294   0.286 -0.0773 -0.0030  0.4621
  267MPD2    C1 4089   2.455   2.181   0.358 -0.1428  0.2603  0.0278
  267MPD2    C2 4090   2.346   2.098   0.373  0.7224  0.3876 -0.2972
  267MPD2    C3 4091   2.221   2.127   0.313 -0.5234  0.3270  0.3794
  267MPD2    C4 4092   2.217   2.239   0.227 -0.0288 -0.3139  0.6645
  267MPD2    C5 4093   2.321   2.328   0.220  0.9945 -0.2117 -0.4596
  267MPD2     H 4094   2.351   2.012   0.439 -0.5651  1.8099  1.6854
  267MPD2    H1 4095   2.130   2.256   0.165  0.5274  1.2314  0.3092
  267MPD2    H2 4096   2.527   2.343   0.247  0.7570 -1.4306  0.5836
  267MPD2    H3 4097   2.313   2.409   0.149  0.6247 -0.8087 -1.0942
  267MPD2     N 4098   2.112   2.034   0.307  0.6259 -0.0898 -0.2511
  267MPD2    H5 4099   2.035   2.049   0.242  2.1257  0.0734 -1.9620
  267MPD2    N1 4100   2.584   2.142   0.402 -0.0070 -0.1116  0.3707
  267MPD2    H7 4101   2.664   2.190   0.362 -1.6835 -0.3530 -3.2974
  268TMC3    C1 4102   2.759   2.011   0.501  0.1337  0.4737  0.1362
  268TMC3    C2 4103   2.857   2.029   0.401  0.8887  0.5773 -0.6988
  268TMC3    C3 4104   2.983   1.976   0.429 -0.7171  0.7221  0.6057
  268TMC3    C4 4105   2.776   1.929   0.616 -0.1089  0.3817 -0.1979
  268TMC3    C5 4106   2.902   1.883   0.632 -0.1576  0.2381 -1.2253
  268TMC3    C6 4107   3.005   1.909   0.546  0.4570  0.1807  0.9851
  268TMC3     C 4108   2.617   2.032   0.479 -0.0942 -0.5988  0.9633
  268TMC3     O 4109   2.536   1.958   0.531  0.3277 -0.3608  0.5344
  268TMC3     H 4110   2.834   2.093   0.317 -1.2473 -2.2501 -2.2529
  268TMC3    H1 4111   2.693   1.928   0.686 -0.0233  0.5295 -0.0930
  268TMC3    H2 4112   3.105   1.874   0.572  0.2469 -1.8148 -0.9283
  268TMC3    C7 4113   2.920   1.766   0.717  0.1948  0.0297 -0.8151
  268TMC3    C8 4114   3.082   1.951   0.333  0.1651 -0.4355  0.6220
  268TMC3    O1 4115   3.019   1.690   0.699 -0.4958  0.3248 -0.1980
  268TMC3    O2 4116   3.160   1.865   0.354  0.2888 -0.7690  0.3547
  269MPD2     C 4117   3.639   0.415  15.690 -0.8257 -0.2209  0.9775
  269MPD2    C1 4118   3.550   0.468  15.782 -0.4218 -0.4935 -0.5975
  269MPD2    C2 4119   3.493   0.590  15.755  0.1890  0.8499 -0.0084
  269MPD2    C3 4120   3.524   0.653  15.632  0.4194 -0.0343 -1.1134
  269MPD2    C4 4121   3.616   0.598  15.538 -0.1767  0.2816  0.1903
  269MPD2    C5 4122   3.670   0.476  15.574  0.4217  0.3153  0.1207
  269MPD2     H 4123   3.415   0.636  15.815  0.6699 -0.5027  1.6849
  269MPD2    H1 4124   3.645   0.641  15.443  2.3348  2.0799  1.7640
  269MPD2    H2 4125   3.694   0.327  15.720  0.2587 -0.2908 -1.2583
  269MPD2    H3 4126   3.744   0.421  15.517  0.4643  0.6475 -0.1483
  269MPD2     N 4127   3.452   0.772  15.597 -0.4578 -0.4727 -0.3448
  269MPD2    H5 4128   3.396   0.809  15.674  0.1414  0.0460 -0.1621
  269MPD2    N1 4129   3.529   0.397  15.905  0.2289 -0.4429  0.2593
  269MPD2    H7 4130   3.585   0.314  15.921  0.6337  0.2377  2.4050
  270TMC3    C1 4131   3.408   0.315  16.080 -0.0777  0.1199 -0.5212
  270TMC3    C2 4132   3.287   0.272  16.127 -0.8882  0.0356  0.1444
  270TMC3    C3 4133   3.293   0.169  16.216 -0.5876 -0.0745 -0.4525
  270TMC3    C4 4134   3.532   0.254  16.117  0.5071 -0.0227 -0.0037
  270TMC3    C5 4135   3.527   0.137  16.191 -0.1791  0.3615 -0.4207
  270TMC3    C6 4136   3.405   0.101  16.247 -0.1185  0.0898  0.9948
  270TMC3     C 4137   3.415   0.417  15.978 -0.4947 -0.7836 -0.5603
  270TMC3     O 4138   3.324   0.496  15.969 -0.1559  0.0582 -0.0759
  270TMC3     H 4139   3.194   0.314  16.089 -1.3712  0.2983  1.5777
  270TMC3    H1 4140   3.621   0.312  16.099  1.1540 -1.1283 -0.3180
  270TMC3    H2 4141   3.401   0.022  16.321 -4.3664  0.0703  0.7593
  270TMC3    C7 4142   3.622   0.034  16.150 -0.2788 -0.4689  0.1293
  270TMC3    C8 4143   3.182   0.086  16.183 -0.9399 -0.1888  1.1418
  270TMC3    O1 4144   3.718   0.079  16.090 -0.3121 -0.4334  0.1900
  270TMC3    O2 4145   3.104   0.051  16.269 -0.2938  0.6203 -0.8067
  271MPD2     C 4146   1.941   4.736  15.017  0.2381 -0.0660  0.3472
  271MPD2    C1 4147   2.070   0.023  14.977 -1.0960 -0.5581  0.3580
  271MPD2    C2 4148   2.088   0.099  14.863 -0.1671 -0.2808 -0.5991
  271MPD2    C3 4149   1.979   0.150  14.787 -0.3053  0.1319 -0.2723
  271MPD2    C4 4150   1.852   0.122  14.828  0.1677  0.2428  0.4535
  271MPD2    C5 4151   1.833   0.048  14.945 -0.0305 -0.0465 -0.4884
  271MPD2     H 4152   2.190   0.110  14.828 -0.5497  1.4805 -1.1498
  271MPD2    H1 4153   1.767   0.158  14.771 -0.2338  1.1982  1.6551
  271MPD2    H2 4154   1.916   4.679  15.106  1.2200 -0.3589  0.4376
  271MPD2    H3 4155   1.733   0.029  14.982  0.3359  2.4065  1.7187
  271MPD2     N 4156   1.992   0.229  14.672 -0.8564 -0.1627 -0.0026
  271MPD2    H5 4157   1.913   0.271  14.624  1.1575  0.3079 -2.8583
  271MPD2    N1 4158   2.177   4.704  15.046  0.6503  0.0207 -0.2415
  271MPD2    H7 4159   2.263   4.712  14.993  0.6054 -1.7690 -0.6057
  272TMC3    C1 4160   2.308   4.591  15.205  0.2215 -0.0842 -0.4217
  272TMC3    C2 4161   2.406   4.565  15.112  0.5940 -0.4053 -0.1908
  272TMC3    C3 4162   2.531   4.535  15.155  0.0995 -0.8495 -0.2005
  272TMC3    C4 4163   2.336   4.580  15.339  0.3312 -0.0688  0.1936
  272TMC3    C5 4164   2.460   4.539  15.381 -0.0106  0.3651 -0.4369
  272TMC3    C6 4165   2.553   4.505  15.285  0.1404 -0.1691  0.6471
  272TMC3     C 4166   2.178   4.651  15.169 -0.1082 -0.0206 -0.8375
  272TMC3     O 4167   2.089   4.646  15.256  0.1879  0.0138 -0.0504
  272TMC3     H 4168   2.370   4.561  15.009 -0.9762  1.5589  0.2789
  272TMC3    H1 4169   2.271   4.606  15.422 -0.7059 -0.9034 -0.3603
  272TMC3    H2 4170   2.642   4.453  15.320  0.2765 -0.0201  0.5177
  272TMC3    C7 4171   2.487   4.523  15.520  0.5802 -0.0656 -0.1841
  272TMC3    C8 4172   2.623   4.477  15.058  0.1720  0.7365 -0.2421
  272TMC3    O1 4173   2.414   4.456  15.590  0.1205 -0.6090 -0.0548
  272TMC3    O2 4174   2.583   4.468  14.942  0.4217 -0.1118  0.0909
  273MPD2     C 4175   3.594   3.119  11.482  0.7870 -0.2496 -0.0162
  273MPD2    C1 4176   3.695   3.214  11.505  0.0163  0.1740 -0.3085
  273MPD2    C2 4177   3.763   3.259  11.401 -0.7125 -0.0969  0.0876
  273MPD2    C3 4178   3.741   3.204  11.271  0.2871  0.3714  0.3744
  273MPD2    C4 4179   3.638   3.120  11.253  0.1529  0.1990  0.3235
  273MPD2    C5 4180   3.562   3.075  11.355 -0.0479  0.2854  0.5550
  273MPD2     H 4181   3.846   3.328  11.413 -0.9659  0.3051 -0.4832
  273MPD2    H1 4182   3.603   3.084  11.157 -0.1144 -0.1756  0.5568
  273MPD2    H2 4183   3.532   3.071  11.557  1.6203 -0.0114  0.8291
  273MPD2    H3 4184   3.488   3.003  11.323 -0.0878 -0.2151  1.7467
  273MPD2     N 4185   3.813   3.247  11.155  0.1625 -0.7011  0.4007
  273MPD2    H5 4186   3.791   3.182  11.080 -1.0349 -0.5742  0.6441
  273MPD2    N1 4187   3.714   3.260  11.640  0.2792 -0.0609 -0.5679
  273MPD2    H7 4188   3.660   3.216  11.713  1.1776  0.6384  0.5094
  274TMC3    C1 4189   3.941   3.393  11.009  0.5984  0.0324  0.1015
  274TMC3    C2 4190   3.861   3.352  10.904 -0.1734  0.3174 -0.3495
  274TMC3    C3 4191   3.876   3.414  10.781 -0.1257 -0.2883  0.5286
  274TMC3    C4 4192   4.023   3.499  10.997  0.0959 -0.4544 -0.2939
  274TMC3    C5 4193   4.037   3.559  10.877  0.1672 -0.2119  0.5863
  274TMC3    C6 4194   3.974   3.513  10.766 -0.8130 -0.6387  0.0594
  274TMC3     C 4195   3.884   3.366  11.144 -0.9445 -0.7419  0.0983
  274TMC3     O 4196   3.934   3.435  11.234 -0.2410  0.2109 -0.1035
  274TMC3     H 4197   3.791   3.273  10.929 -0.8223  0.6194 -1.2279
  274TMC3    H1 4198   4.080   3.529  11.083  1.5184 -0.8278 -1.1022
  274TMC3    H2 4199   3.959   3.581  10.683  1.9534  1.2005  1.0257
  274TMC3    C7 4200   4.066   3.702  10.871  0.3581  0.7777  0.2612
  274TMC3    C8 4201   3.754   3.410  10.702  0.8589  1.0888  0.0404
  274TMC3    O1 4202   4.092   3.752  10.763  0.3652  0.6503 -0.0900
  274TMC3    O2 4203   3.650   3.369  10.744  0.3640 -0.1074 -0.4107
  275MPD2     C 4204   3.897   1.082  14.751  0.7016 -0.8537 -0.0569
  275MPD2    C1 4205   3.954   0.967  14.811 -0.4833 -0.4495  0.5529
  275MPD2    C2 4206   3.883   0.847  14.801  0.5619  0.0954  0.3242
  275MPD2    C3 4207   3.769   0.846  14.729 -0.0082  0.2122 -0.3875
  275MPD2    C4 4208   3.724   0.961  14.667 -0.2006  0.1101 -0.5446
  275MPD2    C5 4209   3.779   1.079  14.679 -0.0398 -0.1893  0.9353
  275MPD2     H 4210   3.931   0.756  14.835  1.4315  0.2017 -0.6032
  275MPD2    H1 4211   3.630   0.958  14.614 -0.9797 -1.1272  0.9209
  275MPD2    H2 4212   3.951   1.176  14.746 -1.0829  0.1816 -0.0255
  275MPD2    H3 4213   3.740   1.170  14.636 -0.7318 -0.1458  1.6600
  275MPD2     N 4214   3.699   0.728  14.705 -0.2296  0.8083 -0.6574
  275MPD2    H5 4215   3.610   0.734  14.655  1.0124 -3.2498 -3.3281
  275MPD2    N1 4216   4.081   0.971  14.872  0.4072 -0.3800 -0.9405
  275MPD2    H7 4217   4.118   0.892  14.924 -2.1652 -1.1711 -0.2889
  276TMC3    C1 4218   4.282   1.041  14.951 -0.0186 -0.0743  0.0157
  276TMC3    C2 4219   4.338   0.915  14.937 -0.0153 -0.1390  0.1744
  276TMC3    C3 4220   4.461   0.895  14.994 -0.1557 -0.0310  0.5703
  276TMC3    C4 4221   4.335   1.141  15.026 -0.0838 -0.2097  0.7177
  276TMC3    C5 4222   4.454   1.109  15.088 -0.3924 -0.6471 -0.7601
  276TMC3    C6 4223   4.518   0.989  15.078 -0.3929  1.1271 -0.4420
  276TMC3     C 4224   4.164   1.080  14.876  0.6095 -0.5206  0.5852
  276TMC3     O 4225   4.158   1.189  14.820 -0.3853 -0.4668  0.2719
  276TMC3     H 4226   4.304   0.839  14.867 -2.5638  1.5688 -0.4586
  276TMC3    H1 4227   4.271   1.224  15.051 -0.3518 -0.1940 -0.0288
  276TMC3    H2 4228   4.621   0.983  15.112 -0.3779 -2.0790 -1.1088
  276TMC3    C7 4229   4.537   1.214  15.134  0.5313  0.4460  0.0503
  276TMC3    C8 4230   4.522   0.763  14.991  0.1681  0.3378 -0.0525
  276TMC3    O1 4231   4.628   1.184  15.212 -0.6958 -0.4229 -0.6950
  276TMC3    O2 4232   4.629   0.764  15.050 -0.2744  0.4164  0.0079
  277MPD2     C 4233   0.925   0.502  13.578  0.0541  0.7249 -0.2934
  277MPD2    C1 4234   0.814   0.561  13.625 -0.7994  0.3583  0.2304
  277MPD2    C2 4235   0.730   0.491  13.710  0.2029  0.1680  0.0916
  277MPD2    C3 4236   0.756   0.361  13.748 -0.1256 -0.3896 -0.2712
  277MPD2    C4 4237   0.874   0.302  13.702 -0.4613  0.3147 -0.0176
  277MPD2    C5 4238   0.954   0.371  13.609 -0.3738 -0.1856 -0.3131
  277MPD2     H 4239   0.638   0.536  13.744  1.4660  2.4538  0.4493
  277MPD2    H1 4240   0.905   0.199  13.717 -1.3090 -0.0318 -0.6349
  277MPD2    H2 4241   0.995   0.534  13.502  0.1350  0.8098 -0.1837
  277MPD2    H3 4242   1.031   0.330  13.544  1.9679  1.0203  1.6975
  277MPD2     N 4243   0.663   0.288  13.826 -0.8056 -0.5311 -0.0669
  277MPD2    H5 4244   0.571   0.330  13.834 -0.2645  0.8685 -1.0617
  277MPD2    N1 4245   0.779   0.695  13.577  0.3767  0.0580 -0.3812
  277MPD2    H7 4246   0.845   0.718  13.505 -0.0291 -2.4363 -1.5647
  278TMC3    C1 4247   0.580   0.101  13.938  0.9967  0.1199 -0.2009
  278TMC3    C2 4248   0.600   4.726  14.019  0.3502  0.0829 -0.3845
  278TMC3    C3 4249   0.486   4.660  14.054 -0.7244 -0.2774 -0.0576
  278TMC3    C4 4250   0.457   0.134  13.885  0.9428 -0.5894  0.0561
  278TMC3    C5 4251   0.347   0.063  13.927  0.3891 -0.2159  0.3035
  278TMC3    C6 4252   0.364   4.694  14.005  0.5295  0.1449 -0.1837
  278TMC3     C 4253   0.698   0.165  13.888 -0.3643  0.1924  0.7608
  278TMC3     O 4254   0.800   0.097  13.901  0.1616 -0.9963  0.3375
  278TMC3     H 4255   0.693   4.692  14.063  0.8099  0.5444 -0.9928
  278TMC3    H1 4256   0.447   0.201  13.801 -0.4942  0.1837  0.8358
  278TMC3    H2 4257   0.283   4.649  14.062 -1.0707  2.0579 -0.9352
  278TMC3    C7 4258   0.219   0.118  13.899  0.6195 -0.0745  0.4621
  278TMC3    C8 4259   0.508   4.522  14.086 -0.4889 -0.0494  0.5344
  278TMC3    O1 4260   0.209   0.229  13.852  0.2805  0.0860 -0.0008
  278TMC3    O2 4261   0.609   4.496  14.151 -0.0833  1.0434 -0.0950
  279MPD2     C 4262   4.482   4.427   0.041 -0.1796 -0.6543  0.0235
  279MPD2    C1 4263   4.512   4.560   0.008  0.1170 -0.5222  0.3250
  279MPD2    C2 4264   4.614   4.586  17.673  0.0985  0.5154  1.1564
  279MPD2    C3 4265   4.700   4.486  17.635  0.4727 -0.5080 -0.2119
  279MPD2    C4 4266   4.667   4.358  17.657  0.6063 -0.2813  0.4487
  279MPD2    C5 4267   4.557   4.327  17.733 -0.0839 -0.2656 -0.3825
  279MPD2     H 4268   4.638   4.689  17.652 -1.6380  0.5460 -0.7130
  279MPD2    H1 4269   0.006   4.284  17.637  0.6238 -0.5624  1.5336
  279MPD2    H2 4270   4.403   4.395   0.108  0.2675 -1.5154  0.1380
  279MPD2    H3 4271   4.533   4.223   0.002  0.5026  0.1807  2.6117
  279MPD2     N 4272   0.088   4.506  17.568 -0.3033  0.2550  0.2352
  279MPD2    H5 4273   0.132   4.423  17.531  0.3609  1.8030 -2.4339
  279MPD2    N1 4274   4.427   4.663   0.067 -0.6985 -0.1295 -0.2955
  279MPD2    H7 4275   4.344   4.624   0.111 -1.0104  0.3236 -0.4810
  280TMC3    C1 4276   4.324   0.130   0.102  0.6526 -0.4562 -0.3815
  280TMC3    C2 4277   4.232   0.065   0.172 -0.2212  0.2974  0.1754
  280TMC3    C3 4278   4.137   0.136   0.242 -0.1137 -0.2849 -0.2418
  280TMC3    C4 4279   4.334   0.269   0.108  0.2548  0.3719  0.4243
  280TMC3    C5 4280   4.259   0.333   0.201 -0.9086 -0.2879  0.5489
  280TMC3    C6 4281   4.158   0.267   0.268 -0.1625 -0.2659 -0.1465
  280TMC3     C 4282   4.439   0.057   0.053  0.3902  0.5209  0.0170
  280TMC3     O 4283   4.532   0.132   0.023  0.3703 -0.7716  0.6412
  280TMC3     H 4284   4.204   4.703   0.142  1.4413 -0.1077 -0.0508
  280TMC3    H1 4285   4.403   0.323   0.044  0.4872  0.2136  0.5405
  280TMC3    H2 4286   4.085   0.324   0.324  1.5639  0.7438  1.0956
  280TMC3    C7 4287   4.277   0.469   0.235 -0.0104 -1.1366  0.2998
  280TMC3    C8 4288   4.005   0.085   0.274 -0.6543  0.5660  0.0525
  280TMC3    O1 4289   4.280   0.489   0.355 -0.1750  0.7417 -0.2091
  280TMC3    O2 4290   3.927   0.166   0.318 -0.5273 -0.0671  0.2711
  281TMC3    C1 4291   3.556   0.128  13.778 -0.0922  0.7650 -0.3991
  281TMC3    C2 4292   3.693   0.139  13.781 -0.2621 -0.1243  0.5102
  281TMC3    C3 4293   3.766   0.055  13.700 -0.0921  0.1103  0.9675
  281TMC3    C4 4294   3.492   0.038  13.702  0.3888  0.1356 -0.2816
  281TMC3    C5 4295   3.563   4.698  13.616 -0.6155 -0.6376 -0.3538
  281TMC3    C6 4296   3.700   4.706  13.614  0.2618 -0.9021 -0.6350
  281TMC3     C 4297   3.477   0.205  13.869  0.7684  0.2813  0.1908
  281TMC3     O 4298   3.373   0.148  13.907  0.2425  0.3434  0.3783
  281TMC3     H 4299   3.747   0.208  13.845 -0.8701  1.6212 -0.8759
  281TMC3    H1 4300   3.386   0.059  13.692  0.3892  1.8433  3.2417
  281TMC3    H2 4301   3.760   4.640  13.553  0.4249 -2.4001  1.1451
  281TMC3    C7 4302   3.500   4.577  13.577 -0.3625  0.3774  0.6527
  281TMC3    C8 4303   3.906   0.079  13.674 -0.5295  0.0143 -0.2179
  281TMC3    O1 4304   3.572   4.475  13.601  0.1621 -0.0753 -0.8845
  281TMC3    O2 4305   3.971   4.712  13.669  0.1466 -0.0678  0.5462
  282MPD2     C 4306   0.786   1.797  14.964 -0.1896  0.1780 -0.4635
  282MPD2    C1 4307   0.665   1.806  15.020 -0.4774 -0.3282 -0.0947
  282MPD2    C2 4308   0.560   1.802  14.932 -0.4113 -0.0770 -0.0714
  282MPD2    C3 4309   0.570   1.815  14.795  0.1815 -0.8861  0.6747
  282MPD2    C4 4310   0.697   1.837  14.746 -0.2847 -0.3723  0.2618
  282MPD2    C5 4311   0.797   1.813  14.831  0.0793 -0.0660  0.5121
  282MPD2     H 4312   0.460   1.803  14.975  0.4515 -2.5830  2.0139
  282MPD2    H1 4313   0.723   1.855  14.643 -1.5530 -0.3374 -0.0550
  282MPD2    H2 4314   0.876   1.766  15.017 -1.1728 -1.8939  0.0009
  282MPD2    H3 4315   0.892   1.808  14.777  0.0661  5.1887 -0.0309
  282MPD2     N 4316   0.452   1.827  14.719 -0.4470 -0.6312  0.0013
  282MPD2    H5 4317   0.368   1.817  14.775 -0.4563 -0.0145  0.0974
  282MPD2    N1 4318   0.643   1.794  15.164  0.4407  0.0831  0.2145
  282MPD2    H7 4319   0.548   1.805  15.198  0.1001  0.4366 -0.8612
  283TMC3    C1 4320   0.675   1.812  15.389 -0.2694 -0.3434  0.2903
  283TMC3    C2 4321   0.674   1.944  15.423 -0.3260  0.4119 -0.4841
  283TMC3    C3 4322   0.658   1.980  15.555  0.1045 -0.4373 -0.3483
  283TMC3    C4 4323   0.668   1.714  15.480 -0.1319  0.2911 -0.4697
  283TMC3    C5 4324   0.638   1.752  15.610  0.5379 -0.3897 -0.0289
  283TMC3    C6 4325   0.643   1.885  15.652 -0.1945  0.3105  0.4789
  283TMC3     C 4326   0.737   1.781  15.265 -0.2849 -0.0346 -0.0717
  283TMC3     O 4327   0.853   1.758  15.278 -0.3165  0.1638  0.4154
  283TMC3     H 4328   0.692   2.020  15.347  0.4747 -1.2337 -1.9494
  283TMC3    H1 4329   0.697   1.611  15.462 -0.1446  0.0917  0.6353
  283TMC3    H2 4330   0.609   1.911  15.751 -1.1222  4.8004 -0.9762
  283TMC3    C7 4331   0.578   1.655  15.702 -0.3522  0.4992  0.4808
  283TMC3    C8 4332   0.647   2.113  15.597 -0.0412  0.1350 -0.4350
  283TMC3    O1 4333   0.600   1.660  15.823 -0.3866  0.1802 -0.8727
  283TMC3    O2 4334   0.681   2.131  15.715 -0.1911  0.0543 -0.1954
  284MPD2     C 4335   3.039   0.961  12.286  0.8659 -0.0779 -0.3376
  284MPD2    C1 4336   3.162   0.973  12.224 -0.0645 -0.2750 -0.7670
  284MPD2    C2 4337   3.269   0.930  12.287 -1.1209 -0.7639  0.2307
  284MPD2    C3 4338   3.270   0.891  12.415 -0.3676 -0.2845 -0.1979
  284MPD2    C4 4339   3.147   0.885  12.481 -0.5364 -0.7441 -0.4193
  284MPD2    C5 4340   3.029   0.912  12.415  0.5822  0.5762 -0.2773
  284MPD2     H 4341   3.358   0.920  12.225 -0.4714 -1.3210  1.2657
  284MPD2    H1 4342   3.141   0.844  12.581 -2.3568 -2.3670 -1.1740
  284MPD2    H2 4343   2.950   0.973  12.226 -0.3910  1.5670  1.8731
  284MPD2    H3 4344   2.935   0.905  12.469  1.1886  1.1380  0.8480
  284MPD2     N 4345   3.381   0.847  12.480  0.5569  0.2279 -0.4007
  284MPD2    H5 4346   3.366   0.815  12.575 -0.4573  1.5320 -0.1358
  284MPD2    N1 4347   3.171   1.033  12.098 -0.4398  0.7634 -0.0575
  284MPD2    H7 4348   3.263   1.044  12.058 -0.0548 -0.5579  0.4838
  285TMC3    C1 4349   3.114   1.141  11.901 -0.5391 -0.3193 -1.0255
  285TMC3    C2 4350   3.241   1.112  11.857  0.0439  0.2082 -0.6068
  285TMC3    C3 4351   3.307   1.200  11.780  0.4942 -0.3751  0.1319
  285TMC3    C4 4352   3.047   1.256  11.859 -0.3653 -0.1671  0.0932
  285TMC3    C5 4353   3.119   1.341  11.774 -0.7154 -1.0608 -1.0100
  285TMC3    C6 4354   3.249   1.315  11.740 -0.1537 -0.1189  0.4214
  285TMC3     C 4355   3.062   1.088  12.020  0.0833 -0.7502  0.6568
  285TMC3     O 4356   2.958   1.139  12.064 -0.3830  0.2029 -1.0300
  285TMC3     H 4357   3.283   1.017  11.890  1.1689  1.0213  0.3286
  285TMC3    H1 4358   2.954   1.284  11.907  0.8346  1.9174  1.2329
  285TMC3    H2 4359   3.301   1.373  11.664  0.9730  0.9152  1.9671
  285TMC3    C7 4360   3.072   1.480  11.750 -0.3366 -0.4554  0.8775
  285TMC3    C8 4361   3.403   1.144  11.689  0.2596 -0.0732 -0.2381
  285TMC3    O1 4362   3.150   1.551  11.693 -0.0029 -0.3845 -0.0664
  285TMC3    O2 4363   3.392   1.023  11.666  0.2966 -0.0186  0.0780
  286MPD2     C 4364   3.150   0.361   0.839  0.4465 -0.2675 -0.6169
  286MPD2    C1 4365   3.261   0.436   0.824 -0.6037  0.4519 -0.5194
  286MPD2    C2 4366   3.383   0.378   0.815 -0.1579  0.1067  0.2376
  286MPD2    C3 4367   3.406   0.242   0.824  0.3487  0.0194  0.6298
  286MPD2    C4 4368   3.285   0.173   0.821  0.5679 -0.4920 -1.1600
  286MPD2    C5 4369   3.161   0.227   0.839 -0.5110 -0.5728 -0.4909
  286MPD2     H 4370   3.463   0.450   0.806 -0.2381  0.2876  0.9757
  286MPD2    H1 4371   3.287   0.065   0.811  1.6889 -0.4563 -1.3016
  286MPD2    H2 4372   3.048   0.396   0.849  0.5627 -0.0145 -0.3151
  286MPD2    H3 4373   3.081   0.155   0.851 -0.0876 -0.8831  0.4914
  286MPD2     N 4374   3.532   0.193   0.812 -0.0949 -0.5779 -0.0897
  286MPD2    H5 4375   3.605   0.262   0.813  0.9397 -1.6815  0.0408
  286MPD2    N1 4376   3.262   0.577   0.812 -0.8672  0.0967 -0.1696
  286MPD2    H7 4377   3.350   0.620   0.784  0.4618  0.0155  3.8711
  287TMC3    C1 4378   3.701   0.024   0.792  0.0512 -0.4907 -0.1416
  287TMC3    C2 4379   3.720   4.650   0.721  0.6593  0.1569 -0.3596
  287TMC3    C3 4380   3.841   4.593   0.743  0.3329  0.6782 -0.1101
  287TMC3    C4 4381   3.796   0.076   0.876 -0.1208  0.1144 -0.2283
  287TMC3    C5 4382   3.921   0.019   0.881 -0.3619  0.3380 -0.5430
  287TMC3    C6 4383   3.945   4.646   0.810  0.1438 -0.3096 -0.0646
  287TMC3     C 4384   3.560   0.064   0.788 -0.6876  0.0162  0.4419
  287TMC3     O 4385   3.489   4.704   0.762 -0.6649 -0.2474 -0.0528
  287TMC3     H 4386   3.654   4.619   0.642 -0.8380  0.1178  0.8921
  287TMC3    H1 4387   3.762   0.156   0.941 -0.6807 -0.0747 -0.2849
  287TMC3    H2 4388   4.040   4.595   0.817 -0.3936 -0.9111  2.6833
  287TMC3    C7 4389   3.994   0.064   1.002 -0.2312 -0.2362 -0.1555
  287TMC3    C8 4390   3.853   4.462   0.677 -0.0711  0.2861 -0.5719
  287TMC3    O1 4391   3.948   0.155   1.069  0.3170 -1.1354  0.7220
  287TMC3    O2 4392   3.745   4.409   0.649 -0.0630  0.0416 -0.1865
  288TMC3    C1 4393   1.471   4.193  14.516  0.4035  0.3813  0.3983
  288TMC3    C2 4394   1.352   4.236  14.554  0.0171  0.4056  0.3574
  288TMC3    C3 4395   1.324   4.364  14.519  0.4656 -0.3649 -0.5840
  288TMC3    C4 4396   1.560   4.269  14.443  0.4237  0.3270  0.2171
  288TMC3    C5 4397   1.513   4.387  14.393  0.4968  0.7205 -0.0551
  288TMC3    C6 4398   1.394   4.442  14.437 -0.9182  0.3308 -0.0247
  288TMC3     C 4399   1.510   4.073  14.586  0.5588  0.0570 -0.2189
  288TMC3     O 4400   1.428   4.029  14.666 -0.3833 -0.0961  0.4561
  288TMC3     H 4401   1.277   4.186  14.615  1.0503 -1.3493  0.1665
  288TMC3    H1 4402   1.656   4.233  14.408 -1.0611 -2.1054 -1.3390
  288TMC3    H2 4403   1.363   4.546  14.430 -2.1738 -0.0934 -0.8347
  288TMC3    C7 4404   1.607   4.460  14.308 -0.1257  0.5212  0.5226
  288TMC3    C8 4405   1.222   4.441  14.600 -0.3756  0.8213 -0.2706
  288TMC3    O1 4406   1.725   4.421  14.294 -0.4317 -0.0020 -0.2223
  288TMC3    O2 4407   1.249   4.562  14.619  0.5802  0.0683  0.4122
  289MPD2     C 4408   1.072   3.293  14.057  0.4748 -0.3136  0.5108
  289MPD2    C1 4409   1.018   3.419  14.064  0.0822  0.6215  0.4823
  289MPD2    C2 4410   0.890   3.448  14.027  0.1841 -0.0716 -0.5296
  289MPD2    C3 4411   0.796   3.347  14.000  0.2204  0.2422  0.2152
  289MPD2    C4 4412   0.847   3.218  13.990 -0.0713 -0.3305  0.2650
  289MPD2    C5 4413   0.984   3.196  14.016 -0.0999  0.4292 -0.0622
  289MPD2     H 4414   0.848   3.548  14.021  2.6147  0.9412 -0.3234
  289MPD2    H1 4415   0.785   3.132  13.966 -0.0068  0.4569 -2.7208
  289MPD2    H2 4416   1.174   3.270  14.084 -0.0625  0.9695  3.5969
  289MPD2    H3 4417   1.022   3.095  14.011  1.0914  0.8203  0.9591
  289MPD2     N 4418   0.655   3.368  13.987  0.1607  0.2969 -0.5384
  289MPD2    H5 4419   0.604   3.285  13.960  0.1268  0.5248 -1.1687
  289MPD2    N1 4420   1.114   3.512  14.113 -0.7052  0.3242  0.5057
  289MPD2    H7 4421   1.196   3.473  14.159 -0.2432 -0.6800 -1.1746
  290TMC3    C1 4422   0.442   3.487  13.987 -0.4338  0.1109  0.4066
  290TMC3    C2 4423   0.363   3.596  14.016  0.4545  0.2575  0.5906
  290TMC3    C3 4424   0.235   3.593  13.964  0.0122 -1.0236  1.2643
  290TMC3    C4 4425   0.387   3.380  13.913 -0.0586  0.0316  0.1730
  290TMC3    C5 4426   0.261   3.380  13.856 -0.5961  0.2076 -0.3186
  290TMC3    C6 4427   0.189   3.488  13.887 -0.4266  0.4415  0.3465
  290TMC3     C 4428   0.584   3.486  14.004  0.9043 -0.0807 -0.0534
  290TMC3     O 4429   0.637   3.595  14.037  0.2951  0.1910 -0.0601
  290TMC3     H 4430   0.398   3.678  14.077 -2.1204  1.0031  1.0670
  290TMC3    H1 4431   0.451   3.302  13.872  0.4717  0.0257  0.9976
  290TMC3    H2 4432   0.084   3.496  13.859 -0.0670 -0.9700 -1.4412
  290TMC3    C7 4433   0.206   3.282  13.764  0.2996 -0.5468  0.2802
  290TMC3    C8 4434   0.145   3.710  13.985  0.2265 -0.6970 -0.0452
  290TMC3    O1 4435   0.112   3.321  13.704  0.3084 -0.1272  0.4856
  290TMC3    O2 4436   0.030   3.694  13.943  0.4912  0.5156  0.5820
  291MPD2     C 4437   0.065   3.804   0.433  0.0028 -0.2326  0.4421
  291MPD2    C1 4438   0.199   3.796   0.442 -0.0591  0.0038  0.3320
  291MPD2    C2 4439   0.270   3.912   0.432  0.1389  0.5680 -0.0288
  291MPD2    C3 4440   0.215   4.040   0.414 -0.3151 -0.2989  0.6753
  291MPD2    C4 4441   0.082   4.048   0.417  0.3706  0.1473  0.4972
  291MPD2    C5 4442   0.005   3.931   0.416 -0.0113 -0.3608  0.4901
  291MPD2     H 4443   0.377   3.899   0.439  0.2177  1.2671  0.0818
  291MPD2    H1 4444   0.040   4.148   0.417 -1.5377 -0.6527 -0.7299
  291MPD2    H2 4445   0.006   3.713   0.437 -1.9100  0.9925  0.0226
  291MPD2    H3 4446   4.637   3.939   0.400  0.4918  1.4436 -1.9134
  291MPD2     N 4447   0.298   4.154   0.392  0.4534  0.1956  0.2397
  291MPD2    H5 4448   0.245   4.235   0.359  0.6908  1.0591  1.9668
  291MPD2    N1 4449   0.265   3.672   0.458  0.0883  0.3159  0.2566
  291MPD2    H7 4450   0.366   3.681   0.448  0.2195 -1.3790  0.1415
  292TMC3    C1 4451   0.327   3.445   0.468  0.8902 -0.7901 -1.1198
  292TMC3    C2 4452   0.417   3.461   0.574 -0.0233 -0.0619  0.2894
  292TMC3    C3 4453   0.522   3.368   0.586 -0.3965  0.0772  0.2927
  292TMC3    C4 4454   0.339   3.355   0.372 -0.2740  0.2038 -0.4205
  292TMC3    C5 4455   0.430   3.253   0.402 -0.1217 -0.4461 -0.5268
  292TMC3    C6 4456   0.527   3.264   0.498 -0.6005 -0.0751  1.0454
  292TMC3     C 4457   0.213   3.543   0.457 -0.0804  0.5700 -0.0876
  292TMC3     O 4458   0.097   3.502   0.460 -0.0007 -0.8766 -0.0939
  292TMC3     H 4459   0.411   3.540   0.647 -1.3427 -0.0253  0.1449
  292TMC3    H1 4460   0.259   3.351   0.298  1.3269 -2.0077 -2.0044
  292TMC3    H2 4461   0.598   3.183   0.512  1.2757  0.9007 -2.8043
  292TMC3    C7 4462   0.407   3.123   0.338  0.2116  0.2879 -0.8642
  292TMC3    C8 4463   0.583   3.365   0.716  0.6223 -0.5483  0.0841
  292TMC3    O1 4464   0.504   3.049   0.333 -0.5306 -0.2377 -0.0272
  292TMC3    O2 4465   0.703   3.343   0.732 -0.4482  0.6844 -0.1695
  293MPD2     C 4466   1.826   4.037  13.258 -0.2185  0.6449 -0.1152
  293MPD2    C1 4467   1.874   4.163  13.230  0.8645 -0.0344 -0.1042
  293MPD2    C2 4468   1.960   4.227  13.321  0.2148  0.4444  0.7029
  293MPD2    C3 4469   1.990   4.158  13.438  0.1681 -0.5979 -0.2162
  293MPD2    C4 4470   1.937   4.033  13.461 -0.1232  0.3504 -0.3923
  293MPD2    C5 4471   1.848   3.977  13.376  0.1501  0.2110  0.1064
  293MPD2     H 4472   2.000   4.326  13.307  2.1640 -0.3532  0.7241
  293MPD2    H1 4473   1.969   3.975  13.547 -1.5867 -2.8221 -1.9736
  293MPD2    H2 4474   1.768   3.987  13.181 -1.3050  0.9972  0.4627
  293MPD2    H3 4475   1.794   3.887  13.404 -0.1062 -0.0489 -1.2238
  293MPD2     N 4476   2.091   4.222  13.515  0.7945 -0.4230  0.0627
  293MPD2    H5 4477   2.132   4.307  13.476 -0.9998 -0.8144 -2.6760
  293MPD2    N1 4478   1.844   4.221  13.108  0.0331 -0.4074 -0.2443
  293MPD2    H7 4479   1.795   4.160  13.044  2.1255 -1.6781 -0.5948
  294TMC3    C1 4480   1.859   4.384  12.942 -0.6556  0.2095  0.0816
  294TMC3    C2 4481   1.811   4.508  12.915 -0.7553  0.8734 -0.6966
  294TMC3    C3 4482   1.835   4.551  12.788 -0.0456 -0.2227 -0.2843
  294TMC3    C4 4483   1.944   4.313  12.857  0.2053 -0.5069  0.3535
  294TMC3    C5 4484   1.961   4.367  12.729  0.0913 -0.4654 -0.5250
  294TMC3    C6 4485   1.884   4.473  12.687 -0.4640 -0.0489 -0.0278
  294TMC3     C 4486   1.852   4.356  13.087  0.3861 -0.0170 -0.5171
  294TMC3     O 4487   1.878   4.449  13.165 -0.4868 -0.0736  0.4509
  294TMC3     H 4488   1.781   4.576  12.993 -1.5514 -0.8588  0.5199
  294TMC3    H1 4489   2.009   4.235  12.895 -0.2361  0.3483  2.8451
  294TMC3    H2 4490   1.886   4.507  12.584 -2.0876  0.2877  0.0569
  294TMC3    C7 4491   2.081   4.331  12.658 -0.1694 -0.7831  0.0272
  294TMC3    C8 4492   1.807   4.691  12.753 -0.1342 -0.0085  0.3335
  294TMC3    O1 4493   2.167   4.271  12.721 -0.1417 -0.0398  0.5355
  294TMC3    O2 4494   1.899   0.025  12.718  0.0813  0.0011  0.4809
  295MPD2     C 4495   1.561   4.144   0.691  0.2191 -1.0636  0.3866
  295MPD2    C1 4496   1.541   4.003   0.702  0.4550  0.6786 -0.2131
  295MPD2    C2 4497   1.454   3.957   0.798 -0.7770  0.2407 -0.2962
  295MPD2    C3 4498   1.403   4.049   0.891  0.2339  0.4231  0.1053
  295MPD2    C4 4499   1.411   4.185   0.867  0.1848  0.9527  0.0183
  295MPD2    C5 4500   1.489   4.232   0.769 -0.4205 -0.5601  0.1241
  295MPD2     H 4501   1.431   3.851   0.801 -0.8845  0.3278  2.2090
  295MPD2    H1 4502   1.351   4.253   0.926  3.3203  3.4323  0.3510
  295MPD2    H2 4503   1.625   4.194   0.619  1.4800 -2.5493  0.4800
  295MPD2    H3 4504   1.501   4.340   0.763 -2.9045 -0.1813  1.5688
  295MPD2     N 4505   1.328   3.998   1.005 -0.4009  0.8884 -0.1822
  295MPD2    H5 4506   1.310   4.072   1.073 -0.7664  1.7501 -1.2116
  295MPD2    N1 4507   1.612   3.911   0.618  0.0362 -0.4057 -0.3506
  295MPD2    H7 4508   1.559   3.826   0.600  0.9256 -1.2810  1.2091
  296TMC3    C1 4509   1.226   3.843   1.164 -0.3340 -0.0783  0.0969
  296TMC3    C2 4510   1.186   3.952   1.243 -0.0155  0.0836  0.2963
  296TMC3    C3 4511   1.120   3.919   1.358  0.0307 -0.4671  0.0813
  296TMC3    C4 4512   1.205   3.716   1.200  0.0476 -0.4051 -0.5062
  296TMC3    C5 4513   1.138   3.699   1.316 -0.0027 -0.2581 -0.2980
  296TMC3    C6 4514   1.087   3.793   1.396  0.7022 -0.4492 -0.0979
  296TMC3     C 4515   1.292   3.869   1.038  0.3954  0.3141 -0.7567
  296TMC3     O 4516   1.316   3.766   0.977 -1.3453 -0.0279  0.7816
  296TMC3     H 4517   1.195   4.054   1.207  1.2172  0.3998  1.5261
  296TMC3    H1 4518   1.231   3.634   1.134  1.1361 -1.1466  0.8293
  296TMC3    H2 4519   1.025   3.760   1.479 -0.0823  0.5730 -0.2750
  296TMC3    C7 4520   1.124   3.566   1.369 -0.6314 -0.0039  0.2649
  296TMC3    C8 4521   1.066   4.031   1.436 -0.2569 -0.6847  0.3217
  296TMC3    O1 4522   1.023   3.539   1.426  0.0646 -0.4827 -0.3950
  296TMC3    O2 4523   0.984   4.001   1.520  0.1526  0.0916  0.1589
  297MPD2     C 4524   4.406   0.824  16.449 -0.4321  0.2126 -0.2408
  297MPD2    C1 4525   4.424   0.826  16.309 -0.6719 -0.5085 -0.1501
  297MPD2    C2 4526   4.554   0.857  16.271  0.0223 -0.3907  0.0878
  297MPD2    C3 4527   4.656   0.897  16.360  0.1966 -0.6208 -0.6837
  297MPD2    C4 4528   4.637   0.893  16.490  0.2221 -0.4252  0.7858
  297MPD2    C5 4529   4.513   0.853  16.530  0.1264  0.3428  0.1092
  297MPD2     H 4530   4.577   0.868  16.165 -0.7095 -0.3201 -0.0668
  297MPD2    H1 4531   4.715   0.916  16.562 -0.3012  0.2069  1.1452
  297MPD2    H2 4532   4.312   0.812  16.502 -1.2505 -0.2028 -1.7926
  297MPD2    H3 4533   4.500   0.839  16.637 -3.3555 -0.1605 -0.3497
  297MPD2     N 4534   0.043   0.948  16.320 -0.3434 -0.1806  0.6198
  297MPD2    H5 4535   0.111   0.964  16.394  0.2086  0.9510 -0.1510
  297MPD2    N1 4536   4.316   0.825  16.217  0.3926 -0.5093 -0.7288
  297MPD2    H7 4537   4.225   0.834  16.261 -0.1902  0.1431 -2.0801
  298TMC3    C1 4538   4.211   0.855  16.009 -0.5020 -0.2574 -0.8854
  298TMC3    C2 4539   4.198   0.828  15.874 -0.0963  0.2955 -0.4063
  298TMC3    C3 4540   4.094   0.875  15.804  0.6251 -0.6853  0.0775
  298TMC3    C4 4541   4.138   0.953  16.066  0.3636  0.2408 -0.0500
  298TMC3    C5 4542   4.038   1.010  15.990 -0.2115 -0.4877 -0.4071
  298TMC3    C6 4543   4.015   0.974  15.856 -0.0814  0.0079  0.7229
  298TMC3     C 4544   4.324   0.804  16.084 -0.1062 -0.0848  0.1585
  298TMC3     O 4545   4.423   0.770  16.023 -0.0271 -0.1167  0.2454
  298TMC3     H 4546   4.272   0.765  15.827 -2.0377 -1.5080 -1.0785
  298TMC3    H1 4547   4.179   1.006  16.151 -3.1664 -0.5403  2.1522
  298TMC3    H2 4548   3.923   1.002  15.807  1.4389  0.3094 -1.9411
  298TMC3    C7 4549   3.999   1.144  16.035  0.2674 -0.0615  0.1112
  298TMC3    C8 4550   4.063   0.826  15.668  0.3452 -0.2271 -0.3500
  298TMC3    O1 4551   4.033   1.180  16.146  0.3520 -0.2481  0.0926
  298TMC3    O2 4552   3.991   0.897  15.598  0.0807 -0.1198 -0.1729
  299MPD2     C 4553   0.201   0.322  10.623 -0.2058 -0.6840  0.2825
  299MPD2    C1 4554   0.189   0.443  10.549 -0.1286  0.6417 -0.9513
  299MPD2    C2 4555   0.070   0.457  10.484  0.8516  0.6647  0.6348
  299MPD2    C3 4556   4.706   0.358  10.484  0.0929  0.1708  0.9980
  299MPD2    C4 4557   4.727   0.237  10.544  0.0220 -0.2127  0.4856
  299MPD2    C5 4558   0.104   0.225  10.623  0.1292 -0.3410  0.3492
  299MPD2     H 4559   0.052   0.545  10.424  1.6102 -0.4133 -1.1779
  299MPD2    H1 4560   4.657   0.154  10.551  0.1150 -0.1545  2.0822
  299MPD2    H2 4561   0.283   0.305  10.692  1.1787  0.1786 -1.1498
  299MPD2    H3 4562   0.119   0.135  10.682  2.0558  0.1332  0.5759
  299MPD2     N 4563   4.575   0.379  10.420 -0.1234 -0.2564 -0.6374
  299MPD2    H5 4564   4.521   0.294  10.411  0.2592 -0.9457  3.3988
  299MPD2    N1 4565   0.294   0.536  10.557 -0.4156  0.3408 -0.3143
  299MPD2    H7 4566   0.364   0.523  10.629  0.2961  1.7734 -0.7530
  300TMC3    C1 4567   4.390   0.482  10.309  0.9756 -0.3878 -0.2015
  300TMC3    C2 4568   4.354   0.585  10.227 -0.5143 -0.3350 -0.4714
  300TMC3    C3 4569   4.219   0.619  10.219  0.3201 -0.2578  0.6616
  300TMC3    C4 4570   4.298   0.404  10.379 -0.3527 -0.4894  0.0404
  300TMC3    C5 4571   4.173   0.451  10.368  0.3009 -0.3291  0.1704
  300TMC3    C6 4572   4.125   0.554  10.298 -0.1175 -0.8526 -0.4368
  300TMC3     C 4573   4.530   0.492  10.351  0.5438  0.1458  0.5323
  300TMC3     O 4574   4.595   0.590  10.326  0.0363  0.3714  0.1625
  300TMC3     H 4575   4.420   0.629  10.153  0.4753 -0.8293  0.1228
  300TMC3    H1 4576   4.322   0.342  10.465 -2.4720  0.3520  1.2447
  300TMC3    H2 4577   4.021   0.557  10.267 -0.1543  1.7303 -0.0569
  300TMC3    C7 4578   4.069   0.390  10.442  0.2421 -0.0702 -0.7297
  300TMC3    C8 4579   4.187   0.755  10.186  0.1309 -0.3513 -0.0309
  300TMC3    O1 4580   4.077   0.268  10.455 -0.1079  0.3487  0.2381
  300TMC3    O2 4581   4.281   0.832  10.190 -0.2379 -0.1965 -0.5913
  301MPD2     C 4582   2.455   1.818   1.230 -0.2102  0.2352  0.2829
  301MPD2    C1 4583   2.335   1.756   1.215  0.8284  0.6326 -0.2799
  301MPD2    C2 4584   2.318   1.632   1.272  0.0567  0.3493 -0.1204
  301MPD2    C3 4585   2.424   1.565   1.343  0.0353  0.2303 -0.5477
  301MPD2    C4 4586   2.542   1.634   1.354 -0.5740 -0.5848 -0.3882
  301MPD2    C5 4587   2.557   1.758   1.295  0.5413 -0.4738 -0.2233
  301MPD2     H 4588   2.218   1.592   1.276  0.1024 -0.0341 -2.7268
  301MPD2    H1 4589   2.631   1.599   1.404  0.6872 -0.0174 -2.2188
  301MPD2    H2 4590   2.471   1.913   1.179 -1.4584 -0.6621 -1.7715
  301MPD2    H3 4591   2.646   1.819   1.310  0.8224 -0.4909 -1.8379
  301MPD2     N 4592   2.418   1.438   1.403  0.3430 -0.2344 -0.5708
  301MPD2    H5 4593   2.507   1.404   1.437  0.3050  0.4295  0.1925
  301MPD2    N1 4594   2.228   1.811   1.144  0.5000  0.1666 -0.5260
  301MPD2    H7 4595   2.145   1.753   1.131  2.0897 -2.4749  1.0019
  302TMC3    C1 4596   2.301   1.236   1.487 -0.2336 -0.1160 -0.1167
  302TMC3    C2 4597   2.420   1.184   1.536 -0.4027 -0.3593  0.4389
  302TMC3    C3 4598   2.407   1.064   1.595  0.4613 -0.5722 -0.6631
  302TMC3    C4 4599   2.193   1.157   1.463  0.3041 -0.1419 -0.1819
  302TMC3    C5 4600   2.197   1.029   1.504  0.6697 -0.3038 -1.0406
  302TMC3    C6 4601   2.299   0.983   1.585 -0.1511  0.6283 -0.6963
  302TMC3     C 4602   2.301   1.373   1.428  0.1959  0.2072  0.1231
  302TMC3     O 4603   2.191   1.405   1.391  0.1973 -0.0655 -0.5089
  302TMC3     H 4604   2.514   1.236   1.549 -0.6145  0.6541 -1.9334
  302TMC3    H1 4605   2.107   1.197   1.410 -1.4360 -0.7364  2.1927
  302TMC3    H2 4606   2.298   0.889   1.639  2.0463  0.4588 -0.9389
  302TMC3    C7 4607   2.070   0.957   1.511  0.2845  0.3802 -0.6546
  302TMC3    C8 4608   2.516   1.005   1.669 -0.4420 -0.1405  0.5670
  302TMC3    O1 4609   2.065   0.869   1.596  0.1478 -0.2595 -0.3681
  302TMC3    O2 4610   2.527   0.886   1.653  0.2322 -0.2669  0.0707
  303MPD2     C 4611   2.782   0.371  11.051  0.0475  0.3944 -0.2285
  303MPD2    C1 4612   2.694   0.276  10.998  0.0890  0.0985  0.0482
  303MPD2    C2 4613   2.663   0.283  10.863 -0.2368 -0.1291  0.1121
  303MPD2    C3 4614   2.722   0.379  10.782 -0.7897  0.6780 -0.9366
  303MPD2    C4 4615   2.811   0.465  10.841 -0.1683  0.2673 -0.2356
  303MPD2    C5 4616   2.838   0.464  10.976  0.5938 -0.5910  0.1662
  303MPD2     H 4617   2.591   0.208  10.832 -0.2839 -0.5906  1.2929
  303MPD2    H1 4618   2.865   0.538  10.783  0.2841  0.6486  0.6539
  303MPD2    H2 4619   2.796   0.368  11.159 -0.3306 -2.5915 -0.2497
  303MPD2    H3 4620   2.905   0.537  11.019  1.5466 -1.0222 -0.5921
  303MPD2     N 4621   2.692   0.399  10.646  0.1188  0.7027  0.2001
  303MPD2    H5 4622   2.740   0.475  10.598  0.7422 -0.2273 -0.6390
  303MPD2    N1 4623   2.632   0.188  11.089  0.4203  0.1939  0.4318
  303MPD2    H7 4624   2.645   0.205  11.188 -0.0384  0.8053  0.3888
  304TMC3    C1 4625   2.484   0.006  11.162 -0.4371 -0.0895 -0.0825
  304TMC3    C2 4626   2.395   0.088  11.227  0.3121  0.2155  0.4450
  304TMC3    C3 4627   2.285   0.032  11.284  0.3051 -0.2916 -0.2277
  304TMC3    C4 4628   2.469   4.608  11.156  0.2160 -0.3772  0.0496
  304TMC3    C5 4629   2.358   4.555  11.221  1.0388  0.3950 -0.1583
  304TMC3    C6 4630   2.271   4.637  11.289 -0.9272  0.3434 -0.4185
  304TMC3     C 4631   2.564   0.068  11.052 -0.6751  0.5361 -0.3948
  304TMC3     O 4632   2.590   0.001  10.952 -0.3431 -0.1177 -0.2107
  304TMC3     H 4633   2.408   0.191  11.197  1.4302  0.4210  1.6594
  304TMC3    H1 4634   2.536   4.549  11.094  0.3098 -0.4988  0.2681
  304TMC3    H2 4635   2.181   4.588  11.326  0.7857 -0.6571  2.4027
  304TMC3    C7 4636   2.291   4.461  11.137 -0.8021  0.4822 -0.8719
  304TMC3    C8 4637   2.158   0.103  11.269  0.4168  0.0136  0.0143
  304TMC3    O1 4638   2.174   4.495  11.119 -0.1163  0.5160 -0.1500
  304TMC3    O2 4639   2.156   0.224  11.278  0.0692 -0.2033 -0.3704
  305MPD2     C 4640   0.531   1.593  14.021  0.6692 -0.6720 -0.0385
  305MPD2    C1 4641   0.662   1.584  13.986 -0.6674 -0.1295  0.5964
  305MPD2    C2 4642   0.697   1.547  13.860 -0.4170  0.6140  0.8276
  305MPD2    C3 4643   0.600   1.505  13.772 -0.4884 -0.0585  0.2049
  305MPD2    C4 4644   0.468   1.495  13.815 -0.1532 -0.1602 -0.5253
  305MPD2    C5 4645   0.432   1.549  13.939  0.1279  0.6837 -0.0585
  305MPD2     H 4646   0.801   1.564  13.834 -0.0739 -1.1336  1.0282
  305MPD2    H1 4647   0.394   1.453  13.749 -0.1584 -0.1183 -0.5460
  305MPD2    H2 4648   0.505   1.623  14.122  2.3074 -1.1727  0.5249
  305MPD2    H3 4649   0.329   1.532  13.968 -0.0147  3.1810  0.9046
  305MPD2     N 4650   0.621   1.473  13.643 -0.4077 -0.4536 -0.4244
  305MPD2    H5 4651   0.537   1.447  13.591 -0.4705  0.7147 -0.9163
  305MPD2    N1 4652   0.753   1.620  14.084  0.3728 -0.1893 -0.5613
  305MPD2    H7 4653   0.720   1.673  14.165  0.2456 -0.1706 -0.6255
  306TMC3    C1 4654   0.965   1.680  14.166 -0.0256  0.3704 -0.0314
  306TMC3    C2 4655   1.103   1.662  14.179 -0.4660  0.7057 -0.1783
  306TMC3    C3 4656   1.176   1.739  14.270 -0.4669 -0.3144 -0.1754
  306TMC3    C4 4657   0.906   1.778  14.248 -0.7030 -0.8095  0.4253
  306TMC3    C5 4658   0.988   1.854  14.333  0.0744  0.3648 -0.2693
  306TMC3    C6 4659   1.120   1.832  14.345  0.7845 -0.5898  0.2436
  306TMC3     C 4660   0.889   1.595  14.082 -0.2051  0.2796 -0.4036
  306TMC3     O 4661   0.946   1.509  14.017 -0.4747 -0.0559 -0.9239
  306TMC3     H 4662   1.150   1.605  14.099 -0.5737 -1.2589  1.1425
  306TMC3    H1 4663   0.803   1.807  14.233 -0.5463  0.3829  1.6351
  306TMC3    H2 4664   1.168   1.892  14.422  0.2305 -0.2511  0.3256
  306TMC3    C7 4665   0.921   1.965  14.403 -0.3354 -0.3137 -0.2684
  306TMC3    C8 4666   1.300   1.678  14.311  0.1212  0.8751  0.8285
  306TMC3    O1 4667   0.812   2.000  14.356 -0.3922  0.3259  0.1481
  306TMC3    O2 4668   1.308   1.561  14.282  0.1554  0.3357  0.2442
  307MPD2     C 4669   3.370   0.830  17.466  0.3843  1.6071 -0.6213
  307MPD2    C1 4670   3.342   0.888  17.587 -0.3155 -0.4124  0.0081
  307MPD2    C2 4671   3.304   0.809  17.687  0.4523  0.7840  0.0945
  307MPD2    C3 4672   3.297   0.668  17.674 -0.0881  0.2969  0.7865
  307MPD2    C4 4673   3.323   0.613  17.556  0.5485  0.1033  0.1160
  307MPD2    C5 4674   3.369   0.693  17.453 -0.2067 -0.1152  0.2942
  307MPD2     H 4675   3.300   0.858   0.033  1.6429 -1.3907  1.2394
  307MPD2    H1 4676   3.311   0.507  17.534 -1.0577  0.2361  0.3434
  307MPD2    H2 4677   3.413   0.880  17.379  0.3273 -0.2266 -1.7092
  307MPD2    H3 4678   3.386   0.648  17.356 -0.9533 -0.5623  0.3681
  307MPD2     N 4679   3.267   0.586   0.036  0.2931 -0.2341  0.8778
  307MPD2    H5 4680   3.248   0.646   0.116  0.3528  1.2787 -0.2371
  307MPD2    N1 4681   3.333   1.026  17.612  0.0247 -0.6454  0.0786
  307MPD2    H7 4682   3.305   1.058  17.704  0.4208  2.0999 -0.7330
  308TMC3    C1 4683   3.261   0.189   0.310  0.0522 -0.3687  0.4806
  308TMC3    C2 4684   3.237   0.259   0.420 -0.0372  0.1635 -0.1114
  308TMC3    C3 4685   3.193   0.391   0.400  0.0744  0.1822 -0.2414
  308TMC3    C4 4686   3.279   0.257   0.190 -0.6909  0.4355  0.0509
  308TMC3    C5 4687   3.244   0.391   0.171  0.1856  0.4116 -0.1213
  308TMC3    C6 4688   3.182   0.459   0.282  0.6582 -0.9370  0.6224
  308TMC3     C 4689   3.177   0.072   0.296 -0.5809  0.7556  0.2062
  308TMC3     O 4690   3.210   4.738   0.203  0.6045  0.0028 -0.5031
  308TMC3     H 4691   3.220   0.188   0.501  0.3736  0.1567 -0.0319
  308TMC3    H1 4692   3.314   0.193   0.109 -3.4474  0.0775 -0.8527
  308TMC3    H2 4693   3.155   0.564   0.289 -1.1098 -1.3155 -0.4318
  308TMC3    C7 4694   3.281   0.450   0.044 -0.0924 -1.0621 -0.3373
  308TMC3    C8 4695   3.081   0.404   0.486 -0.2769  0.3575 -0.2276
  308TMC3    O1 4696   3.334   0.368  17.718 -1.0364 -0.1516  0.0263
  308TMC3    O2 4697   3.012   0.301   0.504  0.1881  0.4747  0.0268
  309MPD2     C 4698   2.635   0.794  16.912 -0.0428 -0.1377 -0.1451
  309MPD2    C1 4699   2.558   0.760  16.811 -0.6037 -0.3216  0.3273
  309MPD2    C2 4700   2.430   0.710  16.847  0.2394 -0.1500 -0.4545
  309MPD2    C3 4701   2.374   0.707  16.974 -0.2372 -0.5671 -0.3059
  309MPD2    C4 4702   2.460   0.750  17.078  0.4736 -0.0678 -0.0927
  309MPD2    C5 4703   2.590   0.787  17.045 -0.4285  0.3305 -0.0882
  309MPD2     H 4704   2.359   0.673  16.774  1.4923  0.9929 -2.2652
  309MPD2    H1 4705   2.414   0.755  17.176 -1.0198 -0.2800 -0.7860
  309MPD2    H2 4706   2.742   0.815  16.905  0.0131 -0.3306  0.1077
  309MPD2    H3 4707   2.656   0.819  17.125 -1.7770  0.0585  1.1423
  309MPD2     N 4708   2.237   0.679  16.992  0.4037 -0.1799 -0.4575
  309MPD2    H5 4709   2.168   0.691  16.918 -0.2638  0.5546  0.2963
  309MPD2    N1 4710   2.602   0.752  16.674  0.2116 -0.3303 -0.4556
  309MPD2    H7 4711   2.537   0.707  16.610 -0.8469  0.2858  0.1862
  310TMC3    C1 4712   2.740   0.734  16.489 -0.2638 -0.0020  0.5944
  310TMC3    C2 4713   2.639   0.720  16.401 -0.0267  0.5091  0.6843
  310TMC3    C3 4714   2.676   0.653  16.288 -0.5467  0.0814  0.0435
  310TMC3    C4 4715   2.857   0.664  16.484 -0.6078  0.3062  0.3297
  310TMC3    C5 4716   2.876   0.588  16.375 -0.1801  0.1358 -0.1775
  310TMC3    C6 4717   2.791   0.578  16.272  0.4617 -0.4484 -0.1334
  310TMC3     C 4718   2.718   0.796  16.621  0.1940 -0.2201 -0.2971
  310TMC3     O 4719   2.814   0.843  16.683  0.1095 -0.2578  0.1116
  310TMC3     H 4720   2.550   0.780  16.414  0.3508  1.0060  1.0054
  310TMC3    H1 4721   2.919   0.660  16.572  0.0185 -1.4330 -0.1893
  310TMC3    H2 4722   2.797   0.494  16.205 -0.1657 -0.6577  0.0707
  310TMC3    C7 4723   2.971   0.477  16.388  0.3487  0.4486  0.3115
  310TMC3    C8 4724   2.568   0.641  16.199 -0.4930 -0.3338 -0.0874
  310TMC3    O1 4725   2.936   0.374  16.337  0.0633 -0.4762 -0.3431
  310TMC3    O2 4726   2.474   0.719  16.211 -0.5862 -0.1534 -0.0675
  311MPD2     C 4727   4.311   2.076  12.176  0.0750  0.1984 -0.0066
  311MPD2    C1 4728   4.377   2.104  12.295 -0.1594  0.6763  0.2121
  311MPD2    C2 4729   4.334   2.038  12.413 -0.0774 -0.1461  0.4279
  311MPD2    C3 4730   4.222   1.963  12.415  0.1308 -0.2976 -0.2346
  311MPD2    C4 4731   4.162   1.927  12.295 -0.3954 -0.1166  0.4345
  311MPD2    C5 4732   4.209   1.988  12.181  0.2905 -0.0739  0.4306
  311MPD2     H 4733   4.390   2.060  12.503 -0.1145 -1.8097  0.8584
  311MPD2    H1 4734   4.076   1.860  12.295 -1.6491  1.4770  0.2164
  311MPD2    H2 4735   4.338   2.123  12.082 -1.6994 -1.8020 -1.5265
  311MPD2    H3 4736   4.146   1.954  12.099  1.8372 -0.4029 -0.6281
  311MPD2     N 4737   4.183   1.918  12.545  0.2309  0.2752  0.5609
  311MPD2    H5 4738   4.236   1.942  12.628 -0.0274 -0.6798  1.0073
  311MPD2    N1 4739   4.491   2.183  12.295 -0.2250 -0.4156 -0.1110
  311MPD2    H7 4740   4.530   2.197  12.388 -1.6694 -0.1553  0.4560
  312TMC3    C1 4741   4.039   1.799  12.699 -0.0987  0.0260  0.0316
  312TMC3    C2 4742   3.913   1.751  12.721  0.6675  0.6855  0.1770
  312TMC3    C3 4743   3.875   1.712  12.849 -0.7404 -0.0676  0.5355
  312TMC3    C4 4744   4.122   1.820  12.806  0.3151  0.0066 -0.1316
  312TMC3    C5 4745   4.081   1.774  12.929  0.2140 -0.5348 -1.0535
  312TMC3    C6 4746   3.958   1.720  12.955  1.5972  0.4014 -0.3866
  312TMC3     C 4747   4.070   1.842  12.567  0.3980 -0.2854  0.5289
  312TMC3     O 4748   3.976   1.822  12.489  0.6052  0.0798  0.5819
  312TMC3     H 4749   3.839   1.741  12.642 -0.5937  0.6074  1.3580
  312TMC3    H1 4750   4.226   1.849  12.803  0.4837 -0.6273 -0.5925
  312TMC3    H2 4751   3.928   1.688  13.054 -1.0205  2.1574 -0.6334
  312TMC3    C7 4752   4.145   1.843  13.043 -0.1656  0.3255 -0.1762
  312TMC3    C8 4753   3.749   1.646  12.884  0.9075  0.7556 -0.1988
  312TMC3    O1 4754   4.193   1.952  13.010 -0.0677 -0.2880 -0.1824
  312TMC3    O2 4755   3.731   1.603  13.000 -0.3035  0.7631 -0.2256
  313MPD2     C 4756   3.187   1.211  11.392 -0.9121 -0.7303  0.0792
  313MPD2    C1 4757   3.200   1.272  11.270 -0.3056  0.4891  0.7153
  313MPD2    C2 4758   3.142   1.213  11.158  0.3486 -0.5815  0.3227
  313MPD2    C3 4759   3.091   1.093  11.167 -0.0152  0.7280 -1.1587
  313MPD2    C4 4760   3.086   1.022  11.285 -0.1972 -0.1481  0.5299
  313MPD2    C5 4761   3.128   1.091  11.398 -0.0759 -0.9327  0.2864
  313MPD2     H 4762   3.145   1.258  11.059  2.2485 -1.3636  0.0221
  313MPD2    H1 4763   3.032   0.929  11.298 -2.2547  0.8073 -1.1584
  313MPD2    H2 4764   3.228   1.251  11.484 -0.2694  0.2867 -0.6539
  313MPD2    H3 4765   3.102   1.045  11.493 -3.4987  0.6368  0.1316
  313MPD2     N 4766   3.039   1.045  11.046 -0.0252  0.1180 -0.1467
  313MPD2    H5 4767   3.042   1.108  10.967  4.0657  0.0150 -0.0884
  313MPD2    N1 4768   3.250   1.407  11.252  0.3160  0.0893 -0.3047
  313MPD2    H7 4769   3.225   1.455  11.166  1.6819  0.7454 -0.3354
  314TMC3    C1 4770   3.360   1.614  11.272  0.4865  0.0667  0.5828
  314TMC3    C2 4771   3.493   1.656  11.277 -0.5341 -0.7080  0.6475
  314TMC3    C3 4772   3.535   1.741  11.179 -0.0860  0.2540  0.3007
  314TMC3    C4 4773   3.269   1.651  11.177  0.3237 -0.0413 -0.2111
  314TMC3    C5 4774   3.317   1.740  11.081  0.4725 -0.5057  0.4347
  314TMC3    C6 4775   3.447   1.779  11.074  0.3963 -0.1446 -0.2614
  314TMC3     C 4776   3.319   1.492  11.336 -0.1262  0.6528 -0.9726
  314TMC3     O 4777   3.350   1.475  11.453 -0.2347  0.6833  0.5721
  314TMC3     H 4778   3.559   1.621  11.356  0.2708 -1.4547 -0.3572
  314TMC3    H1 4779   3.165   1.622  11.191  0.7603 -0.5770  1.9271
  314TMC3    H2 4780   3.481   1.856  11.006  0.8006 -1.1274 -1.1609
  314TMC3    C7 4781   3.237   1.739  10.960 -0.4396 -0.6705 -0.6477
  314TMC3    C8 4782   3.676   1.761  11.148 -0.1851  0.1790 -0.0612
  314TMC3    O1 4783   3.119   1.706  10.974 -0.4251 -0.3505  0.4565
  314TMC3    O2 4784   3.700   1.802  11.037 -0.0779  0.4850  0.0842
  315MPD2     C 4785   3.531   0.992   0.176 -0.2890 -0.3272  0.8734
  315MPD2    C1 4786   3.605   0.888   0.113 -0.3060 -0.0559  0.2376
  315MPD2    C2 4787   3.680   0.919   0.002  0.5341 -0.4637  0.1297
  315MPD2    C3 4788   3.693   1.048  17.710 -0.2714  1.0113  0.8274
  315MPD2    C4 4789   3.636   1.151   0.028  0.3564 -0.0363  0.2156
  315MPD2    C5 4790   3.553   1.115   0.127  0.0567 -0.4366  0.4934
  315MPD2     H 4791   3.740   0.841  17.708 -1.6245 -2.4856  0.7300
  315MPD2    H1 4792   3.629   1.251  17.736 -1.4717 -0.1157  0.3057
  315MPD2    H2 4793   3.466   0.981   0.262 -2.0243  0.2594 -0.3558
  315MPD2    H3 4794   3.500   1.191   0.183 -0.1039  0.9337 -1.5430
  315MPD2     N 4795   3.791   1.074  17.610 -1.0414 -0.6048  0.7318
  315MPD2    H5 4796   3.840   0.992  17.576 -1.3649 -1.2440  1.8283
  315MPD2    N1 4797   3.601   0.749   0.153 -0.1018 -0.1511  0.1889
  315MPD2    H7 4798   3.680   0.696   0.119 -0.1129 -0.4157  0.5801
  316TMC3    C1 4799   3.957   1.179  17.475 -0.6498 -0.4171 -0.7461
  316TMC3    C2 4800   4.057   1.108  17.540 -0.0602  0.9169  0.2068
  316TMC3    C3 4801   4.187   1.150  17.519  0.1151  0.1515 -0.2900
  316TMC3    C4 4802   3.986   1.281  17.385 -0.4714 -0.2495 -1.5611
  316TMC3    C5 4803   4.116   1.314  17.367  0.3631 -0.6988 -0.8714
  316TMC3    C6 4804   4.215   1.261  17.442  0.1043 -0.1304 -0.0865
  316TMC3     C 4805   3.826   1.189  17.545 -0.1593 -0.3727 -0.5617
  316TMC3     O 4806   3.791   1.304  17.559  0.4273 -0.1079 -0.0131
  316TMC3     H 4807   4.039   1.032  17.615  0.6409  0.9058  0.3638
  316TMC3    H1 4808   3.900   1.316  17.329 -1.3643  1.5866  0.9184
  316TMC3    H2 4809   4.318   1.294  17.438 -0.2437  1.1589  1.8033
  316TMC3    C7 4810   4.153   1.377  17.243  0.2698  1.0519 -0.1974
  316TMC3    C8 4811   4.280   1.106  17.623 -0.0271 -0.0185  0.3948
  316TMC3    O1 4812   4.278   1.370  17.228 -0.0201 -0.1043  0.5633
  316TMC3    O2 4813   4.316   1.190  17.709  0.2446 -0.1251 -0.5843
  317MPD2     C 4814   0.743   3.487  12.715  0.2277  0.3239  0.2363
  317MPD2    C1 4815   0.854   3.407  12.702 -0.0329  0.4931  0.1122
  317MPD2    C2 4816   0.906   3.345  12.813  0.2540 -0.4407 -0.0074
  317MPD2    C3 4817   0.851   3.360  12.939 -0.3200 -0.6823 -0.4608
  317MPD2    C4 4818   0.733   3.434  12.957  0.3655  0.3286  0.3564
  317MPD2    C5 4819   0.690   3.500  12.844  0.4413  0.4665 -0.5795
  317MPD2     H 4820   1.000   3.292  12.805 -1.2846 -2.8842 -1.8587
  317MPD2    H1 4821   0.690   3.449  13.055 -0.6806  1.1837 -0.2359
  317MPD2    H2 4822   0.679   3.524  12.636 -0.5390  3.1705  2.1767
  317MPD2    H3 4823   0.597   3.547  12.873  1.3810  3.1525 -1.8737
  317MPD2     N 4824   0.911   3.293  13.050  0.0572 -0.4330  0.1593
  317MPD2    H5 4825   1.001   3.250  13.032  0.1953 -0.2160  0.3285
  317MPD2    N1 4826   0.918   3.389  12.579  0.7002  0.3653  0.0686
  317MPD2    H7 4827   1.004   3.335  12.578  0.1485 -0.4841 -2.0326
  318TMC3    C1 4828   0.934   3.175  13.247 -0.2852 -0.9126 -0.0459
  318TMC3    C2 4829   0.860   3.093  13.324  0.3894  0.0633 -0.2332
  318TMC3    C3 4830   0.924   2.980  13.353  0.3245 -0.6155  0.4846
  318TMC3    C4 4831   1.066   3.168  13.216  0.5578  0.5054 -0.1582
  318TMC3    C5 4832   1.124   3.058  13.268 -0.4233  0.0876  0.2473
  318TMC3    C6 4833   1.056   2.961  13.330 -0.0984 -0.1305  0.5615
  318TMC3     C 4834   0.853   3.267  13.173  0.5449  0.0963 -0.9845
  318TMC3     O 4835   0.746   3.301  13.221  0.2252  0.5314  0.3432
  318TMC3     H 4836   0.773   3.134  13.374  0.4491  0.7518 -0.6951
  318TMC3    H1 4837   1.120   3.243  13.160  0.8521 -1.5457 -2.6203
  318TMC3    H2 4838   1.104   2.866  13.351  2.1642  0.9274  0.2603
  318TMC3    C7 4839   1.266   3.041  13.246  0.0627 -0.5306 -0.2822
  318TMC3    C8 4840   0.843   2.861  13.352 -0.1721  0.7036 -0.0270
  318TMC3    O1 4841   1.313   3.110  13.157 -0.7358 -0.7872 -0.3302
  318TMC3    O2 4842   0.899   2.751  13.346  0.1272  0.2951  0.4812
  319MPD2     C 4843   1.926   4.703  16.002 -0.2692  0.1519 -0.1919
  319MPD2    C1 4844   1.840   4.671  16.106 -0.4923 -0.0910 -0.1157
  319MPD2    C2 4845   1.745   4.578  16.078 -0.1557 -0.0658  0.0317
  319MPD2    C3 4846   1.735   4.508  15.956 -0.5331 -0.0659  0.0503
  319MPD2    C4 4847   1.825   4.547  15.859 -0.0906 -0.1737  0.2432
  319MPD2    C5 4848   1.908   4.648  15.879  1.2496 -0.2334 -0.0921
  319MPD2     H 4849   1.662   4.574  16.147  1.0786 -0.8522  1.4819
  319MPD2    H1 4850   1.833   4.505  15.760 -1.0231  1.4699 -0.5283
  319MPD2    H2 4851   2.000   0.044  16.000  0.3561 -0.4079  0.7896
  319MPD2    H3 4852   1.968   4.684  15.797  2.9344 -0.2908  1.1290
  319MPD2     N 4853   1.647   4.398  15.943 -0.0515  0.2757  0.4292
  319MPD2    H5 4854   1.627   4.360  15.851 -0.5607  1.6415 -0.0350
  319MPD2    N1 4855   1.838   0.009  16.225 -0.8632 -0.3399 -0.6364
  319MPD2    H7 4856   1.756   4.729  16.281  0.6326  1.7805  2.2098
  320TMC3    C1 4857   1.465   4.257  16.035  0.9839 -0.3251  0.4657
  320TMC3    C2 4858   1.379   4.289  15.933 -0.1421  0.2826 -0.6167
  320TMC3    C3 4859   1.255   4.222  15.927 -0.2244 -0.2620  0.1889
  320TMC3    C4 4860   1.438   4.161  16.129 -0.9259  0.2614  0.4811
  320TMC3    C5 4861   1.310   4.112  16.124 -0.1097  0.2878  0.0923
  320TMC3    C6 4862   1.221   4.138  16.027 -0.1343 -0.8625  0.0608
  320TMC3     C 4863   1.590   4.335  16.053  0.5407 -0.2041  0.2091
  320TMC3     O 4864   1.632   4.332  16.167 -0.2707 -0.2619  0.1418
  320TMC3     H 4865   1.399   4.361  15.854 -2.2133 -0.0189 -1.4013
  320TMC3    H1 4866   1.515   4.135  16.201 -1.6140 -1.3791  0.6189
  320TMC3    H2 4867   1.122   4.097  16.046 -0.2878  0.0512  1.2105
  320TMC3    C7 4868   1.286   3.993  16.202  0.0291 -0.1960 -0.3628
  320TMC3    C8 4869   1.146   4.307  15.882 -0.1274  0.0296 -0.6867
  320TMC3    O1 4870   1.217   3.907  16.156 -0.2091  0.2407  0.5025
  320TMC3    O2 4871   1.179   4.392  15.804  0.4864 -0.2403  0.1890
  321TMC3    C1 4872   1.891   0.168  16.394  0.4750 -0.4893  0.0116
  321TMC3    C2 4873   1.826   0.087  16.483 -0.4450 -0.7102  0.0122
  321TMC3    C3 4874   1.836   0.117  16.619  0.3771  0.2219  0.9652
  321TMC3    C4 4875   1.980   0.266  16.435 -0.2140 -0.0611 -0.1980
  321TMC3    C5 4876   1.996   0.284  16.569 -0.5861  0.2305 -0.2165
  321TMC3    C6 4877   1.914   0.220  16.655  0.5242  0.1693  0.0493
  321TMC3     C 4878   1.916   0.109  16.257 -0.1146  0.1705 -0.6654
  321TMC3     O 4879   2.019   0.148  16.204  0.2596  0.0355 -0.2848
  321TMC3     H 4880   1.779   4.734  16.449 -3.0126  0.3347  0.7429
  321TMC3    H1 4881   2.051   0.305  16.364 -0.1884 -1.2908 -0.8564
  321TMC3    H2 4882   1.903   0.249  16.759 -1.6857 -2.9126  0.6567
  321TMC3    C7 4883   2.133   0.307  16.613 -0.0830  0.2672  0.2550
  321TMC3    C8 4884   1.859   0.008  16.708  0.4532 -1.1834 -0.1102
  321TMC3    O1 4885   2.217   0.368  16.548  0.0780  0.1977  0.2421
  321TMC3    O2 4886   1.951   0.038  16.786 -1.0920  0.1011  0.6703
  322MPD2     C 4887   1.260   0.907  13.055 -0.3268 -0.2288  0.0613
  322MPD2    C1 4888   1.205   0.864  13.171 -0.2893  0.2401 -0.0313
  322MPD2    C2 4889   1.244   0.742  13.225 -0.3266  0.7486 -0.2316
  322MPD2    C3 4890   1.344   0.674  13.163  0.4516  0.6269  0.0739
  322MPD2    C4 4891   1.392   0.707  13.033  0.7549 -0.9006  0.0903
  322MPD2    C5 4892   1.345   0.824  12.981  0.4449 -0.0331 -0.5411
  322MPD2     H 4893   1.203   0.702  13.318  1.0237  1.2485  0.5736
  322MPD2    H1 4894   1.466   0.655  12.973  0.1413 -0.2475 -1.2378
  322MPD2    H2 4895   1.251   1.011  13.023  0.6702  0.0793  0.7759
  322MPD2    H3 4896   1.372   0.865  12.884 -2.0603  2.1777 -0.3345
  322MPD2     N 4897   1.407   0.558  13.226 -0.0675 -0.1012  0.3247
  322MPD2    H5 4898   1.366   0.525  13.313 -1.0591 -2.1936 -0.9289
  322MPD2    N1 4899   1.118   0.953  13.236  0.1457 -0.1636 -0.4173
  322MPD2    H7 4900   1.107   1.047  13.199 -0.1608  0.1362  0.4401
  323TMC3    C1 4901   1.054   1.051  13.436  0.0176 -0.0475 -0.7033
  323TMC3    C2 4902   1.146   1.150  13.406 -0.3293  0.3937  0.2892
  323TMC3    C3 4903   1.159   1.252  13.497 -0.2422 -0.9768  0.2895
  323TMC3    C4 4904   0.976   1.054  13.544  0.4388 -0.3350 -0.6559
  323TMC3    C5 4905   0.998   1.156  13.631 -0.0390  0.1226  0.3878
  323TMC3    C6 4906   1.088   1.249  13.612  0.7231 -0.1251  0.5276
  323TMC3     C 4907   1.069   0.926  13.360  0.4467  1.0799  0.0107
  323TMC3     O 4908   1.011   0.833  13.411  0.5791 -0.2601  0.2146
  323TMC3     H 4909   1.210   1.150  13.319  0.8525  2.2517  1.1531
  323TMC3    H1 4910   0.913   0.969  13.564  0.0727 -0.5029 -2.4950
  323TMC3    H2 4911   1.080   1.345  13.662  0.4370 -0.0983  0.4333
  323TMC3    C7 4912   0.968   1.134  13.775 -0.2348 -0.2200  0.1147
  323TMC3    C8 4913   1.292   1.309  13.522 -0.8736  0.5816  0.9701
  323TMC3    O1 4914   0.895   1.039  13.800  0.6222  1.0642  0.7671
  323TMC3    O2 4915   1.319   1.348  13.635 -0.5691  0.4357 -0.2509
  324MPD2     C 4916   2.111   1.989  14.594 -0.1969  0.1906 -0.0600
  324MPD2    C1 4917   2.129   2.064  14.480  0.0914 -0.3286  0.1598
  324MPD2    C2 4918   2.018   2.123  14.414 -0.2536 -0.7226  0.0603
  324MPD2    C3 4919   1.895   2.124  14.476 -0.2524 -0.4476  0.1803
  324MPD2    C4 4920   1.878   2.044  14.581 -0.3314 -0.1635 -0.1088
  324MPD2    C5 4921   1.983   1.980  14.645  0.1978  0.6023  0.5293
  324MPD2     H 4922   2.039   2.182  14.325  0.2783  0.6133  1.0810
  324MPD2    H1 4923   1.785   2.020  14.632 -0.2475 -1.5382 -0.6162
  324MPD2    H2 4924   2.196   1.945  14.646 -0.1225 -1.7429 -1.8086
  324MPD2    H3 4925   1.956   1.916  14.729  0.9834  0.7562  0.8968
  324MPD2     N 4926   1.772   2.175  14.420  0.2310  0.0218  0.0966
  324MPD2    H5 4927   1.682   2.151  14.459 -0.9397 -0.8694 -3.1859
  324MPD2    N1 4928   2.259   2.104  14.431 -0.0307  0.3366  0.0293
  324MPD2    H7 4929   2.264   2.173  14.357  0.5245  0.5204  0.2308
  325TMC3    C1 4930   1.634   2.299  14.283 -0.6562  0.9897 -0.4512
  325TMC3    C2 4931   1.532   2.207  14.275 -0.0799  0.7445  0.7087
  325TMC3    C3 4932   1.405   2.254  14.238 -0.1731  0.4290  0.1750
  325TMC3    C4 4933   1.616   2.428  14.239  0.3159 -0.6598  0.0881
  325TMC3    C5 4934   1.493   2.472  14.210 -0.1436  0.9133  0.4155
  325TMC3    C6 4935   1.393   2.385  14.201 -0.4403 -0.6673 -0.0350
  325TMC3     C 4936   1.767   2.265  14.321  0.2433  0.2717 -0.0332
  325TMC3     O 4937   1.855   2.324  14.262  0.0389  0.2312 -0.2428
  325TMC3     H 4938   1.542   2.104  14.307 -1.1999  0.5053  0.3137
  325TMC3    H1 4939   1.691   2.504  14.258  0.0148 -0.5203  0.7076
  325TMC3    H2 4940   1.300   2.421  14.158  0.0754 -1.1470 -1.5594
  325TMC3    C7 4941   1.463   2.613  14.205 -0.0799 -0.1945  0.5070
  325TMC3    C8 4942   1.305   2.148  14.215  0.3839 -0.4096  0.1297
  325TMC3    O1 4943   1.564   2.684  14.190 -0.6137 -0.1169 -0.1637
  325TMC3    O2 4944   1.342   2.029  14.236  0.1092  0.1608 -0.4954
  326MPD2     C 4945   3.261   3.447  10.937  0.1485  0.0897 -1.1237
  326MPD2    C1 4946   3.270   3.501  10.811 -0.1789 -0.0309 -0.5901
  326MPD2    C2 4947   3.364   3.598  10.796  0.0347  0.2025 -0.4369
  326MPD2    C3 4948   3.453   3.640  10.896  1.3157  0.3073 -0.3417
  326MPD2    C4 4949   3.451   3.572  11.016  0.0480 -0.7330 -0.2331
  326MPD2    C5 4950   3.353   3.478  11.032  0.5647 -0.2954 -0.2715
  326MPD2     H 4951   3.365   3.639  10.696 -0.8480  1.9585  0.2742
  326MPD2    H1 4952   3.523   3.596  11.093 -0.0182 -0.4212 -0.2684
  326MPD2    H2 4953   3.182   3.374  10.955 -0.3986  1.0413  0.3761
  326MPD2    H3 4954   3.344   3.432  11.130  1.3678  1.8253  0.8072
  326MPD2     N 4955   3.545   3.739  10.855  0.3769  0.1601  0.0409
  326MPD2    H5 4956   3.546   3.769  10.758 -1.9405  0.6282  0.1511
  326MPD2    N1 4957   3.199   3.471  10.697  0.1899  0.8770 -0.3353
  326MPD2    H7 4958   3.221   3.522  10.612  1.5910 -0.9318 -1.0536
  327TMC3    C1 4959   3.072   3.349  10.551  0.5269 -0.2406 -0.5642
  327TMC3    C2 4960   2.998   3.456  10.504  0.1272  0.1308  0.8175
  327TMC3    C3 4961   2.985   3.471  10.370 -0.6706 -0.2928 -0.2984
  327TMC3    C4 4962   3.148   3.271  10.467 -0.4895  0.0477  0.2385
  327TMC3    C5 4963   3.151   3.306  10.334 -0.1648 -0.3752 -0.4145
  327TMC3    C6 4964   3.062   3.397  10.285  0.0352  0.5574 -0.1147
  327TMC3     C 4965   3.116   3.365  10.680  0.9137 -0.7667 -0.0309
  327TMC3     O 4966   3.084   3.276  10.753 -0.0415  0.4077 -0.2360
  327TMC3     H 4967   2.953   3.514  10.584 -1.1801  1.4650 -0.8883
  327TMC3    H1 4968   3.201   3.186  10.507 -0.6594 -0.0420  0.2730
  327TMC3    H2 4969   3.059   3.415  10.178  1.2373 -0.2297 -0.2794
  327TMC3    C7 4970   3.284   3.304  10.271  0.3353 -0.6295 -0.1876
  327TMC3    C8 4971   2.934   3.607  10.331  0.2904 -0.2760 -0.0991
  327TMC3    O1 4972   3.287   3.314  10.151 -0.1683  0.0127 -0.1766
  327TMC3    O2 4973   2.958   3.632  10.213  0.7903  0.7110  0.0819
  328MPD2     C 4974   1.516   3.771  17.105 -0.1684 -1.0289 -0.3058
  328MPD2    C1 4975   1.410   3.703  17.161 -0.3232  0.2668  0.2737
  328MPD2    C2 4976   1.295   3.689  17.092  0.2986 -0.0621  0.0133
  328MPD2    C3 4977   1.282   3.752  16.964 -0.1244 -0.0120 -0.0809
  328MPD2    C4 4978   1.387   3.834  16.919  0.5908 -0.0079 -0.4206
  328MPD2    C5 4979   1.508   3.840  16.985  0.1206 -0.3530 -0.6145
  328MPD2     H 4980   1.209   3.637  17.132 -0.4102 -0.2565 -1.7375
  328MPD2    H1 4981   1.370   3.884  16.824 -1.3600 -1.8945 -1.0495
  328MPD2    H2 4982   1.603   3.784  17.167  0.0010  2.0245 -1.1722
  328MPD2    H3 4983   1.587   3.908  16.958  1.0913 -2.2676 -2.6092
  328MPD2     N 4984   1.158   3.753  16.896  0.0280 -0.4773  0.0841
  328MPD2    H5 4985   1.135   3.802  16.810  0.9842 -1.7680 -0.9151
  328MPD2    N1 4986   1.420   3.673  17.295 -0.0345  0.5438 -0.3496
  328MPD2    H7 4987   1.486   3.731  17.347  1.0183 -0.2267 -0.8266
  329TMC3    C1 4988   1.334   3.607  17.504  0.3351  0.6799  0.0281
  329TMC3    C2 4989   1.357   3.734  17.560  0.1640 -0.3964  0.2128
  329TMC3    C3 4990   1.271   3.784  17.652  0.3758  0.2336  0.1073
  329TMC3    C4 4991   1.249   3.523  17.573  0.6010  0.4725  0.1618
  329TMC3    C5 4992   1.167   3.572  17.676  0.0387 -0.3131  0.3921
  329TMC3    C6 4993   1.178   3.704  17.717  0.0624  0.2768  0.0095
  329TMC3     C 4994   1.333   3.592  17.362 -0.7670  0.6768  0.9757
  329TMC3     O 4995   1.258   3.508  17.317 -0.1012  0.1045 -0.5065
  329TMC3     H 4996   1.433   3.797  17.515 -0.1404 -1.7049 -2.1257
  329TMC3    H1 4997   1.232   3.424  17.531 -1.0492 -0.2551  2.5609
  329TMC3    H2 4998   1.093   3.737   0.024 -0.2394 -0.6381  0.0914
  329TMC3    C7 4999   1.105   3.481   0.014  0.7043  0.2950  0.0197
  329TMC3    C8 5000   1.228   3.918  17.619  0.2222  0.6129  0.0994
  329TMC3    O1 5001   1.057   3.381  17.712 -0.5308  0.1121 -0.6677
  329TMC3    O2 5002   1.255   3.960  17.504 -0.3002  0.3596 -0.7846
  330TMC3    C1 5003   4.037   3.452   9.267 -0.3356 -0.0559 -0.4168
  330TMC3    C2 5004   3.950   3.390   9.176 -0.0681  0.7939 -1.1472
  330TMC3    C3 5005   3.995   3.266   9.120 -0.1073  0.4954  0.1934
  330TMC3    C4 5006   4.150   3.398   9.310  0.7488 -0.2637  0.1484
  330TMC3    C5 5007   4.170   3.267   9.275  0.2605  0.3000  0.3784
  330TMC3    C6 5008   4.095   3.196   9.186 -0.1024 -0.3478  0.5607
  330TMC3     C 5009   3.986   3.572   9.333 -0.2004 -0.2082 -0.0774
  330TMC3     O 5010   4.059   3.655   9.387  0.1827 -0.5572  0.2985
  330TMC3     H 5011   3.864   3.437   9.130 -1.1361 -0.9257 -0.9029
  330TMC3    H1 5012   4.231   3.453   9.357 -0.5198 -1.5953  3.8314
  330TMC3    H2 5013   4.105   3.092   9.155  0.7901  0.2225 -1.1034
  330TMC3    C7 5014   4.302   3.212   9.318 -0.3327  0.6142 -0.3892
  330TMC3    C8 5015   3.896   3.197   9.048 -0.1601  0.0512  0.7731
  330TMC3    O1 5016   4.375   3.281   9.387 -0.3612  0.3787 -0.1148
  330TMC3    O2 5017   3.869   3.244   8.940 -0.2306 -0.5572 -0.1279
  331MPD2     C 5018   1.900   1.582  12.949 -0.7186 -0.0187  0.3107
  331MPD2    C1 5019   1.822   1.498  12.880 -0.0622  0.3880  0.8241
  331MPD2    C2 5020   1.859   1.364  12.888 -0.4203 -0.5704 -0.1661
  331MPD2    C3 5021   1.969   1.322  12.959  0.2145 -0.5137 -0.0012
  331MPD2    C4 5022   2.037   1.409  13.040  0.1304 -0.9104 -0.1951
  331MPD2    C5 5023   2.000   1.540  13.024 -0.0640  0.1452 -0.4632
  331MPD2     H 5024   1.802   1.290  12.834  1.0370 -0.9408 -1.2170
  331MPD2    H1 5025   2.120   1.394  13.109 -1.1486  0.0037  1.5255
  331MPD2    H2 5026   1.883   1.689  12.955 -1.5417 -0.0478 -1.4590
  331MPD2    H3 5027   2.065   1.603  13.083  1.8454 -1.7056 -0.5984
  331MPD2     N 5028   2.002   1.181  12.949  0.2002 -0.3183 -0.2778
  331MPD2    H5 5029   1.931   1.120  12.909  0.4706 -0.2975 -0.7850
  331MPD2    N1 5030   1.720   1.546  12.791  0.2271  0.0253  0.4824
  331MPD2    H7 5031   1.726   1.646  12.774 -0.8605  0.1019  0.5203
  332TMC3    C1 5032   2.090   0.971  12.998 -0.3023  0.5504 -0.2742
  332TMC3    C2 5033   2.032   0.923  12.873 -0.1984 -0.2972  0.4933
  332TMC3    C3 5034   2.053   0.796  12.841 -0.4682 -0.2138  0.3310
  332TMC3    C4 5035   2.172   0.893  13.078  0.3611  0.0418 -0.1882
  332TMC3    C5 5036   2.185   0.767  13.035  0.1242  0.7786 -0.6383
  332TMC3    C6 5037   2.129   0.718  12.923 -0.2842  0.2055 -0.5115
  332TMC3     C 5038   2.112   1.116  13.003  0.2152  0.0336 -0.2881
  332TMC3     O 5039   2.200   1.161  13.073 -0.0342 -0.0577 -0.3439
  332TMC3     H 5040   1.958   0.984  12.823 -1.7471 -2.6218 -0.0623
  332TMC3    H1 5041   2.214   0.926  13.173 -0.4734  1.6719 -0.3758
  332TMC3    H2 5042   2.142   0.614  12.892 -0.2097  0.2625 -0.6737
  332TMC3    C7 5043   2.298   0.695  13.086  0.0614 -0.4468  0.8031
  332TMC3    C8 5044   2.003   0.756  12.715 -0.2542 -0.3326 -0.2795
  332TMC3    O1 5045   2.305   0.575  13.076 -0.1686 -0.3979  0.3514
  332TMC3    O2 5046   1.956   0.834  12.637  0.1285  0.1410 -0.2238
  333MPD2     C 5047   1.860   1.967  11.160  0.6502 -0.3122  0.4481
  333MPD2    C1 5048   1.960   1.876  11.171 -0.2454  0.1860 -0.8909
  333MPD2    C2 5049   1.936   1.758  11.247  0.9495  0.3050  0.0721
  333MPD2    C3 5050   1.812   1.725  11.300 -0.0436  0.7346 -0.0932
  333MPD2    C4 5051   1.710   1.824  11.288 -0.1497  0.1169  0.0843
  333MPD2    C5 5052   1.735   1.944  11.219 -0.0504  0.5518 -0.7272
  333MPD2     H 5053   2.013   1.683  11.256 -1.2599 -2.0451 -0.6176
  333MPD2    H1 5054   1.613   1.811  11.335 -0.0917  0.7536  0.3815
  333MPD2    H2 5055   1.878   2.067  11.123 -0.4336  0.6578  2.4835
  333MPD2    H3 5056   1.661   2.023  11.222 -0.2543  0.2247  2.8589
  333MPD2     N 5057   1.793   1.599  11.365  0.6403 -0.0046 -0.3965
  333MPD2    H5 5058   1.880   1.547  11.373 -0.5898 -1.7676  1.5750
  333MPD2    N1 5059   2.083   1.910  11.126  0.1370 -0.1624  0.2545
  333MPD2    H7 5060   2.090   2.000  11.081 -0.5286 -0.6712 -0.8620
  334TMC3    C1 5061   2.300   1.883  11.038 -1.1605  0.0846 -0.1911
  334TMC3    C2 5062   2.358   1.828  10.930 -0.4054  0.5831  0.1515
  334TMC3    C3 5063   2.464   1.897  10.872 -0.3944  0.0821 -0.2223
  334TMC3    C4 5064   2.346   2.002  11.095  0.4356  0.0005 -0.8230
  334TMC3    C5 5065   2.461   2.056  11.039 -0.3314 -0.0245 -0.6832
  334TMC3    C6 5066   2.526   2.005  10.926  0.2070  0.1733  0.3838
  334TMC3     C 5067   2.177   1.817  11.083 -0.5908  0.3365 -0.0130
  334TMC3     O 5068   2.159   1.695  11.069 -0.3322  0.1154  0.4512
  334TMC3     H 5069   2.310   1.752  10.869  0.8512  1.0518 -1.4301
  334TMC3    H1 5070   2.298   2.035  11.186  1.2592  2.2744 -1.2179
  334TMC3    H2 5071   2.616   2.054  10.889  0.7655 -0.7471  0.5289
  334TMC3    C7 5072   2.480   2.198  11.066  0.4624  0.5212  0.5875
  334TMC3    C8 5073   2.505   1.849  10.740  0.0760 -0.4814 -0.0560
  334TMC3    O1 5074   2.558   2.258  10.994  0.0857 -0.8600  0.1437
  334TMC3    O2 5075   2.456   1.743  10.695  0.2546  0.3292 -0.0408
  335TMC3    C1 5076   1.837   3.302  17.407 -0.4335 -0.2900  1.0466
  335TMC3    C2 5077   1.780   3.249  17.295  0.9256 -0.1619  0.9410
  335TMC3    C3 5078   1.874   3.212  17.196 -0.0108 -0.6132 -0.2420
  335TMC3    C4 5079   1.973   3.311  17.437  0.4197 -0.4431  0.7523
  335TMC3    C5 5080   2.055   3.276  17.334  0.0565 -0.4335  0.4596
  335TMC3    C6 5081   2.014   3.231  17.213 -0.0282 -0.0071 -1.0919
  335TMC3     C 5082   1.745   3.357  17.510  0.6559  0.0707  0.4979
  335TMC3     O 5083   1.792   3.448  17.576  0.5441 -0.2002 -0.4380
  335TMC3     H 5084   1.674   3.251  17.272  1.1865 -0.2649 -0.2673
  335TMC3    H1 5085   2.009   3.344  17.534  1.5404 -5.3752  2.0128
  335TMC3    H2 5086   2.083   3.196  17.137  1.0084 -2.3129  0.9387
  335TMC3    C7 5087   2.191   3.244  17.356  0.1535 -0.0192  0.0174
  335TMC3    C8 5088   1.839   3.107  17.104  0.1944  0.0452 -0.2755
  335TMC3    O1 5089   2.271   3.274  17.271 -0.5555 -0.1255 -0.1168
  335TMC3    O2 5090   1.909   3.101  17.006 -0.0015  0.0969  0.1408
  336MPD2     C 5091   1.352   1.356  16.032 -0.1496 -0.7466 -0.2969
  336MPD2    C1 5092   1.363   1.286  15.916  0.3305  0.2323  0.4001
  336MPD2    C2 5093   1.384   1.149  15.913  0.3559 -0.1145  0.6946
  336MPD2    C3 5094   1.399   1.088  16.041 -0.9895 -0.4207  0.5181
  336MPD2    C4 5095   1.372   1.157  16.151  0.0157  0.2467  0.3374
  336MPD2    C5 5096   1.347   1.292  16.150  0.7412  0.4030 -0.1125
  336MPD2     H 5097   1.402   1.094  15.821  0.2088 -0.3659  0.8146
  336MPD2    H1 5098   1.365   1.109  16.248  2.1667 -1.7875 -0.5286
  336MPD2    H2 5099   1.305   1.453  16.031  1.8843  0.2552  0.1944
  336MPD2    H3 5100   1.322   1.347  16.239  0.1633  0.0540 -0.0635
  336MPD2     N 5101   1.421   0.948  16.062  0.2486 -0.1386  0.2076
  336MPD2    H5 5102   1.410   0.914  16.157 -1.8204 -1.8807 -0.6604
  336MPD2    N1 5103   1.331   1.342  15.789 -0.4826  0.2367  0.0784
  336MPD2    H7 5104   1.317   1.276  15.713 -2.3194  0.5211  0.1665
  337TMC3    C1 5105   1.256   1.522  15.662 -0.4137 -0.0966 -0.0533
  337TMC3    C2 5106   1.155   1.444  15.620 -0.0138  0.0985 -0.7681
  337TMC3    C3 5107   1.072   1.491  15.523 -0.4392 -0.3475 -0.4473
  337TMC3    C4 5108   1.251   1.657  15.629 -0.4461 -0.7412  0.4065
  337TMC3    C5 5109   1.180   1.703  15.528  0.0983 -0.3628 -0.0830
  337TMC3    C6 5110   1.088   1.619  15.477  0.8650  0.5354  0.2933
  337TMC3     C 5111   1.340   1.475  15.768  0.4903  0.1315  0.4881
  337TMC3     O 5112   1.389   1.562  15.846  0.1860 -0.1948  0.6526
  337TMC3     H 5113   1.133   1.347  15.662 -1.1561  0.8900  0.4482
  337TMC3    H1 5114   1.328   1.721  15.672 -1.5532  1.1081 -0.3745
  337TMC3    H2 5115   1.007   1.659  15.416  1.2392  2.2804  0.9251
  337TMC3    C7 5116   1.140   1.842  15.544  0.7042  0.2714  0.1763
  337TMC3    C8 5117   0.953   1.411  15.490 -0.8022 -0.3796  0.0844
  337TMC3    O1 5118   1.179   1.908  15.641 -0.2860  0.3351 -0.1794
  337TMC3    O2 5119   0.911   1.324  15.568  0.5423 -0.2820  0.2577
  338MPD2     C 5120   2.293   0.618   0.744 -0.2396  0.5861  0.3004
  338MPD2    C1 5121   2.185   0.564   0.687  0.1440  0.3245 -0.6024
  338MPD2    C2 5122   2.060   0.590   0.740 -0.0188 -0.2427  0.5318
  338MPD2    C3 5123   2.042   0.685   0.839 -0.3882 -0.9264  0.0575
  338MPD2    C4 5124   2.153   0.750   0.883 -0.5914  0.3211 -0.9084
  338MPD2    C5 5125   2.274   0.719   0.833  0.1130  0.6475  0.4480
  338MPD2     H 5126   1.968   0.555   0.694  0.2648  0.6898 -0.7588
  338MPD2    H1 5127   2.147   0.825   0.961  1.4258 -1.4988  0.9843
  338MPD2    H2 5128   2.393   0.593   0.709 -0.6451 -1.9438  0.9134
  338MPD2    H3 5129   2.356   0.778   0.871 -1.5278  2.7385  0.7588
  338MPD2     N 5130   1.911   0.720   0.878 -0.2692  0.4267 -0.6185
  338MPD2    H5 5131   1.828   0.680   0.836 -1.6274  2.0771  0.5013
  338MPD2    N1 5132   2.193   0.462   0.584  0.2532 -0.1154  0.1687
  338MPD2    H7 5133   2.109   0.422   0.542 -0.3457  2.0240 -0.6589
  339TMC3    C1 5134   1.735   0.800   1.007  0.1732  0.4069 -0.0495
  339TMC3    C2 5135   1.691   0.715   1.107  0.5383 -0.1925  0.0001
  339TMC3    C3 5136   1.563   0.667   1.093 -0.4113  1.3177  0.7584
  339TMC3    C4 5137   1.657   0.822   0.898  0.9894  0.0302 -0.2789
  339TMC3    C5 5138   1.528   0.770   0.896  0.3094 -0.7295 -0.1826
  339TMC3    C6 5139   1.476   0.693   0.986 -0.3951 -0.0447 -0.1567
  339TMC3     C 5140   1.882   0.806   0.980  0.1665 -0.6950 -0.1159
  339TMC3     O 5141   1.954   0.869   1.051  0.2310  0.1948 -0.5536
  339TMC3     H 5142   1.750   0.706   1.197  0.5186  1.0753  0.1406
  339TMC3    H1 5143   1.695   0.893   0.826 -0.6730  0.2277 -0.9574
  339TMC3    H2 5144   1.375   0.657   0.973 -0.1143 -1.8903  2.5495
  339TMC3    C7 5145   1.470   0.769   0.762 -0.4478 -0.5244  0.5028
  339TMC3    C8 5146   1.517   0.611   1.213 -0.3239  0.4484  0.1659
  339TMC3    O1 5147   1.493   0.866   0.692  0.3964  0.2237 -0.2975
  339TMC3    O2 5148   1.594   0.549   1.279  0.0210  0.0209 -0.9326
  340MPD2     C 5149   1.914   3.774   9.681  0.1918  0.1041  0.1042
  340MPD2    C1 5150   1.939   3.659   9.760 -0.1197 -0.7295 -0.4275
  340MPD2    C2 5151   2.018   3.676   9.871 -0.0274  0.0939  0.1482
  340MPD2    C3 5152   2.084   3.794   9.897 -0.1693  0.3257  0.4131
  340MPD2    C4 5153   2.057   3.908   9.820  0.3379  0.3027 -0.4737
  340MPD2    C5 5154   1.970   3.897   9.718  0.3994  0.1601 -0.1121
  340MPD2     H 5155   2.030   3.588   9.934 -0.2227  0.2985  0.4698
  340MPD2    H1 5156   2.120   3.991   9.849 -0.8259  1.1582 -0.4376
  340MPD2    H2 5157   1.849   3.781   9.595  0.0957 -2.9591 -0.0690
  340MPD2    H3 5158   1.954   3.980   9.650 -2.4036  0.5662  1.0382
  340MPD2     N 5159   2.184   3.805  10.002 -0.1171 -0.7579  0.1921
  340MPD2    H5 5160   2.224   3.895  10.025 -1.4564 -0.1566  0.1928
  340MPD2    N1 5161   1.865   3.547   9.732  0.4463  0.2297  0.5644
  340MPD2    H7 5162   1.821   3.553   9.641  2.5288  1.9414 -0.3449
  341TMC3    C1 5163   1.801   3.310   9.741 -0.3864  0.2970 -0.0790
  341TMC3    C2 5164   1.783   3.194   9.812 -0.1062 -0.8309  0.0062
  341TMC3    C3 5165   1.766   3.075   9.747  0.4943  0.0330 -0.3237
  341TMC3    C4 5166   1.797   3.315   9.604 -0.8356  0.8826  0.0555
  341TMC3    C5 5167   1.774   3.191   9.541  0.1275  0.4813  0.8428
  341TMC3    C6 5168   1.766   3.066   9.608 -0.7226 -0.1360 -0.0512
  341TMC3     C 5169   1.855   3.427   9.807 -0.0167 -0.4127  0.3646
  341TMC3     O 5170   1.899   3.405   9.917  0.1421  0.1661 -0.1219
  341TMC3     H 5171   1.789   3.200   9.920 -0.2270  0.2165 -0.0368
  341TMC3    H1 5172   1.812   3.403   9.542  0.0804  0.9611  0.3812
  341TMC3    H2 5173   1.767   2.969   9.559 -0.4415  0.2821 -0.8828
  341TMC3    C7 5174   1.793   3.186   9.400  0.6861  0.7225  0.3184
  341TMC3    C8 5175   1.781   2.953   9.829  0.1873 -0.1620 -0.3057
  341TMC3    O1 5176   1.748   3.275   9.333  0.2566  0.6925 -0.0424
  341TMC3    O2 5177   1.776   2.949   9.953  0.4190 -0.2570  0.0780
  342MPD2     C 5178   4.719   1.869   0.089 -0.0766  1.1120 -0.4191
  342MPD2    C1 5179   0.107   1.847   0.043  0.7901  0.8527 -0.3404
  342MPD2    C2 5180   0.199   1.949   0.021  0.1773 -1.0134 -0.5217
  342MPD2    C3 5181   0.174   2.078   0.067 -0.0974 -0.3625 -0.0114
  342MPD2    C4 5182   0.044   2.099   0.118 -0.3295 -0.0635 -0.3433
  342MPD2    C5 5183   4.686   1.995   0.127 -0.1950 -0.0875 -0.0294
  342MPD2     H 5184   0.294   1.914  17.733 -0.3207 -0.5919 -2.1035
  342MPD2    H1 5185   0.009   2.198   0.142 -0.1792  0.4849 -2.3345
  342MPD2    H2 5186   4.640   1.794   0.093  2.2232 -1.2310  0.9089
  342MPD2    H3 5187   4.586   2.020   0.161 -1.0891 -2.5100 -0.9208
  342MPD2     N 5188   0.259   2.188   0.040 -0.9883 -0.6153 -0.0746
  342MPD2    H5 5189   0.229   2.281   0.067 -0.5713 -0.7321  0.7957
  342MPD2    N1 5190   0.148   1.721   0.001 -0.0020  0.4357  0.2711
  342MPD2    H7 5191   0.246   1.724  17.726  0.3454  0.9521  1.6220
  343TMC3    C1 5192   0.160   1.491  17.700  0.6251 -0.6022  0.9767
  343TMC3    C2 5193   0.256   1.518  17.610  0.1992  0.0455 -0.2059
  343TMC3    C3 5194   0.293   1.417  17.528 -0.8659  0.5848 -0.0299
  343TMC3    C4 5195   0.108   1.362  17.716 -0.1516 -0.6652  0.0422
  343TMC3    C5 5196   0.161   1.265  17.641  0.2010  0.0016  0.2940
  343TMC3    C6 5197   0.246   1.291  17.539 -0.0646 -0.2881  0.4979
  343TMC3     C 5198   0.088   1.601   0.011  0.3252  0.5943 -0.2861
  343TMC3     O 5199   4.717   1.577   0.057 -0.0789 -0.2916 -0.1479
  343TMC3     H 5200   0.293   1.620  17.605 -0.3558  0.1703 -1.8508
  343TMC3    H1 5201   0.028   1.343   0.035 -0.9314  0.6293 -0.5037
  343TMC3    H2 5202   0.266   1.210  17.470 -0.2924 -0.8416  1.0843
  343TMC3    C7 5203   0.104   1.138  17.638 -0.6620  0.8832 -0.3411
  343TMC3    C8 5204   0.415   1.442  17.457  0.4694 -0.0999 -0.4105
  343TMC3    O1 5205   0.079   1.099  17.526 -0.1865 -0.2346  0.1971
  343TMC3    O2 5206   0.477   1.544  17.492  0.0176  0.4729 -0.4462
  344MPD2     C 5207   0.340   1.363  10.284 -0.6428  0.4073  0.6061
  344MPD2    C1 5208   0.455   1.313  10.345 -0.5007 -0.0213 -0.1483
  344MPD2    C2 5209   0.556   1.410  10.352 -0.4852 -0.8282 -0.1778
  344MPD2    C3 5210   0.550   1.531  10.281  0.1283  0.2905 -0.2256
  344MPD2    C4 5211   0.430   1.568  10.221 -0.8210 -0.4269  0.1267
  344MPD2    C5 5212   0.334   1.479  10.217  0.4166 -0.3330 -0.6699
  344MPD2     H 5213   0.642   1.388  10.415 -0.3262 -1.5535 -0.6480
  344MPD2    H1 5214   0.425   1.657  10.160 -0.2666 -0.3260  0.2228
  344MPD2    H2 5215   0.246   1.311  10.281  0.6364 -1.8373 -0.1008
  344MPD2    H3 5216   0.238   1.507  10.174  0.6860  0.7464 -0.5675
  344MPD2     N 5217   0.665   1.620  10.277 -0.3795  0.0165  0.4937
  344MPD2    H5 5218   0.649   1.715  10.247  0.0287  0.0683  0.4407
  344MPD2    N1 5219   0.463   1.192  10.420 -0.3795  0.0088 -0.2935
  344MPD2    H7 5220   0.556   1.172  10.455  0.6575  2.4412 -1.6289
  345TMC3    C1 5221   0.887   1.681  10.248 -0.1735  0.0690  0.2775
  345TMC3    C2 5222   0.989   1.722  10.336 -0.3956  0.3866 -0.1753
  345TMC3    C3 5223   1.049   1.842  10.319  0.0724 -0.1406 -0.0060
  345TMC3    C4 5224   0.844   1.763  10.152  0.0598 -0.0573  0.2226
  345TMC3    C5 5225   0.911   1.875  10.128 -0.3766 -0.6173  0.0469
  345TMC3    C6 5226   1.015   1.924  10.210  0.2303 -0.1920  0.6749
  345TMC3     C 5227   0.791   1.593  10.307  0.6907 -0.1563 -0.6841
  345TMC3     O 5228   0.840   1.492  10.361  0.5881  0.2485  0.0108
  345TMC3     H 5229   1.026   1.652  10.410 -0.7445 -1.4596 -1.7568
  345TMC3    H1 5230   0.770   1.722  10.085 -1.3470  0.0964  1.6602
  345TMC3    H2 5231   1.057   2.021  10.187 -0.5120 -0.1979 -0.7439
  345TMC3    C7 5232   0.855   1.975  10.034  0.0704 -0.5336 -0.2572
  345TMC3    C8 5233   1.100   1.907  10.442  0.4806  0.6043 -0.1115
  345TMC3    O1 5234   0.933   2.061   9.996  0.0168 -0.1615  0.0863
  345TMC3    O2 5235   1.135   1.839  10.539  0.3780 -0.4117 -0.0750
  346MPD2     C 5236   0.551   2.336  14.215 -0.4235  0.4391 -0.0040
  346MPD2    C1 5237   0.557   2.466  14.169  0.0843 -0.5594  0.0672
  346MPD2    C2 5238   0.558   2.565  14.264  0.1074 -0.0080 -0.4072
  346MPD2    C3 5239   0.573   2.540  14.393  0.3945 -0.2411  0.8684
  346MPD2    C4 5240   0.582   2.412  14.444 -0.5389  0.0496  0.2834
  346MPD2    C5 5241   0.560   2.312  14.349  0.6185 -1.1871  0.2536
  346MPD2     H 5242   0.531   2.664  14.230 -0.2150  0.1029  0.1832
  346MPD2    H1 5243   0.587   2.393  14.551 -0.4650  0.1821  0.3029
  346MPD2    H2 5244   0.543   2.249  14.151 -2.3289  0.8080 -0.2721
  346MPD2    H3 5245   0.567   2.217  14.402  2.8358 -2.1281 -1.6960
  346MPD2     N 5246   0.585   2.645  14.483 -0.1098  0.4915 -0.4168
  346MPD2    H5 5247   0.566   2.738  14.447 -3.2956 -0.1202 -0.3214
  346MPD2    N1 5248   0.572   2.508  14.030 -0.4038  0.1833 -0.4522
  346MPD2    H7 5249   0.592   2.606  14.016  0.0095  0.0944 -0.4885
  347TMC3    C1 5250   0.659   2.771  14.669  0.2597  0.0213 -0.3395
  347TMC3    C2 5251   0.703   2.864  14.575 -0.2717 -0.8577 -0.1419
  347TMC3    C3 5252   0.816   2.937  14.605  0.3199  0.2948  0.6956
  347TMC3    C4 5253   0.707   2.768  14.802 -0.7054 -0.0972 -0.1143
  347TMC3    C5 5254   0.824   2.837  14.815 -0.0809  0.2427  0.1456
  347TMC3    C6 5255   0.868   2.928  14.727 -0.6898 -0.3318 -0.7775
  347TMC3     C 5256   0.640   2.635  14.606 -0.1656  0.6462  0.1966
  347TMC3     O 5257   0.705   2.546  14.653 -0.5019 -0.0538  0.3627
  347TMC3     H 5258   0.677   2.877  14.470 -1.7323  2.1106  0.5802
  347TMC3    H1 5259   0.679   2.693  14.874 -0.7191 -0.3450 -0.3771
  347TMC3    H2 5260   0.957   2.988  14.745 -1.7789  1.1544 -0.3446
  347TMC3    C7 5261   0.927   2.760  14.880 -0.4078  0.4666 -0.3462
  347TMC3    C8 5262   0.912   2.962  14.500  0.3255  0.1390  0.3305
  347TMC3    O1 5263   0.904   2.643  14.910 -0.5867 -0.0616  0.0747
  347TMC3    O2 5264   0.880   3.041  14.410 -0.2626  0.0148  0.0318
  348MPD2     C 5265   4.467   2.117  11.273  0.5916 -0.0921  0.4318
  348MPD2    C1 5266   4.337   2.129  11.311 -0.1307 -0.2991 -0.5572
  348MPD2    C2 5267   4.267   2.247  11.287  0.5292 -0.1180  0.1914
  348MPD2    C3 5268   4.326   2.346  11.213 -0.8904  0.2928  0.0701
  348MPD2    C4 5269   4.456   2.340  11.171  0.6833  0.1883  0.7225
  348MPD2    C5 5270   4.514   2.219  11.191 -0.0632  0.1405  0.6622
  348MPD2     H 5271   4.179   2.266  11.347  0.6591  2.3590 -0.3765
  348MPD2    H1 5272   4.508   2.413  11.110 -0.0022  1.7526  2.0129
  348MPD2    H2 5273   4.527   2.028  11.291  0.7672  0.1297  0.9392
  348MPD2    H3 5274   4.611   2.203  11.147  0.7669  1.4177  2.0577
  348MPD2     N 5275   4.249   2.461  11.204 -0.6524 -0.7037  0.0541
  348MPD2    H5 5276   4.154   2.454  11.238 -1.3817  1.0085 -1.6284
  348MPD2    N1 5277   4.276   2.018  11.383 -0.4201  0.0972 -0.4357
  348MPD2    H7 5278   4.176   2.029  11.393 -0.6551 -3.1466  0.6685
  349TMC3    C1 5279   4.230   1.844  11.532 -0.1370 -0.1477 -0.0158
  349TMC3    C2 5280   4.279   1.793  11.649 -0.8449 -0.2567  0.2037
  349TMC3    C3 5281   4.195   1.785  11.760  0.5547 -0.4764  0.5774
  349TMC3    C4 5282   4.103   1.886  11.527  0.1187 -0.4399  0.2623
  349TMC3    C5 5283   4.023   1.882  11.632 -0.4739 -0.0047  0.2591
  349TMC3    C6 5284   4.065   1.830  11.751 -0.2661 -0.0083 -0.3243
  349TMC3     C 5285   4.324   1.898  11.435 -0.0000  0.3957  0.3694
  349TMC3     O 5286   4.443   1.859  11.436 -0.1940  0.0966 -0.6458
  349TMC3     H 5287   4.382   1.761  11.656 -1.3479 -2.0182 -0.5686
  349TMC3    H1 5288   4.058   1.928  11.438 -0.8635 -0.5650  0.6978
  349TMC3    H2 5289   3.997   1.844  11.835  0.5550 -0.5475  0.4236
  349TMC3    C7 5290   3.898   1.954  11.626  0.4266 -0.6806  0.3122
  349TMC3    C8 5291   4.251   1.767  11.892  0.6944 -0.2496  0.6303
  349TMC3    O1 5292   3.796   1.894  11.656  0.0462  0.4241  0.3935
  349TMC3    O2 5293   4.364   1.808  11.908 -0.4581  0.0041  0.0925
  350MPD2     C 5294   3.533   0.719  10.269  0.0677 -0.3068  0.3047
  350MPD2    C1 5295   3.413   0.663  10.250 -0.4804 -0.1308  0.0404
  350MPD2    C2 5296   3.312   0.695  10.331  0.4097  0.1127 -0.2188
  350MPD2    C3 5297   3.327   0.780  10.434  0.0212  0.1186  1.0374
  350MPD2    C4 5298   3.444   0.840  10.457  0.4795  0.1857  0.1476
  350MPD2    C5 5299   3.552   0.806  10.370  0.0595  0.1455  0.5577
  350MPD2     H 5300   3.210   0.661  10.318 -0.1321  1.0229  1.6225
  350MPD2    H1 5301   3.459   0.914  10.535 -1.0462  0.2481  0.3728
  350MPD2    H2 5302   3.619   0.697  10.206  0.9648  2.1011  0.6824
  350MPD2    H3 5303   3.649   0.853  10.378 -0.2105  0.9866 -1.2132
  350MPD2     N 5304   3.214   0.811  10.506  0.0307  0.2605 -0.3408
  350MPD2    H5 5305   3.133   0.752  10.492  0.8537 -1.0118  0.2251
  350MPD2    N1 5306   3.385   0.569  10.156  0.6998 -0.3944 -0.2401
  350MPD2    H7 5307   3.301   0.514  10.172  1.2635 -1.4515 -0.8663
  351TMC3    C1 5308   3.428   0.399  10.000 -0.4805  0.1320 -0.1595
  351TMC3    C2 5309   3.533   0.317   9.966  0.5039 -0.0735 -0.1168
  351TMC3    C3 5310   3.512   0.179   9.952  0.5961 -0.7724 -0.3484
  351TMC3    C4 5311   3.299   0.348  10.008  0.6148  0.0318  0.0793
  351TMC3    C5 5312   3.287   0.213  10.000  0.0530  0.1885 -0.0613
  351TMC3    C6 5313   3.392   0.128   9.972 -0.3521 -0.2062 -0.3171
  351TMC3     C 5314   3.472   0.525  10.056 -0.0002 -0.6865 -0.1675
  351TMC3     O 5315   3.584   0.557  10.024  0.0805  0.0852 -0.0673
  351TMC3     H 5316   3.633   0.352   9.942 -0.0438  1.7560  0.2722
  351TMC3    H1 5317   3.217   0.412  10.037  1.5020  0.5166  1.4765
  351TMC3    H2 5318   3.381   0.020   9.969  0.5406 -0.3523  1.4668
  351TMC3    C7 5319   3.154   0.162  10.044  0.2100 -0.5463  0.2880
  351TMC3    C8 5320   3.630   0.111   9.914  0.0965  0.0637 -0.1215
  351TMC3    O1 5321   3.098   0.237  10.122  0.0277 -0.0179 -0.9590
  351TMC3    O2 5322   3.713   0.166   9.846 -0.3149 -0.5404 -0.3247
  352MPD2     C 5323   1.878   2.750   0.826  0.1467 -0.4914  0.5646
  352MPD2    C1 5324   1.788   2.687   0.911  0.3890  0.2891  0.5549
  352MPD2    C2 5325   1.829   2.560   0.952 -0.6061 -0.3886  0.4147
  352MPD2    C3 5326   1.945   2.497   0.912 -0.4291 -0.2419  0.3406
  352MPD2    C4 5327   2.030   2.569   0.834 -0.0072 -0.3179  0.7012
  352MPD2    C5 5328   2.000   2.694   0.794 -1.0818  1.3080 -0.1023
  352MPD2     H 5329   1.749   2.503   1.000 -1.1455 -1.0522 -1.2637
  352MPD2    H1 5330   2.122   2.522   0.802 -1.7136 -2.8805 -0.5055
  352MPD2    H2 5331   1.850   2.841   0.774  1.8422 -0.0585  0.3925
  352MPD2    H3 5332   2.075   2.741   0.733  0.6919 -1.8227 -0.3160
  352MPD2     N 5333   1.983   2.363   0.945 -0.0081  0.0727 -0.6270
  352MPD2    H5 5334   2.062   2.320   0.897  0.1119  0.1375 -0.4863
  352MPD2    N1 5335   1.659   2.738   0.935  0.4924 -0.5317  0.0643
  352MPD2    H7 5336   1.620   2.821   0.890 -0.8920 -0.4687  1.3801
  353TMC3    C1 5337   1.921   2.136   0.996 -0.1856 -0.5423  0.4616
  353TMC3    C2 5338   2.052   2.090   0.997  0.1849  0.9289 -0.2961
  353TMC3    C3 5339   2.084   1.963   1.031 -0.1286 -0.0066 -0.3404
  353TMC3    C4 5340   1.815   2.053   1.035 -0.0826 -0.3150  0.0140
  353TMC3    C5 5341   1.851   1.928   1.079 -0.2919 -0.5810  0.3178
  353TMC3    C6 5342   1.978   1.881   1.077  0.7500 -0.6192 -0.2081
  353TMC3     C 5343   1.891   2.277   1.003  0.0575  0.0276  0.5971
  353TMC3     O 5344   1.788   2.309   1.058 -0.5918 -0.0190  0.4177
  353TMC3     H 5345   2.125   2.166   0.973  0.6292  0.7924  0.6248
  353TMC3    H1 5346   1.712   2.085   1.027 -0.0624  0.0165  1.0982
  353TMC3    H2 5347   1.997   1.775   1.088  0.6018 -0.5412  0.7594
  353TMC3    C7 5348   1.749   1.841   1.129  0.8825  0.0903 -0.3956
  353TMC3    C8 5349   2.221   1.931   1.080  0.1097 -0.2056 -0.6807
  353TMC3    O1 5350   1.791   1.732   1.154  0.6191  0.1551 -0.2705
  353TMC3    O2 5351   2.307   2.021   1.081 -0.2301 -0.3328  0.0736
  354TMC3    C1 5352   3.559   3.409  13.421 -0.3549 -0.4933 -0.0733
  354TMC3    C2 5353   3.491   3.532  13.412  0.1440 -0.1987 -0.6181
  354TMC3    C3 5354   3.472   3.587  13.292 -0.3514 -0.7185  0.0939
  354TMC3    C4 5355   3.590   3.332  13.316  0.5149  0.0856  0.7001
  354TMC3    C5 5356   3.590   3.400  13.195  0.2078  0.3327 -0.8401
  354TMC3    C6 5357   3.525   3.522  13.177 -0.5574  0.2816  0.2438
  354TMC3     C 5358   3.627   3.390  13.542  0.3605 -0.0268 -0.1189
  354TMC3     O 5359   3.661   3.487  13.607 -0.1252  0.6866  0.3148
  354TMC3     H 5360   3.467   3.583  13.504  0.1905  1.6072 -1.5956
  354TMC3    H1 5361   3.635   3.234  13.321 -0.5863 -0.4613  0.1301
  354TMC3    H2 5362   3.531   3.577  13.084 -2.3583  0.5919  0.3123
  354TMC3    C7 5363   3.708   3.393  13.117  0.0222  0.3560  0.0097
  354TMC3    C8 5364   3.456   3.734  13.283  0.1240  0.0815 -0.0594
  354TMC3    O1 5365   3.807   3.385  13.188 -0.5918 -0.2369 -0.0367
  354TMC3    O2 5366   3.486   3.792  13.386  0.6858 -0.0288  0.1590
  355MPD2     C 5367   3.251   4.489  11.775  0.1291  0.8534  0.1509
  355MPD2    C1 5368   3.275   4.544  11.652  0.4035  0.0503 -0.4476
  355MPD2    C2 5369   3.410   4.586  11.630 -0.1435  0.2207 -0.5025
  355MPD2    C3 5370   3.506   4.566  11.736  0.4643  0.2201 -0.6151
  355MPD2    C4 5371   3.470   4.517  11.855 -0.6762 -0.2372 -0.0566
  355MPD2    C5 5372   3.345   4.477  11.876  0.3290 -0.0317 -0.1456
  355MPD2     H 5373   3.435   4.630  11.534 -0.1541 -0.3084 -0.7510
  355MPD2    H1 5374   3.539   4.502  11.937 -0.9013 -1.4127 -0.0861
  355MPD2    H2 5375   3.150   4.459  11.801  0.6114 -0.1420  0.8877
  355MPD2    H3 5376   3.318   4.440  11.974  2.6917  0.5095  0.6994
  355MPD2     N 5377   3.637   4.618  11.727 -0.0346 -0.2869  0.6744
  355MPD2    H5 5378   3.669   4.641  11.820  1.6706  3.7913 -0.9480
  355MPD2    N1 5379   3.178   4.553  11.547  0.0011 -0.0472 -0.7864
  355MPD2    H7 5380   3.103   4.484  11.548 -0.6476  0.6750  0.9584
  356TMC3    C1 5381   3.769   0.057  11.649  0.4553  0.5401  0.5691
  356TMC3    C2 5382   3.801   0.150  11.554 -0.0681  0.0570 -0.8260
  356TMC3    C3 5383   3.864   0.262  11.600  0.4045 -0.4253 -0.2668
  356TMC3    C4 5384   3.794   0.079  11.781 -0.1828 -0.2227 -0.0054
  356TMC3    C5 5385   3.849   0.194  11.824 -0.3073 -0.1297 -0.4404
  356TMC3    C6 5386   3.879   0.288  11.735  0.1646  0.1049 -0.3726
  356TMC3     C 5387   3.681   4.686  11.616  0.0422 -1.4376 -0.3224
  356TMC3     O 5388   3.661   4.668  11.496  0.3511  0.2983 -0.0875
  356TMC3     H 5389   3.788   0.121  11.451  1.2961 -0.6579 -0.7931
  356TMC3    H1 5390   3.780   0.006  11.860 -1.8122  3.0155  2.7042
  356TMC3    H2 5391   3.926   0.377  11.776 -1.0190  0.6690 -0.2616
  356TMC3    C7 5392   3.868   0.206  11.963 -0.9556 -0.1360  0.2098
  356TMC3    C8 5393   3.912   0.354  11.496  0.2149 -0.4613  0.0720
  356TMC3    O1 5394   3.851   0.107  12.036  0.3983 -0.6119  0.0715
  356TMC3    O2 5395   3.878   0.322  11.382 -0.5528  0.2140  0.5907
  357MPD2     C 5396   2.132   4.443   0.380  0.0696 -0.5266  0.3450
  357MPD2    C1 5397   2.131   4.493   0.516  0.0518  0.5866  0.1481
  357MPD2    C2 5398   2.029   4.454   0.603  0.1021  0.2505  0.1871
  357MPD2    C3 5399   1.942   4.353   0.566  0.1648  0.8257 -0.3126
  357MPD2    C4 5400   1.943   4.308   0.439 -0.6468 -0.0669 -0.8818
  357MPD2    C5 5401   2.033   4.352   0.344 -0.4509 -0.3727 -0.4996
  357MPD2     H 5402   2.041   4.487   0.706  0.5047 -0.7606  0.4712
  357MPD2    H1 5403   1.872   4.228   0.421 -0.3537 -0.5384  0.0824
  357MPD2    H2 5404   2.203   4.475   0.305  2.6065 -0.6435  2.6801
  357MPD2    H3 5405   2.029   4.325   0.239 -0.9903 -1.7055 -0.1457
  357MPD2     N 5406   1.864   4.295   0.669 -0.1205  0.1803 -0.3915
  357MPD2    H5 5407   1.830   4.203   0.642 -0.7032  0.2148  0.2218
  357MPD2    N1 5408   2.237   4.582   0.553  0.3044  0.2620 -0.1015
  357MPD2    H7 5409   2.319   4.572   0.494  0.4357 -0.4772  0.2016
  358TMC3    C1 5410   2.383   4.686   0.695  0.2353 -0.1148  0.3893
  358TMC3    C2 5411   2.483   4.601   0.638 -0.2028  0.7112 -0.0224
  358TMC3    C3 5412   2.610   4.613   0.690 -0.4536 -0.4072  0.9923
  358TMC3    C4 5413   2.410   0.039   0.797  0.3322 -0.0642  0.7884
  358TMC3    C5 5414   2.538   0.054   0.830 -0.1241  0.5293  0.4098
  358TMC3    C6 5415   2.645   4.714   0.779  0.4486 -0.4699 -0.0708
  358TMC3     C 5416   2.245   4.656   0.670  0.3569  0.4932  0.1285
  358TMC3     O 5417   2.155   4.707   0.743 -0.1166  0.0908  0.1731
  358TMC3     H 5418   2.463   4.519   0.569 -0.8899  0.8824 -0.0295
  358TMC3    H1 5419   2.335   0.089   0.857  0.3020  1.6478 -0.6646
  358TMC3    H2 5420   2.734   4.716   0.840  0.1291  0.6955  0.3499
  358TMC3    C7 5421   2.558   0.144   0.941 -0.5928  0.1506  0.4605
  358TMC3    C8 5422   2.710   4.521   0.635 -0.7062  0.5822 -0.0995
  358TMC3    O1 5423   2.472   0.164   1.022 -0.6815 -0.0143 -0.0654
  358TMC3    O2 5424   2.672   4.420   0.581  0.5488  0.1349  0.2856
  359MPD2     C 5425   3.336   3.196  12.187 -0.1797  0.0304 -0.1691
  359MPD2    C1 5426   3.461   3.137  12.205 -0.8410 -0.1091 -0.4191
  359MPD2    C2 5427   3.466   3.004  12.246  0.1873 -0.3162 -0.1572
  359MPD2    C3 5428   3.352   2.931  12.275  0.9762 -0.1913  0.0865
  359MPD2    C4 5429   3.229   2.996  12.252 -0.2148  0.2094 -0.4357
  359MPD2    C5 5430   3.228   3.123  12.212  0.3269 -1.2326 -0.3037
  359MPD2     H 5431   3.563   2.957  12.262 -0.0716 -0.4996  0.8327
  359MPD2    H1 5432   3.132   2.948  12.260  0.2589 -0.6308  0.2251
  359MPD2    H2 5433   3.323   3.298  12.152 -1.4960  0.0928  0.5092
  359MPD2    H3 5434   3.132   3.171  12.195  0.4772 -1.1539 -0.9204
  359MPD2     N 5435   3.360   2.798  12.312  0.2058  0.1882 -0.1230
  359MPD2    H5 5436   3.273   2.745  12.308 -0.9277  2.1363 -1.6947
  359MPD2    N1 5437   3.583   3.202  12.165  0.1714  0.4122 -0.1430
  359MPD2    H7 5438   3.667   3.151  12.142 -1.3827 -1.4423 -1.6886
  360TMC3    C1 5439   3.711   3.328  12.024  0.2347 -0.8319 -0.1739
  360TMC3    C2 5440   3.813   3.248  12.062  0.3299  0.1918 -0.3690
  360TMC3    C3 5441   3.924   3.240  11.983 -0.6101 -0.5773  0.6213
  360TMC3    C4 5442   3.709   3.395  11.903 -0.0444  0.2821  0.0846
  360TMC3    C5 5443   3.818   3.377  11.817 -0.0528  0.5156 -0.3264
  360TMC3    C6 5444   3.929   3.302  11.860  0.4215 -0.3759  0.0128
  360TMC3     C 5445   3.595   3.324  12.108  0.2133  0.6738  0.3769
  360TMC3     O 5446   3.519   3.420  12.110 -0.1520  0.5308 -0.1080
  360TMC3     H 5447   3.816   3.220  12.167 -1.2649 -1.7413 -0.8510
  360TMC3    H1 5448   3.624   3.459  11.885  0.9409  0.6646 -3.0737
  360TMC3    H2 5449   4.016   3.302  11.795  0.4148  1.3347  0.0086
  360TMC3    C7 5450   3.803   3.355  11.672  0.3864 -0.2794  0.2145
  360TMC3    C8 5451   4.016   3.133  12.004  0.7700  0.1075 -0.1442
  360TMC3    O1 5452   3.895   3.400  11.610  0.1710  0.0159 -0.1631
  360TMC3    O2 5453   3.976   3.053  12.092  0.4973 -0.2594  0.7132
  361MPD2     C 5454   0.934   1.977  16.486 -0.2140  0.0328 -0.8521
  361MPD2    C1 5455   0.923   1.991  16.624 -0.1700  0.3465  0.3778
  361MPD2    C2 5456   1.026   1.948  16.703 -0.0277  0.5315  0.5887
  361MPD2    C3 5457   1.136   1.888  16.644  0.0514 -0.3124 -1.3018
  361MPD2    C4 5458   1.141   1.871  16.505  0.1539  0.2684 -0.2023
  361MPD2    C5 5459   1.047   1.925  16.425 -1.4835  0.2043 -0.8422
  361MPD2     H 5460   1.026   1.969  16.809 -3.4035  0.6932  0.5513
  361MPD2    H1 5461   1.227   1.823  16.460  1.6189  0.2555  2.6111
  361MPD2    H2 5462   0.850   2.012  16.428 -0.5272 -2.2573 -1.7845
  361MPD2    H3 5463   1.060   1.913  16.318 -0.3482  1.1793 -0.8153
  361MPD2     N 5464   1.243   1.834  16.716 -0.6095 -0.0003  0.3107
  361MPD2    H5 5465   1.310   1.791  16.652  1.0226  2.4904  0.3119
  361MPD2    N1 5466   0.802   2.031  16.680  0.1824  0.2095  0.0638
  361MPD2    H7 5467   0.729   2.071  16.622  1.2265  1.9916 -0.0229
  362TMC3    C1 5468   0.690   2.146  16.857  0.4230  0.5037  0.8625
  362TMC3    C2 5469   0.645   2.148  16.987  0.6292 -0.5638  0.1772
  362TMC3    C3 5470   0.593   2.264  17.043 -0.2212  1.1230 -0.3502
  362TMC3    C4 5471   0.691   2.264  16.784  0.0393 -0.4369 -0.8211
  362TMC3    C5 5472   0.614   2.367  16.830  0.3804 -0.8105 -0.3917
  362TMC3    C6 5473   0.561   2.370  16.961 -0.8609 -0.4119 -0.4755
  362TMC3     C 5474   0.774   2.035  16.813 -0.7215 -0.2262  0.1513
  362TMC3     O 5475   0.821   1.964  16.900  0.4985  0.4275  0.1898
  362TMC3     H 5476   0.644   2.058  17.047 -0.4882  0.9084  2.3456
  362TMC3    H1 5477   0.745   2.273  16.691  0.4131 -1.5626 -0.7087
  362TMC3    H2 5478   0.498   2.452  16.994  2.2879  1.7388  0.1955
  362TMC3    C7 5479   0.537   2.433  16.726 -0.5056 -0.7718  0.0834
  362TMC3    C8 5480   0.503   2.240  17.155 -0.2505 -0.2527 -0.1239
  362TMC3    O1 5481   0.441   2.498  16.769  0.6120 -0.2138  0.0837
  362TMC3    O2 5482   0.474   2.128  17.181  0.7924 -0.8539  0.2493
  363TMC3    C1 5483   4.315   0.773   9.739  0.1049 -0.0161 -0.3195
  363TMC3    C2 5484   4.316   0.649   9.681  0.5255 -0.2963 -1.0247
  363TMC3    C3 5485   4.204   0.607   9.609  0.6503 -0.7588  0.1570
  363TMC3    C4 5486   4.211   0.866   9.732 -0.9361 -0.7547  0.0585
  363TMC3    C5 5487   4.099   0.818   9.663  0.4602  0.3035 -0.3149
  363TMC3    C6 5488   4.097   0.695   9.604  0.1288  0.6361 -0.4679
  363TMC3     C 5489   4.445   0.823   9.795 -0.0989  0.5032  0.6296
  363TMC3     O 5490   4.466   0.940   9.774 -0.4689 -0.1591  0.2301
  363TMC3     H 5491   4.406   0.591   9.690  0.6371 -0.0494 -0.5125
  363TMC3    H1 5492   4.212   0.966   9.775 -0.3755  0.6479 -3.1963
  363TMC3    H2 5493   4.008   0.662   9.550 -0.2820  2.0693 -0.6783
  363TMC3    C7 5494   3.972   0.868   9.703 -0.3089 -0.6962  0.7137
  363TMC3    C8 5495   4.162   0.468   9.623 -0.3644 -0.3789  0.1225
  363TMC3    O1 5496   3.876   0.804   9.660  0.4708  0.3444 -0.2503
  363TMC3    O2 5497   4.044   0.452   9.646 -0.1902 -0.6553 -0.5421
  364MPD2     C 5498   2.656   4.033  10.354 -0.1882 -0.6649  0.2113
  364MPD2    C1 5499   2.783   4.021  10.305  0.5781 -0.0880  1.0431
  364MPD2    C2 5500   2.847   3.894  10.315  0.3971 -0.1600 -0.7621
  364MPD2    C3 5501   2.789   3.799  10.393 -0.3416 -0.3394  0.9498
  364MPD2    C4 5502   2.661   3.816  10.439  0.3391  1.0245  0.3791
  364MPD2    C5 5503   2.593   3.927  10.414 -0.2686  0.2410 -0.2280
  364MPD2     H 5504   2.947   3.880  10.276  1.1074 -1.8768  1.7389
  364MPD2    H1 5505   2.616   3.738  10.499 -1.0267  1.3330 -0.2535
  364MPD2    H2 5506   2.608   4.130  10.355  0.3016 -0.4341  1.8609
  364MPD2    H3 5507   2.503   3.933  10.473 -2.5250  2.6729 -3.8845
  364MPD2     N 5508   2.851   3.672  10.421 -0.1518  0.3631 -0.2727
  364MPD2    H5 5509   2.814   3.625  10.503 -0.7818  2.2496  0.5431
  364MPD2    N1 5510   2.841   4.137  10.249 -0.6351  0.5398 -0.0020
  364MPD2    H7 5511   2.789   4.223  10.257  0.8832  1.2479  2.1404
  365TMC3    C1 5512   3.005   4.266  10.140  0.3412  0.1447  0.1342
  365TMC3    C2 5513   3.102   4.263  10.046 -0.7426 -0.0068  0.0652
  365TMC3    C3 5514   3.185   4.373  10.046  0.2000  0.5687  0.4637
  365TMC3    C4 5515   3.007   4.367  10.241 -0.7480 -0.3664  1.1844
  365TMC3    C5 5516   3.099   4.476  10.237  0.6529 -1.0105 -0.4206
  365TMC3    C6 5517   3.187   4.480  10.135  0.3628 -0.7976 -0.2470
  365TMC3     C 5518   2.962   4.134  10.182  0.4888  0.9148  0.4955
  365TMC3     O 5519   3.032   4.041  10.136  0.4964  0.1773  0.8416
  365TMC3     H 5520   3.120   4.183   9.975 -3.1441  0.4143 -1.0070
  365TMC3    H1 5521   2.939   4.365  10.325 -2.0985  0.1797  0.0918
  365TMC3    H2 5522   3.262   4.557  10.126  0.3019 -0.5784  1.0976
  365TMC3    C7 5523   3.090   4.583  10.332 -0.3791 -0.1476  0.3152
  365TMC3    C8 5524   3.305   4.375   9.954 -0.5330  0.3643 -0.2200
  365TMC3    O1 5525   3.138   4.690  10.299  0.2210 -0.3237  0.3407
  365TMC3    O2 5526   3.343   4.483   9.917  0.0368  0.2233 -1.4061
  366MPD2     C 5527   0.721   0.590  15.618  0.4799  0.2092  0.4518
  366MPD2    C1 5528   0.803   0.601  15.506 -0.0819 -0.3093  0.1037
  366MPD2    C2 5529   0.845   0.488  15.435 -0.6808  0.2494 -0.5687
  366MPD2    C3 5530   0.826   0.362  15.496 -0.1211  0.3792  0.2526
  366MPD2    C4 5531   0.771   0.358  15.620 -0.6985  0.1040 -1.0870
  366MPD2    C5 5532   0.719   0.469  15.683 -0.8332 -0.0206 -0.4254
  366MPD2     H 5533   0.899   0.507  15.344  1.6907 -0.0333  0.7851
  366MPD2    H1 5534   0.760   0.266  15.677 -0.7470  0.0751 -1.1432
  366MPD2    H2 5535   0.672   0.674  15.666  0.2528  1.0573 -1.2625
  366MPD2    H3 5536   0.688   0.468  15.787  0.8047  1.8917  0.0881
  366MPD2     N 5537   0.873   0.249  15.430  0.2870  0.4151  0.4086
  366MPD2    H5 5538   0.911   0.256  15.336 -0.9539  0.1508 -0.1201
  366MPD2    N1 5539   0.825   0.727  15.445  0.0219  0.2615 -0.2743
  366MPD2    H7 5540   0.862   0.726  15.350  0.0018  1.9386 -0.2976
  367TMC3    C1 5541   0.872   0.954  15.431  0.7397 -0.2280 -0.3054
  367TMC3    C2 5542   0.964   1.023  15.505  0.1600  0.1334  0.1327
  367TMC3    C3 5543   1.064   1.081  15.432 -0.3363 -0.0396  0.2053
  367TMC3    C4 5544   0.863   0.938  15.301 -0.8763 -0.8496 -0.1804
  367TMC3    C5 5545   0.950   1.021  15.236 -0.5977 -0.0564  0.3398
  367TMC3    C6 5546   1.053   1.081  15.290  0.1617 -0.3111  0.4245
  367TMC3     C 5547   0.809   0.847  15.512  0.0513  0.0571 -0.4003
  367TMC3     O 5548   0.786   0.871  15.634 -0.2941  0.4917 -0.2100
  367TMC3     H 5549   0.970   1.021  15.613  4.6626  0.5402 -0.1187
  367TMC3    H1 5550   0.780   0.886  15.255 -1.0984  0.2707 -1.0295
  367TMC3    H2 5551   1.120   1.138  15.227 -1.0027 -0.3893 -0.8806
  367TMC3    C7 5552   0.934   1.048  15.091  0.1428 -0.0564  0.2289
  367TMC3    C8 5553   1.188   1.118  15.497  0.0892  0.6108 -0.1126
  367TMC3    O1 5554   0.951   1.166  15.065  0.0795 -0.1759  0.3926
  367TMC3    O2 5555   1.195   1.078  15.611  0.1651 -0.1603 -0.0178
  368MPD2     C 5556   2.485   1.457  13.128 -0.3386 -0.1040 -0.4112
  368MPD2    C1 5557   2.526   1.586  13.151  0.6789 -0.4435 -0.2338
  368MPD2    C2 5558   2.644   1.625  13.102 -0.4564 -0.1393  0.2419
  368MPD2    C3 5559   2.722   1.533  13.024 -0.1234  0.0116  0.0933
  368MPD2    C4 5560   2.679   1.406  12.999  0.7253 -0.0891  0.0401
  368MPD2    C5 5561   2.561   1.368  13.053  0.3188 -0.3404 -0.5937
  368MPD2     H 5562   2.678   1.727  13.117  0.2811  0.1792 -3.5678
  368MPD2    H1 5563   2.744   1.338  12.946 -0.1256  1.1147 -2.5388
  368MPD2    H2 5564   2.387   1.421  13.154 -0.7222 -0.4905 -2.3712
  368MPD2    H3 5565   2.529   1.266  13.039  1.2829 -0.3335 -2.9346
  368MPD2     N 5566   2.846   1.563  12.959 -0.4435  0.1583 -0.1571
  368MPD2    H5 5567   2.879   1.491  12.895  0.1971  0.6674 -0.4025
  368MPD2    N1 5568   2.445   1.688  13.202  0.1531 -0.5545  0.0227
  368MPD2    H7 5569   2.485   1.780  13.189 -0.5675  0.0321  1.8583
  369TMC3    C1 5570   2.254   1.814  13.252  0.9917 -0.0811 -0.1728
  369TMC3    C2 5571   2.319   1.932  13.221 -0.1891  0.1864  0.1589
  369TMC3    C3 5572   2.243   2.044  13.253 -0.0115  0.5875 -0.0566
  369TMC3    C4 5573   2.130   1.803  13.302 -0.2185 -0.6984  0.5113
  369TMC3    C5 5574   2.056   1.915  13.326  0.4897  0.3051 -0.8035
  369TMC3    C6 5575   2.112   2.034  13.301 -0.4425  0.2293 -0.0118
  369TMC3     C 5576   2.314   1.681  13.237  0.7410 -0.3335  0.3641
  369TMC3     O 5577   2.244   1.579  13.262  0.2395  0.3300 -0.3319
  369TMC3     H 5578   2.416   1.933  13.174 -0.3915 -0.4174 -0.2579
  369TMC3    H1 5579   2.078   1.708  13.313 -0.6512 -0.8519 -2.7471
  369TMC3    H2 5580   2.061   2.129  13.315 -1.5882 -0.4595  0.5075
  369TMC3    C7 5581   1.915   1.896  13.362 -0.3112 -0.0475 -0.1952
  369TMC3    C8 5582   2.291   2.171  13.201 -0.0356  0.3846 -0.8626
  369TMC3    O1 5583   1.880   1.798  13.425  0.1669  0.0053 -0.1504
  369TMC3    O2 5584   2.217   2.268  13.205  0.3659  0.1437 -0.8719
  370TMC3    C1 5585   2.359   2.913  16.328  0.1725  0.6332  0.3712
  370TMC3    C2 5586   2.246   2.869  16.392 -0.2981 -0.2819  0.8633
  370TMC3    C3 5587   2.181   2.764  16.330 -0.4077 -0.3257  0.1159
  370TMC3    C4 5588   2.403   2.868  16.206  0.9865 -0.0523 -0.9539
  370TMC3    C5 5589   2.337   2.767  16.144 -0.2079 -0.5376  0.7636
  370TMC3    C6 5590   2.222   2.713  16.211  0.4865  0.5305 -1.0308
  370TMC3     C 5591   2.431   3.029  16.404  0.2727  0.0022  0.6614
  370TMC3     O 5592   2.401   3.043  16.520 -0.4002  0.0942  0.3717
  370TMC3     H 5593   2.212   2.917  16.483 -1.1083 -2.4952  1.7251
  370TMC3    H1 5594   2.495   2.911  16.168  0.1448  0.2099 -2.6549
  370TMC3    H2 5595   2.169   2.625  16.176  1.2339 -0.0586 -0.6863
  370TMC3    C7 5596   2.414   2.684  16.056  0.0793 -0.4597 -0.2953
  370TMC3    C8 5597   2.128   2.666  16.426 -0.5202 -0.2040  0.4911
  370TMC3    O1 5598   2.535   2.708  16.067 -0.0552 -0.5115 -0.2709
  370TMC3    O2 5599   2.106   2.554  16.380  0.4728 -0.2635 -0.2906
  371TMC3    C1 5600   3.393   0.977  15.487  0.2325 -0.2839 -0.4561
  371TMC3    C2 5601   3.348   1.034  15.612  0.0832 -0.3655  0.4096
  371TMC3    C3 5602   3.291   1.156  15.602 -0.2677 -0.0439  0.5725
  371TMC3    C4 5603   3.427   1.057  15.385  0.4785  0.1050  0.3916
  371TMC3    C5 5604   3.376   1.182  15.386 -0.3196 -0.4865  0.0509
  371TMC3    C6 5605   3.302   1.231  15.487 -0.4330  0.6597  0.2088
  371TMC3     C 5606   3.462   0.846  15.483  0.2027 -0.6077  0.1498
  371TMC3     O 5607   3.528   0.826  15.380 -0.4743 -0.1204  0.5696
  371TMC3     H 5608   3.343   0.975  15.703  1.1792  0.0461  0.7287
  371TMC3    H1 5609   3.471   1.014  15.295 -0.0583 -0.3757  0.3638
  371TMC3    H2 5610   3.268   1.334  15.488 -0.5247  0.6400 -0.5545
  371TMC3    C7 5611   3.451   1.277  15.306 -0.7159 -0.3597  0.6316
  371TMC3    C8 5612   3.292   1.232  15.726 -0.0049  0.8457 -0.0096
  371TMC3    O1 5613   3.383   1.373  15.282  0.4607 -0.4357  0.0258
  371TMC3    O2 5614   3.358   1.185  15.821 -0.4967 -0.2726  0.3568
  372MPD2     C 5615   3.118   2.368  13.324  0.5609 -0.5594 -0.5877
  372MPD2    C1 5616   3.207   2.281  13.384  0.2960 -0.4975 -1.0009
  372MPD2    C2 5617   3.154   2.183  13.474  0.8379 -0.5059  0.0738
  372MPD2    C3 5618   3.019   2.171  13.486 -0.3462  0.5845 -0.6312
  372MPD2    C4 5619   2.931   2.248  13.412 -0.4626  0.8488 -0.4050
  372MPD2    C5 5620   2.978   2.353  13.342 -0.2598  0.0620  0.0044
  372MPD2     H 5621   3.218   2.124  13.539  0.1751 -1.7554 -0.4176
  372MPD2    H1 5622   2.823   2.242  13.414 -0.3370 -0.9120  2.0072
  372MPD2    H2 5623   3.149   2.455  13.267 -0.4599  0.4747  0.4404
  372MPD2    H3 5624   2.909   2.414  13.285 -1.1764  2.0529  3.2333
  372MPD2     N 5625   2.974   2.075  13.584  0.5561  0.0631  0.0659
  372MPD2    H5 5626   3.034   1.998  13.612  1.8363  0.8675 -0.4494
  372MPD2    N1 5627   3.352   2.313  13.391  0.5461 -0.2593  0.4120
  372MPD2    H7 5628   3.406   2.269  13.466 -1.2651 -1.4209  1.0416
  373TMC3    C1 5629   2.820   1.976  13.734 -0.2079  0.5640  0.5487
  373TMC3    C2 5630   2.721   2.016  13.810  0.0293  0.1465  0.1911
  373TMC3    C3 5631   2.642   1.917  13.870  0.1448  0.1160 -0.5352
  373TMC3    C4 5632   2.856   1.847  13.709 -0.1385  1.0874 -0.1122
  373TMC3    C5 5633   2.775   1.749  13.762  0.2786  0.6897 -0.6808
  373TMC3    C6 5634   2.661   1.785  13.832  0.6434  0.0068  0.3155
  373TMC3     C 5635   2.849   2.077  13.629 -0.2058 -0.0194  0.1084
  373TMC3     O 5636   2.767   2.166  13.628 -0.1727  0.8162  0.1520
  373TMC3     H 5637   2.715   2.120  13.841 -1.5234 -0.3388  1.5071
  373TMC3    H1 5638   2.941   1.818  13.650 -0.9198  0.4846 -0.9409
  373TMC3    H2 5639   2.599   1.708  13.876  0.9978  1.2904  3.0666
  373TMC3    C7 5640   2.817   1.613  13.741 -0.2094 -0.1442  0.1575
  373TMC3    C8 5641   2.549   1.949  13.975  0.1136 -0.4770 -0.0660
  373TMC3    O1 5642   2.912   1.593  13.670  0.2772 -0.2166  0.0213
  373TMC3    O2 5643   2.484   2.052  13.965 -0.3966  0.4057 -0.2858
  374TMC3    C1 5644   3.304   2.975   9.365 -0.4243  0.5676  0.4449
  374TMC3    C2 5645   3.426   3.023   9.406 -0.2225 -0.4134 -0.4261
  374TMC3    C3 5646   3.475   3.132   9.337  0.1191 -0.2944 -0.2642
  374TMC3    C4 5647   3.230   3.018   9.257 -0.0837 -0.0618 -0.5596
  374TMC3    C5 5648   3.297   3.114   9.189  0.3661 -0.3684 -0.4140
  374TMC3    C6 5649   3.410   3.180   9.232 -0.6385  0.0903  0.4456
  374TMC3     C 5650   3.263   2.857   9.439 -0.0093 -0.3330 -0.4631
  374TMC3     O 5651   3.321   2.835   9.547 -0.4479 -0.4089 -0.5142
  374TMC3     H 5652   3.477   2.970   9.485  0.1069 -0.2263 -0.5175
  374TMC3    H1 5653   3.140   2.965   9.227  1.2621 -1.9822 -1.1989
  374TMC3    H2 5654   3.448   3.260   9.170  0.5996 -0.5260  0.4195
  374TMC3    C7 5655   3.212   3.187   9.089  0.1057 -0.1231 -0.3295
  374TMC3    C8 5656   3.608   3.190   9.376  0.2674  0.1268 -0.5785
  374TMC3    O1 5657   3.220   3.306   9.097  0.2705 -0.0869  0.0947
  374TMC3    O2 5658   3.636   3.299   9.333  0.9676  0.0194  0.5136
  375MPD2     C 5659   3.259   2.427  17.227  0.3520 -0.6342  0.5221
  375MPD2    C1 5660   3.265   2.553  17.163  0.2860  0.2177 -0.5024
  375MPD2    C2 5661   3.331   2.561  17.042  0.2254  0.2262  0.0044
  375MPD2    C3 5662   3.380   2.451  16.980 -0.6233  0.3700  0.1485
  375MPD2    C4 5663   3.383   2.327  17.045  0.2677  0.9325  0.3749
  375MPD2    C5 5664   3.321   2.320  17.171  0.2776 -0.2743 -0.4870
  375MPD2     H 5665   3.327   2.658  16.993 -2.8682 -0.2639 -0.7251
  375MPD2    H1 5666   3.430   2.246  16.990 -0.0878  0.7533  0.3371
  375MPD2    H2 5667   3.208   2.425  17.323 -0.4469 -0.1105  0.1125
  375MPD2    H3 5668   3.339   2.233  17.232 -0.9284 -0.9134 -1.0407
  375MPD2     N 5669   3.431   2.456  16.842  0.5338 -0.2981  0.3055
  375MPD2    H5 5670   3.481   2.373  16.811  0.5971 -0.3707  0.6031
  375MPD2    N1 5671   3.197   2.668  17.210  0.0848  0.2860  0.4777
  375MPD2    H7 5672   3.209   2.758  17.165  1.7412 -0.6078 -0.8626
  376TMC3    C1 5673   3.485   2.554  16.636 -0.1012 -0.3938 -0.0586
  376TMC3    C2 5674   3.579   2.458  16.602 -0.6630 -0.0553  0.1426
  376TMC3    C3 5675   3.605   2.428  16.472  0.3588  0.0302  0.5240
  376TMC3    C4 5676   3.426   2.629  16.536 -0.3886  0.1999  0.5194
  376TMC3    C5 5677   3.452   2.600  16.402 -0.5079 -0.0063 -0.3312
  376TMC3    C6 5678   3.533   2.493  16.364  0.1248  0.3402  0.9366
  376TMC3     C 5679   3.421   2.570  16.766 -0.5558 -0.4758 -0.3496
  376TMC3     O 5680   3.326   2.652  16.775  0.1524  0.2249  0.6097
  376TMC3     H 5681   3.645   2.412  16.675 -0.0198 -1.3062 -1.2463
  376TMC3    H1 5682   3.365   2.716  16.557  0.2911  0.8901 -0.3732
  376TMC3    H2 5683   3.557   2.468  16.261  0.4330  2.4389  0.4891
  376TMC3    C7 5684   3.438   2.712  16.311  0.5005  0.1151  0.5542
  376TMC3    C8 5685   3.737   2.391  16.428 -0.3727  0.4994 -0.2955
  376TMC3    O1 5686   3.407   2.822  16.354  0.0612  0.2085 -0.1689
  376TMC3    O2 5687   3.772   2.431  16.317 -0.4165  0.2503 -0.3039
  377MPD2     C 5688   1.239   2.898  12.360 -0.7875  0.3550 -0.1225
  377MPD2    C1 5689   1.335   2.831  12.433 -0.2065 -0.0632  0.0054
  377MPD2    C2 5690   1.295   2.747  12.536  0.0141  0.1049 -0.3926
  377MPD2    C3 5691   1.159   2.725  12.564  0.6041 -0.7553  0.0722
  377MPD2    C4 5692   1.064   2.794  12.484  0.2302  0.3019 -0.1328
  377MPD2    C5 5693   1.104   2.880  12.387  0.1288 -0.6377 -0.0272
  377MPD2     H 5694   1.376   2.701  12.593  0.6438  0.8740 -0.6683
  377MPD2    H1 5695   0.960   2.775  12.504  0.5515  0.1143  1.3436
  377MPD2    H2 5696   1.265   2.963  12.277  1.5499  1.3849  1.4348
  377MPD2    H3 5697   1.033   2.935  12.326  2.4167 -0.3907 -2.5206
  377MPD2     N 5698   1.104   2.660  12.675 -0.8536 -0.1935  0.4861
  377MPD2    H5 5699   1.003   2.660  12.684 -0.6489 -1.1132  2.7593
  377MPD2    N1 5700   1.469   2.852  12.396  0.4128 -0.6371  0.3267
  377MPD2    H7 5701   1.484   2.924  12.326  0.2347 -1.1269 -0.2087
  378TMC3    C1 5702   1.773   2.982  12.215 -0.6258 -0.7543 -0.4196
  378TMC3    C2 5703   1.701   2.963  12.333  0.6748  0.9273 -0.2546
  378TMC3    C3 5704   1.708   2.847  12.395  0.5417 -0.4704 -0.1842
  378TMC3    C4 5705   1.869   2.892  12.180 -0.0419 -0.3563 -0.5433
  378TMC3    C5 5706   1.890   2.779  12.261 -0.2547  0.0314 -0.0559
  378TMC3    C6 5707   1.810   2.760  12.370 -0.2836 -0.7388 -0.6317
  378TMC3     C 5708   1.674   3.003  12.105  0.4022  0.1069 -0.2891
  378TMC3     O 5709   1.557   3.007  12.141  0.0061  0.3957  1.0771
  378TMC3     H 5710   1.636   3.041  12.371 -1.3311 -0.5068 -0.7880
  378TMC3    H1 5711   1.921   2.905  12.086 -0.0640 -1.3215 -0.6876
  378TMC3    H2 5712   1.819   2.667  12.425 -1.4378  0.6098  1.8422
  378TMC3    C7 5713   2.023   2.731  12.271  0.0879 -0.3273 -0.5126
  378TMC3    C8 5714   1.582   2.790  12.447 -0.1460  0.7330  0.1665
  378TMC3    O1 5715   2.051   2.679  12.374  0.0046 -0.3968 -0.0529
  378TMC3    O2 5716   1.593   2.688  12.513  0.0810 -0.2617  0.8242
  379MPD2     C 5717   2.365   0.437  15.781  0.6229  0.0238  0.8716
  379MPD2    C1 5718   2.328   0.551  15.848  0.2047 -0.3298 -0.0318
  379MPD2    C2 5719   2.399   0.581  15.967  0.2592  0.6686 -0.1320
  379MPD2    C3 5720   2.497   0.494  16.010  0.6802  0.1021 -0.2727
  379MPD2    C4 5721   2.532   0.379  15.942  1.0482 -0.1890  0.0645
  379MPD2    C5 5722   2.464   0.347  15.826 -0.4937  0.1936 -0.0708
  379MPD2     H 5723   2.383   0.674  16.020 -2.8760 -0.1254  0.3408
  379MPD2    H1 5724   2.618   0.324  15.978  2.1064 -0.6706 -3.1667
  379MPD2    H2 5725   2.307   0.412  15.693 -1.2948  3.3839  1.1834
  379MPD2    H3 5726   2.507   0.267  15.767 -0.3917 -1.6130  2.4229
  379MPD2     N 5727   2.581   0.526  16.119 -0.5575  0.0766  0.4857
  379MPD2    H5 5728   2.662   0.470  16.140  0.3123  2.1321  2.6981
  379MPD2    N1 5729   2.221   0.634  15.802 -0.3198  0.7424 -0.1922
  379MPD2    H7 5730   2.188   0.603  15.712 -0.3255 -0.9982  0.3889
  380TMC3    C1 5731   2.010   0.741  15.814  0.2107 -0.0200  0.1362
  380TMC3    C2 5732   1.956   0.634  15.756 -0.2105  0.4498 -0.2139
  380TMC3    C3 5733   1.822   0.647  15.707  0.3025 -0.0366 -0.1496
  380TMC3    C4 5734   1.930   0.856  15.841 -0.3207  0.4845 -0.7224
  380TMC3    C5 5735   1.812   0.868  15.782  0.5333 -0.1368 -0.2701
  380TMC3    C6 5736   1.751   0.768  15.721  0.4130  0.6719  0.1774
  380TMC3     C 5737   2.145   0.721  15.875 -0.2799  0.0349  0.3512
  380TMC3     O 5738   2.173   0.788  15.970  0.4719  0.2681  0.5458
  380TMC3     H 5739   2.009   0.539  15.752  1.9662  1.5991  1.4075
  380TMC3    H1 5740   1.964   0.944  15.894  1.0341 -0.2204 -0.4175
  380TMC3    H2 5741   1.657   0.784  15.670  2.1551 -0.2210 -3.3734
  380TMC3    C7 5742   1.789   0.999  15.722 -0.0220  0.9789 -0.3487
  380TMC3    C8 5743   1.776   0.560  15.598 -1.0315 -0.0806 -0.3424
  380TMC3    O1 5744   1.890   1.060  15.700  0.2558  0.5157 -0.0373
  380TMC3    O2 5745   1.675   0.599  15.540 -0.0546 -0.6053 -0.5344
  381TMC3    C1 5746   1.943   2.310  16.203  0.4619  0.0484  0.3499
  381TMC3    C2 5747   2.078   2.302  16.177 -0.0829  0.5174 -0.0735
  381TMC3    C3 5748   2.171   2.243  16.265  0.6172 -0.5216 -0.1706
  381TMC3    C4 5749   1.895   2.250  16.316  0.1603 -0.3252  0.0186
  381TMC3    C5 5750   1.991   2.198  16.404 -0.0319 -0.3760  0.3191
  381TMC3    C6 5751   2.129   2.192  16.384 -0.4371 -0.0298 -0.5332
  381TMC3     C 5752   1.866   2.403  16.130 -0.5101 -0.2138 -0.7978
  381TMC3     O 5753   1.920   2.437  16.028 -0.3095  0.3630  0.4721
  381TMC3     H 5754   2.121   2.349  16.089 -0.8788 -1.2849 -1.4335
  381TMC3    H1 5755   1.792   2.221  16.329 -0.1254 -0.4065 -2.4509
  381TMC3    H2 5756   2.203   2.142  16.446  1.5140  2.0506 -1.1804
  381TMC3    C7 5757   1.953   2.101  16.500  0.8003 -0.5931  0.2489
  381TMC3    C8 5758   2.307   2.291  16.257  0.1700  0.0066  0.4239
  381TMC3    O1 5759   2.025   2.004  16.524  0.0368  0.0354  0.3287
  381TMC3    O2 5760   2.359   2.279  16.148 -0.1984 -0.8831 -0.0697
  382MPD2     C 5761   1.140   4.696  16.569 -0.1658  0.4761 -0.1533
  382MPD2    C1 5762   1.192   4.724  16.691  0.2770 -0.7954  0.4919
  382MPD2    C2 5763   1.255   4.624  16.765  0.0535  0.2606 -0.3043
  382MPD2    C3 5764   1.247   4.492  16.722 -0.1370 -0.6299 -0.1659
  382MPD2    C4 5765   1.200   4.469  16.596  0.9008  0.5819 -0.3741
  382MPD2    C5 5766   1.144   4.574  16.522  0.8762 -0.4141 -1.0909
  382MPD2     H 5767   1.316   4.640  16.853  1.3689  1.4841 -1.4488
  382MPD2    H1 5768   1.198   4.370  16.552  0.2719  0.7184 -0.6469
  382MPD2    H2 5769   1.089   0.036  16.514  1.1912 -0.1177 -2.2451
  382MPD2    H3 5770   1.110   4.546  16.423  2.2776  0.6202 -1.8564
  382MPD2     N 5771   1.286   4.382  16.795  0.2299 -0.6734  0.6607
  382MPD2    H5 5772   1.265   4.292  16.753  1.9375  0.6217 -2.9738
  382MPD2    N1 5773   1.196   0.111  16.750  0.5436 -0.6713  0.3181
  382MPD2    H7 5774   1.247   0.128  16.836 -0.5604  0.9859  0.6570
  383TMC3    C1 5775   1.361   4.249  16.980 -0.0967 -0.3797 -0.8663
  383TMC3    C2 5776   1.235   4.188  16.985 -0.7958 -0.0804 -0.1325
  383TMC3    C3 5777   1.211   4.126  17.108 -0.5385  1.1394 -0.5427
  383TMC3    C4 5778   1.455   4.247  17.081  0.1912  0.1592 -0.2168
  383TMC3    C5 5779   1.419   4.204  17.200  0.5036 -0.3173 -0.5375
  383TMC3    C6 5780   1.287   4.152  17.218 -0.0974 -0.0413  0.3779
  383TMC3     C 5781   1.348   4.381  16.916 -0.4060  0.2387  0.6337
  383TMC3     O 5782   1.390   4.476  16.977 -0.4027  0.6898 -0.4219
  383TMC3     H 5783   1.175   4.166  16.898  0.0908  0.2329 -0.8196
  383TMC3    H1 5784   1.546   4.304  17.065  0.1328  0.4089  0.3557
  383TMC3    H2 5785   1.262   4.103  17.312 -0.9721  0.7243  0.5404
  383TMC3    C7 5786   1.476   4.278  17.318 -0.4747  0.5614  0.3405
  383TMC3    C8 5787   1.098   4.025  17.117  0.1212 -0.2257 -0.1042
  383TMC3    O1 5788   1.578   4.339  17.288 -0.2341  0.5174 -0.5520
  383TMC3    O2 5789   1.026   4.035  17.018  0.5996  0.2282  0.2061
  384MPD2     C 5790   2.563   0.907  12.098  0.2656 -0.9855  0.2149
  384MPD2    C1 5791   2.638   0.836  12.188 -0.2527 -0.0526  0.4142
  384MPD2    C2 5792   2.745   0.767  12.131 -0.0589 -0.3343 -0.2193
  384MPD2    C3 5793   2.784   0.781  11.997 -0.0519 -0.3374  0.4591
  384MPD2    C4 5794   2.702   0.846  11.906 -0.0047  0.0630 -0.0862
  384MPD2    C5 5795   2.590   0.908  11.961 -0.2645  0.5297  0.4356
  384MPD2     H 5796   2.813   0.721  12.201 -0.4143 -0.8137 -0.1857
  384MPD2    H1 5797   2.717   0.861  11.800 -1.2520 -0.5331 -0.3376
  384MPD2    H2 5798   2.474   0.959  12.134  0.5876 -1.4640  1.7124
  384MPD2    H3 5799   2.526   0.973  11.902 -0.9531  0.2036  0.8153
  384MPD2     N 5800   2.922   0.739  11.973  0.2221  1.1341 -0.0996
  384MPD2    H5 5801   2.981   0.718  12.052  0.6670  0.8352 -0.5076
  384MPD2    N1 5802   2.615   0.832  12.328  0.0307 -0.5698 -0.0428
  384MPD2    H7 5803   2.691   0.790  12.381  0.9626  0.4172 -0.6199
  385TMC3    C1 5804   3.090   0.637  11.856  0.1520 -0.6280  0.5216
  385TMC3    C2 5805   3.089   0.504  11.818  0.2464  0.3634 -0.4082
  385TMC3    C3 5806   3.159   0.404  11.883  0.7873 -0.6014 -0.7978
  385TMC3    C4 5807   3.171   0.679  11.952 -0.3833 -0.0726  0.1645
  385TMC3    C5 5808   3.223   0.584  12.028  0.0447  0.5448  0.4748
  385TMC3    C6 5809   3.233   0.452  11.986  0.2003  1.0908  0.9219
  385TMC3     C 5810   2.964   0.704  11.848 -0.1429 -0.1961  0.1870
  385TMC3     O 5811   2.900   0.690  11.740  0.4774 -0.1807  0.3681
  385TMC3     H 5812   3.020   0.480  11.739 -1.1111  0.7602  0.6664
  385TMC3    H1 5813   3.156   0.779  11.990 -0.8673 -0.2413  0.4260
  385TMC3    H2 5814   3.267   0.373  12.052  0.5501  1.6611  1.4208
  385TMC3    C7 5815   3.178   0.589  12.165 -0.2485  0.4569 -0.1552
  385TMC3    C8 5816   3.109   0.264  11.890 -0.1733 -0.2879  0.8981
  385TMC3    O1 5817   3.064   0.637  12.173 -0.9990 -0.0118  0.0714
  385TMC3    O2 5818   3.157   0.197  11.983  0.0012 -0.5930 -0.2202
  386TMC3    C1 5819   2.950   2.905  11.824  0.7399 -1.0138 -0.0485
  386TMC3    C2 5820   2.956   3.007  11.731  0.2423 -0.0645 -0.7169
  386TMC3    C3 5821   2.851   3.098  11.726  0.6967 -0.0389 -0.4566
  386TMC3    C4 5822   2.851   2.904  11.918 -0.0910 -0.3152 -0.6296
  386TMC3    C5 5823   2.752   2.993  11.908  0.4295 -0.0183 -0.2055
  386TMC3    C6 5824   2.745   3.087  11.810 -0.5219 -0.1023 -0.0530
  386TMC3     C 5825   3.068   2.819  11.836  0.7836  0.4287  0.1820
  386TMC3     O 5826   3.168   2.867  11.784  0.1962 -0.3415  0.0988
  386TMC3     H 5827   3.030   3.002  11.652 -0.1431  0.2973 -1.1009
  386TMC3    H1 5828   2.861   2.830  11.997 -1.5336  1.3431  1.1272
  386TMC3    H2 5829   2.658   3.150  11.818 -0.6483 -0.1493 -1.1436
  386TMC3    C7 5830   2.667   2.998  12.032 -0.2598 -0.1170  0.5582
  386TMC3    C8 5831   2.815   3.126  11.585 -0.6416  0.0353  0.4784
  386TMC3    O1 5832   2.697   2.920  12.118  0.2717  0.2235  0.4928
  386TMC3    O2 5833   2.859   3.054  11.501 -0.1031  0.4061 -0.4460
  387MPD2     C 5834   0.675   3.487   9.710  0.2171  0.2757 -0.7479
  387MPD2    C1 5835   0.797   3.425   9.712  0.4394 -0.7567 -0.4956
  387MPD2    C2 5836   0.808   3.293   9.695  0.7028  0.5969 -0.3612
  387MPD2    C3 5837   0.698   3.215   9.670  0.6806 -0.5060  0.5173
  387MPD2    C4 5838   0.572   3.279   9.659  0.1408  0.2864  0.4281
  387MPD2    C5 5839   0.564   3.412   9.682  0.2239 -0.3613  0.0911
  387MPD2     H 5840   0.909   3.255   9.689  0.0501 -1.1296 -0.4865
  387MPD2    H1 5841   0.493   3.210   9.631  1.4422 -1.4387  0.9673
  387MPD2    H2 5842   0.663   3.592   9.736  0.7599  0.6995 -2.1851
  387MPD2    H3 5843   0.468   3.461   9.670  0.1151 -0.1975  1.5896
  387MPD2     N 5844   0.722   3.078   9.644  0.3316  0.4404  0.4912
  387MPD2    H5 5845   0.818   3.045   9.648  0.6968  1.7071  1.8019
  387MPD2    N1 5846   0.916   3.496   9.750 -0.1480  0.8183  0.8471
  387MPD2    H7 5847   1.002   3.447   9.725  1.1375  3.2497  0.5023
  388TMC3    C1 5848   1.052   3.634   9.892 -0.2117 -0.3504  0.2135
  388TMC3    C2 5849   1.048   3.751   9.958 -0.4270  0.5725 -0.2159
  388TMC3    C3 5850   1.094   3.744  10.085  0.4684  0.2537 -0.3950
  388TMC3    C4 5851   1.101   3.521   9.954  0.3516  0.5362 -0.8139
  388TMC3    C5 5852   1.137   3.519  10.086  1.2646  0.4174 -1.1600
  388TMC3    C6 5853   1.148   3.639  10.148  0.4709 -0.9694  0.2514
  388TMC3     C 5854   0.929   3.615   9.817 -0.1407 -0.4270  0.8526
  388TMC3     O 5855   0.842   3.695   9.845 -0.1128 -0.3792  0.5276
  388TMC3     H 5856   1.006   3.842   9.918 -0.3798  0.6856 -0.0088
  388TMC3    H1 5857   1.100   3.423   9.908  0.0707 -0.0020  0.3450
  388TMC3    H2 5858   1.192   3.644  10.247  1.8633  0.7184 -0.4385
  388TMC3    C7 5859   1.184   3.395  10.142 -0.3748 -0.7360  0.3635
  388TMC3    C8 5860   1.104   3.872  10.165 -0.6040 -0.5874  0.4188
  388TMC3    O1 5861   1.296   3.389  10.193 -0.2573 -0.7420 -0.0131
  388TMC3    O2 5862   1.100   3.975  10.099  0.6751  0.1059  0.8611
  389MPD2     C 5863   4.412   1.434  11.152  0.2597  0.1529  0.1277
  389MPD2    C1 5864   4.293   1.395  11.089 -0.5198 -0.5018  0.5043
  389MPD2    C2 5865   4.197   1.326  11.171  0.3668 -0.0598 -1.1425
  389MPD2    C3 5866   4.218   1.309  11.304  0.7927 -0.0147  0.3110
  389MPD2    C4 5867   4.337   1.357  11.360 -0.0885  0.3274 -0.1839
  389MPD2    C5 5868   4.429   1.422  11.289 -0.6457 -0.0326  0.3598
  389MPD2     H 5869   4.099   1.297  11.135  0.6440  0.6827 -2.4598
  389MPD2    H1 5870   4.354   1.333  11.464  2.1399  0.0205 -0.6124
  389MPD2    H2 5871   4.476   1.498  11.093  0.0908  0.0395 -0.1772
  389MPD2    H3 5872   4.516   1.464  11.339 -1.6581 -0.1506  2.2058
  389MPD2     N 5873   4.126   1.248  11.391  0.0561  0.2875 -0.1576
  389MPD2    H5 5874   4.146   1.271  11.487  1.9873 -2.1356  0.0211
  389MPD2    N1 5875   4.282   1.405  10.953 -0.3148  0.3323 -0.3064
  389MPD2    H7 5876   4.345   1.473  10.912  0.3314 -1.1251 -1.7325
  390TMC3    C1 5877   3.955   1.114  11.472  0.3652  0.6471  0.4146
  390TMC3    C2 5878   3.902   0.987  11.476 -0.1485  0.3001 -0.2335
  390TMC3    C3 5879   3.844   0.939  11.590  0.0320  0.2227  0.0888
  390TMC3    C4 5880   3.955   1.192  11.585 -0.9201  0.4254  0.6578
  390TMC3    C5 5881   3.891   1.143  11.699 -0.5547 -0.4338  0.0613
  390TMC3    C6 5882   3.835   1.013  11.707 -0.3414  0.1880 -0.0027
  390TMC3     C 5883   4.033   1.157  11.355 -0.1018  0.4284 -0.1791
  390TMC3     O 5884   4.013   1.101  11.252 -0.2829 -0.2344 -0.3352
  390TMC3     H 5885   3.909   0.923  11.389 -1.9289  0.9378 -0.8278
  390TMC3    H1 5886   4.007   1.286  11.598  0.1145 -0.1649  0.7490
  390TMC3    H2 5887   3.773   0.978  11.789  0.2894 -0.4501  0.2080
  390TMC3    C7 5888   3.939   1.194  11.829 -1.1084  0.4606 -0.6341
  390TMC3    C8 5889   3.792   0.806  11.585  0.6498  0.3940 -0.4601
  390TMC3    O1 5890   4.025   1.289  11.831  0.2165 -0.4428 -0.0196
  390TMC3    O2 5891   3.727   0.765  11.488 -0.2322  0.3295 -0.9203
  391MPD2     C 5892   3.689   2.615  10.749 -0.5858 -0.1191  0.1735
  391MPD2    C1 5893   3.807   2.689  10.758  0.8188  0.7488 -0.2921
  391MPD2    C2 5894   3.875   2.727  10.644  0.0993  0.2099  0.0314
  391MPD2    C3 5895   3.830   2.690  10.518  0.0120  0.2355 -0.4742
  391MPD2    C4 5896   3.711   2.610  10.512  0.4419  0.1575 -0.0921
  391MPD2    C5 5897   3.647   2.575  10.632  0.0131  0.0463  0.6234
  391MPD2     H 5898   3.964   2.789  10.642 -0.0316  0.3080 -2.4826
  391MPD2    H1 5899   3.672   2.564  10.422  0.0718 -0.1401  0.2201
  391MPD2    H2 5900   3.634   2.579  10.836 -0.1354  0.1924  0.5871
  391MPD2    H3 5901   3.558   2.514  10.628  1.1019 -1.6224  1.4920
  391MPD2     N 5902   3.903   2.725  10.401 -0.1516 -0.2236  0.1666
  391MPD2    H5 5903   3.996   2.759  10.424 -1.6503  3.2819  1.0133
  391MPD2    N1 5904   3.859   2.718  10.891 -0.1400  0.3997 -0.4597
  391MPD2    H7 5905   3.814   2.677  10.973 -0.1307 -0.6762 -1.0031
  392TMC3    C1 5906   3.954   2.727  10.168  0.0538  0.8202  0.3365
  392TMC3    C2 5907   3.914   2.747  10.037 -0.3346  0.5464  0.6884
  392TMC3    C3 5908   4.005   2.800   9.951 -0.3439 -0.2445 -0.2843
  392TMC3    C4 5909   4.076   2.770  10.212  0.2021  0.2147  0.2515
  392TMC3    C5 5910   4.161   2.832  10.124  0.0510  0.8907  0.1654
  392TMC3    C6 5911   4.125   2.855   9.993 -0.0100  0.3255 -0.6550
  392TMC3     C 5912   3.848   2.706  10.271 -0.1270  0.2524  0.0530
  392TMC3     O 5913   3.732   2.679  10.238 -0.0970  0.1199 -0.7165
  392TMC3     H 5914   3.813   2.719  10.010 -0.6546  0.5334  1.9024
  392TMC3    H1 5915   4.112   2.747  10.311  0.3411 -3.4644 -0.6605
  392TMC3    H2 5916   4.192   2.900   9.921  1.4785 -1.8709 -0.6672
  392TMC3    C7 5917   4.278   2.900  10.179 -0.2294  0.0844 -0.2542
  392TMC3    C8 5918   3.939   2.850   9.835 -0.3500  0.2749  0.0593
  392TMC3    O1 5919   4.277   2.948  10.289  0.5245 -0.8406 -0.0919
  392TMC3    O2 5920   3.835   2.800   9.796 -0.7036 -0.0321 -0.0943
  393TMC3    C1 5921   2.190   1.016  10.089 -0.2979  0.2153  0.1160
  393TMC3    C2 5922   2.106   0.965   9.992  0.0923 -0.3745 -0.0692
  393TMC3    C3 5923   2.044   0.849  10.015 -0.1053  0.0523 -0.2327
  393TMC3    C4 5924   2.208   0.938  10.208 -0.2820  0.4263 -0.7032
  393TMC3    C5 5925   2.146   0.820  10.220 -0.1663 -0.7186 -0.3976
  393TMC3    C6 5926   2.059   0.776  10.131  0.1336  0.4022  0.6144
  393TMC3     C 5927   2.262   1.138  10.064 -0.3347 -0.3209  0.2979
  393TMC3     O 5928   2.279   1.163   9.946 -0.4861  0.2812 -0.3994
  393TMC3     H 5929   2.081   1.031   9.910 -0.4072 -2.0017 -1.2198
  393TMC3    H1 5930   2.243   0.987  10.298  1.8352 -3.0973  0.3931
  393TMC3    H2 5931   2.008   0.683  10.152  1.2822 -0.0247  1.5135
  393TMC3    C7 5932   2.174   0.735  10.337  0.3918 -0.0672 -0.3763
  393TMC3    C8 5933   1.934   0.803   9.936  0.3640  0.1519 -0.0426
  393TMC3    O1 5934   2.093   0.650  10.365 -0.6406 -0.1065  0.4855
  393TMC3    O2 5935   1.852   0.737   9.998  0.1461  0.0567  0.1453
  394TMC3    C1 5936   4.198   1.389  10.730 -0.2558 -0.4462  0.1827
  394TMC3    C2 5937   4.080   1.380  10.651  0.2263 -0.6839  0.3240
  394TMC3    C3 5938   4.089   1.406  10.516  0.1448 -0.3199 -0.2104
  394TMC3    C4 5939   4.318   1.438  10.683 -0.0294 -0.1884  0.0924
  394TMC3    C5 5940   4.317   1.469  10.549  0.0690  0.2263 -0.0784
  394TMC3    C6 5941   4.209   1.440  10.466  0.4532 -0.4722  0.3270
  394TMC3     C 5942   4.185   1.350  10.865 -0.6304 -0.3113  0.1423
  394TMC3     O 5943   4.089   1.281  10.896 -0.0941 -0.2647 -0.0464
  394TMC3     H 5944   3.984   1.339  10.682 -0.3086  0.9547  0.8123
  394TMC3    H1 5945   4.397   1.471  10.749 -0.1953 -2.1554  1.2611
  394TMC3    H2 5946   4.208   1.455  10.359  0.4636  0.4425  0.4579
  394TMC3    C7 5947   4.428   1.543  10.486 -0.0676 -0.0939  0.2173
  394TMC3    C8 5948   3.988   1.339  10.435 -0.6077  0.2124  0.0613
  394TMC3    O1 5949   4.389   1.610  10.391 -0.1310 -0.0443 -0.3470
  394TMC3    O2 5950   3.870   1.352  10.469  0.0957  1.0793  0.9147
  395TMC3    C1 5951   4.547   3.062  14.900  0.3051 -0.3859 -0.4415
  395TMC3    C2 5952   4.410   3.069  14.899  0.2698  0.1411  0.4560
  395TMC3    C3 5953   4.350   3.193  14.920  0.2457  0.3823 -0.5269
  395TMC3    C4 5954   4.623   3.168  14.919 -0.0484 -0.6047 -0.0800
  395TMC3    C5 5955   4.560   3.288  14.934  0.2755  0.3244  0.2509
  395TMC3    C6 5956   4.425   3.302  14.947 -0.2114  0.1782  0.7695
  395TMC3     C 5957   4.614   2.937  14.862  0.6389  0.4093  0.5885
  395TMC3     O 5958   4.733   2.929  14.876  0.0873  0.4101  0.0364
  395TMC3     H 5959   4.344   2.983  14.895 -0.2202  0.4509  1.9923
  395TMC3    H1 5960   4.730   3.157  14.932  0.0481 -0.9313 -1.2095
  395TMC3    H2 5961   4.378   3.399  14.959 -2.3364 -0.7529  0.0816
  395TMC3    C7 5962   4.629   3.400  14.885  0.2807 -0.3346 -0.0273
  395TMC3    C8 5963   4.205   3.193  14.922 -0.3133  0.4625  0.4216
  395TMC3    O1 5964   4.615   3.509  14.938 -0.0677  0.1830 -0.1775
  395TMC3    O2 5965   4.152   3.284  14.982  0.1776 -0.0600 -0.1093
  396MPD2     C 5966   4.201   3.768  17.478  0.1687 -0.0707 -0.0788
  396MPD2    C1 5967   4.329   3.771  17.441 -0.1413 -0.5392  1.2927
  396MPD2    C2 5968   4.365   3.830  17.325  0.0710 -0.2602 -0.1606
  396MPD2    C3 5969   4.275   3.914  17.253  0.0092  0.0713  0.1639
  396MPD2    C4 5970   4.144   3.910  17.298  0.6298  0.2903  0.1055
  396MPD2    C5 5971   4.109   3.835  17.407  0.1352  0.5642  0.0072
  396MPD2     H 5972   4.465   3.812  17.287 -0.3474  1.7991 -2.2411
  396MPD2    H1 5973   4.065   3.964  17.246 -0.7782  1.2009  3.2055
  396MPD2    H2 5974   4.169   3.708  17.562 -0.8350  2.3126  1.2337
  396MPD2    H3 5975   4.004   3.830  17.434 -0.0389  1.4206 -0.4822
  396MPD2     N 5976   4.307   3.973  17.129  0.6386  0.2244  0.0510
  396MPD2    H5 5977   4.405   3.963  17.104  0.4064 -0.5240 -0.5503
  396MPD2    N1 5978   4.417   3.692  17.515 -0.8636 -0.2147  0.1661
  396MPD2    H7 5979   4.375   3.621  17.574 -2.6613  0.5538 -0.2005
  397TMC3    C1 5980   4.622   3.582  17.529 -0.0141 -0.1658  0.2227
  397TMC3    C2 5981   4.714   3.572  17.424  0.4280 -0.0646 -0.7576
  397TMC3    C3 5982   4.678   3.510  17.301 -0.6082 -0.4353  0.3850
  397TMC3    C4 5983   4.521   3.492  17.527 -0.0662 -0.2041  0.6393
  397TMC3    C5 5984   4.507   3.412  17.414 -0.6024  0.3654  0.4291
  397TMC3    C6 5985   4.575   3.419  17.294 -1.1471 -0.4128  1.1814
  397TMC3     C 5986   4.552   3.712  17.510 -0.2087  0.0855 -0.1888
  397TMC3     O 5987   4.610   3.805  17.466 -0.3841  0.7049  0.1739
  397TMC3     H 5988   0.057   3.644  17.428  1.9228 -1.8478  0.5779
  397TMC3    H1 5989   4.478   3.467  17.623 -1.6491 -0.1281 -0.0509
  397TMC3    H2 5990   4.543   3.368  17.204  0.9265  2.0483 -0.9403
  397TMC3    C7 5991   4.379   3.353  17.397 -0.6618 -0.3008 -0.2049
  397TMC3    C8 5992   4.671   3.601  17.186 -0.8004  0.1107 -0.7099
  397TMC3    O1 5993   4.359   3.298  17.289 -0.2271  0.2982 -0.0295
  397TMC3    O2 5994   4.596   3.571  17.098  0.3595 -0.6542 -0.2188
  398MPD2     C 5995   2.326   0.822  17.595 -0.1693  0.0857  0.1302
  398MPD2    C1 5996   2.393   0.744  17.686 -0.4343 -0.6710 -0.6837
  398MPD2    C2 5997   2.449   0.801   0.045  0.1374  0.2019  0.0909
  398MPD2    C3 5998   2.437   0.938   0.069  0.3391  0.2201 -0.2009
  398MPD2    C4 5999   2.377   1.021  17.726  0.1864 -0.0550 -0.1240
  398MPD2    C5 6000   2.328   0.963  17.614  0.0411 -0.4017 -0.3839
  398MPD2     H 6001   2.506   0.734   0.109 -0.2590  0.9088  1.1740
  398MPD2    H1 6002   2.370   1.129  17.733 -3.3452 -0.4033  1.6172
  398MPD2    H2 6003   2.278   0.782  17.506 -0.0184 -2.3878  1.1656
  398MPD2    H3 6004   2.282   1.024  17.537  0.8070  0.2997 -0.2895
  398MPD2     N 6005   2.477   0.997   0.192 -0.2441  0.3116 -0.0628
  398MPD2    H5 6006   2.543   0.941   0.245 -0.3438 -0.6874 -0.9964
  398MPD2    N1 6007   2.397   0.608  17.675 -1.2401 -0.0714  0.2844
  398MPD2    H7 6008   2.461   0.555  17.733 -1.6012 -0.4371  0.3446
  399TMC3    C1 6009   2.360   0.399  17.598 -0.1249 -0.2112  0.3219
  399TMC3    C2 6010   2.494   0.373  17.615 -0.2744 -0.3168  0.5672
  399TMC3    C3 6011   2.541   0.242  17.610  0.4900  0.4033 -0.2022
  399TMC3    C4 6012   2.269   0.297  17.564  0.2286 -0.5077 -0.2474
  399TMC3    C5 6013   2.321   0.172  17.543  0.2103  0.1823  0.1303
  399TMC3    C6 6014   2.451   0.140  17.570  0.1161 -0.0737  0.3021
  399TMC3     C 6015   2.318   0.532  17.586 -0.2787 -0.1614  0.5379
  399TMC3     O 6016   2.204   0.548  17.546  0.3054 -0.1611  0.2009
  399TMC3     H 6017   2.572   0.442  17.642 -0.9065 -0.5383  2.9513
  399TMC3    H1 6018   2.161   0.311  17.558 -0.1806 -4.2774 -1.6439
  399TMC3    H2 6019   2.488   0.039  17.559 -1.7326 -0.7413  0.2899
  399TMC3    C7 6020   2.235   0.062  17.516 -0.6782  0.4754 -0.7273
  399TMC3    C8 6021   2.687   0.223  17.607  0.0753 -0.7346  0.1154
  399TMC3    O1 6022   2.258   4.700  17.578 -0.1972 -0.0250  0.3920
  399TMC3    O2 6023   2.758   0.318  17.631  0.0822  0.5149 -0.3205
  400TMC3    C1 6024   0.932   3.718  16.850 -0.3378 -0.3238  0.3147
  400TMC3    C2 6025   0.829   3.623  16.848 -0.7275  0.4757 -0.5720
  400TMC3    C3 6026   0.715   3.657  16.779  0.1094 -0.6720  0.6007
  400TMC3    C4 6027   0.916   3.841  16.799  0.4087 -0.0497  0.1510
  400TMC3    C5 6028   0.801   3.872  16.736  0.2192 -0.2687  0.7515
  400TMC3    C6 6029   0.701   3.782  16.719 -0.3211 -0.1183 -0.3902
  400TMC3     C 6030   1.040   3.695  16.941  0.7047  0.2847 -0.2633
  400TMC3     O 6031   1.021   3.599  17.016  0.5325 -0.2887 -0.4811
  400TMC3     H 6032   0.840   3.523  16.890 -1.2305  0.4312 -0.5478
  400TMC3    H1 6033   0.992   3.916  16.818  0.4113  0.2999 -1.1935
  400TMC3    H2 6034   0.612   3.816  16.667 -2.0258 -2.4626  0.9709
  400TMC3    C7 6035   0.786   4.006  16.685  0.4669 -0.1035  0.7321
  400TMC3    C8 6036   0.611   3.560  16.749  0.1867  0.0554  0.7431
  400TMC3    O1 6037   0.724   4.024  16.579  0.3039 -0.2839 -0.1371
  400TMC3    O2 6038   0.553   3.583  16.644  0.0725  0.0389 -0.4479
  401MPD2     C 6039   4.206   2.943   1.013  0.2456 -0.0718  0.0961
  401MPD2    C1 6040   4.271   2.840   1.089  0.1004  0.2016 -0.4832
  401MPD2    C2 6041   4.233   2.708   1.071  0.3919 -0.2133  0.3432
  401MPD2    C3 6042   4.141   2.668   0.981  0.3275  0.1119 -0.1777
  401MPD2    C4 6043   4.078   2.770   0.916  0.3657 -0.4203 -1.3535
  401MPD2    C5 6044   4.107   2.902   0.932  0.6318  0.6808 -0.2947
  401MPD2     H 6045   4.274   2.631   1.135  1.7792 -0.2828 -0.6445
  401MPD2    H1 6046   3.996   2.742   0.851 -2.7280  0.0833  2.3287
  401MPD2    H2 6047   4.217   3.050   1.024  1.1625 -0.3572  2.0593
  401MPD2    H3 6048   4.052   2.974   0.872 -0.0458  0.3051 -0.1255
  401MPD2     N 6049   4.115   2.533   0.963  0.3733 -0.9617 -0.7030
  401MPD2    H5 6050   4.154   2.465   1.027  0.5932  1.6166  1.9154
  401MPD2    N1 6051   4.382   2.859   1.170  0.2576 -0.8238 -0.0641
  401MPD2    H7 6052   4.416   2.784   1.229 -1.2513  0.1905  2.0961
  402TMC3    C1 6053   3.996   2.346   0.867  0.4898 -0.4134  0.4440
  402TMC3    C2 6054   4.025   2.273   0.980 -0.7213 -0.6057 -1.1039
  402TMC3    C3 6055   4.065   2.142   0.979  0.2083 -0.2886 -0.2551
  402TMC3    C4 6056   4.002   2.279   0.747  0.4394 -0.2078  1.0741
  402TMC3    C5 6057   4.049   2.153   0.750  0.2016  0.5641 -0.9557
  402TMC3    C6 6058   4.083   2.081   0.859 -0.0864  0.2997 -0.2183
  402TMC3     C 6059   4.031   2.487   0.859  0.3356 -0.5303 -0.1944
  402TMC3     O 6060   3.996   2.535   0.753  0.2180 -0.0441  0.4872
  402TMC3     H 6061   4.001   2.322   1.074  0.0888  0.0862 -1.2451
  402TMC3    H1 6062   3.984   2.329   0.652 -1.1346 -2.1234  0.3550
  402TMC3    H2 6063   4.113   1.977   0.850 -1.1065  0.1266 -1.5369
  402TMC3    C7 6064   4.111   2.110   0.623  0.1681  0.2573 -0.2507
  402TMC3    C8 6065   4.083   2.064   1.097  0.6413  0.6200 -0.3121
  402TMC3    O1 6066   4.074   2.160   0.516  0.4671 -0.0858 -0.3082
  402TMC3    O2 6067   4.140   1.953   1.080  0.7435 -0.7477  0.2035
  403MPD2     C 6068   2.307   0.040  13.344 -0.4165  0.0269  0.3585
  403MPD2    C1 6069   2.391   4.724  13.443 -0.1656  0.6971  0.1603
  403MPD2    C2 6070   2.460   0.074  13.527  0.5214  0.6295 -0.1442
  403MPD2    C3 6071   2.450   0.210  13.512  0.2012 -0.2055 -0.5545
  403MPD2    C4 6072   2.359   0.263  13.420 -0.5113  0.5674 -0.6931
  403MPD2    C5 6073   2.293   0.175  13.339  0.2713  0.7648  0.2437
  403MPD2     H 6074   2.533   0.046  13.602 -0.3107  1.1977  0.8624
  403MPD2    H1 6075   2.350   0.369  13.403 -1.2769  0.7480  0.8414
  403MPD2    H2 6076   2.255   4.714  13.275  1.2411 -2.2644  1.2545
  403MPD2    H3 6077   2.228   0.221  13.265  0.6715  2.0733  0.7040
  403MPD2     N 6078   2.535   0.292  13.591 -0.4745  0.1575  0.3389
  403MPD2    H5 6079   2.591   0.237  13.655 -1.0782  1.9273  2.3916
  403MPD2    N1 6080   2.400   4.584  13.465  1.0032 -0.3854 -0.0823
  403MPD2    H7 6081   2.331   4.522  13.424  0.4846  0.5127 -0.5788
  404TMC3    C1 6082   2.421   4.406  13.622 -0.1463 -0.6284 -0.0873
  404TMC3    C2 6083   2.514   4.334  13.696 -0.1593  0.9416  0.3517
  404TMC3    C3 6084   2.461   4.234  13.767  0.4185  0.6865 -0.0878
  404TMC3    C4 6085   2.291   4.370  13.609  0.1747  0.3210  0.6443
  404TMC3    C5 6086   2.247   4.257  13.683  0.1956 -0.1247  0.5846
  404TMC3    C6 6087   2.331   4.186  13.764 -0.0710  0.2306 -0.0109
  404TMC3     C 6088   2.478   4.527  13.565 -0.8493  0.2080  0.4848
  404TMC3     O 6089   2.594   4.554  13.601  0.9677 -0.1852 -0.2724
  404TMC3     H 6090   2.614   4.372  13.714 -0.0171  1.3182 -1.2248
  404TMC3    H1 6091   2.220   4.444  13.574 -0.1289  0.1958  0.9913
  404TMC3    H2 6092   2.304   4.088  13.801  2.9697 -1.1251 -1.4552
  404TMC3    C7 6093   2.141   4.171  13.628  0.4793  0.6229 -0.2550
  404TMC3    C8 6094   2.548   4.173  13.875 -0.0057 -0.0024  0.2645
  404TMC3    O1 6095   2.109   4.071  13.695 -0.6626  0.3291  0.2631
  404TMC3    O2 6096   2.669   4.173  13.848 -0.0000  0.1035  0.1169
  405MPD2     C 6097   2.921   1.475  15.004 -0.8491 -0.1159 -0.0878
  405MPD2    C1 6098   2.848   1.421  15.111  0.2650  0.0555 -0.1753
  405MPD2    C2 6099   2.715   1.461  15.131  0.4953  0.1395 -0.0423
  405MPD2    C3 6100   2.650   1.542  15.042  0.2236 -0.0343  0.3372
  405MPD2    C4 6101   2.727   1.599  14.936  0.4174  0.2507  0.3244
  405MPD2    C5 6102   2.863   1.577  14.925 -0.3165 -0.1042 -0.0446
  405MPD2     H 6103   2.670   1.431  15.225 -0.0126  0.8795 -0.0522
  405MPD2    H1 6104   2.679   1.666  14.866  0.7614  1.6128  1.3875
  405MPD2    H2 6105   3.025   1.449  14.986 -0.5211  1.0243  0.1766
  405MPD2    H3 6106   2.917   1.628  14.846 -0.8750  0.0431 -0.3228
  405MPD2     N 6107   2.509   1.572  15.062 -0.3332  0.0190  0.1839
  405MPD2    H5 6108   2.463   1.541  15.148  1.9537 -0.0335  1.3947
  405MPD2    N1 6109   2.910   1.325  15.192  0.6098 -0.3940  0.0482
  405MPD2    H7 6110   2.993   1.280  15.153  1.0956 -2.5013  3.4903
  406TMC3    C1 6111   2.121   1.547  14.829  0.6744 -0.5834 -0.0900
  406TMC3    C2 6112   2.086   1.438  14.902  0.5705  0.3116 -0.6270
  406TMC3    C3 6113   2.167   1.408  15.005  0.4297  0.2267  0.1355
  406TMC3    C4 6114   2.222   1.626  14.868 -0.1590 -0.4403 -0.1073
  406TMC3    C5 6115   2.287   1.595  14.986  0.3135 -0.7806 -0.2304
  406TMC3    C6 6116   2.264   1.485  15.065  0.8802  0.2178 -0.1192
  406TMC3     C 6117   2.085   1.560  14.688 -0.2625 -0.2543  0.0804
  406TMC3     O 6118   2.114   1.665  14.634  1.1500  0.5476 -0.8041
  406TMC3     H 6119   2.015   1.364  14.866  1.3975 -0.1609 -1.2917
  406TMC3    H1 6120   2.244   1.718  14.815  0.9139  0.7599  2.4152
  406TMC3    H2 6121   2.323   1.461  15.153  0.3363 -2.4392 -0.4939
  406TMC3    C7 6122   2.425   1.630  14.967  0.5777  0.6582  0.5719
  406TMC3    C8 6123   2.163   1.261  15.040 -0.2445  0.1263 -0.2084
  406TMC3    O1 6124   2.461   1.675  14.860 -0.6223 -0.1732 -0.9611
  406TMC3    O2 6125   2.063   1.201  15.004  0.5007  0.0595 -0.1174
  407MPD2     C 6126   0.030   3.300   9.583  0.2369 -0.1409  0.1637
  407MPD2    C1 6127   0.165   3.325   9.620 -0.3496 -0.1376 -0.6259
  407MPD2    C2 6128   0.190   3.380   9.747  0.0959 -0.5330  0.2379
  407MPD2    C3 6129   0.085   3.410   9.839  0.3103  0.0329  0.1102
  407MPD2    C4 6130   4.695   3.384   9.796 -0.7603 -0.2459 -0.5176
  407MPD2    C5 6131   4.679   3.316   9.683 -0.9443  0.2669 -0.4765
  407MPD2     H 6132   0.290   3.394   9.785 -0.8116  1.1166  2.0443
  407MPD2    H1 6133   4.616   3.409   9.867  0.4838 -0.3089  0.8981
  407MPD2    H2 6134   4.728   3.268   9.488  0.6342 -0.0843 -0.0227
  407MPD2    H3 6135   4.579   3.286   9.657  0.3465 -3.0868 -1.6134
  407MPD2     N 6136   0.112   3.477   9.959  0.2136 -0.1198  0.0437
  407MPD2    H5 6137   0.039   3.534  10.001  1.0142 -0.9785  2.6094
  407MPD2    N1 6138   0.274   3.294   9.535  0.0092 -0.0975  0.2820
  407MPD2    H7 6139   0.369   3.318   9.564  0.3472  0.5669 -1.3932
  408TMC3    C1 6140   0.395   3.267   9.349 -0.3561 -0.0892 -0.1691
  408TMC3    C2 6141   0.449   3.163   9.282 -0.2450 -0.4013 -0.6502
  408TMC3    C3 6142   0.580   3.173   9.241  0.5144  0.7817 -0.6348
  408TMC3    C4 6143   0.461   3.387   9.378  0.0586  0.0210 -0.3488
  408TMC3    C5 6144   0.599   3.386   9.347 -0.4508 -0.3839 -0.9414
  408TMC3    C6 6145   0.655   3.286   9.277 -0.3240  0.1694  0.4043
  408TMC3     C 6146   0.268   3.237   9.410 -0.6758  0.3874 -0.7833
  408TMC3     O 6147   0.179   3.178   9.349  0.1359  0.2343  0.5715
  408TMC3     H 6148   0.397   3.069   9.273  0.1502 -0.8223  1.4981
  408TMC3    H1 6149   0.411   3.470   9.426  2.2249  0.1446  1.6559
  408TMC3    H2 6150   0.752   3.308   9.233 -1.2115  0.2576 -1.5219
  408TMC3    C7 6151   0.673   3.516   9.355  0.3383 -0.3908 -0.9591
  408TMC3    C8 6152   0.649   3.042   9.238  0.8387  0.0609 -0.1432
  408TMC3    O1 6153   0.797   3.516   9.334 -0.5978 -0.5205 -0.2753
  408TMC3    O2 6154   0.589   2.953   9.191  0.1832  0.3841  0.3026
  409MPD2     C 6155   4.645   3.129  16.985 -0.5640  0.3739 -0.4711
  409MPD2    C1 6156   4.725   3.176  17.085 -0.4101 -0.6398 -0.6752
  409MPD2    C2 6157   0.062   3.285  17.072 -0.3390 -0.5267  0.2163
  409MPD2    C3 6158   0.061   3.361  16.959 -0.0818 -0.5402  0.5455
  409MPD2    C4 6159   4.715   3.321  16.858  0.8024 -0.3908  0.8852
  409MPD2    C5 6160   4.644   3.199  16.869  0.1130 -0.2384 -0.2180
  409MPD2     H 6161   0.124   3.319  17.155 -1.6841  1.3506  0.4455
  409MPD2    H1 6162   4.707   3.372  16.762 -0.6692 -0.9198  0.7257
  409MPD2    H2 6163   4.587   3.037  16.983  0.2785 -0.1518 -0.8689
  409MPD2    H3 6164   4.589   3.170  16.779  2.2066  1.0450 -1.9011
  409MPD2     N 6165   0.146   3.472  16.937 -0.5877 -0.1592  0.0947
  409MPD2    H5 6166   0.137   3.529  16.853  0.8401 -1.1760 -0.7496
  409MPD2    N1 6167   4.734   3.108  17.209  0.5058  0.0964  0.0462
  409MPD2    H7 6168   0.056   3.150  17.278  0.2900  0.3560  0.0752
  410TMC3    C1 6169   0.306   3.645  16.971 -0.3393 -0.7397  0.0471
  410TMC3    C2 6170   0.412   3.697  17.043  0.1635 -0.7575 -0.1173
  410TMC3    C3 6171   0.475   3.811  16.991 -0.6630 -0.0981  0.0401
  410TMC3    C4 6172   0.262   3.710  16.861  0.5414  0.2389  0.4282
  410TMC3    C5 6173   0.329   3.827  16.816 -0.7197  0.3569  0.1217
  410TMC3    C6 6174   0.437   3.880  16.877 -0.6019  0.1103  0.4122
  410TMC3     C 6175   0.240   3.522  17.018 -0.1593 -0.3836  0.1410
  410TMC3     O 6176   0.271   3.486  17.131 -0.4445  0.8239 -0.3038
  410TMC3     H 6177   0.445   3.630  17.122  2.1887 -1.1638 -1.3019
  410TMC3    H1 6178   0.174   3.681  16.806 -1.0691  2.6160  1.7482
  410TMC3    H2 6179   0.481   3.977  16.858 -2.5009  0.8027 -0.4251
  410TMC3    C7 6180   0.296   3.867  16.682  1.1980  0.9018  0.0538
  410TMC3    C8 6181   0.593   3.864  17.054 -0.5184 -0.1799  0.4364
  410TMC3    O1 6182   0.222   3.789  16.626  0.1843  0.1184 -0.6072
  410TMC3    O2 6183   0.655   3.953  16.994 -0.3209 -0.1868  0.2895
  411MPD2     C 6184   0.214   3.804  14.459 -0.3397 -0.0071 -0.9472
  411MPD2    C1 6185   0.149   3.861  14.563  0.3776  0.0050  0.0665
  411MPD2    C2 6186   0.019   3.812  14.599 -0.2161 -0.8502 -0.6535
  411MPD2    C3 6187   4.699   3.717  14.521  0.0398  0.0999  1.0705
  411MPD2    C4 6188   0.023   3.664  14.412  0.1628 -0.2318  0.1938
  411MPD2    C5 6189   0.148   3.711  14.388 -0.9142  0.0385 -0.1275
  411MPD2     H 6190   4.699   3.839  14.686  0.0367  1.5250 -1.1946
  411MPD2    H1 6191   4.706   3.602  14.342  0.2503  0.6818 -0.6849
  411MPD2    H2 6192   0.314   3.834  14.429 -0.9946  2.8820 -0.2446
  411MPD2    H3 6193   0.198   3.658  14.307 -1.6036 -0.8435  0.0311
  411MPD2     N 6194   4.580   3.652  14.544  0.0127  0.5971 -0.3098
  411MPD2    H5 6195   4.559   3.582  14.473 -2.3893  1.8493 -0.8461
  411MPD2    N1 6196   0.227   3.963  14.633  0.2289 -0.1674 -0.0419
  411MPD2    H7 6197   0.326   3.966  14.609  0.2539  0.2117  0.1096
  412TMC3    C1 6198   4.362   3.620  14.633  0.1236  0.4348  0.1957
  412TMC3    C2 6199   4.251   3.695  14.608 -0.0350 -0.3043  0.3528
  412TMC3    C3 6200   4.141   3.626  14.569 -0.2940 -0.4059  0.6603
  412TMC3    C4 6201   4.355   3.485  14.655 -0.1228  0.2822  0.2718
  412TMC3    C5 6202   4.234   3.417  14.630  0.0864  0.1944  0.4276
  412TMC3    C6 6203   4.130   3.492  14.592  0.9761  0.2929  0.2826
  412TMC3     C 6204   4.489   3.689  14.638 -0.6362 -0.0557 -0.5079
  412TMC3     O 6205   4.484   3.794  14.701  0.2886 -0.3260  0.0945
  412TMC3     H 6206   4.264   3.803  14.602  0.3782 -0.4899 -1.8937
  412TMC3    H1 6207   4.439   3.425  14.688  0.3304 -0.1212 -1.6020
  412TMC3    H2 6208   4.038   3.439  14.569  0.0438  2.4958 -1.0112
  412TMC3    C7 6209   4.268   3.286  14.570  0.3708  0.2946 -0.3293
  412TMC3    C8 6210   4.031   3.700  14.523 -0.7070 -0.0417 -0.5584
  412TMC3    O1 6211   4.369   3.222  14.608 -0.0303 -0.4292  0.2046
  412TMC3    O2 6212   4.004   3.797  14.590 -0.0871  0.0441  0.1254
  413MPD2     C 6213   1.603   2.315  15.675 -0.1338  0.1763 -0.2975
  413MPD2    C1 6214   1.601   2.269  15.549  0.1242  0.5857  0.4225
  413MPD2    C2 6215   1.689   2.169  15.514 -0.6177  0.9204  0.1563
  413MPD2    C3 6216   1.785   2.114  15.595 -0.3913 -0.3236  0.1438
  413MPD2    C4 6217   1.780   2.151  15.727 -0.4140 -0.3631 -0.0267
  413MPD2    C5 6218   1.690   2.255  15.766 -0.7301 -0.0435  0.0165
  413MPD2     H 6219   1.688   2.137  15.411  2.1857  1.5992 -0.0787
  413MPD2    H1 6220   1.836   2.103  15.806  1.4755  1.3411 -0.3432
  413MPD2    H2 6221   1.532   2.394  15.698 -1.4507 -1.2526  0.5210
  413MPD2    H3 6222   1.683   2.281  15.871  3.8517 -0.5647  0.4296
  413MPD2     N 6223   1.865   2.009  15.539  0.0964 -0.2578  0.2769
  413MPD2    H5 6224   1.868   1.987  15.440 -2.2766 -0.1910  0.1929
  413MPD2    N1 6225   1.509   2.326  15.450  0.2377 -0.1281 -0.4574
  413MPD2    H7 6226   1.441   2.384  15.498 -0.0035 -2.2435  1.8000
  414TMC3    C1 6227   1.978   1.814  15.522 -0.3130  0.7715 -0.2470
  414TMC3    C2 6228   1.997   1.689  15.582  0.4493 -0.1274  0.1254
  414TMC3    C3 6229   2.093   1.606  15.528  0.0266  0.0156  0.3107
  414TMC3    C4 6230   2.056   1.853  15.416  0.4207  0.4051 -0.6505
  414TMC3    C5 6231   2.144   1.765  15.371 -0.3710  0.3582  0.6316
  414TMC3    C6 6232   2.173   1.642  15.428 -0.7681  0.1792  0.0920
  414TMC3     C 6233   1.935   1.919  15.608  0.1534 -0.5898 -1.2637
  414TMC3     O 6234   1.937   1.901  15.728 -0.3871 -0.3967 -0.0838
  414TMC3     H 6235   1.929   1.652  15.658  1.0118  0.0168  0.6966
  414TMC3    H1 6236   2.045   1.951  15.372 -0.0577 -0.4064 -2.3252
  414TMC3    H2 6237   2.235   1.564  15.384  1.2369  1.7021  0.2584
  414TMC3    C7 6238   2.243   1.808  15.281 -0.8193 -0.3635 -0.0078
  414TMC3    C8 6239   2.060   1.469  15.539 -0.0477 -1.4779 -0.2634
  414TMC3    O1 6240   2.348   1.743  15.294 -0.3311 -0.3329  0.3871
  414TMC3    O2 6241   1.939   1.433  15.551  0.4320 -0.4591 -0.0208
  415TMC3    C1 6242   2.545   0.403  10.459 -0.3111  0.4275 -0.7609
  415TMC3    C2 6243   2.623   0.486  10.390  0.2386 -0.6350  0.4908
  415TMC3    C3 6244   2.578   0.544  10.268 -0.0806 -0.3032 -0.4465
  415TMC3    C4 6245   2.431   0.353  10.401 -0.5950 -0.6526 -0.0253
  415TMC3    C5 6246   2.377   0.411  10.289 -0.4295  0.7595  0.1733
  415TMC3    C6 6247   2.457   0.500  10.217 -0.5277 -0.1636 -0.4866
  415TMC3     C 6248   2.591   0.334  10.578 -0.4526  0.1122  0.2708
  415TMC3     O 6249   2.518   0.248  10.618 -0.1724 -0.1892  0.0573
  415TMC3     H 6250   2.724   0.496  10.428 -0.5842  0.2841  2.4352
  415TMC3    H1 6251   2.383   0.262  10.434 -1.0166 -0.3258  0.2530
  415TMC3    H2 6252   2.419   0.544  10.126  2.0337  0.7895 -1.1051
  415TMC3    C7 6253   2.253   0.372  10.219  0.0855  0.3412 -0.0374
  415TMC3    C8 6254   2.684   0.599  10.174  0.4358 -0.1724  0.2920
  415TMC3    O1 6255   2.243   0.391  10.099 -0.1234  0.0988  0.2060
  415TMC3    O2 6256   2.681   0.568  10.055 -0.2100  0.3088  0.2301
  416MPD2     C 6257   3.975   4.169  11.058 -0.4484 -0.5763 -0.1007
  416MPD2    C1 6258   3.936   4.076  11.153 -0.2809  0.5505 -0.6947
  416MPD2    C2 6259   3.944   3.944  11.121 -0.1814  0.2909 -0.0318
  416MPD2    C3 6260   4.000   3.896  11.002  0.5153  0.9297  0.2138
  416MPD2    C4 6261   4.041   3.990  10.915 -0.3968 -0.4062  0.5134
  416MPD2    C5 6262   4.031   4.126  10.945 -0.1852 -0.4423  0.3379
  416MPD2     H 6263   3.913   3.872  11.196  1.1821  0.3489  0.5745
  416MPD2    H1 6264   4.053   3.963  10.811  1.5480  0.1759  0.5859
  416MPD2    H2 6265   3.971   4.273  11.089 -2.8151 -0.6041 -0.2928
  416MPD2    H3 6266   4.074   4.187  10.866  1.9901 -1.2328  0.9252
  416MPD2     N 6267   4.026   3.765  10.986  0.0613 -0.2783 -0.1783
  416MPD2    H5 6268   3.986   3.712  11.063 -2.5516 -1.2620 -2.2213
  416MPD2    N1 6269   3.863   4.112  11.270  0.0206 -0.0032  0.4958
  416MPD2    H7 6270   3.826   4.207  11.272  1.9639  0.7925 -0.3543
  417TMC3    C1 6271   3.716   4.091  11.440  0.2707 -0.0728  0.2064
  417TMC3    C2 6272   3.699   4.084  11.575  0.0521 -0.1977  0.2600
  417TMC3    C3 6273   3.579   4.137  11.623 -0.2268  0.2700  0.4819
  417TMC3    C4 6274   3.606   4.110  11.359 -0.0285 -0.1527 -1.2723
  417TMC3    C5 6275   3.489   4.147  11.411 -1.2855  0.6698 -0.0409
  417TMC3    C6 6276   3.466   4.164  11.546  0.1114 -0.5534 -0.7992
  417TMC3     C 6277   3.827   4.027  11.371 -0.4672  0.8972 -0.2006
  417TMC3     O 6278   3.875   3.919  11.412 -0.3830 -0.3366 -0.2784
  417TMC3     H 6279   3.784   4.047  11.631  0.9792  1.5226 -0.0218
  417TMC3    H1 6280   3.617   4.092  11.253 -0.4081 -1.1834 -1.1351
  417TMC3    H2 6281   3.372   4.197  11.589  0.2371 -0.0743 -0.8891
  417TMC3    C7 6282   3.385   4.178  11.315  0.0409 -0.0825  0.5312
  417TMC3    C8 6283   3.558   4.131  11.765  0.4491 -0.3577 -0.0248
  417TMC3    O1 6284   3.333   4.288  11.312 -0.1545 -0.1344  0.6507
  417TMC3    O2 6285   3.442   4.161  11.801  0.3693  0.3043 -0.3571
  418TMC3    C1 6286   2.623   1.305   0.461 -0.0558 -0.8013 -0.5249
  418TMC3    C2 6287   2.505   1.276   0.395 -0.1836  0.1321  0.2690
  418TMC3    C3 6288   2.488   1.143   0.373 -0.3661  0.4411 -0.1780
  418TMC3    C4 6289   2.726   1.216   0.474 -0.5235  0.3110 -0.8294
  418TMC3    C5 6290   2.690   1.086   0.468  0.0280  0.3781 -0.4631
  418TMC3    C6 6291   2.576   1.045   0.410  0.1804 -0.0478 -0.0736
  418TMC3     C 6292   2.653   1.447   0.446 -0.0821 -0.4152  0.3894
  418TMC3     O 6293   2.564   1.531   0.451  0.4054 -0.0973  0.2387
  418TMC3     H 6294   2.427   1.345   0.365 -0.6406  0.3635  1.9730
  418TMC3    H1 6295   2.815   1.243   0.530  0.2248 -2.2764 -0.7486
  418TMC3    H2 6296   2.561   0.938   0.399  0.1811 -0.2614  1.9051
  418TMC3    C7 6297   2.795   0.989   0.517  0.7671 -0.1939 -0.9748
  418TMC3    C8 6298   2.427   1.112   0.243 -0.1336 -0.1575  0.2383
  418TMC3    O1 6299   2.913   1.017   0.496 -0.1439 -0.1929 -0.2425
  418TMC3    O2 6300   2.352   1.197   0.200  0.0127 -0.1527 -0.6627
  419MPD2     C 6301   0.746   4.211  12.445 -0.1311 -0.2643  0.4940
  419MPD2    C1 6302   0.768   4.327  12.519 -0.0751  0.9817 -1.3353
  419MPD2    C2 6303   0.727   4.332  12.652 -0.0136  0.3393  0.8915
  419MPD2    C3 6304   0.667   4.226  12.713  0.1375 -0.1421 -0.3880
  419MPD2    C4 6305   0.649   4.113  12.639 -0.3080  0.1857 -0.4118
  419MPD2    C5 6306   0.679   4.109  12.503  0.4983 -0.1540  0.6993
  419MPD2     H 6307   0.748   4.419  12.713 -3.2013  0.6694  1.5666
  419MPD2    H1 6308   0.599   4.023  12.675 -0.2977  0.0453 -0.7439
  419MPD2    H2 6309   0.777   4.209  12.341 -2.1127  2.0401 -0.1296
  419MPD2    H3 6310   0.661   4.025  12.437  2.2629  0.9790 -1.2302
  419MPD2     N 6311   0.629   4.230  12.851 -0.5596 -0.7281  0.5053
  419MPD2    H5 6312   0.640   4.320  12.897 -3.1000 -1.6398  2.8795
  419MPD2    N1 6313   0.821   4.449  12.461  0.0738  0.0996 -0.0088
  419MPD2    H7 6314   0.830   4.528  12.524  0.3654  0.0459  0.0172
  420TMC3    C1 6315   0.571   4.165  13.063 -0.0976 -0.1014  0.1295
  420TMC3    C2 6316   0.532   4.292  13.093 -0.6089 -0.0023  0.3638
  420TMC3    C3 6317   0.540   4.334  13.219 -0.0661 -0.4179  1.1471
  420TMC3    C4 6318   0.610   4.077  13.160  0.1523  0.7543  0.2510
  420TMC3    C5 6319   0.610   4.125  13.291  0.5190  0.2899  0.5880
  420TMC3    C6 6320   0.569   4.252  13.324 -0.1805  0.0281  0.2260
  420TMC3     C 6321   0.606   4.123  12.931  0.1555  1.0203  0.4219
  420TMC3     O 6322   0.614   4.001  12.916  0.3527 -0.1692  0.3250
  420TMC3     H 6323   0.520   4.370  13.018 -0.9525  1.6723  2.1717
  420TMC3    H1 6324   0.637   3.973  13.141  1.5704  0.9598  1.1631
  420TMC3    H2 6325   0.561   4.294  13.424  1.1199 -0.4195  0.5149
  420TMC3    C7 6326   0.698   4.055  13.382 -0.2897 -0.1948  0.0600
  420TMC3    C8 6327   0.453   4.449  13.247 -0.0095  0.0872  0.6872
  420TMC3    O1 6328   0.738   3.944  13.350  0.1108 -0.3451  0.2548
  420TMC3    O2 6329   0.458   4.548  13.176 -0.2110  0.3769  0.3146
  421TMC3    C1 6330   2.626   0.454  13.726  0.3240 -0.5594 -0.3874
  421TMC3    C2 6331   2.567   0.527  13.829 -1.1392 -0.5642  0.9634
  421TMC3    C3 6332   2.620   0.516  13.950  0.8406 -0.0357 -0.3913
  421TMC3    C4 6333   2.738   0.377  13.734  0.5807  0.8564 -0.0205
  421TMC3    C5 6334   2.789   0.370  13.860  0.2062  0.1634  0.2557
  421TMC3    C6 6335   2.730   0.434  13.966  0.7302 -0.7160  1.0974
  421TMC3     C 6336   2.542   0.428  13.611  0.1068  0.3427 -0.2314
  421TMC3     O 6337   2.466   0.516  13.576 -0.2082  0.1167 -0.1641
  421TMC3     H 6338   2.475   0.579  13.805 -0.1531 -0.6815 -3.0926
  421TMC3    H1 6339   2.791   0.341  13.647  0.8383 -0.9568  0.8876
  421TMC3    H2 6340   2.776   0.407  14.061  2.6406  1.1671  0.6995
  421TMC3    C7 6341   2.888   0.271  13.887 -0.1145  0.2028  0.3915
  421TMC3    C8 6342   2.558   0.585  14.064 -0.2626  0.3913 -0.2431
  421TMC3    O1 6343   2.992   0.300  13.943 -0.2930  0.1164 -0.2045
  421TMC3    O2 6344   2.621   0.583  14.173  1.0132  0.4433 -0.1025
  422TMC3    C1 6345   0.163   2.382  12.218 -0.3936  1.1841 -0.2510
  422TMC3    C2 6346   0.132   2.476  12.309  0.0003 -0.2080  0.3870
  422TMC3    C3 6347   0.007   2.493  12.353  0.2353  0.2370  0.8409
  422TMC3    C4 6348   0.065   2.293  12.177  0.2120 -0.0668  0.2669
  422TMC3    C5 6349   4.678   2.314  12.224 -0.1000  0.0313 -0.4209
  422TMC3    C6 6350   4.643   2.413  12.310  0.6482  0.5207 -0.1672
  422TMC3     C 6351   0.302   2.370  12.198  0.3217 -0.1960  0.1633
  422TMC3     O 6352   0.371   2.404  12.294 -0.1656  0.1454 -0.8051
  422TMC3     H 6353   0.211   2.543  12.342 -2.8937  2.8812  1.0538
  422TMC3    H1 6354   0.096   2.207  12.119  1.2173 -0.5021  1.4643
  422TMC3    H2 6355   4.541   2.426  12.346  1.2874  0.9207  1.4853
  422TMC3    C7 6356   4.566   2.228  12.185 -0.6189 -0.0802 -0.1538
  422TMC3    C8 6357   4.717   2.604  12.441 -0.1245  0.2043  0.4278
  422TMC3    O1 6358   4.557   2.185  12.069  0.3789 -0.3262  0.4030
  422TMC3    O2 6359   0.066   2.653  12.510  0.4897  0.3503  0.1183
  423MPD2     C 6360   1.136   2.913   0.474  0.2886  0.1015 -0.0209
  423MPD2    C1 6361   1.232   2.822   0.519  0.3022 -0.4747  0.1697
  423MPD2    C2 6362   1.304   2.758   0.422  0.5327  0.6189 -0.1780
  423MPD2    C3 6363   1.287   2.769   0.286  0.5174 -0.6090  0.5315
  423MPD2    C4 6364   1.177   2.844   0.245 -0.3112  0.2598  0.4533
  423MPD2    C5 6365   1.111   2.922   0.338  0.1637  0.0611 -0.1986
  423MPD2     H 6366   1.384   2.697   0.462  2.8871  3.7615 -0.1054
  423MPD2    H1 6367   1.152   2.860   0.140 -1.3893  1.0894  0.8444
  423MPD2    H2 6368   1.073   2.971   0.540 -2.3301  0.0314 -2.4741
  423MPD2    H3 6369   1.028   2.986   0.309  0.2576  0.0515 -0.4885
  423MPD2     N 6370   1.355   2.694   0.186  0.2263  0.3613 -0.1333
  423MPD2    H5 6371   1.338   2.713   0.088 -0.5064 -0.5332 -0.1798
  423MPD2    N1 6372   1.263   2.793   0.658 -0.3126 -0.1267  0.1863
  423MPD2    H7 6373   1.335   2.727   0.685 -2.4770 -2.2652  0.7944
  424TMC3    C1 6374   1.274   2.850   0.884 -0.0170  0.6195  0.4738
  424TMC3    C2 6375   1.393   2.789   0.897  0.4327 -0.2169  0.1582
  424TMC3    C3 6376   1.441   2.754   1.019  0.9334 -0.0749  0.0983
  424TMC3    C4 6377   1.196   2.869   0.999 -0.8145  0.1168 -0.3421
  424TMC3    C5 6378   1.242   2.829   1.124 -0.1847  0.4014  0.2681
  424TMC3    C6 6379   1.367   2.761   1.129 -0.3391 -0.0013  0.2179
  424TMC3     C 6380   1.204   2.867   0.757  0.0308  0.3576 -0.2824
  424TMC3     O 6381   1.101   2.934   0.754 -0.1487 -0.3935 -0.5054
  424TMC3     H 6382   1.457   2.773   0.811 -1.1369 -0.2436 -1.0256
  424TMC3    H1 6383   1.098   2.914   0.997 -0.9101 -0.1619 -1.9060
  424TMC3    H2 6384   1.410   2.724   1.221 -0.3743 -3.2056 -1.0597
  424TMC3    C7 6385   1.161   2.821   1.245 -0.4315 -0.0016 -0.8327
  424TMC3    C8 6386   1.569   2.688   1.028  0.1772 -0.2200  0.0855
  424TMC3    O1 6387   1.206   2.743   1.327 -0.5113 -0.0226  0.1079
  424TMC3    O2 6388   1.589   2.610   1.123 -0.0309  0.2043  0.7153
  425MPD2     C 6389   0.974   2.195  17.087  0.1845  0.2170  0.0480
  425MPD2    C1 6390   0.955   2.100  17.186  0.0378 -0.3490  0.4655
  425MPD2    C2 6391   0.880   2.131  17.306 -0.5512 -0.0910 -0.2708
  425MPD2    C3 6392   0.842   2.263  17.324 -0.1344 -0.7296 -0.1608
  425MPD2    C4 6393   0.889   2.358  17.235 -0.0362 -0.1243 -0.8376
  425MPD2    C5 6394   0.933   2.325  17.115 -0.5530  0.3795  0.2985
  425MPD2     H 6395   0.837   2.050  17.364  0.9348 -1.0762 -0.5392
  425MPD2    H1 6396   0.871   2.462  17.259  0.8564  0.3940 -2.4257
  425MPD2    H2 6397   1.015   2.166  16.991 -0.9495  0.7140 -0.5895
  425MPD2    H3 6398   0.962   2.399  17.041 -0.9215  0.1682 -0.0574
  425MPD2     N 6399   0.766   2.291  17.442 -0.2465 -0.2233 -0.3898
  425MPD2    H5 6400   0.740   2.211  17.499 -2.6292  0.6782 -0.2130
  425MPD2    N1 6401   1.007   1.969  17.158 -0.6623 -0.0495  0.4045
  425MPD2    H7 6402   1.053   1.967  17.068  0.3767  2.1129  0.8818
  426TMC3    C1 6403   1.063   1.742  17.188 -0.7381 -0.0090  0.1567
  426TMC3    C2 6404   1.022   1.699  17.067 -0.3449  0.1372  0.0639
  426TMC3    C3 6405   1.082   1.578  17.032 -0.7701 -0.1839 -0.4778
  426TMC3    C4 6406   1.143   1.672  17.282 -0.0030 -0.3470  0.2764
  426TMC3    C5 6407   1.183   1.546  17.239 -0.7073  0.0200 -0.2708
  426TMC3    C6 6408   1.170   1.502  17.111  0.2693 -1.0307 -0.4431
  426TMC3     C 6409   1.000   1.862  17.240 -0.9149 -0.0330 -0.1347
  426TMC3     O 6410   0.965   1.852  17.357 -0.4821 -0.2357 -0.1700
  426TMC3     H 6411   0.962   1.758  16.999 -1.4569 -1.4144 -0.3225
  426TMC3    H1 6412   1.171   1.718  17.376 -1.1109  0.6077  0.1321
  426TMC3    H2 6413   1.196   1.402  17.079 -1.9516 -2.4072  2.0195
  426TMC3    C7 6414   1.191   1.443  17.340 -0.0548  0.2559 -0.2530
  426TMC3    C8 6415   1.066   1.521  16.899 -0.1963 -0.5775 -0.1121
  426TMC3    O1 6416   1.205   1.330  17.298 -0.4562 -0.0147  0.5999
  426TMC3    O2 6417   1.114   1.411  16.873 -0.3169 -0.2243  0.2867
  427MPD2     C 6418   3.531   3.451  14.920 -0.2093 -1.2993 -0.2234
  427MPD2    C1 6419   3.535   3.435  15.056  0.2586 -0.2648  0.3346
  427MPD2    C2 6420   3.516   3.540  15.144 -0.3085  0.0194 -0.3104
  427MPD2    C3 6421   3.483   3.666  15.086  0.0924 -0.7866 -0.3878
  427MPD2    C4 6422   3.465   3.681  14.950  0.2801  1.0942 -0.0099
  427MPD2    C5 6423   3.497   3.576  14.869  0.2225  0.2022  0.3342
  427MPD2     H 6424   3.507   3.523  15.250 -0.6428 -3.7559 -0.9417
  427MPD2    H1 6425   3.431   3.772  14.902 -0.4286  0.3763 -0.8563
  427MPD2    H2 6426   3.555   3.369  14.853 -2.2397 -1.6166 -0.5602
  427MPD2    H3 6427   3.489   3.584  14.762  1.3182  0.5793  0.2782
  427MPD2     N 6428   3.449   3.778  15.163 -0.5339  0.2300  0.1212
  427MPD2    H5 6429   3.416   3.861  15.113 -2.7306  0.1162  1.3780
  427MPD2    N1 6430   3.560   3.307  15.113  0.1900 -0.3418 -0.1556
  427MPD2    H7 6431   3.571   3.300  15.214 -2.0693 -1.0860  0.0508
  428TMC3    C1 6432   3.661   3.093  15.103 -0.3943 -0.1858 -0.1374
  428TMC3    C2 6433   3.681   2.975  15.040  0.0123  0.2100  0.3926
  428TMC3    C3 6434   3.798   2.915  15.048 -1.0485  0.3592  0.2856
  428TMC3    C4 6435   3.759   3.137  15.192  0.2999 -0.7200 -0.2157
  428TMC3    C5 6436   3.881   3.072  15.190  0.8768 -1.3606 -0.2365
  428TMC3    C6 6437   3.908   2.953  15.119 -0.7624 -0.9316  0.0503
  428TMC3     C 6438   3.574   3.193  15.039  1.0355  0.8517 -0.1679
  428TMC3     O 6439   3.520   3.163  14.935 -0.0523 -0.6238 -0.1443
  428TMC3     H 6440   3.620   2.961  14.951  0.9276 -2.9118  0.2508
  428TMC3    H1 6441   3.743   3.223  15.255  0.9710  0.8537 -2.1515
  428TMC3    H2 6442   3.992   2.886  15.136  1.1279  1.3613 -0.3294
  428TMC3    C7 6443   3.983   3.137  15.268  0.0120 -0.0199 -0.4713
  428TMC3    C8 6444   3.814   2.794  14.968  0.7824  0.1102 -0.3870
  428TMC3    O1 6445   3.951   3.219  15.351 -0.0646 -0.4271 -0.4532
  428TMC3    O2 6446   3.926   2.742  14.952  0.4060 -0.1618  0.1428
  429MPD2     C 6447   0.454   4.419  17.738 -0.2798 -0.0170 -0.0053
  429MPD2    C1 6448   0.530   4.330  17.660 -0.0196  0.6604  0.1576
  429MPD2    C2 6449   0.623   4.390  17.575  0.0445 -0.0658  0.4770
  429MPD2    C3 6450   0.626   4.521  17.552  0.1426 -0.0958  0.6042
  429MPD2    C4 6451   0.550   4.607  17.627 -0.5026  0.2578  0.2544
  429MPD2    C5 6452   0.470   4.553  17.725  0.1474  0.2436  0.2240
  429MPD2     H 6453   0.699   4.329  17.529  0.5600  2.2718 -1.7430
  429MPD2    H1 6454   0.542   4.715  17.621 -0.7138  0.2094 -0.3163
  429MPD2    H2 6455   0.386   4.388   0.066  2.6839 -0.4852  2.3746
  429MPD2    H3 6456   0.401   4.617   0.028  1.6709  2.2426 -0.1966
  429MPD2     N 6457   0.709   4.565  17.449 -0.3796 -0.4784  0.5119
  429MPD2    H5 6458   0.754   4.495  17.392  0.2307  0.7397 -0.4831
  429MPD2    N1 6459   0.538   4.188  17.677 -0.5030 -0.1718 -0.2963
  429MPD2    H7 6460   0.599   4.138  17.613  0.2949  0.5611 -0.0934
  430TMC3    C1 6461   0.836   4.713  17.309 -0.1136 -0.2888  0.3724
  430TMC3    C2 6462   0.823   0.083  17.223  0.0410 -0.0898 -0.5132
  430TMC3    C3 6463   0.901   0.109  17.116  0.5336  0.4894 -0.0012
  430TMC3    C4 6464   0.917   4.608  17.275  0.0084  0.4445  0.1218
  430TMC3    C5 6465   0.987   4.629  17.155  0.1961  0.8220 -0.2387
  430TMC3    C6 6466   0.987   0.011  17.089  0.3339 -0.1647  0.3511
  430TMC3     C 6467   0.724   4.701  17.404  0.5491 -0.2469  0.6712
  430TMC3     O 6468   0.642   0.050  17.416 -0.4525  0.3280 -0.3351
  430TMC3     H 6469   0.761   0.163  17.262  1.3561  1.2199 -1.1169
  430TMC3    H1 6470   0.948   4.520  17.331 -0.1976 -0.1081 -0.6390
  430TMC3    H2 6471   1.054   0.033  17.007  0.1846  1.1797  0.5911
  430TMC3    C7 6472   0.984   4.503  17.071 -0.8097  0.5376  0.0587
  430TMC3    C8 6473   0.817   0.125  16.995 -0.1048  0.0423  0.0278
  430TMC3    O1 6474   0.980   4.395  17.126  0.1046  0.6434  0.5852
  430TMC3    O2 6475   0.862   0.075  16.892 -0.2629 -0.2032 -0.3608
  431MPD2     C 6476   1.676   0.197  12.637  0.0926  0.7282  0.4747
  431MPD2    C1 6477   1.612   0.081  12.678 -0.3264 -0.4990 -1.0409
  431MPD2    C2 6478   1.486   0.054  12.635 -0.2068  0.2472  0.3748
  431MPD2    C3 6479   1.418   0.147  12.557 -0.1501 -0.7631 -0.0304
  431MPD2    C4 6480   1.476   0.264  12.523 -0.4056  0.3760 -0.3884
  431MPD2    C5 6481   1.599   0.288  12.571 -0.1367 -0.5508 -0.7148
  431MPD2     H 6482   1.445   4.697  12.666 -1.6974  1.0326  0.8147
  431MPD2    H1 6483   1.418   0.329  12.460  0.5237 -0.8123 -2.4580
  431MPD2    H2 6484   1.777   0.218  12.668 -0.4317  4.6496 -0.4346
  431MPD2    H3 6485   1.647   0.385  12.561 -4.3714  1.6217  0.0093
  431MPD2     N 6486   1.300   0.119  12.490  0.1153  0.3882  0.1456
  431MPD2    H5 6487   1.266   0.196  12.433 -1.7127  0.3626  1.1939
  431MPD2    N1 6488   1.674   4.718  12.752 -0.0864  0.3028 -0.3397
  431MPD2    H7 6489   1.615   4.641  12.784 -2.8460  2.1720 -0.9261
  432TMC3    C1 6490   1.132   4.713  12.395  0.2596  0.3564  0.0209
  432TMC3    C2 6491   1.179   4.738  12.272 -0.0886 -0.6628  0.1083
  432TMC3    C3 6492   1.123   4.665  12.170 -0.3582 -0.0699  0.5498
  432TMC3    C4 6493   1.023   4.636  12.418 -0.1652 -0.7515 -0.3401
  432TMC3    C5 6494   0.962   4.577  12.314  0.3594  0.2197  0.4973
  432TMC3    C6 6495   1.012   4.585  12.187 -0.3318  0.1141  0.0116
  432TMC3     C 6496   1.215   0.006  12.505  0.2478 -0.2939 -0.1509
  432TMC3     O 6497   1.210   4.659  12.592  0.3236  0.4892 -0.0646
  432TMC3     H 6498   1.269   0.057  12.256 -0.3120 -0.1346  0.7542
  432TMC3    H1 6499   1.000   4.616  12.522  1.3411 -0.2790  0.0850
  432TMC3    H2 6500   0.957   4.547  12.101 -1.2377 -0.0516  0.6740
  432TMC3    C7 6501   0.894   4.455  12.340  0.0325  0.4806 -0.5607
  432TMC3    C8 6502   1.185   4.672  12.036 -0.0437  0.4823  0.2089
  432TMC3    O1 6503   0.911   4.372  12.256 -1.0867  0.1464 -0.4151
  432TMC3    O2 6504   1.109   4.669  11.942 -0.4286  0.3011  0.2529
  433MPD2     C 6505   0.069   3.300  10.659 -0.6751  0.8355  0.2034
  433MPD2    C1 6506   0.074   3.162  10.672  0.0490 -0.9088  0.1431
  433MPD2    C2 6507   0.043   3.107  10.795  0.1559  0.1516 -0.0645
  433MPD2    C3 6508   4.720   3.188  10.891  0.1144  0.0298 -0.2115
  433MPD2    C4 6509   4.711   3.321  10.877 -0.3031 -0.1013  0.2712
  433MPD2    C5 6510   0.012   3.383  10.760  0.2597  0.8344  0.1362
  433MPD2     H 6511   0.055   3.000  10.800  1.6265  0.3811  1.3954
  433MPD2    H1 6512   4.665   3.383  10.953  1.4524  0.6406  0.7267
  433MPD2    H2 6513   0.073   3.343  10.560 -1.0342  0.6036  0.0889
  433MPD2    H3 6514   4.726   3.487  10.744  2.1855  1.3339  0.5320
  433MPD2     N 6515   4.676   3.111  11.000 -0.2086  0.4714  0.1895
  433MPD2    H5 6516   4.685   3.011  10.988 -1.9032  0.3936 -0.4365
  433MPD2    N1 6517   0.144   3.082  10.581  0.4797  0.1043 -0.0346
  433MPD2    H7 6518   0.138   2.981  10.587  2.1138  0.1413  2.2540
  434TMC3    C1 6519   0.276   3.018  10.410  0.0034 -0.4198  0.1316
  434TMC3    C2 6520   0.361   2.949  10.493  0.2294  0.4566  1.0084
  434TMC3    C3 6521   0.372   2.818  10.475  0.0066 -0.1742 -0.0928
  434TMC3    C4 6522   0.194   2.956  10.316  0.0374 -0.5392  0.1669
  434TMC3    C5 6523   0.214   2.820  10.298  0.0194 -0.0921 -0.4729
  434TMC3    C6 6524   0.296   2.747  10.379 -0.4259 -0.8848  0.1750
  434TMC3     C 6525   0.210   3.131  10.471 -0.0861 -0.3673 -0.5229
  434TMC3     O 6526   0.255   3.244  10.445  0.3619 -0.5559  0.4797
  434TMC3     H 6527   0.421   2.995  10.571 -0.1846 -0.5401  1.9029
  434TMC3    H1 6528   0.116   3.002  10.256  0.4608 -0.3875 -0.2733
  434TMC3    H2 6529   0.299   2.641  10.356  0.5567 -0.6332 -0.8887
  434TMC3    C7 6530   0.103   2.742  10.244 -0.7445  0.4373  0.1714
  434TMC3    C8 6531   0.456   2.745  10.568 -0.7606 -0.2460 -0.0884
  434TMC3    O1 6532   0.020   2.801  10.170  0.0827 -0.1405 -0.5663
  434TMC3    O2 6533   0.488   2.806  10.671 -0.6897 -0.4901 -0.4145
  435MPD2     C 6534   2.372   2.884  15.501 -0.0097 -0.2475 -0.1201
  435MPD2    C1 6535   2.344   2.869  15.633  0.0009 -0.5659 -0.0918
  435MPD2    C2 6536   2.445   2.818  15.713  0.5280  0.2139 -0.3091
  435MPD2    C3 6537   2.570   2.776  15.667  1.6219 -0.2541  1.0043
  435MPD2    C4 6538   2.593   2.795  15.528 -0.2895  0.4622 -0.0662
  435MPD2    C5 6539   2.493   2.851  15.461 -1.1099 -0.2602 -0.2968
  435MPD2     H 6540   2.420   2.803  15.817  0.0443  2.1698 -0.1406
  435MPD2    H1 6541   2.683   2.763  15.478 -0.3395  1.3169 -0.7044
  435MPD2    H2 6542   2.297   2.908  15.427  0.5345 -1.3477 -1.0297
  435MPD2    H3 6543   2.511   2.876  15.356  0.5821  0.6554  0.2141
  435MPD2     N 6544   2.668   2.723  15.754 -0.1466 -0.2984 -0.4585
  435MPD2    H5 6545   2.637   2.702  15.848  1.5395  1.4796  0.5138
  435MPD2    N1 6546   2.216   2.896  15.694 -0.1830 -0.6182 -0.2534
  435MPD2    H7 6547   2.208   2.879  15.794 -1.0013 -0.1663 -0.2453
  436TMC3    C1 6548   1.938   2.972  15.961  0.8345 -0.5107 -0.7005
  436TMC3    C2 6549   2.031   2.937  15.868 -0.0135  0.1668 -0.2160
  436TMC3    C3 6550   1.993   2.948  15.738 -0.7402 -0.0082  0.5623
  436TMC3    C4 6551   1.822   3.029  15.926 -0.0640 -0.5937 -0.0509
  436TMC3    C5 6552   1.789   3.035  15.797 -0.0855 -0.5063  0.6380
  436TMC3    C6 6553   1.869   2.988  15.699 -0.6319 -0.1472  0.8787
  436TMC3     C 6554   1.992   3.006  16.087 -0.2799  0.4225  0.2268
  436TMC3     O 6555   2.110   3.033  16.086  0.2307 -0.6261  0.8107
  436TMC3     H 6556   2.126   2.908  15.912  1.6228  2.9737 -1.8878
  436TMC3    H1 6557   1.773   3.092  16.000  1.4571 -1.2415  1.5038
  436TMC3    H2 6558   1.845   3.015  15.597  1.1341 -1.2637  0.1537
  436TMC3    C7 6559   1.656   3.076  15.758 -0.0670 -0.2112  0.1251
  436TMC3    C8 6560   2.096   2.938  15.637  0.8366 -0.4322 -0.5106
  436TMC3    O1 6561   1.635   3.127  15.648 -0.0835 -0.5285  0.7390
  436TMC3    O2 6562   2.066   2.964  15.523  0.6871 -0.4065  0.3664
  437TMC3    C1 6563   0.745   0.284  13.267  0.5582 -0.6832  0.3400
  437TMC3    C2 6564   0.647   0.372  13.302 -0.9414  0.1513 -0.0393
  437TMC3    C3 6565   0.625   0.474  13.221  0.2492 -0.4302 -0.4612
  437TMC3    C4 6566   0.838   0.307  13.167 -0.1050 -0.1556 -0.5647
  437TMC3    C5 6567   0.802   0.409  13.083 -0.3586  0.7859  0.0295
  437TMC3    C6 6568   0.694   0.489  13.105  0.1999  0.3312 -0.4037
  437TMC3     C 6569   0.778   0.176  13.357 -0.3777 -0.0550  0.0977
  437TMC3     O 6570   0.894   0.138  13.355 -0.0930  0.3325 -0.1861
  437TMC3     H 6571   0.580   0.346  13.383 -2.9782  2.3722 -1.0065
  437TMC3    H1 6572   0.895   0.227  13.121  0.8600  0.6171 -0.7181
  437TMC3    H2 6573   0.676   0.581  13.049 -2.4858 -1.1344 -1.9471
  437TMC3    C7 6574   0.887   0.435  12.966  0.0819 -0.1763 -0.1308
  437TMC3    C8 6575   0.527   0.573  13.275 -0.4550 -0.4692  0.2554
  437TMC3    O1 6576   0.837   0.466  12.863 -0.0880  0.0590  0.0674
  437TMC3    O2 6577   0.498   0.548  13.392  0.7099  0.0094 -0.5525
  438MPD2     C 6578   3.371   1.265  16.609  0.9956 -0.1821 -0.4862
  438MPD2    C1 6579   3.461   1.180  16.676 -0.1477 -0.5817  0.5970
  438MPD2    C2 6580   3.425   1.132  16.801 -0.6613 -0.0589 -0.5571
  438MPD2    C3 6581   3.303   1.154  16.849  1.0986 -0.3474  0.2304
  438MPD2    C4 6582   3.214   1.236  16.778  0.6316  0.1377 -0.3581
  438MPD2    C5 6583   3.254   1.296  16.661  0.2538  0.3270  0.4324
  438MPD2     H 6584   3.493   1.066  16.854 -2.2188  0.4204  2.0345
  438MPD2    H1 6585   3.112   1.253  16.809  0.5961 -1.9803  0.6620
  438MPD2    H2 6586   3.401   1.305  16.513  2.2633  0.8743  0.3492
  438MPD2    H3 6587   3.184   1.369  16.622  0.2686  0.1851  0.1471
  438MPD2     N 6588   3.254   1.106  16.972 -0.1219 -0.6065 -0.2329
  438MPD2    H5 6589   3.160   1.138  16.992  0.7303  2.9642 -1.8384
  438MPD2    N1 6590   3.591   1.140  16.632  0.0213  0.9173 -0.0854
  438MPD2    H7 6591   3.645   1.092  16.704 -1.0301  2.2434  1.6068
  439TMC3    C1 6592   3.785   1.150  16.516 -0.4276 -0.6651 -0.2077
  439TMC3    C2 6593   3.836   1.082  16.400  0.1069 -0.1636  0.1074
  439TMC3    C3 6594   3.902   0.966  16.431 -0.5051  1.0620  0.2283
  439TMC3    C4 6595   3.824   1.120  16.642 -0.2264 -0.3686 -0.0079
  439TMC3    C5 6596   3.899   1.015  16.660 -0.0940  0.3941  0.3184
  439TMC3    C6 6597   3.933   0.931  16.562 -0.2635  0.0619  0.1262
  439TMC3     C 6598   3.645   1.177  16.512  0.3894  0.1636  0.4680
  439TMC3     O 6599   3.605   1.230  16.411 -0.3005 -0.3559  0.1497
  439TMC3     H 6600   3.805   1.099  16.298 -1.3630 -1.0567  0.4137
  439TMC3    H1 6601   3.805   1.190  16.723  0.9677 -0.6675  0.5330
  439TMC3    H2 6602   3.984   0.836  16.574 -0.8676 -0.4572 -1.3191
  439TMC3    C7 6603   3.857   0.949  16.783  0.0552  0.2590 -0.3832
  439TMC3    C8 6604   3.932   0.873  16.328  0.1251  0.0690 -0.2147
  439TMC3    O1 6605   3.738   0.969  16.811  0.3729  0.1041 -0.1848
  439TMC3    O2 6606   4.044   0.827  16.331  0.2609  0.0563  0.5205
  440MPD2     C 6607   1.238   1.170  14.807  0.1674  0.1909  0.7842
  440MPD2    C1 6608   1.318   1.234  14.894 -1.4884 -0.0950 -0.1456
  440MPD2    C2 6609   1.387   1.169  14.992  0.7025  0.6265  0.3263
  440MPD2    C3 6610   1.369   1.031  15.002  0.3832 -0.6843 -0.0523
  440MPD2    C4 6611   1.283   0.967  14.917 -0.1881 -0.6160 -0.0606
  440MPD2    C5 6612   1.222   1.034  14.826 -0.2985 -0.4161  0.4959
  440MPD2     H 6613   1.458   1.222  15.054  2.1427  0.1905 -0.9778
  440MPD2    H1 6614   1.256   0.863  14.909 -2.3363 -0.0196 -0.5904
  440MPD2    H2 6615   1.176   1.223  14.735  1.4594 -2.0282 -1.9901
  440MPD2    H3 6616   1.153   0.985  14.758 -1.2681  1.0540  0.4195
  440MPD2     N 6617   1.445   0.942  15.083  0.5158  0.0333  0.4427
  440MPD2    H5 6618   1.407   0.848  15.094  0.1916  0.1557  0.3443
  440MPD2    N1 6619   1.349   1.369  14.895 -0.0560 -0.8588  0.2100
  440MPD2    H7 6620   1.425   1.391  14.959 -0.0101  1.8900 -0.7588
  441TMC3    C1 6621   1.640   0.856  15.191 -0.3974  0.4073  0.2393
  441TMC3    C2 6622   1.747   0.887  15.269  0.2276 -0.3622  0.3363
  441TMC3    C3 6623   1.855   0.808  15.268  0.0555  0.9636 -0.6594
  441TMC3    C4 6624   1.638   0.744  15.109 -0.3549  0.4536 -0.2667
  441TMC3    C5 6625   1.749   0.663  15.108 -0.5447  0.3269  0.2988
  441TMC3    C6 6626   1.860   0.692  15.187  0.1122 -0.1274  0.2330
  441TMC3     C 6627   1.573   0.976  15.132 -0.3606 -0.2384  0.1657
  441TMC3     O 6628   1.633   1.079  15.116 -0.2873  0.3788  0.0727
  441TMC3     H 6629   1.737   0.978  15.327  1.1685  0.6206 -1.0570
  441TMC3    H1 6630   1.569   0.725  15.028 -0.5336 -1.1736  0.2839
  441TMC3    H2 6631   1.949   0.630  15.190  1.0364  1.1360 -1.1259
  441TMC3    C7 6632   1.732   0.537  15.030  0.0951 -0.8818 -0.0658
  441TMC3    C8 6633   1.969   0.842  15.348 -0.3488  0.3078 -0.1731
  441TMC3    O1 6634   1.682   0.544  14.920  0.3778  0.2798 -0.1210
  441TMC3    O2 6635   2.055   0.760  15.371  0.3018 -0.5249 -0.4741
  442MPD2     C 6636   0.684   1.394  16.807 -0.1146 -0.6287  0.1479
  442MPD2    C1 6637   0.564   1.455  16.773 -0.1688 -0.2530  0.4532
  442MPD2    C2 6638   0.483   1.399  16.676  0.6366  0.0831 -0.8374
  442MPD2    C3 6639   0.534   1.292  16.601  0.0292  1.3219 -0.9191
  442MPD2    C4 6640   0.648   1.224  16.642 -0.7304 -0.4524  0.3867
  442MPD2    C5 6641   0.727   1.275  16.748 -0.7557  0.1904  0.0281
  442MPD2     H 6642   0.383   1.440  16.668 -0.5513 -2.9425 -1.2428
  442MPD2    H1 6643   0.693   1.141  16.589  0.5789  0.8653 -0.5329
  442MPD2    H2 6644   0.747   1.443  16.880  0.8081  0.3224 -1.2837
  442MPD2    H3 6645   0.830   1.245  16.762  0.4308  2.4928 -3.5102
  442MPD2     N 6646   0.463   1.226  16.498  0.2274  0.0324  0.2430
  442MPD2    H5 6647   0.500   1.142  16.455  3.1941  0.3993  2.0535
  442MPD2    N1 6648   0.512   1.570  16.841 -0.3258  0.7556 -0.1328
  442MPD2    H7 6649   0.414   1.593  16.827  0.0327  0.5041 -2.9587
  443TMC3    C1 6650   0.480   1.701  17.026 -0.7575  0.6914  0.1783
  443TMC3    C2 6651   0.442   1.827  16.994  0.2692  0.6812  0.2274
  443TMC3    C3 6652   0.315   1.872  17.024  0.0448  0.1086 -0.8092
  443TMC3    C4 6653   0.399   1.627  17.096 -0.3462  0.6949  0.7450
  443TMC3    C5 6654   0.280   1.676  17.143 -0.5028 -1.1775  0.1834
  443TMC3    C6 6655   0.229   1.793  17.102 -0.0403 -0.5791 -0.0519
  443TMC3     C 6656   0.581   1.633  16.943 -0.5804  0.2332  0.7968
  443TMC3     O 6657   0.701   1.638  16.974 -0.3328 -0.4079 -0.3805
  443TMC3     H 6658   0.509   1.887  16.935 -0.6795  2.3147  0.7963
  443TMC3    H1 6659   0.416   1.522  17.117  1.8668  1.0803  0.7951
  443TMC3    H2 6660   0.122   1.812  17.103  0.0824  0.1037  0.4121
  443TMC3    C7 6661   0.172   1.583  17.176 -0.0915 -0.5479  0.5582
  443TMC3    C8 6662   0.250   1.948  16.913  0.3324  0.4421 -0.4470
  443TMC3    O1 6663   0.189   1.465  17.142  0.3545  0.2563 -0.4370
  443TMC3    O2 6664   0.328   1.974  16.825  0.1392  0.0858 -0.5637
  444MPD2     C 6665   0.678   1.403  17.322 -0.0736 -0.7474  0.2200
  444MPD2    C1 6666   0.560   1.346  17.278  0.1148  0.7610  0.4560
  444MPD2    C2 6667   0.573   1.249  17.179 -0.3794  0.2559 -0.0077
  444MPD2    C3 6668   0.697   1.214  17.130  0.0687  1.2013 -0.0434
  444MPD2    C4 6669   0.811   1.277  17.168 -0.5887 -0.2176  0.2565
  444MPD2    C5 6670   0.800   1.366  17.278  0.9045 -0.3528  0.3280
  444MPD2     H 6671   0.487   1.198  17.138 -1.6642  2.4933 -0.0903
  444MPD2    H1 6672   0.912   1.249  17.142 -0.4389 -0.1061  0.7107
  444MPD2    H2 6673   0.679   1.463  17.413  1.3419 -0.2502 -0.1210
  444MPD2    H3 6674   0.892   1.407  17.319  0.9239  0.5386 -0.6184
  444MPD2     N 6675   0.695   1.110  17.037 -0.3486 -0.2199 -1.0250
  444MPD2    H5 6676   0.606   1.084  16.995 -1.3854  0.9463  0.4553
  444MPD2    N1 6677   0.436   1.354  17.352  0.1125 -0.3812  0.1708
  444MPD2    H7 6678   0.364   1.288  17.327 -0.6949  0.7284 -0.4224
  445TMC3    C1 6679   0.787   0.946  16.892 -0.6309  0.3897  0.1697
  445TMC3    C2 6680   0.658   0.916  16.850 -0.5264 -0.2238  0.4394
  445TMC3    C3 6681   0.651   0.838  16.737  0.4204  0.2937  0.3674
  445TMC3    C4 6682   0.899   0.908  16.827  0.4163 -0.9316  0.2185
  445TMC3    C5 6683   0.882   0.823  16.722  0.0358 -0.1708  0.4131
  445TMC3    C6 6684   0.762   0.783  16.679  0.3290 -0.2048 -0.5672
  445TMC3     C 6685   0.807   1.039  17.001 -0.3647  0.1735  0.0039
  445TMC3     O 6686   0.917   1.049  17.044  0.6486  0.0462 -0.1104
  445TMC3     H 6687   0.562   0.931  16.896 -0.0654  1.7933  0.7311
  445TMC3    H1 6688   0.999   0.934  16.862  1.1497 -0.3417 -2.3218
  445TMC3    H2 6689   0.761   0.700  16.609  0.5241 -0.2321 -0.5388
  445TMC3    C7 6690   1.000   0.747  16.672  0.4932 -0.1102  0.2069
  445TMC3    C8 6691   0.510   0.797  16.695 -0.3202 -0.4288  0.6273
  445TMC3    O1 6692   0.981   0.693  16.565 -0.1216 -0.5719  0.0503
  445TMC3    O2 6693   0.422   0.881  16.720  0.6607  0.0409  0.3287
  446MPD2     C 6694   0.083   2.194  10.854 -0.2376 -0.0845 -0.7487
  446MPD2    C1 6695   4.735   2.303  10.857  0.1247  0.3892 -0.3155
  446MPD2    C2 6696   0.054   2.432  10.876 -0.2192  0.3469 -0.2076
  446MPD2    C3 6697   0.189   2.456  10.898  0.4029  0.1497  0.1225
  446MPD2    C4 6698   0.269   2.340  10.895  0.0849  0.1545 -0.6286
  446MPD2    C5 6699   0.221   2.212  10.872  0.5197 -0.2806 -0.7639
  446MPD2     H 6700   4.725   2.516  10.886  1.6334  1.6581  0.9446
  446MPD2    H1 6701   0.375   2.347  10.916 -0.1665 -0.5841  0.8942
  446MPD2    H2 6702   0.045   2.093  10.843  1.8800 -0.8621 -0.9926
  446MPD2    H3 6703   0.284   2.125  10.883  3.5501  1.9597 -0.2408
  446MPD2     N 6704   0.235   2.586  10.937 -1.2514 -0.3602 -0.4293
  446MPD2    H5 6705   0.167   2.661  10.926  0.6467  1.1061 -2.0711
  446MPD2    N1 6706   4.593   2.282  10.844 -0.2511  0.0059 -0.6918
  446MPD2    H7 6707   4.544   2.372  10.843  1.3547  0.9097  2.0826
  447TMC3    C1 6708   0.352   2.763  11.047  0.5599  0.3087 -0.4421
  447TMC3    C2 6709   0.339   2.860  10.953  0.0472  0.2073  0.4757
  447TMC3    C3 6710   0.402   2.973  10.984 -0.6222  0.2587 -0.5707
  447TMC3    C4 6711   0.429   2.783  11.156  0.9500  0.1743  0.3655
  447TMC3    C5 6712   0.501   2.896  11.175 -0.6278  1.0237 -0.7711
  447TMC3    C6 6713   0.495   2.994  11.079 -0.1892 -0.2733  0.2952
  447TMC3     C 6714   0.348   2.627  11.009  0.5087  0.3778 -0.5158
  447TMC3     O 6715   0.440   2.555  11.047  0.2704  0.3346  0.1294
  447TMC3     H 6716   0.281   2.849  10.861 -0.9744  0.4175  1.0900
  447TMC3    H1 6717   0.423   2.708  11.234  2.8007 -0.3316  0.0126
  447TMC3    H2 6718   0.541   3.090  11.100 -0.5978 -0.0480  0.1475
  447TMC3    C7 6719   0.635   2.873  11.229  0.7066  0.9590 -0.3369
  447TMC3    C8 6720   0.431   3.058  10.863 -0.3316 -0.2081 -0.0611
  447TMC3    O1 6721   0.732   2.913  11.163  1.0219 -0.3899 -0.4668
  447TMC3    O2 6722   0.342   3.076  10.785 -0.3078 -0.2451 -0.3207
  448TMC3    C1 6723   2.882   2.345  17.190 -0.2671 -0.0193 -0.5476
  448TMC3    C2 6724   2.914   2.274  17.078  0.4175  0.3765  0.5000
  448TMC3    C3 6725   2.992   2.159  17.097  0.1817  0.2627 -0.1505
  448TMC3    C4 6726   2.904   2.307  17.321  0.2807  1.0616  0.0151
  448TMC3    C5 6727   2.989   2.203  17.335  0.2858  0.1602 -0.3168
  448TMC3    C6 6728   3.034   2.131  17.222  0.2994  0.3921 -0.3264
  448TMC3     C 6729   2.783   2.445  17.165 -0.0976  0.0523 -0.2154
  448TMC3     O 6730   2.789   2.498  17.054  0.0424  0.2916  0.1442
  448TMC3     H 6731   2.874   2.301  16.981 -3.7104 -0.1406  2.0835
  448TMC3    H1 6732   2.859   2.362  17.402  2.1175  2.9444 -0.2520
  448TMC3    H2 6733   3.098   2.045  17.240 -0.2271  0.4694  1.8942
  448TMC3    C7 6734   2.999   2.155  17.466 -0.2841  0.0590  0.7624
  448TMC3    C8 6735   3.055   2.095  16.988 -0.8401 -0.2181  0.1139
  448TMC3    O1 6736   2.912   2.195  17.543 -0.1095  0.0634 -0.4997
  448TMC3    O2 6737   3.148   2.018  17.019  0.0567  0.5358  0.0802
  449MPD2     C 6738   4.706   0.442  14.214  0.0787  0.4386 -0.2094
  449MPD2    C1 6739   4.586   0.502  14.178  0.4990  0.2395  0.3776
  449MPD2    C2 6740   4.466   0.426  14.172 -0.8281 -0.7406 -0.2449
  449MPD2    C3 6741   4.464   0.289  14.199 -0.9414 -0.0207  1.1432
  449MPD2    C4 6742   4.585   0.225  14.230 -0.6476 -0.3313 -0.1545
  449MPD2    C5 6743   4.696   0.303  14.235 -0.2828 -0.3792 -0.1411
  449MPD2     H 6744   4.372   0.480  14.172  0.1740  1.0145  1.0480
  449MPD2    H1 6745   4.597   0.117  14.227  3.0274  0.0823 -0.0960
  449MPD2    H2 6746   0.060   0.496  14.234 -0.7688  1.3164  1.3047
  449MPD2    H3 6747   0.053   0.261  14.266  0.0700  0.8238  0.3975
  449MPD2     N 6748   4.348   0.217  14.189 -0.0290 -0.2954  0.8052
  449MPD2    H5 6749   4.262   0.265  14.164 -0.1985 -0.9759  0.0823
  449MPD2    N1 6750   4.566   0.640  14.168  0.0874  0.4923  0.3076
  449MPD2    H7 6751   4.468   0.663  14.179 -0.1054 -0.8282  1.3645
  450TMC3    C1 6752   4.582   0.868  14.145  0.2327  0.1240 -0.5697
  450TMC3    C2 6753   4.608   0.913  14.023  0.0888  0.1764  0.8441
  450TMC3    C3 6754   4.507   0.971  13.954 -0.4053 -0.8270 -0.2232
  450TMC3    C4 6755   4.457   0.881  14.205  0.1577 -0.2795  0.0579
  450TMC3    C5 6756   4.355   0.925  14.128  0.1890  0.5957 -0.9377
  450TMC3    C6 6757   4.382   0.965  14.002  0.0381  0.3880  0.4289
  450TMC3     C 6758   4.659   0.742  14.169  0.2842  1.1324  0.0422
  450TMC3     O 6759   0.043   0.749  14.151 -0.1850 -0.4875 -0.3129
  450TMC3     H 6760   4.706   0.889  13.985 -0.8489 -2.1212 -0.1636
  450TMC3    H1 6761   4.437   0.851  14.307  0.6419  3.8389  1.3869
  450TMC3    H2 6762   4.303   1.013  13.945  1.6270  0.2292 -1.9089
  450TMC3    C7 6763   4.249   0.824  14.116  0.3798  0.1825 -0.3361
  450TMC3    C8 6764   4.543   1.072  13.856 -0.1394 -0.1537  0.1270
  450TMC3    O1 6765   4.284   0.719  14.173  0.0701  0.6737 -0.7888
  450TMC3    O2 6766   4.456   1.151  13.817  0.4064 -0.0642 -0.1118
  451MPD2     C 6767   0.840   4.096   1.182  0.1654 -0.0345  0.3048
  451MPD2    C1 6768   0.931   4.134   1.089 -0.1245  0.2037  0.6485
  451MPD2    C2 6769   0.972   4.044   0.990 -0.8002  0.8807 -0.2615
  451MPD2    C3 6770   0.930   3.912   0.988 -0.0224 -0.3276 -0.1928
  451MPD2    C4 6771   0.846   3.873   1.090 -0.5123  0.8988  0.5927
  451MPD2    C5 6772   0.808   3.962   1.189 -0.2128 -0.2271  0.5056
  451MPD2     H 6773   1.047   4.076   0.919  1.5118 -0.7656  1.3944
  451MPD2    H1 6774   0.811   3.772   1.107  1.6927  0.1094  0.3877
  451MPD2    H2 6775   0.808   4.165   1.258 -0.0608  1.7517 -1.4163
  451MPD2    H3 6776   0.726   3.939   1.256 -1.4207 -1.1644 -1.2890
  451MPD2     N 6777   0.982   3.812   0.896  0.4684 -0.1677  0.0728
  451MPD2    H5 6778   0.978   3.714   0.923  0.0062 -0.1424  0.0857
  451MPD2    N1 6779   0.978   4.259   1.104 -0.5826 -0.1346 -0.3215
  451MPD2    H7 6780   0.932   4.313   1.177 -0.1163 -1.9991  1.3675
  452TMC3    C1 6781   1.035   3.949   0.700  0.2748  0.8954  0.2509
  452TMC3    C2 6782   0.928   4.031   0.698  0.8037  0.0225  0.0100
  452TMC3    C3 6783   0.917   4.121   0.598  0.2623 -0.1518  0.1661
  452TMC3    C4 6784   1.135   3.970   0.612 -0.0098  0.5306  0.9100
  452TMC3    C5 6785   1.129   4.059   0.509  0.2217  0.2100 -0.2301
  452TMC3    C6 6786   1.015   4.136   0.496  0.8251  0.3060 -0.0201
  452TMC3     C 6787   1.061   3.837   0.787  0.1275 -0.6998 -0.7823
  452TMC3     O 6788   1.130   3.750   0.739 -0.6330  0.2342 -0.3568
  452TMC3     H 6789   0.849   4.003   0.767 -1.0464  0.6841 -1.8435
  452TMC3    H1 6790   1.221   3.904   0.611  0.0647  0.6056  2.8600
  452TMC3    H2 6791   1.008   4.220   0.428  0.0001 -1.1448 -1.7118
  452TMC3    C7 6792   1.250   4.094   0.446 -0.4069 -1.0142 -0.1243
  452TMC3    C8 6793   0.820   4.230   0.609 -0.2506 -0.1120  0.3491
  452TMC3    O1 6794   1.313   3.998   0.399  0.7612 -0.1772 -0.4677
  452TMC3    O2 6795   0.807   4.308   0.517  0.1589  0.3646  0.7951
  453TMC3    C1 6796   2.317   1.291  12.138  0.2171  1.1578  0.0084
  453TMC3    C2 6797   2.261   1.168  12.152 -0.0325  0.0561  0.1072
  453TMC3    C3 6798   2.192   1.129  12.044  0.8314 -0.8665  0.3266
  453TMC3    C4 6799   2.297   1.373  12.032 -0.2107 -1.1793  0.4855
  453TMC3    C5 6800   2.236   1.324  11.925 -0.0696 -0.1693 -0.2257
  453TMC3    C6 6801   2.184   1.198  11.928  0.6689 -0.4769  0.3656
  453TMC3     C 6802   2.435   1.319  12.210  0.1835  0.3245  0.0309
  453TMC3     O 6803   2.514   1.382  12.142 -0.1066 -0.4695 -0.0609
  453TMC3     H 6804   2.279   1.110  12.242  1.4788 -2.0055 -1.5285
  453TMC3    H1 6805   2.339   1.473  12.045  0.5400 -1.1844 -2.0318
  453TMC3    H2 6806   2.133   1.155  11.843 -0.0764 -0.2182  0.6833
  453TMC3    C7 6807   2.239   1.391  11.803  0.6893 -0.4556  0.1059
  453TMC3    C8 6808   2.170   0.988  12.031  0.4067  0.4615 -0.0400
  453TMC3    O1 6809   2.224   1.324  11.703 -0.3383 -0.1995  0.1103
  453TMC3    O2 6810   2.123   0.949  11.927  0.0112  0.5108 -1.3347
  454MPD2     C 6811   1.266   0.307  16.177  0.7508 -0.6477  0.4139
  454MPD2    C1 6812   1.258   0.411  16.080  0.1051 -0.2944  0.1781
  454MPD2    C2 6813   1.213   0.538  16.126 -0.2766 -0.5245  0.0453
  454MPD2    C3 6814   1.149   0.551  16.255  0.5967 -0.1898 -0.0344
  454MPD2    C4 6815   1.150   0.445  16.337 -0.0557 -0.8934  0.4489
  454MPD2    C5 6816   1.206   0.329  16.296 -0.7969 -0.3650  0.2256
  454MPD2     H 6817   1.205   0.624  16.060 -0.9761  1.1947  2.3649
  454MPD2    H1 6818   1.087   0.438  16.424 -0.3365  2.3178  0.5013
  454MPD2    H2 6819   1.287   0.205  16.147  0.7030 -0.6220  0.2932
  454MPD2    H3 6820   1.181   0.239  16.349 -2.4331  0.5412  0.9897
  454MPD2     N 6821   1.078   0.665  16.285  0.0001 -0.4046  0.2641
  454MPD2    H5 6822   0.992   0.645  16.335  0.5500  1.9102  2.1493
  454MPD2    N1 6823   1.279   0.374  15.944  0.1104 -0.4092  0.4139
  454MPD2    H7 6824   1.286   0.275  15.925 -0.5815 -0.7450  1.9204
  455TMC3    C1 6825   1.026   0.882  16.299  0.1953 -1.1397  0.4036
  455TMC3    C2 6826   1.061   1.005  16.344 -0.3011  0.0688  0.0278
  455TMC3    C3 6827   0.965   1.103  16.369 -0.1114  0.7141  0.5148
  455TMC3    C4 6828   0.894   0.841  16.298 -0.2446  0.2148 -1.3276
  455TMC3    C5 6829   0.801   0.940  16.323  0.5835  0.3422 -0.2939
  455TMC3    C6 6830   0.830   1.070  16.360 -0.4345  0.7221  0.7866
  455TMC3     C 6831   1.134   0.786  16.268  0.8863  0.1818 -0.9861
  455TMC3     O 6832   1.250   0.821  16.243 -0.1860 -0.4607  0.0004
  455TMC3     H 6833   1.165   1.025  16.367  1.0197 -2.1294 -3.9603
  455TMC3    H1 6834   0.865   0.754  16.241  0.5735 -1.1119  0.2828
  455TMC3    H2 6835   0.753   1.145  16.374 -1.2073 -0.2454  1.7081
  455TMC3    C7 6836   0.666   0.890  16.339  0.8724 -0.6236 -0.1812
  455TMC3    C8 6837   1.007   1.229  16.436 -0.5293 -0.6125 -0.1489
  455TMC3    O1 6838   0.582   0.972  16.375  0.3269  0.0390 -0.4379
  455TMC3    O2 6839   1.104   1.226  16.516 -0.2940 -0.6470 -0.1627
  456MPD2     C 6840   3.792   1.402  15.847 -1.0771  0.9535  0.1107
  456MPD2    C1 6841   3.844   1.329  15.957 -0.0738  0.2830  0.0942
  456MPD2    C2 6842   3.797   1.353  16.085 -0.3772 -0.6028 -0.4152
  456MPD2    C3 6843   3.704   1.455  16.110 -0.1687  0.6336 -0.2258
  456MPD2    C4 6844   3.658   1.533  16.006  0.3192  0.6799  0.2800
  456MPD2    C5 6845   3.696   1.495  15.879 -0.0664  0.5968 -0.2903
  456MPD2     H 6846   3.841   1.305  16.171  1.9152  1.9220 -0.1582
  456MPD2    H1 6847   3.590   1.617  16.010 -1.5653 -0.8087 -0.3774
  456MPD2    H2 6848   3.811   1.378  15.743 -1.0449  0.1384  0.3056
  456MPD2    H3 6849   3.660   1.557  15.798 -1.7586 -0.9377 -0.7192
  456MPD2     N 6850   3.660   1.471  16.243 -0.6593 -0.3579 -0.0959
  456MPD2    H5 6851   3.686   1.398  16.308 -0.2367 -1.8419 -1.9304
  456MPD2    N1 6852   3.929   1.219  15.932  0.1061 -0.5633  0.1875
  456MPD2    H7 6853   3.936   1.194  15.834  1.8080 -0.5930  0.3124
  457TMC3    C1 6854   3.565   1.565  16.438  0.3381  0.2395  0.4242
  457TMC3    C2 6855   3.448   1.616  16.489 -0.9535  0.1649 -0.6249
  457TMC3    C3 6856   3.417   1.609  16.625  0.2784  0.0909  0.1612
  457TMC3    C4 6857   3.661   1.521  16.523  0.2981  0.1963  0.4799
  457TMC3    C5 6858   3.625   1.520  16.655 -0.0379 -0.0895 -0.3559
  457TMC3    C6 6859   3.512   1.560  16.707  0.4438 -0.4500 -0.0013
  457TMC3     C 6860   3.578   1.572  16.292  0.3455  0.3171  1.4461
  457TMC3     O 6861   3.533   1.666  16.230  0.2267  0.6543  0.1093
  457TMC3     H 6862   3.390   1.679  16.422 -1.3232  1.1555  0.6126
  457TMC3    H1 6863   3.757   1.485  16.488  0.4770  1.0530  0.0850
  457TMC3    H2 6864   3.486   1.542  16.810 -1.9606 -0.1039 -0.5370
  457TMC3    C7 6865   3.718   1.472  16.755 -0.5867 -0.4001  0.3328
  457TMC3    C8 6866   3.330   1.715  16.684  0.0341  0.3851 -0.2909
  457TMC3    O1 6867   3.668   1.429  16.856 -0.2931  0.2790 -0.0025
  457TMC3    O2 6868   3.348   1.744  16.801  0.2253  0.0254  0.1934
  458MPD2     C 6869   1.356   0.462  12.758  0.0300 -0.2163 -0.0276
  458MPD2    C1 6870   1.365   0.369  12.860 -0.2786 -0.3035  0.6974
  458MPD2    C2 6871   1.251   0.348  12.944 -0.1991 -0.0097  0.4450
  458MPD2    C3 6872   1.126   0.406  12.903  0.3572 -0.3748 -0.2192
  458MPD2    C4 6873   1.122   0.473  12.784  0.2970  0.5533  0.2251
  458MPD2    C5 6874   1.236   0.511  12.722  0.2391 -0.2262  0.6799
  458MPD2     H 6875   1.257   0.289  13.035  0.3479 -0.6486 -0.0089
  458MPD2    H1 6876   1.036   0.520  12.738 -0.0768 -1.5664 -1.2009
  458MPD2    H2 6877   1.448   0.497  12.712 -1.3963  1.6979 -1.3932
  458MPD2    H3 6878   1.231   0.575  12.635  2.5721  1.8093  2.0441
  458MPD2     N 6879   1.015   0.393  12.995 -0.2768  0.0935  0.0561
  458MPD2    H5 6880   1.032   0.348  13.084  0.9654  0.4754  0.0066
  458MPD2    N1 6881   1.491   0.321  12.898 -0.5267  0.2713  0.1711
  458MPD2    H7 6882   1.569   0.364  12.849  0.3454 -0.3020  1.0535
  459TMC3    C1 6883   1.652   0.190  13.015  0.0608 -0.3654  0.9125
  459TMC3    C2 6884   1.752   0.276  12.980 -0.2521  0.5108  0.1411
  459TMC3    C3 6885   1.867   0.259  13.055  0.0492  0.3600  0.7375
  459TMC3    C4 6886   1.663   0.093  13.117  0.2725 -0.9267 -0.5519
  459TMC3    C5 6887   1.781   0.079  13.190  0.2637 -0.3155  0.2591
  459TMC3    C6 6888   1.885   0.171  13.161 -0.2749 -0.2786  0.0886
  459TMC3     C 6889   1.514   0.210  12.970  0.0855 -0.4561 -0.2315
  459TMC3     O 6890   1.430   0.127  13.007 -0.2727 -0.2702  0.0660
  459TMC3     H 6891   1.753   0.328  12.885  0.7582  1.6990  0.8146
  459TMC3    H1 6892   1.574   0.042  13.151  0.3154 -1.1199 -0.7320
  459TMC3    H2 6893   1.980   0.172  13.212 -0.7472 -1.3908  0.9858
  459TMC3    C7 6894   1.779   4.737  13.311  0.3836  0.0273 -0.9512
  459TMC3    C8 6895   1.990   0.297  12.991  0.1234  0.1567  0.9483
  459TMC3    O1 6896   1.677   4.674  13.332 -0.5543 -0.1954  0.3177
  459TMC3    O2 6897   2.000   0.409  12.948  0.2049  0.5876 -0.2827
  460MPD2     C 6898   0.741   3.234  10.763 -0.3086 -0.2955  0.0211
  460MPD2    C1 6899   0.603   3.207  10.767  0.3868 -0.3255 -0.3935
  460MPD2    C2 6900   0.520   3.266  10.669 -0.4313  0.5125  0.2616
  460MPD2    C3 6901   0.562   3.350  10.569 -0.2060 -0.1481  0.2907
  460MPD2    C4 6902   0.692   3.378  10.575  0.3657  0.4564 -0.5782
  460MPD2    C5 6903   0.776   3.318  10.660 -0.2218 -0.5490 -0.0288
  460MPD2     H 6904   0.414   3.244  10.662 -0.1876  0.3057 -2.6826
  460MPD2    H1 6905   0.729   3.444  10.497  1.7304 -0.0539 -0.3675
  460MPD2    H2 6906   0.816   3.174  10.812  0.0419 -0.7928 -1.1140
  460MPD2    H3 6907   0.881   3.337  10.643 -0.3985 -1.0316 -1.6336
  460MPD2     N 6908   0.471   3.409  10.480  0.2993 -0.8814 -0.5330
  460MPD2    H5 6909   0.379   3.369  10.467  0.1338 -1.3260  1.9940
  460MPD2    N1 6910   0.559   3.113  10.862 -0.5048  0.4323  0.3853
  460MPD2    H7 6911   0.631   3.076  10.923 -0.8547  0.7947  1.0202
  461TMC3    C1 6912   0.390   3.567  10.321 -0.4543 -0.6401 -0.7092
  461TMC3    C2 6913   0.317   3.478  10.243 -0.0319  0.4732 -0.1095
  461TMC3    C3 6914   0.243   3.537  10.145 -0.5508  0.2911 -0.0639
  461TMC3    C4 6915   0.396   3.703  10.286  0.4390  0.4715 -0.1792
  461TMC3    C5 6916   0.293   3.750  10.209 -0.0673 -0.6065 -0.2792
  461TMC3    C6 6917   0.210   3.668  10.138  0.2674  0.2382  0.2693
  461TMC3     C 6918   0.496   3.532  10.413 -0.3869  0.3620  0.1779
  461TMC3     O 6919   0.584   3.619  10.432 -0.3939 -0.8401 -0.3697
  461TMC3     H 6920   0.345   3.373  10.232  1.7139  0.7646  1.5746
  461TMC3    H1 6921   0.467   3.774  10.325 -0.4136  1.1056  0.2070
  461TMC3    H2 6922   0.144   3.709  10.063 -0.4741  0.3100  0.9586
  461TMC3    C7 6923   0.267   3.891  10.190 -0.1981  0.4515 -0.4000
  461TMC3    C8 6924   0.235   3.460  10.020  0.8469  0.0070  0.5161
  461TMC3    O1 6925   0.162   3.927  10.137 -0.1553 -0.0031 -0.0576
  461TMC3    O2 6926   0.312   3.364  10.010  0.6312 -0.0251 -0.5667
  462TMC3    C1 6927   0.482   4.525   0.333 -0.1520  0.0251 -0.5196
  462TMC3    C2 6928   0.605   4.532   0.265 -0.4878 -0.1205 -0.0675
  462TMC3    C3 6929   0.656   4.407   0.240 -0.8561  0.0135 -0.2121
  462TMC3    C4 6930   0.422   4.406   0.373 -0.4362 -0.4656 -0.0634
  462TMC3    C5 6931   0.481   4.289   0.344 -0.1538 -0.3045  0.6547
  462TMC3    C6 6932   0.600   4.288   0.279 -0.0893  0.2489 -0.2655
  462TMC3     C 6933   0.459   4.646   0.411 -0.5007  0.2691 -0.4907
  462TMC3     O 6934   0.350   4.672   0.453  0.0408 -0.5726 -0.5628
  462TMC3     H 6935   0.652   4.624   0.234 -0.5716 -0.8458 -2.3039
  462TMC3    H1 6936   0.322   4.419   0.414 -1.6579 -2.1623 -2.5173
  462TMC3    H2 6937   0.630   4.196   0.230 -0.4382 -0.9263  1.7127
  462TMC3    C7 6938   0.431   4.158   0.382 -0.5145  1.0963  0.3003
  462TMC3    C8 6939   0.763   4.401   0.147 -0.0394 -0.0594  0.5025
  462TMC3    O1 6940   0.510   4.067   0.378  0.2613  0.5409  0.2509
  462TMC3    O2 6941   0.801   4.512   0.109  0.2341  0.4050 -0.4849
  463MPD2     C 6942   2.090   2.189   1.330  0.5342  0.2990  0.0281
  463MPD2    C1 6943   1.961   2.224   1.346  0.0166  0.0043 -0.1294
  463MPD2    C2 6944   1.915   2.350   1.333 -0.2810  0.0241  0.1689
  463MPD2    C3 6945   2.001   2.449   1.295 -0.3798 -0.2277  0.0062
  463MPD2    C4 6946   2.131   2.410   1.257 -0.1214 -0.2813  0.0627
  463MPD2    C5 6947   2.181   2.290   1.290  0.3201  0.2231 -0.5657
  463MPD2     H 6948   1.810   2.378   1.337 -0.7773 -2.0986  2.0421
  463MPD2    H1 6949   2.196   2.493   1.234 -2.1199  0.6695 -2.2210
  463MPD2    H2 6950   2.134   2.093   1.355  2.8498  1.8890  2.0989
  463MPD2    H3 6951   2.283   2.263   1.263 -0.3495 -0.4765 -2.3546
  463MPD2     N 6952   1.975   2.585   1.278  0.1921 -0.9548  0.3242
  463MPD2    H5 6953   2.048   2.645   1.243 -1.1127 -0.6797 -1.9364
  463MPD2    N1 6954   1.871   2.123   1.394  0.8287 -0.5628  0.8516
  463MPD2    H7 6955   1.774   2.150   1.379  0.9637 -0.1364  0.7431
  464TMC3    C1 6956   1.779   1.928   1.482  0.0398 -0.1554  0.2266
  464TMC3    C2 6957   1.670   2.006   1.515  0.2416  0.0709 -0.2484
  464TMC3    C3 6958   1.556   1.949   1.540  0.2361  0.3573  0.9223
  464TMC3    C4 6959   1.774   1.790   1.484 -0.5265  0.7453 -0.7586
  464TMC3    C5 6960   1.659   1.731   1.509 -0.6726  0.0272 -0.1967
  464TMC3    C6 6961   1.543   1.812   1.536 -0.3289 -0.0260  0.0564
  464TMC3     C 6962   1.898   1.988   1.423  0.4874  0.1225  0.2516
  464TMC3     O 6963   1.998   1.917   1.420 -0.7119 -0.1553  0.3092
  464TMC3     H 6964   1.670   2.113   1.533  0.4542 -0.0105  0.2376
  464TMC3    H1 6965   1.859   1.732   1.449 -1.0854 -1.0925  1.0177
  464TMC3    H2 6966   1.444   1.771   1.552 -0.8884 -1.2819 -6.5234
  464TMC3    C7 6967   1.653   1.591   1.532 -0.0597 -0.4668  0.1549
  464TMC3    C8 6968   1.433   2.029   1.543  0.5234 -0.3128 -0.3486
  464TMC3    O1 6969   1.762   1.533   1.523  0.0638 -0.0517  0.3051
  464TMC3    O2 6970   1.443   2.142   1.513  0.2322 -0.7234 -0.0412
  465MPD2     C 6971   2.917   1.595  16.962  0.3722 -0.1949 -0.5314
  465MPD2    C1 6972   2.869   1.466  16.956  0.0398  0.8110  0.0473
  465MPD2    C2 6973   2.870   1.396  16.837 -0.3028 -0.1435 -0.2876
  465MPD2    C3 6974   2.919   1.453  16.721  0.0516  0.0990  0.8313
  465MPD2    C4 6975   2.979   1.574  16.735 -0.5986 -0.7653 -0.4604
  465MPD2    C5 6976   2.985   1.644  16.853  0.8071 -0.7265 -0.1391
  465MPD2     H 6977   2.824   1.298  16.837  2.5363 -1.4762  1.1293
  465MPD2    H1 6978   3.029   1.622  16.652  0.7595  2.2182  2.1204
  465MPD2    H2 6979   2.897   1.651  17.053 -0.3583  1.6267 -1.8315
  465MPD2    H3 6980   3.026   1.745  16.856 -0.5418 -0.1903  0.3402
  465MPD2     N 6981   2.880   1.388  16.603 -0.1446  0.3451  0.5303
  465MPD2    H5 6982   2.843   1.294  16.612 -1.9584  0.7766 -2.4230
  465MPD2    N1 6983   2.800   1.410  17.067  0.1178 -0.3960 -0.0980
  465MPD2    H7 6984   2.777   1.312  17.052 -2.4408  0.3194 -0.7159
  466TMC3    C1 6985   2.680   1.204  16.311  0.3484  0.3036  0.0853
  466TMC3    C2 6986   2.639   1.278  16.200  0.5238 -0.6551  0.1386
  466TMC3    C3 6987   2.704   1.399  16.162 -0.1359 -0.8626  0.3906
  466TMC3    C4 6988   2.780   1.248  16.385 -0.0690 -0.7498 -0.1212
  466TMC3    C5 6989   2.826   1.373  16.363  0.0800  0.3438 -0.1328
  466TMC3    C6 6990   2.793   1.449  16.255  0.5138 -0.0529  0.4214
  466TMC3     C 6991   2.577   1.139  16.388 -0.2237  0.0114  0.0776
  466TMC3     O 6992   2.589   1.147  16.508  0.0198  0.1137  0.3125
  466TMC3     H 6993   2.539   1.266  16.159 -0.2097  1.4919  1.3061
  466TMC3    H1 6994   2.809   1.187  16.470 -0.2995  0.1122  0.5804
  466TMC3    H2 6995   2.820   1.553  16.245 -0.6541  0.1873 -0.1156
  466TMC3    C7 6996   2.881   1.449  16.476  0.0588  0.4699 -0.0357
  466TMC3    C8 6997   2.611   1.504  16.123 -0.1257 -0.4414  0.3023
  466TMC3    O1 6998   2.902   1.566  16.448 -0.0545  0.1547 -0.5103
  466TMC3    O2 6999   2.550   1.485  16.017 -0.8315 -0.2352  0.8044
  467TMC3    C1 7000   3.500   3.818  13.678 -0.1357  0.1721 -0.8646
  467TMC3    C2 7001   3.424   3.920  13.625 -0.6292  0.0015 -0.3972
  467TMC3    C3 7002   3.292   3.899  13.624  0.2456 -0.0708  0.1223
  467TMC3    C4 7003   3.450   3.709  13.734  1.0811 -0.0681 -0.9575
  467TMC3    C5 7004   3.310   3.700  13.731  0.1513 -0.6565  0.0488
  467TMC3    C6 7005   3.231   3.785  13.668 -0.3577 -0.7953 -0.2456
  467TMC3     C 7006   3.637   3.852  13.713 -0.3321 -0.0917 -0.5277
  467TMC3     O 7007   3.658   3.966  13.746 -0.0111  0.5340  0.1560
  467TMC3     H 7008   3.477   4.001  13.576 -0.1886  1.7133  2.9566
  467TMC3    H1 7009   3.500   3.629  13.787 -2.3455 -1.0305  0.8599
  467TMC3    H2 7010   3.124   3.782  13.680 -0.7708  1.5519 -3.2457
  467TMC3    C7 7011   3.243   3.582  13.787  0.4482 -0.2739 -0.0058
  467TMC3    C8 7012   3.209   4.007  13.584  0.0377 -0.4474 -0.7622
  467TMC3    O1 7013   3.304   3.481  13.771 -0.4490 -0.3368  0.0873
  467TMC3    O2 7014   3.096   3.985  13.538  0.1341  0.4411  0.1072
  468MPD2     C 7015   2.261   2.644  11.188  0.3721 -0.3957  0.1210
  468MPD2    C1 7016   2.354   2.612  11.092  0.4902  0.0659 -0.0009
  468MPD2    C2 7017   2.402   2.480  11.075 -0.0682  0.6152 -0.2612
  468MPD2    C3 7018   2.361   2.385  11.168  0.5163  0.0134  0.2307
  468MPD2    C4 7019   2.275   2.416  11.271 -0.0807  0.1327  0.0719
  468MPD2    C5 7020   2.218   2.545  11.274 -0.1631 -0.4342 -0.2733
  468MPD2     H 7021   2.479   2.463  11.002 -0.7018  1.5858 -1.1515
  468MPD2    H1 7022   2.229   2.353  11.346 -1.4853  0.3916 -0.5695
  468MPD2    H2 7023   2.219   2.745  11.193  0.6619 -0.3252  1.1524
  468MPD2    H3 7024   2.140   2.563  11.347  1.0819  0.3814  0.8539
  468MPD2     N 7025   2.388   2.254  11.155 -0.3042  0.2742  0.5642
  468MPD2    H5 7026   2.328   2.196  11.213 -1.2601 -0.9008 -1.6019
  468MPD2    N1 7027   2.384   2.722  11.005 -0.5208 -0.0471  0.3610
  468MPD2    H7 7028   2.347   2.813  11.029 -1.7365 -0.0101 -1.5975
  469TMC3    C1 7029   2.503   2.863  10.856 -0.1046 -0.3197  0.4840
  469TMC3    C2 7030   2.524   2.960  10.950 -0.3254 -0.3948 -0.4838
  469TMC3    C3 7031   2.491   3.090  10.924  0.1531 -0.2135 -0.2215
  469TMC3    C4 7032   2.470   2.891  10.729  0.1305 -0.5650  0.4291
  469TMC3    C5 7033   2.450   3.024  10.698 -0.2517  0.1587  0.2021
  469TMC3    C6 7034   2.451   3.126  10.791  0.0275 -0.2116  0.2439
  469TMC3     C 7035   2.478   2.725  10.903  0.2554  0.3467  0.0053
  469TMC3     O 7036   2.535   2.627  10.847  0.2379  0.0301 -0.0377
  469TMC3     H 7037   2.550   2.942  11.053  0.7631  0.6892 -0.5737
  469TMC3    H1 7038   2.449   2.809  10.660 -1.9346 -0.6696  1.1712
  469TMC3    H2 7039   2.408   3.223  10.769  1.3965  0.5979  1.0788
  469TMC3    C7 7040   2.396   3.047  10.563 -0.1112 -0.6768 -0.4883
  469TMC3    C8 7041   2.482   3.191  11.020 -0.0563 -0.1838  0.5963
  469TMC3    O1 7042   2.428   2.975  10.466 -0.2328  0.6821 -0.3473
  469TMC3    O2 7043   2.387   3.267  11.002 -0.4874  0.6020 -0.1778
  470TMC3    C1 7044   4.307   3.813   0.697 -0.5262 -0.2207 -0.2000
  470TMC3    C2 7045   4.389   3.922   0.690 -0.6125 -1.0043 -0.7753
  470TMC3    C3 7046   4.339   4.049   0.703 -0.4437  0.5661 -0.6148
  470TMC3    C4 7047   4.172   3.832   0.718  0.1113  0.2701  0.1134
  470TMC3    C5 7048   4.124   3.961   0.729 -0.1697 -1.0005  0.6057
  470TMC3    C6 7049   4.208   4.070   0.737  0.3166  0.6219 -0.5745
  470TMC3     C 7050   4.367   3.681   0.681 -0.1333  0.6051 -0.8151
  470TMC3     O 7051   4.491   3.673   0.684  0.5398 -0.4134 -0.7595
  470TMC3     H 7052   4.489   3.907   0.651 -0.0919 -0.1002  0.2183
  470TMC3    H1 7053   4.100   3.751   0.721  1.2352 -0.6418  1.9255
  470TMC3    H2 7054   4.172   4.167   0.767 -1.3382 -0.2895  0.3349
  470TMC3    C7 7055   3.985   3.980   0.763  0.3196 -0.4945  0.4054
  470TMC3    C8 7056   4.428   4.160   0.726  0.7016  0.3331  0.2372
  470TMC3    O1 7057   3.918   3.878   0.764  0.2458  0.0709  1.0282
  470TMC3    O2 7058   4.376   4.270   0.747 -0.4490  0.2688  0.7732
  471MPD2     C 7059   0.365   0.199  16.761  0.4928  0.0709  0.5875
  471MPD2    C1 7060   0.487   0.155  16.712  0.1613 -0.2337  0.1453
  471MPD2    C2 7061   0.588   0.153  16.801 -0.5018 -0.0383 -0.2963
  471MPD2    C3 7062   0.582   0.184  16.935 -0.2835  0.1936 -0.2825
  471MPD2    C4 7063   0.458   0.233  16.976 -0.7583  0.4623  0.0548
  471MPD2    C5 7064   0.354   0.248  16.887 -0.2853  0.4555 -0.5733
  471MPD2     H 7065   0.686   0.130  16.761 -0.0451  0.7563  0.3550
  471MPD2    H1 7066   0.442   0.260  17.080 -1.3493  0.6142 -0.0762
  471MPD2    H2 7067   0.276   0.195  16.699  1.4966  0.3136 -0.8827
  471MPD2    H3 7068   0.252   0.272  16.915 -0.4012 -1.3587  0.5500
  471MPD2     N 7069   0.689   0.176  17.024  0.6781 -0.4687 -0.2434
  471MPD2    H5 7070   0.669   0.205  17.120  0.5947  2.7615 -1.2191
  471MPD2    N1 7071   0.526   0.108  16.583  0.2957 -0.2760 -0.0452
  471MPD2    H7 7072   0.624   0.100  16.558  1.2967  2.2600  3.1757
  472TMC3    C1 7073   0.485   0.026  16.365 -0.1892 -0.3946  0.1064
  472TMC3    C2 7074   0.408   0.049  16.254  1.0961 -0.8079 -0.4841
  472TMC3    C3 7075   0.347   4.671  16.208  0.8186  0.0214 -0.4864
  472TMC3    C4 7076   0.542   4.639  16.396 -0.2377  0.2588 -0.4993
  472TMC3    C5 7077   0.505   4.535  16.320 -0.6042  0.8827 -0.0116
  472TMC3    C6 7078   0.399   4.548  16.234  0.5245  0.1951 -0.6801
  472TMC3     C 7079   0.429   0.088  16.486 -0.2339  0.3952 -0.0063
  472TMC3     O 7080   0.307   0.073  16.492 -0.6288 -0.0394  0.0216
  472TMC3     H 7081   0.358   0.145  16.249  1.8864 -0.2259  3.1566
  472TMC3    H1 7082   0.613   4.618  16.475  0.3715 -3.5552 -2.0492
  472TMC3    H2 7083   0.351   4.469  16.177  0.1404 -0.0412 -0.0311
  472TMC3    C7 7084   0.520   4.403  16.372  0.0293 -0.3504 -0.1821
  472TMC3    C8 7085   0.207   4.683  16.205  0.0011 -0.6373 -0.4547
  472TMC3    O1 7086   0.558   4.401  16.487 -0.0158  0.1217  0.5846
  472TMC3    O2 7087   0.164   0.058  16.180  0.3258  0.5351 -0.0974
  473MPD2     C 7088   0.101   1.725  13.625 -0.4524 -0.3828  0.0345
  473MPD2    C1 7089   0.042   1.853  13.601  0.6499 -0.2452  0.0249
  473MPD2    C2 7090   0.077   1.965  13.664  0.5129 -0.1908 -0.0344
  473MPD2    C3 7091   0.160   1.952  13.768 -0.1509 -0.5052  0.1442
  473MPD2    C4 7092   0.210   1.823  13.807 -0.3514  0.2443 -0.1015
  473MPD2    C5 7093   0.176   1.712  13.734 -0.1455 -0.0566 -0.0330
  473MPD2     H 7094   0.032   2.059  13.633  0.1665 -0.7652 -1.2764
  473MPD2    H1 7095   0.268   1.806  13.897 -0.2532 -2.2189 -0.6506
  473MPD2    H2 7096   0.084   1.635  13.567 -0.8564 -0.9714  1.0702
  473MPD2    H3 7097   0.205   1.615  13.772  1.8162  0.6661  0.3437
  473MPD2     N 7098   0.205   2.062  13.847 -0.1445 -0.2553  0.0598
  473MPD2    H5 7099   0.251   2.038  13.934  0.7617  1.1949 -0.0275
  473MPD2    N1 7100   4.678   1.870  13.508 -0.2368  0.3849  0.3138
  473MPD2    H7 7101   4.633   1.962  13.510 -2.1709 -0.5541 -0.0711
  474TMC3    C1 7102   0.205   2.290  13.928  0.2436 -0.1093 -1.4009
  474TMC3    C2 7103   0.222   2.420  13.891 -0.1393  0.0192  0.1601
  474TMC3    C3 7104   0.229   2.513  13.989  0.1141  0.3080  0.5345
  474TMC3    C4 7105   0.193   2.256  14.058  0.5371 -0.1620 -0.7099
  474TMC3    C5 7106   0.221   2.348  14.152 -0.0012  0.0739  0.5941
  474TMC3    C6 7107   0.230   2.479  14.126  0.1413 -0.3933  0.0943
  474TMC3     C 7108   0.167   2.196  13.829  0.1880 -0.1528  0.0055
  474TMC3     O 7109   0.106   2.257  13.741 -0.2214  0.1320  0.3083
  474TMC3     H 7110   0.222   2.443  13.785 -2.3162 -1.4265 -0.1385
  474TMC3    H1 7111   0.183   2.152  14.085 -1.9323  0.2449 -0.0775
  474TMC3    H2 7112   0.257   2.551  14.202  1.2519  0.1706 -0.8322
  474TMC3    C7 7113   0.211   2.299  14.289 -0.1459  0.1649  0.2079
  474TMC3    C8 7114   0.230   2.652  13.947  0.0466  0.4564 -0.0039
  474TMC3    O1 7115   0.205   2.179  14.303  0.0010  0.5860  0.6085
  474TMC3    O2 7116   0.292   2.728  14.017 -0.1444 -0.4034  0.5281
  475MPD2     C 7117   2.433   0.626  10.776 -0.2479 -0.2718  0.0641
  475MPD2    C1 7118   2.514   0.691  10.688  0.6571 -0.2631  0.0378
  475MPD2    C2 7119   2.462   0.732  10.568 -0.4334 -0.2250  0.7444
  475MPD2    C3 7120   2.335   0.700  10.523 -0.1354 -0.5725 -0.8799
  475MPD2    C4 7121   2.247   0.633  10.612 -1.2968 -0.2314  0.3864
  475MPD2    C5 7122   2.298   0.606  10.744 -0.6726 -0.2520 -0.3704
  475MPD2     H 7123   2.512   0.793  10.492 -1.0768  0.1908  0.6570
  475MPD2    H1 7124   2.146   0.603  10.585 -2.1422  1.9733  1.1173
  475MPD2    H2 7125   2.472   0.592  10.871  1.5299 -1.6530 -1.1558
  475MPD2    H3 7126   2.230   0.578  10.824 -1.8968  1.2501 -0.8942
  475MPD2     N 7127   2.295   0.760  10.393  0.0838 -0.5533  0.4610
  475MPD2    H5 7128   2.361   0.805  10.331  1.0790  0.3590  2.1831
  475MPD2    N1 7129   2.643   0.715  10.723 -0.2214 -1.2386 -0.5755
  475MPD2    H7 7130   2.669   0.689  10.818  0.9772 -1.4967 -0.9867
  476TMC3    C1 7131   2.873   0.784  10.707 -0.0911  0.3441 -0.0268
  476TMC3    C2 7132   2.984   0.809  10.631  0.1430  0.4853  0.2977
  476TMC3    C3 7133   3.084   0.887  10.689 -0.8625 -0.1442  0.4968
  476TMC3    C4 7134   2.873   0.810  10.844 -0.0877  0.1045 -0.5505
  476TMC3    C5 7135   2.977   0.884  10.894 -0.0871  0.4324  0.0720
  476TMC3    C6 7136   3.074   0.937  10.815 -0.7178  0.4618 -1.0758
  476TMC3     C 7137   2.741   0.769  10.643  0.4791  0.3510  0.4052
  476TMC3     O 7138   2.740   0.782  10.520  0.3732  0.0792 -0.3275
  476TMC3     H 7139   2.977   0.791  10.524  0.8419  0.3182  0.2799
  476TMC3    H1 7140   2.793   0.792  10.915 -1.6904 -2.4881 -3.0200
  476TMC3    H2 7141   3.154   0.998  10.856 -0.6166 -1.4249  1.5324
  476TMC3    C7 7142   2.978   0.926  11.033 -0.3622  0.9949  0.3838
  476TMC3    C8 7143   3.206   0.900  10.613 -0.0014 -0.3020  0.4306
  476TMC3    O1 7144   2.929   0.844  11.108 -0.0662  0.3326 -0.1535
  476TMC3    O2 7145   3.295   0.969  10.661 -0.3906  0.2070 -0.2894
  477MPD2     C 7146   1.341   2.335  11.450  0.3489 -0.2134 -0.3852
  477MPD2    C1 7147   1.215   2.333  11.507  1.0159 -0.7687 -0.1427
  477MPD2    C2 7148   1.203   2.306  11.639  0.6591 -0.3638  0.4737
  477MPD2    C3 7149   1.309   2.249  11.708 -0.1207 -0.1377  0.6277
  477MPD2    C4 7150   1.430   2.229  11.654 -0.0698  0.6597  0.4923
  477MPD2    C5 7151   1.448   2.283  11.529 -0.4229 -0.5665 -0.1312
  477MPD2     H 7152   1.109   2.325  11.690  0.0050 -0.4449 -0.6990
  477MPD2    H1 7153   1.511   2.180  11.707 -0.1544 -1.8720 -1.7019
  477MPD2    H2 7154   1.361   2.366  11.348 -1.3129  1.6304 -0.1436
  477MPD2    H3 7155   1.546   2.270  11.484  0.5537  1.4832  1.4027
  477MPD2     N 7156   1.278   2.204  11.846 -0.4394  0.6846  0.3469
  477MPD2    H5 7157   1.179   2.212  11.869 -0.4795 -1.2760  0.8183
  477MPD2    N1 7158   1.104   2.347  11.416 -0.1447  0.2025 -0.3303
  477MPD2    H7 7159   1.124   2.393  11.328  0.7103  0.4428 -0.0068
  478TMC3    C1 7160   0.869   2.341  11.352 -0.1861  0.1279  0.0350
  478TMC3    C2 7161   0.744   2.321  11.403 -0.2162 -0.1084 -0.4249
  478TMC3    C3 7162   0.637   2.340  11.320 -0.4230 -0.2843  0.2009
  478TMC3    C4 7163   0.890   2.365  11.217 -0.8125 -0.0414 -0.1227
  478TMC3    C5 7164   0.781   2.387  11.140 -0.1150 -0.2829 -0.1584
  478TMC3    C6 7165   0.655   2.377  11.187 -0.2314 -0.3835  0.2946
  478TMC3     C 7166   0.974   2.316  11.451 -0.5911  0.1007 -0.2060
  478TMC3     O 7167   0.933   2.271  11.558 -0.1403  0.4069 -0.1760
  478TMC3     H 7168   0.723   2.289  11.504 -0.3252  2.0440  0.2266
  478TMC3    H1 7169   0.990   2.369  11.178 -0.1874  2.3886  1.7140
  478TMC3    H2 7170   0.573   2.384  11.116 -2.6298 -1.7758  2.9066
  478TMC3    C7 7171   0.804   2.394  10.996 -0.1533  0.3067 -0.8109
  478TMC3    C8 7172   0.502   2.323  11.369 -0.4959  0.5221  0.2813
  478TMC3    O1 7173   0.908   2.352  10.952  0.0448 -0.0661  0.3308
  478TMC3    O2 7174   0.491   2.258  11.470 -0.3706  0.4567 -0.0035
  479MPD2     C 7175   4.344   3.097  15.241 -0.4200 -0.8397  0.3899
  479MPD2    C1 7176   4.222   3.142  15.283  0.0557 -0.6428  0.1936
  479MPD2    C2 7177   4.228   3.251  15.371  0.2654  0.0420 -0.4758
  479MPD2    C3 7178   4.348   3.302  15.426  0.4348  0.3783 -0.1213
  479MPD2    C4 7179   4.468   3.240  15.387  0.0849 -0.1205 -0.4174
  479MPD2    C5 7180   4.467   3.143  15.293  0.1094  0.1047  0.4990
  479MPD2     H 7181   4.134   3.296  15.400  0.3127 -0.1589 -0.0080
  479MPD2    H1 7182   4.565   3.278  15.417  0.7031 -2.7592  0.9118
  479MPD2    H2 7183   4.354   3.020  15.166  0.3949  0.3661 -0.7325
  479MPD2    H3 7184   4.561   3.102  15.258 -0.2568  0.9633 -1.4564
  479MPD2     N 7185   4.353   3.408  15.520  0.5287  0.5217 -0.1681
  479MPD2    H5 7186   4.448   3.432  15.546 -0.4025  1.1401  2.6754
  479MPD2    N1 7187   4.109   3.096  15.228 -0.2420 -0.9997  0.4771
  479MPD2    H7 7188   4.115   3.021  15.159  3.5072 -0.4264  0.1910
  480TMC3    C1 7189   4.391   3.568  15.912  0.2592 -0.4975 -0.0610
  480TMC3    C2 7190   4.487   3.658  15.874 -0.4546  0.1809 -0.5535
  480TMC3    C3 7191   4.507   3.696  15.740  0.3463  0.6134 -0.0673
  480TMC3    C4 7192   4.295   3.530  15.816  0.1263  0.1455  0.6185
  480TMC3    C5 7193   4.309   3.576  15.682 -0.1976 -0.4794  0.2651
  480TMC3    C6 7194   4.414   3.653  15.645  0.0151 -0.1067  0.2019
  480TMC3     C 7195   4.438   3.446  15.971 -0.6569  1.2662  0.2853
  480TMC3     O 7196   4.445   3.346  15.895 -0.4068  0.0650 -0.3650
  480TMC3     H 7197   4.566   3.667  15.948 -1.0384  2.8349 -0.2328
  480TMC3    H1 7198   4.220   3.453  15.835  2.5667 -2.5471 -0.6014
  480TMC3    H2 7199   4.424   3.670  15.539 -2.6944 -2.0928 -0.3702
  480TMC3    C7 7200   4.248   3.491  15.574 -0.2242 -0.0764 -0.3541
  480TMC3    C8 7201   4.609   3.791  15.707  0.0148 -0.3392 -0.2827
  480TMC3    O1 7202   4.129   3.455  15.580  0.5784 -0.3966  0.0311
  480TMC3    O2 7203   4.689   3.821  15.794  0.0916  0.2695 -0.4589
  481MPD2     C 7204   1.744   3.484  14.073 -0.7363  0.3689  0.0604
  481MPD2    C1 7205   1.606   3.463  14.064 -0.4445 -0.4693  0.3459
  481MPD2    C2 7206   1.543   3.393  14.163 -0.5426 -0.2696 -0.6592
  481MPD2    C3 7207   1.613   3.358  14.276 -0.1917 -0.6159  0.6132
  481MPD2    C4 7208   1.751   3.387  14.285 -0.0508 -0.0944  1.0017
  481MPD2    C5 7209   1.817   3.440  14.182  0.5367 -0.5248  0.5628
  481MPD2     H 7210   1.437   3.377  14.150 -1.1595  3.2897  0.0477
  481MPD2    H1 7211   1.800   3.357  14.377  0.8685  1.5206  1.0593
  481MPD2    H2 7212   1.797   3.528  13.990  2.2219  0.8769  2.2159
  481MPD2    H3 7213   1.925   3.451  14.175  0.7562 -2.8690  0.2805
  481MPD2     N 7214   1.558   3.314  14.394  0.6674  0.6233 -0.2324
  481MPD2    H5 7215   1.621   3.323  14.473 -2.5735 -2.9891  2.7891
  481MPD2    N1 7216   1.540   3.501  13.953  0.5423  0.5137  0.6429
  481MPD2    H7 7217   1.576   3.581  13.901  0.8633  0.2700  0.4878
  482TMC3    C1 7218   1.360   3.506  13.799 -0.0550  0.3213  0.3330
  482TMC3    C2 7219   1.273   3.415  13.739 -0.5553  0.0178 -0.5006
  482TMC3    C3 7220   1.155   3.456  13.685 -0.2958 -0.1308 -0.0569
  482TMC3    C4 7221   1.332   3.636  13.819  0.6525 -0.0476 -0.3322
  482TMC3    C5 7222   1.211   3.677  13.765 -0.2919 -0.2447  0.0337
  482TMC3    C6 7223   1.126   3.595  13.695 -0.0287  0.2581 -0.0784
  482TMC3     C 7224   1.422   3.446  13.913  0.1409  0.1687  0.5630
  482TMC3     O 7225   1.366   3.341  13.953  0.3069 -0.1265  0.6595
  482TMC3     H 7226   1.301   3.311  13.729  0.9364 -0.0011  3.7858
  482TMC3    H1 7227   1.385   3.708  13.879  2.1922 -1.1205 -0.4135
  482TMC3    H2 7228   1.019   3.615  13.693 -0.2781 -0.8139  2.5423
  482TMC3    C7 7229   1.168   3.811  13.779 -0.4145 -0.4481 -0.1520
  482TMC3    C8 7230   1.060   3.347  13.650  0.1900 -0.1860 -0.0561
  482TMC3    O1 7231   1.237   3.872  13.860 -0.2734 -0.0373 -0.5562
  482TMC3    O2 7232   1.110   3.237  13.642  0.5953  0.1457  0.5077
  483TMC3    C1 7233   4.598   2.954   1.222 -0.8677  0.3740 -0.0578
  483TMC3    C2 7234   4.688   3.051   1.198  0.3892 -0.1784  0.2243
  483TMC3    C3 7235   0.077   3.026   1.216 -0.4878  0.4026 -0.1001
  483TMC3    C4 7236   4.641   2.827   1.250  0.6158  0.3083  0.2141
  483TMC3    C5 7237   0.033   2.807   1.268 -0.0383  0.5055  0.2574
  483TMC3    C6 7238   0.125   2.900   1.253 -0.4708 -0.5879  0.4236
  483TMC3     C 7239   4.460   2.974   1.170  0.5915  1.1256  0.3082
  483TMC3     O 7240   4.430   3.078   1.113 -0.3721  0.4581  0.2688
  483TMC3     H 7241   4.656   3.145   1.153  0.1133  0.2885  1.3747
  483TMC3    H1 7242   4.568   2.747   1.258 -0.7832  1.6031  0.5940
  483TMC3    H2 7243   0.228   2.871   1.266 -1.0240 -3.4234 -1.6517
  483TMC3    C7 7244   0.075   2.671   1.323  0.6798  1.1620  1.0069
  483TMC3    C8 7245   0.162   3.116   1.138  0.2597  0.5756  0.0646
  483TMC3    O1 7246   0.177   2.615   1.282 -0.1266 -0.2502 -0.3232
  483TMC3    O2 7247   0.103   3.189   1.060 -0.2994  0.5519 -0.5732
  484MPD2     C 7248   2.308   0.093  12.951 -0.7130 -0.1373 -0.1269
  484MPD2    C1 7249   2.222   0.203  12.933  0.2368  0.1463  0.2391
  484MPD2    C2 7250   2.265   0.314  12.864  0.0731 -0.1788  0.0887
  484MPD2    C3 7251   2.392   0.308  12.805 -0.4525  0.7843 -0.3348
  484MPD2    C4 7252   2.477   0.201  12.820  0.2232 -0.4074  0.1404
  484MPD2    C5 7253   2.438   0.102  12.904  1.0651 -1.7062 -0.9006
  484MPD2     H 7254   2.198   0.397  12.843  1.0986  0.9907  1.4675
  484MPD2    H1 7255   2.577   0.198  12.780 -0.3938 -1.6858 -1.3076
  484MPD2    H2 7256   2.273   4.734  12.985 -3.1298  0.5270 -0.7420
  484MPD2    H3 7257   2.494   0.009  12.919  1.9037 -1.0829 -0.1494
  484MPD2     N 7258   2.462   0.413  12.744 -0.0953  0.0035 -0.1863
  484MPD2    H5 7259   2.559   0.394  12.721 -0.5136 -1.9213 -0.4082
  484MPD2    N1 7260   2.087   0.191  12.979  0.2580 -0.2609 -0.1562
  484MPD2    H7 7261   2.062   0.106  13.028 -1.4119  0.6201  0.5359
  485TMC3    C1 7262   2.516   0.620  12.634 -0.2678  0.6717 -0.5633
  485TMC3    C2 7263   2.651   0.599  12.645  0.0778  0.1272  0.0810
  485TMC3    C3 7264   2.731   0.703  12.611  0.2955  0.1311 -0.3154
  485TMC3    C4 7265   2.468   0.737  12.573 -0.4204 -0.4039  0.1424
  485TMC3    C5 7266   2.550   0.835  12.545  0.0735 -0.9109  0.2458
  485TMC3    C6 7267   2.682   0.823  12.562  0.1293 -0.8011  0.2539
  485TMC3     C 7268   2.416   0.535  12.705  0.0422  0.2177  0.0966
  485TMC3     O 7269   2.297   0.562  12.695 -0.4255 -0.3220 -0.2021
  485TMC3     H 7270   2.699   0.507  12.678 -0.5648 -0.1265  0.3356
  485TMC3    H1 7271   2.362   0.744  12.550 -1.2097  2.0185  4.3365
  485TMC3    H2 7272   2.746   0.904  12.529 -0.1643  0.4949  2.8251
  485TMC3    C7 7273   2.519   0.885  12.409  0.0670  0.2464  0.0901
  485TMC3    C8 7274   2.852   0.660  12.544 -0.3817 -0.7258  0.3719
  485TMC3    O1 7275   2.417   0.947  12.382  0.1153 -0.2765 -0.1646
  485TMC3    O2 7276   2.849   0.692  12.424  0.0625  0.4370 -0.2888
  486MPD2     C 7277   4.565   4.242  13.276  0.4288  0.2459 -0.2110
  486MPD2    C1 7278   4.455   4.188  13.209  0.3443  0.0127 -0.4243
  486MPD2    C2 7279   4.336   4.265  13.216 -0.1626  0.6333 -0.1754
  486MPD2    C3 7280   4.333   4.383  13.268  0.2434  0.5050  0.5970
  486MPD2    C4 7281   4.437   4.430  13.348  0.7027 -0.0277  0.0839
  486MPD2    C5 7282   4.556   4.357  13.354  0.6092  0.1860 -0.5648
  486MPD2     H 7283   4.252   4.223  13.161 -2.9765  2.6552  2.5715
  486MPD2    H1 7284   4.437   4.517  13.413  0.6014 -0.3095  0.4638
  486MPD2    H2 7285   4.655   4.180  13.276 -0.9106 -1.6989  0.4503
  486MPD2    H3 7286   4.644   4.386  13.411  1.1885 -2.1471 -0.2761
  486MPD2     N 7287   4.213   4.457  13.260  0.1036 -0.3183 -0.0088
  486MPD2    H5 7288   4.136   4.413  13.212  0.3716  0.4243 -1.1309
  486MPD2    N1 7289   4.482   4.067  13.146 -0.2694  0.0700 -0.0147
  486MPD2    H7 7290   4.571   4.022  13.165  0.0250  0.9167  0.5988
  487TMC3    C1 7291   4.418   3.857  13.057 -0.2496  0.0185  0.4130
  487TMC3    C2 7292   4.359   3.803  12.947 -0.0983 -0.2240  0.1609
  487TMC3    C3 7293   4.321   3.670  12.946 -0.2774  0.1954 -0.0555
  487TMC3    C4 7294   4.429   3.782  13.174 -0.2104 -0.3451 -0.2982
  487TMC3    C5 7295   4.406   3.645  13.160  0.2037 -0.3691  0.4866
  487TMC3    C6 7296   4.353   3.588  13.047  0.0768  0.8770 -1.0351
  487TMC3     C 7297   4.391   3.994  13.071  0.4709 -0.6659 -0.1065
  487TMC3     O 7298   4.281   4.032  13.034 -0.3467  0.5243  0.0351
  487TMC3     H 7299   4.342   3.862  12.857 -0.4229  0.7149  0.8335
  487TMC3    H1 7300   4.472   3.822  13.265  0.3523  0.0911 -0.7585
  487TMC3    H2 7301   4.357   3.481  13.030 -1.5346  0.6200  0.2199
  487TMC3    C7 7302   4.406   3.565  13.278  0.1487 -0.0623  0.3674
  487TMC3    C8 7303   4.239   3.616  12.844 -0.4318 -0.3501  0.1676
  487TMC3    O1 7304   4.421   3.627  13.385 -0.4824  0.0057 -0.4082
  487TMC3    O2 7305   4.239   3.671  12.733 -0.8296  0.0502  0.1220
  488MPD2     C 7306   4.329   1.260  16.362  0.1748 -0.4238  0.7054
  488MPD2    C1 7307   4.425   1.310  16.440 -0.6275 -0.4438  0.1286
  488MPD2    C2 7308   4.443   1.266  16.574 -0.2475 -0.5590 -0.6783
  488MPD2    C3 7309   4.354   1.174  16.632 -0.4569 -0.3228 -0.8714
  488MPD2    C4 7310   4.246   1.134  16.550  0.7810  0.6010 -0.3031
  488MPD2    C5 7311   4.237   1.180  16.425 -0.4295 -0.0658  0.7261
  488MPD2     H 7312   4.521   1.312  16.632  0.3852 -2.3943 -0.0649
  488MPD2    H1 7313   4.169   1.062  16.576  1.0132  0.3002 -0.4498
  488MPD2    H2 7314   4.315   1.258  16.255  2.1941 -1.9286  0.4920
  488MPD2    H3 7315   4.160   1.142  16.358 -0.0303 -0.3618  0.4339
  488MPD2     N 7316   4.366   1.128  16.769 -0.2357 -0.2644  0.5511
  488MPD2    H5 7317   4.441   1.166  16.826 -1.1694  0.4365  1.3055
  488MPD2    N1 7318   4.522   1.401  16.397 -0.0359  0.3105 -0.6913
  488MPD2    H7 7319   4.588   1.433  16.467 -1.2143 -1.7255  1.3533
  489TMC3    C1 7320   4.311   1.058  16.973  1.0559 -0.3336 -0.1825
  489TMC3    C2 7321   4.441   1.084  17.012 -0.5185  0.2761 -0.1953
  489TMC3    C3 7322   4.470   1.081  17.146  0.1436 -0.8012  0.5087
  489TMC3    C4 7323   4.226   0.994  17.056  0.1304  0.5895 -0.3333
  489TMC3    C5 7324   4.261   0.988  17.186  0.4576 -0.2923  1.1319
  489TMC3    C6 7325   4.379   1.037  17.238 -0.1863 -0.7357  0.1821
  489TMC3     C 7326   4.281   1.045  16.833 -0.4168  0.2637  0.3082
  489TMC3     O 7327   4.182   0.981  16.796 -0.0326  0.6034  0.8090
  489TMC3     H 7328   4.524   1.114  16.949 -0.0415 -2.5744 -0.9254
  489TMC3    H1 7329   4.126   0.971  17.022 -0.0827  0.9994  0.0041
  489TMC3    H2 7330   4.396   1.038  17.345 -0.0655  1.6026  0.1312
  489TMC3    C7 7331   4.174   0.907  17.275  0.1596 -0.9352  0.5501
  489TMC3    C8 7332   4.581   1.169  17.190  0.2018 -0.2238  0.0548
  489TMC3    O1 7333   4.240   0.872  17.376  0.8000 -0.3856 -0.9232
  489TMC3    O2 7334   4.665   1.196  17.104 -0.2090 -0.2965 -0.2165
  490MPD2     C 7335   0.160   0.423  17.193 -0.6015  0.2537 -0.3556
  490MPD2    C1 7336   0.237   0.411  17.302  0.4943  0.5874 -0.6824
  490MPD2    C2 7337   0.258   0.522  17.390  0.2883  0.0591 -0.2314
  490MPD2    C3 7338   0.188   0.640  17.370  0.1575 -0.4321  0.7113
  490MPD2    C4 7339   0.107   0.650  17.264 -0.2544 -0.2886  0.3477
  490MPD2    C5 7340   0.096   0.544  17.172  0.0599 -0.0023  0.1667
  490MPD2     H 7341   0.321   0.513  17.477  0.7149  0.5209 -0.4925
  490MPD2    H1 7342   0.044   0.734  17.238  0.4380 -0.1196 -0.8035
  490MPD2    H2 7343   0.144   0.342  17.123 -2.8385 -2.1942  2.9618
  490MPD2    H3 7344   0.039   0.553  17.080 -1.0106  2.3067  1.0383
  490MPD2     N 7345   0.218   0.753  17.439  0.2793 -0.1641  1.0018
  490MPD2    H5 7346   0.165   0.831  17.400  0.0303 -0.9625 -0.2330
  490MPD2    N1 7347   0.315   0.289  17.326  0.1762  0.1065  0.7448
  490MPD2    H7 7348   0.387   0.293  17.397 -0.6068 -1.9471  1.6535
  491TMC3    C1 7349   0.359   0.055  17.316  0.2387  0.0900 -0.1120
  491TMC3    C2 7350   0.305   0.028  17.436 -0.3173 -0.3061 -0.2789
  491TMC3    C3 7351   0.257   4.641  17.461 -1.2344 -0.5430  0.0133
  491TMC3    C4 7352   0.387   4.692  17.231  0.6998 -0.8576  0.4909
  491TMC3    C5 7353   0.346   4.562  17.257  0.8073 -0.3319  0.0769
  491TMC3    C6 7354   0.292   4.536  17.379  0.0347 -0.2703  0.0646
  491TMC3     C 7355   0.293   0.165  17.265 -0.6025 -0.8429 -1.4318
  491TMC3     O 7356   0.218   0.133  17.170  0.0096  0.4454  1.0136
  491TMC3     H 7357   0.276   0.109  17.502  0.6140  0.1157 -0.3908
  491TMC3    H1 7358   0.423   4.722  17.133 -1.8470 -1.2756 -0.5642
  491TMC3    H2 7359   0.252   4.437  17.393 -0.0263 -0.3603 -0.7261
  491TMC3    C7 7360   0.292   4.483  17.144  0.0964 -0.1478  0.9939
  491TMC3    C8 7361   0.138   4.633  17.548  0.5748  1.2079 -0.2488
  491TMC3    O1 7362   0.235   4.379  17.162 -0.2381 -0.4127  0.2649
  491TMC3    O2 7363   0.110   0.002  17.607  0.3694 -0.1811  0.8790
  492MPD2     C 7364   0.747   0.656  11.013  0.3447  0.4419 -0.5069
  492MPD2    C1 7365   0.632   0.730  10.987 -0.7136  0.1714 -0.0393
  492MPD2    C2 7366   0.541   0.761  11.084 -0.3323  0.0520 -0.2117
  492MPD2    C3 7367   0.564   0.715  11.213 -0.0182  0.1998 -0.1561
  492MPD2    C4 7368   0.691   0.674  11.240  0.5619 -1.6580 -0.3773
  492MPD2    C5 7369   0.776   0.636  11.143 -0.9399  0.9934  0.3210
  492MPD2     H 7370   0.445   0.806  11.062  0.9388  1.8293 -2.1754
  492MPD2    H1 7371   0.726   0.676  11.343  0.2661 -1.6182 -0.2775
  492MPD2    H2 7372   0.816   0.632  10.933 -1.3024  0.4748 -1.9333
  492MPD2    H3 7373   0.876   0.604  11.170 -1.2114 -0.2142 -0.1163
  492MPD2     N 7374   0.475   0.746  11.318  1.2685 -0.0029  0.4420
  492MPD2    H5 7375   0.503   0.757  11.415  1.8664 -2.1792  0.5161
  492MPD2    N1 7376   0.613   0.769  10.854 -0.1465 -0.5249 -0.2784
  492MPD2    H7 7377   0.679   0.740  10.782 -0.3587 -0.0438 -0.6701
  493TMC3    C1 7378   0.508   0.865  10.668  0.2936  0.4698 -0.1424
  493TMC3    C2 7379   0.490   0.979  10.603 -0.3193  0.0386 -0.2708
  493TMC3    C3 7380   0.417   0.976  10.485 -0.7451 -0.0148 -0.0110
  493TMC3    C4 7381   0.462   0.746  10.624  0.4091 -0.0309  0.4017
  493TMC3    C5 7382   0.398   0.751  10.501 -0.0468  0.2926  0.3886
  493TMC3    C6 7383   0.367   0.863  10.429 -0.3412  0.5148  0.0452
  493TMC3     C 7384   0.537   0.876  10.812  0.4474  0.4315  0.5930
  493TMC3     O 7385   0.492   0.966  10.886 -0.1922 -0.2266  0.4356
  493TMC3     H 7386   0.510   1.077  10.644  1.2338  0.5683 -2.2979
  493TMC3    H1 7387   0.475   0.649  10.671 -0.5533 -1.0781 -1.4589
  493TMC3    H2 7388   0.326   0.864  10.329  0.0776 -0.4951 -0.1394
  493TMC3    C7 7389   0.312   0.636  10.462 -0.9566  0.6195  0.4132
  493TMC3    C8 7390   0.365   1.096  10.427 -0.2973 -0.0059  0.5290
  493TMC3    O1 7391   0.264   0.650  10.351  0.2813 -0.2343 -0.4486
  493TMC3    O2 7392   0.247   1.096  10.389  1.1203  0.2039  0.0068
  494TMC3    C1 7393   1.211   2.314   0.561  0.4288 -0.4480 -0.1429
  494TMC3    C2 7394   1.240   2.192   0.616 -0.2887 -1.0206 -0.1581
  494TMC3    C3 7395   1.288   2.101   0.529 -0.2909  0.3467  0.4609
  494TMC3    C4 7396   1.230   2.341   0.428  0.3373  0.0647  0.0788
  494TMC3    C5 7397   1.272   2.242   0.342 -0.1203  1.3221 -0.0376
  494TMC3    C6 7398   1.300   2.117   0.393  0.3571 -0.1198 -0.2634
  494TMC3     C 7399   1.152   2.404   0.663 -0.4077 -0.5329 -0.3865
  494TMC3     O 7400   1.176   2.378   0.783  0.3223  0.6527 -0.1076
  494TMC3     H 7401   1.239   2.171   0.722 -1.1583 -2.1420 -0.3906
  494TMC3    H1 7402   1.226   2.443   0.393  1.0843  0.9019  2.4238
  494TMC3    H2 7403   1.322   2.041   0.319  1.1446 -1.6090  1.5018
  494TMC3    C7 7404   1.245   2.260   0.202 -0.8920 -0.1929 -0.2865
  494TMC3    C8 7405   1.309   1.972   0.586  0.0183 -0.3120 -0.3838
  494TMC3    O1 7406   1.315   2.203   0.118  0.5950 -0.0892  0.0874
  494TMC3    O2 7407   1.248   1.945   0.690 -0.7496 -0.4915  0.2529
  495TMC3    C1 7408   0.047   4.066  14.769  0.5991  0.6286  0.0577
  495TMC3    C2 7409   4.692   4.119  14.691  0.2308 -0.2045 -0.1246
  495TMC3    C3 7410   4.575   4.157  14.751 -0.5444 -0.3821  0.2377
  495TMC3    C4 7411   0.034   4.066  14.901  0.2226  0.1515  0.5600
  495TMC3    C5 7412   4.670   4.129  14.961  0.0788  0.0820  0.1057
  495TMC3    C6 7413   4.565   4.163  14.886  0.0110 -1.1857 -0.5773
  495TMC3     C 7414   0.183   4.048  14.734 -0.2497  0.4221 -0.7053
  495TMC3     O 7415   0.254   4.126  14.794  0.2964 -0.3756  0.2608
  495TMC3     H 7416   4.721   4.129  14.587  1.8737  1.8811  0.5426
  495TMC3    H1 7417   0.116   4.019  14.954  2.7052  0.1824 -3.2361
  495TMC3    H2 7418   4.480   4.205  14.939  0.0792 -1.9857  0.1714
  495TMC3    C7 7419   4.651   4.107  15.101 -0.7195  0.0588 -0.4978
  495TMC3    C8 7420   4.456   4.168  14.671  0.3653 -0.0315  0.3424
  495TMC3    O1 7421   4.543   4.127  15.151 -0.3275 -0.8824 -0.5991
  495TMC3    O2 7422   4.359   4.230  14.716 -0.3981  0.2739 -0.0865
  496MPD2     C 7423   1.946   4.372  15.092 -0.5210 -0.3595  0.3225
  496MPD2    C1 7424   1.986   4.269  15.174  0.3885  0.9497 -0.5833
  496MPD2    C2 7425   1.890   4.186  15.233  0.1985 -0.1025 -0.3003
  496MPD2    C3 7426   1.757   4.214  15.223 -0.6635 -0.5698  0.3687
  496MPD2    C4 7427   1.714   4.309  15.133 -0.4708 -0.2182 -0.3620
  496MPD2    C5 7428   1.811   4.384  15.066  0.3873  0.0321  0.5098
  496MPD2     H 7429   1.927   4.108  15.298 -0.8356 -0.9519 -0.7321
  496MPD2    H1 7430   1.612   4.345  15.126 -0.8200 -1.1637 -0.1699
  496MPD2    H2 7431   2.007   4.447  15.043 -1.9176  0.0471 -0.8083
  496MPD2    H3 7432   1.779   4.464  15.000  0.0602  0.5972  1.3617
  496MPD2     N 7433   1.662   4.135  15.298  0.2379 -0.1031 -0.5516
  496MPD2    H5 7434   1.701   4.076  15.371 -0.8676 -2.2196 -1.6701
  496MPD2    N1 7435   2.116   4.249  15.194  0.2100 -0.3623  0.1807
  496MPD2    H7 7436   2.176   4.305  15.135 -1.6140  2.0972  0.6912
  497TMC3    C1 7437   1.452   4.039  15.372 -0.0458  0.1282 -0.3963
  497TMC3    C2 7438   1.358   3.952  15.312  0.5298 -0.7003 -0.0085
  497TMC3    C3 7439   1.330   3.834  15.373 -0.0580  0.3963 -0.6104
  497TMC3    C4 7440   1.500   4.013  15.495  0.5662  0.6319  0.0847
  497TMC3    C5 7441   1.459   3.899  15.557 -0.8128  0.2350 -0.2142
  497TMC3    C6 7442   1.377   3.806  15.498  0.1913 -0.1452 -0.7890
  497TMC3     C 7443   1.519   4.138  15.288  0.2820 -0.6722  0.2972
  497TMC3     O 7444   1.448   4.187  15.201  0.6706  0.1454 -0.2271
  497TMC3     H 7445   1.311   3.974  15.217  1.1100  0.0032 -0.1370
  497TMC3    H1 7446   1.575   4.083  15.530 -0.2047  0.5194  1.9632
  497TMC3    H2 7447   1.346   3.714  15.545 -1.5431  1.4722  1.2748
  497TMC3    C7 7448   1.513   3.864  15.686 -0.1592  0.0640  0.6744
  497TMC3    C8 7449   1.223   3.760  15.318 -0.3450  0.6612 -0.1699
  497TMC3    O1 7450   1.496   3.746  15.709  0.2156 -0.1020 -0.6067
  497TMC3    O2 7451   1.149   3.816  15.238  0.2890  0.4131 -0.1462
  498MPD2     C 7452   3.137   0.793  10.069 -0.0373 -0.0349 -0.0602
  498MPD2    C1 7453   3.073   0.872  10.174  0.5908  0.2192  0.4336
  498MPD2    C2 7454   2.962   0.816  10.235  0.1480  0.3941  0.0493
  498MPD2    C3 7455   2.905   0.701  10.189  0.5245  0.5219 -0.1979
  498MPD2    C4 7456   2.961   0.629  10.087  0.2562  0.2493  0.2619
  498MPD2    C5 7457   3.082   0.671  10.035 -0.4362 -0.1904 -0.4433
  498MPD2     H 7458   2.913   0.867  10.317 -1.1068  1.6700 -1.4987
  498MPD2    H1 7459   2.926   0.530  10.060  0.8147 -0.5624  2.5034
  498MPD2    H2 7460   3.227   0.817  10.013 -1.4953 -0.9135 -2.7650
  498MPD2    H3 7461   3.139   0.619   9.958 -0.0136 -1.4499  0.7237
  498MPD2     N 7462   2.783   0.665  10.247 -0.5248  0.3785 -0.3739
  498MPD2    H5 7463   2.755   0.692  10.341  1.7600  1.0229  0.1172
  498MPD2    N1 7464   3.125   0.992  10.223  0.0168 -0.4708  0.1885
  498MPD2    H7 7465   3.073   1.040  10.295 -0.8168 -2.4580  0.9298
  499TMC3    C1 7466   3.249   1.186  10.210 -0.0800 -0.0984  0.1988
  499TMC3    C2 7467   3.363   1.243  10.260 -0.1750 -0.0690  0.5641
  499TMC3    C3 7468   3.376   1.373  10.238 -0.5123 -0.4243 -0.4695
  499TMC3    C4 7469   3.151   1.263  10.148  0.4092 -0.5185  0.4295
  499TMC3    C5 7470   3.180   1.390  10.116 -0.0144 -0.1533  0.0084
  499TMC3    C6 7471   3.293   1.456  10.160  0.6317 -0.3082  0.5770
  499TMC3     C 7472   3.246   1.046  10.182  1.1942  0.0288  0.9531
  499TMC3     O 7473   3.340   1.014  10.107  0.3020 -0.7028 -0.1325
  499TMC3     H 7474   3.443   1.186  10.305  0.3202  0.2035  0.0278
  499TMC3    H1 7475   3.061   1.210  10.120 -0.5703  1.3145  0.0768
  499TMC3    H2 7476   3.298   1.564  10.154  2.1186 -0.3729  0.5325
  499TMC3    C7 7477   3.106   1.456  10.009 -0.1817 -0.8308 -0.5564
  499TMC3    C8 7478   3.511   1.419  10.231 -0.0525 -0.1325 -0.3066
  499TMC3    O1 7479   3.156   1.560   9.963 -0.0953  0.3688 -0.1787
  499TMC3    O2 7480   3.585   1.369  10.313 -0.3977 -0.0907  0.3866
  500MPD2     C 7481   4.203   1.734  10.765  0.0539  1.1721 -0.2475
  500MPD2    C1 7482   4.255   1.805  10.657  0.0599 -0.1058  0.0128
  500MPD2    C2 7483   4.169   1.842  10.550  0.0910  0.0164  1.0865
  500MPD2    C3 7484   4.033   1.830  10.572  0.2403  0.6959 -0.1883
  500MPD2    C4 7485   3.985   1.771  10.686  0.1983  0.6520 -0.6713
  500MPD2    C5 7486   4.069   1.715  10.783 -0.0795 -0.3363 -0.0522
  500MPD2     H 7487   4.204   1.873  10.452 -1.8494 -0.4457  0.2490
  500MPD2    H1 7488   3.878   1.769  10.703  0.3020 -0.0560 -0.1064
  500MPD2    H2 7489   4.267   1.693  10.842 -0.8841  0.2132  0.0146
  500MPD2    H3 7490   4.036   1.661  10.871  3.6261 -0.2246  1.3676
  500MPD2     N 7491   3.937   1.871  10.471  0.0515  0.7208 -0.1654
  500MPD2    H5 7492   3.843   1.847  10.503 -1.4857  2.0929 -3.6540
  500MPD2    N1 7493   4.389   1.828  10.625 -0.0510  0.2647 -0.0690
  500MPD2    H7 7494   4.404   1.881  10.540  1.4992  0.4298  0.3006
  501TMC3    C1 7495   4.619   1.862  10.667  0.5510  0.1326 -0.2213
  501TMC3    C2 7496   4.609   1.980  10.596 -0.4157 -0.1775 -0.1332
  501TMC3    C3 7497   4.727   2.035  10.559 -0.0609 -0.1862  0.3342
  501TMC3    C4 7498   0.001   1.805  10.710 -0.6069  0.3211  0.0655
  501TMC3    C5 7499   0.117   1.879  10.674  0.6575  0.3693 -0.2310
  501TMC3    C6 7500   0.115   1.990  10.595 -0.0796  0.1157  0.4318
  501TMC3     C 7501   4.499   1.795  10.703 -0.7699  0.2629  0.2323
  501TMC3     O 7502   4.506   1.714  10.800 -0.1110  0.1522  0.5936
  501TMC3     H 7503   4.517   2.029  10.567 -0.0213  1.2084  0.9306
  501TMC3    H1 7504   0.003   1.712  10.765  1.9154  1.1103  1.3199
  501TMC3    H2 7505   0.202   2.040  10.555  1.4754 -1.6437  1.6370
  501TMC3    C7 7506   0.240   1.815  10.707  0.0890  0.5380  0.2060
  501TMC3    C8 7507   4.725   2.172  10.519  0.1019  0.5476  0.4385
  501TMC3    O1 7508   0.230   1.710  10.772 -0.2405  0.4566 -0.6021
  501TMC3    O2 7509   0.087   2.230  10.551  0.2981 -0.4344 -0.3918
  502TMC3    C1 7510   4.154   4.622  15.102  0.0707  0.5264 -0.3354
  502TMC3    C2 7511   4.150   4.728  15.009 -0.3446 -0.0637  0.2820
  502TMC3    C3 7512   4.076   0.100  15.040  0.9080  0.0132 -0.6444
  502TMC3    C4 7513   4.048   4.607  15.186  0.4641 -0.0123  0.2856
  502TMC3    C5 7514   3.951   4.707  15.200  0.0261 -0.4036 -0.1323
  502TMC3    C6 7515   3.971   0.089  15.136  0.2422 -0.0530  1.1330
  502TMC3     C 7516   4.274   4.642  15.184  0.0357 -0.3664 -0.0308
  502TMC3     O 7517   4.356   4.700  15.115 -0.5702  0.2914 -0.1375
  502TMC3     H 7518   4.210   4.713  14.920 -0.3978 -1.1217  0.4252
  502TMC3    H1 7519   4.050   4.515  15.244  1.0261 -0.5936 -0.6589
  502TMC3    H2 7520   3.924   0.178  15.177  0.8067  0.3074  1.0034
  502TMC3    C7 7521   3.906   4.715  15.343  0.5451 -0.5021  0.1016
  502TMC3    C8 7522   4.145   0.226  15.027  0.3882  0.5185  0.0154
  502TMC3    O1 7523   3.969   4.643  15.420  0.4521  0.0469 -0.2720
  502TMC3    O2 7524   4.089   0.330  15.056 -0.2845  0.3955  0.9493
  503MPD2     C 7525   1.446   1.130  16.773 -0.0553 -0.2683 -0.5370
  503MPD2    C1 7526   1.519   1.187  16.879  0.1618  0.2364  0.6625
  503MPD2    C2 7527   1.585   1.110  16.964  0.5993  0.5958 -0.1186
  503MPD2    C3 7528   1.599   0.972  16.936 -0.1292  0.2467 -0.1050
  503MPD2    C4 7529   1.525   0.920  16.833 -0.4214  0.1981  0.5893
  503MPD2    C5 7530   1.452   0.992  16.755  0.5063  0.7389  0.6550
  503MPD2     H 7531   1.643   1.156  17.043 -1.5880  1.5150  0.9615
  503MPD2    H1 7532   1.542   0.814  16.819 -0.6891  0.2416 -0.0697
  503MPD2    H2 7533   1.381   1.188  16.709  1.3322  2.3235  0.3807
  503MPD2    H3 7534   1.407   0.943  16.670  0.9475  0.0802  0.8019
  503MPD2     N 7535   1.678   0.895  17.024 -0.3940  0.3639  0.0975
  503MPD2    H5 7536   1.697   0.927  17.119 -2.7102 -0.8296  0.9648
  503MPD2    N1 7537   1.533   1.324  16.900 -0.1606 -0.0808 -0.2400
  503MPD2    H7 7538   1.588   1.351  16.981 -1.4977 -0.6110  0.8558
  504TMC3    C1 7539   1.830   0.722  17.090  0.0199 -0.9638  0.5860
  504TMC3    C2 7540   1.779   0.668  17.203  1.1630 -0.0198 -0.7480
  504TMC3    C3 7541   1.871   0.608  17.287 -0.4403 -0.7199 -1.1305
  504TMC3    C4 7542   1.958   0.728  17.065  0.4782 -0.0102  0.4491
  504TMC3    C5 7543   2.045   0.665  17.147  0.5768 -0.4390  0.1032
  504TMC3    C6 7544   2.000   0.610  17.261  0.1204 -0.0705  0.1762
  504TMC3     C 7545   1.740   0.778  16.988 -0.1374  0.3411  0.2017
  504TMC3     O 7546   1.742   0.725  16.879  0.1774 -0.9710 -0.4230
  504TMC3     H 7547   1.673   0.649  17.214  1.1092  0.6703 -0.0425
  504TMC3    H1 7548   1.993   0.774  16.973  0.7928 -0.6262  0.2636
  504TMC3    H2 7549   2.072   0.561  17.325  1.7938  2.8536  0.5285
  504TMC3    C7 7550   2.185   0.645  17.118  0.0889  0.6394 -0.2221
  504TMC3    C8 7551   1.831   0.484  17.335  0.0001 -0.0787 -0.7147
  504TMC3    O1 7552   2.259   0.613  17.211 -0.1570 -1.0955 -0.0526
  504TMC3    O2 7553   1.766   0.418  17.256 -0.3739  0.0686 -0.6912
  505MPD2     C 7554   1.725   0.078  11.003  0.0681 -1.0184 -0.3421
  505MPD2    C1 7555   1.795   4.698  10.991 -0.3522  0.0923 -0.8079
  505MPD2    C2 7556   1.911   4.680  11.063 -0.1505 -0.3587 -0.0387
  505MPD2    C3 7557   1.956   0.047  11.140  0.0139 -0.0605  0.4492
  505MPD2    C4 7558   1.883   0.159  11.158 -0.0423  0.1489 -0.2177
  505MPD2    C5 7559   1.772   0.173  11.087 -0.3847  0.4448  0.8207
  505MPD2     H 7560   1.969   4.590  11.047  1.7349  0.7163  0.6833
  505MPD2    H1 7561   1.902   0.234  11.235 -0.5365  0.7574 -0.6953
  505MPD2    H2 7562   1.628   0.088  10.956  0.9300 -0.9080 -2.0959
  505MPD2    H3 7563   1.709   0.258  11.109  1.1003  0.8583  3.4517
  505MPD2     N 7564   2.078   0.014  11.202  0.1324 -0.4248 -1.3819
  505MPD2    H5 7565   2.119   4.663  11.175 -0.8860 -0.9850 -1.0870
  505MPD2    N1 7566   1.744   4.602  10.890 -0.7549  0.3970 -0.0383
  505MPD2    H7 7567   1.670   4.630  10.827 -1.7176 -0.4679  0.7038
  506TMC3    C1 7568   1.769   4.420  10.732  0.2426 -0.5164 -0.0339
  506TMC3    C2 7569   1.781   4.514  10.628  0.0518  0.1683 -1.0701
  506TMC3    C3 7570   1.812   4.461  10.509  0.3146 -1.0792  0.3558
  506TMC3    C4 7571   1.814   4.288  10.725  0.5056  0.3626  0.1053
  506TMC3    C5 7572   1.862   4.245  10.605 -0.8898  0.8516 -0.0054
  506TMC3    C6 7573   1.850   4.331  10.495  0.0611  0.2710 -0.1217
  506TMC3     C 7574   1.801   4.475  10.864  0.4160  0.7384  0.1154
  506TMC3     O 7575   1.878   4.406  10.933  0.2513 -0.3370  0.5527
  506TMC3     H 7576   1.758   4.620  10.630 -1.2446 -0.1466  1.4527
  506TMC3    H1 7577   1.809   4.222  10.811  0.9327 -0.5722 -0.5789
  506TMC3    H2 7578   1.900   4.307  10.401  1.3562  2.4219  0.0179
  506TMC3    C7 7579   1.997   4.197  10.616 -0.4854 -0.4943  0.3436
  506TMC3    C8 7580   1.818   4.545  10.382  0.1834 -0.5038 -0.9784
  506TMC3    O1 7581   2.057   4.172  10.510  0.2813  0.2965  0.3521
  506TMC3    O2 7582   1.802   4.483  10.277  0.6648 -0.2313 -0.4134
  507TMC3    C1 7583   2.911   1.015  15.539  0.5036  0.3923  0.5362
  507TMC3    C2 7584   2.845   0.915  15.471  0.0437  0.2497  0.1045
  507TMC3    C3 7585   2.825   0.935  15.336  0.0624 -0.3459 -0.4599
  507TMC3    C4 7586   2.928   1.144  15.489 -1.1407 -0.3282 -0.0597
  507TMC3    C5 7587   2.920   1.156  15.355 -0.8605 -0.5728  0.6223
  507TMC3    C6 7588   2.870   1.056  15.278  0.0180  0.5713  0.3165
  507TMC3     C 7589   2.896   1.016  15.681  1.0754  0.2072  0.1522
  507TMC3     O 7590   2.859   1.116  15.736  0.0159  0.2200 -0.2382
  507TMC3     H 7591   2.817   0.822  15.520 -0.3771  2.3871  3.9557
  507TMC3    H1 7592   2.949   1.227  15.557  2.3371 -0.9091 -0.4380
  507TMC3    H2 7593   2.844   1.077  15.175  1.1879 -1.8320 -0.4578
  507TMC3    C7 7594   2.868   1.277  15.314  0.4077 -0.6455  0.7370
  507TMC3    C8 7595   2.701   0.877  15.284  0.2541  0.5655  0.6394
  507TMC3    O1 7596   2.770   1.309  15.381 -0.1609  0.1147  0.0969
  507TMC3    O2 7597   2.678   0.758  15.278  0.0406  0.5204  0.5237
  508MPD2     C 7598   3.474   2.719  15.945 -0.1631  0.4046 -0.2555
  508MPD2    C1 7599   3.475   2.761  16.078  0.3339  0.0858 -0.6195
  508MPD2    C2 7600   3.524   2.889  16.103 -0.7325  0.3607 -1.0796
  508MPD2    C3 7601   3.579   2.969  16.004 -0.2491  0.1169 -0.3416
  508MPD2    C4 7602   3.575   2.925  15.878  0.6729  0.6474 -1.0864
  508MPD2    C5 7603   3.517   2.805  15.847  0.0248 -0.3602 -0.0167
  508MPD2     H 7604   3.535   2.921  16.206 -0.7093  0.7982 -1.2165
  508MPD2    H1 7605   3.629   2.987  15.807  2.3179  0.7895  0.2799
  508MPD2    H2 7606   3.439   2.618  15.924 -0.5929  0.1581  1.6751
  508MPD2    H3 7607   3.523   2.764  15.747 -0.1479  1.5680 -0.8202
  508MPD2     N 7608   3.630   3.090  16.043 -0.8872  0.1247  0.2540
  508MPD2    H5 7609   3.610   3.118  16.139 -2.7311  0.4174 -0.2242
  508MPD2    N1 7610   3.456   2.669  16.184  0.3165  0.2020  0.4784
  508MPD2    H7 7611   3.442   2.570  16.167 -0.4053  0.4117 -0.1186
  509TMC3    C1 7612   3.691   3.463  16.215 -0.3435 -0.1413  0.4488
  509TMC3    C2 7613   3.825   3.483  16.230 -0.5429 -0.3337  0.0109
  509TMC3    C3 7614   3.909   3.408  16.150  0.4532 -1.2257 -0.8928
  509TMC3    C4 7615   3.644   3.359  16.145 -0.0813 -0.1461  0.4379
  509TMC3    C5 7616   3.731   3.289  16.068 -0.5649 -0.0240  0.5337
  509TMC3    C6 7617   3.866   3.314  16.062 -0.0744  0.7347  0.7521
  509TMC3     C 7618   3.615   3.585  16.220  0.2603 -0.2563 -0.3479
  509TMC3     O 7619   3.639   3.658  16.314  0.2236 -0.2538 -0.0432
  509TMC3     H 7620   3.858   3.568  16.288 -0.6973  0.7234 -1.4514
  509TMC3    H1 7621   3.541   3.326  16.137  0.3876 -1.4001 -0.5478
  509TMC3    H2 7622   3.930   3.267  15.989  0.2976  1.5179  0.5696
  509TMC3    C7 7623   3.675   3.198  15.973 -0.1796 -0.0916  0.5985
  509TMC3    C8 7624   4.039   3.465  16.127 -0.4691  0.0301  0.9301
  509TMC3    O1 7625   3.714   3.205  15.855 -0.1656  0.0914 -0.0743
  509TMC3    O2 7626   4.072   3.482  16.009 -0.5180 -0.2288  0.1659
  510MPD2     C 7627   1.535   4.502  14.787 -0.5457  0.1709  0.5505
  510MPD2    C1 7628   1.526   4.373  14.836  0.6088  1.2394  0.2828
  510MPD2    C2 7629   1.632   4.292  14.821 -0.4279  0.1590 -0.7883
  510MPD2    C3 7630   1.749   4.327  14.758  0.1088 -0.7392 -0.1243
  510MPD2    C4 7631   1.756   4.447  14.696 -0.2478 -0.1797  0.3889
  510MPD2    C5 7632   1.646   4.531  14.706 -0.1533 -0.7288 -0.5498
  510MPD2     H 7633   1.634   4.199  14.877  2.3862 -0.7132 -2.3481
  510MPD2    H1 7634   1.845   4.479  14.643  0.4507 -2.8017 -0.0339
  510MPD2    H2 7635   1.442   4.557  14.790 -0.3354  0.7086 -2.9132
  510MPD2    H3 7636   1.641   4.631  14.664  1.1818 -0.2442  0.4420
  510MPD2     N 7637   1.854   4.235  14.756  0.4637  0.2926 -0.8330
  510MPD2    H5 7638   1.844   4.155  14.817  1.5389 -0.2165 -1.3359
  510MPD2    N1 7639   1.419   4.321  14.911 -0.6047  0.1719 -0.1437
  510MPD2    H7 7640   1.419   4.224  14.939 -1.0939  0.3242  0.3777
  511TMC3    C1 7641   1.226   4.319  15.031 -0.2894 -0.6113 -0.9177
  511TMC3    C2 7642   1.160   4.374  15.136  0.2199  0.0459 -0.6370
  511TMC3    C3 7643   1.054   4.312  15.190  0.0596 -0.3563  0.4336
  511TMC3    C4 7644   1.201   4.193  14.974  0.4988 -0.1081 -0.4148
  511TMC3    C5 7645   1.095   4.130  15.039  0.3851  0.5497  0.1156
  511TMC3    C6 7646   1.026   4.187  15.150  0.0001  1.2974 -0.0883
  511TMC3     C 7647   1.316   4.401  14.963  0.3421 -0.7567  0.9058
  511TMC3     O 7648   1.322   4.519  14.993  0.4270 -0.3518 -0.2716
  511TMC3     H 7649   1.184   4.475  15.167 -1.2809  0.7499 -1.7912
  511TMC3    H1 7650   1.250   4.152  14.886 -0.2465 -0.5108 -0.6462
  511TMC3    H2 7651   0.938   4.142  15.195  0.1382  1.3826  0.2667
  511TMC3    C7 7652   1.032   4.021  14.968 -0.4899 -0.4851  0.3982
  511TMC3    C8 7653   0.993   4.369  15.308  0.3125  0.7201 -0.8905
  511TMC3    O1 7654   1.068   3.996  14.852  0.0228  0.2626 -0.1538
  511TMC3    O2 7655   1.001   4.490  15.314  0.2799 -0.5603 -0.4655
  512TMC3    C1 7656   4.629   4.057  13.615  0.1138  0.1115  0.2135
  512TMC3    C2 7657   4.721   4.014  13.711 -0.2069  0.9609  0.3730
  512TMC3    C3 7658   0.084   3.923  13.685  0.2762 -0.0981 -0.9189
  512TMC3    C4 7659   4.625   3.992  13.502  0.1867  1.0284 -0.1689
  512TMC3    C5 7660   4.725   3.903  13.477  0.1222 -0.5898 -0.2374
  512TMC3    C6 7661   0.091   3.873  13.563 -0.2965  0.2721  0.6276
  512TMC3     C 7662   4.528   4.152  13.653  0.0822 -0.2267 -0.0276
  512TMC3     O 7663   4.559   4.238  13.731  0.3004  0.1581  0.1955
  512TMC3     H 7664   4.710   4.060  13.809  0.3999  0.1243  0.8301
  512TMC3    H1 7665   4.550   4.019  13.428 -0.5548 -0.2187  0.1102
  512TMC3    H2 7666   0.174   3.808  13.538 -0.1250  1.2286 -1.2640
  512TMC3    C7 7667   0.004   3.866  13.340 -0.3225 -0.1784 -0.4623
  512TMC3    C8 7668   0.214   3.951  13.750 -0.3973  0.4716  0.1009
  512TMC3    O1 7669   4.716   3.954  13.260  0.3203 -0.2427  0.1601
  512TMC3    O2 7670   0.306   3.873  13.719 -0.0523  0.4815  0.2196
  513MPD2     C 7671   2.646   3.629  12.687  0.4539  0.1028 -0.2341
  513MPD2    C1 7672   2.663   3.734  12.775  0.1101 -0.1284 -0.1921
  513MPD2    C2 7673   2.759   3.728  12.869  0.0457 -0.1313 -0.5905
  513MPD2    C3 7674   2.854   3.627  12.864  0.3118 -0.0310 -0.4412
  513MPD2    C4 7675   2.833   3.522  12.784  0.0662  0.1068 -0.5543
  513MPD2    C5 7676   2.734   3.522  12.695  0.5154  0.4990  0.1598
  513MPD2     H 7677   2.768   3.803  12.947 -1.6444 -0.9429  0.4024
  513MPD2    H1 7678   2.904   3.440  12.784 -1.6592 -1.3803 -1.4875
  513MPD2    H2 7679   2.575   3.624  12.605  0.0577  1.9159 -0.0023
  513MPD2    H3 7680   2.724   3.446  12.619 -1.9265  1.3466 -0.3819
  513MPD2     N 7681   2.955   3.643  12.956 -0.6976 -0.2457  0.4575
  513MPD2    H5 7682   2.947   3.723  13.017  1.7749 -0.9895  1.7412
  513MPD2    N1 7683   2.571   3.844  12.758  0.4961  0.7529  0.8383
  513MPD2    H7 7684   2.501   3.834  12.685 -1.6006  0.5846  2.8705
  514TMC3    C1 7685   2.443   4.025  12.821  0.2391 -0.4889  0.4013
  514TMC3    C2 7686   2.329   3.952  12.792  0.5655  0.6257 -0.0570
  514TMC3    C3 7687   2.224   3.969  12.869  0.0758  0.6172  0.4550
  514TMC3    C4 7688   2.442   4.125  12.917  0.6547  0.1320 -0.2980
  514TMC3    C5 7689   2.339   4.130  13.007 -0.5376  0.0590 -0.4614
  514TMC3    C6 7690   2.227   4.056  12.980  0.1234 -0.4212  0.1502
  514TMC3     C 7691   2.565   3.954  12.835 -0.4850 -0.8157  0.5794
  514TMC3     O 7692   2.634   3.990  12.928 -0.2360 -0.3571 -0.7301
  514TMC3     H 7693   2.340   3.878  12.713  1.6764 -1.0483  1.6427
  514TMC3    H1 7694   2.519   4.200  12.932  0.7088  0.3558 -1.6224
  514TMC3    H2 7695   2.143   4.062  13.049 -0.5142  0.3253 -0.7043
  514TMC3    C7 7696   2.386   4.121  13.145  0.5116  0.3321  0.2950
  514TMC3    C8 7697   2.094   3.956  12.805  0.2257  0.0595  0.2145
  514TMC3    O1 7698   2.298   4.131  13.233  0.0783 -0.0100 -0.8434
  514TMC3    O2 7699   2.000   3.973  12.885 -0.7137  0.5392  0.0874
  515MPD2     C 7700   0.406   0.773  14.803 -0.3467 -0.0395 -0.1634
  515MPD2    C1 7701   0.349   0.802  14.680 -0.2101  0.3417  0.1269
  515MPD2    C2 7702   0.347   0.937  14.646 -0.5349  0.0064  0.0948
  515MPD2    C3 7703   0.372   1.040  14.736  0.4327  0.3020 -0.4153
  515MPD2    C4 7704   0.403   1.008  14.865 -0.3617 -0.3468  0.2036
  515MPD2    C5 7705   0.434   0.875  14.888 -0.1273  0.1039  0.2516
  515MPD2     H 7706   0.328   0.960  14.542  2.3266  0.3632 -0.3387
  515MPD2    H1 7707   0.433   1.078  14.942  0.0712 -1.9625  1.5066
  515MPD2    H2 7708   0.421   0.675  14.847 -0.5301 -0.9223 -2.0739
  515MPD2    H3 7709   0.482   0.854  14.982  2.8240  2.7057 -0.6554
  515MPD2     N 7710   0.389   1.176  14.700  0.1927  0.1625  0.2758
  515MPD2    H5 7711   0.422   1.240  14.772  1.3078  3.3227 -3.0799
  515MPD2    N1 7712   0.308   0.703  14.594 -0.1507  0.3890  0.3832
  515MPD2    H7 7713   0.272   0.736  14.505 -0.0113 -0.3544  0.0480
  516TMC3    C1 7714   0.217   0.490  14.550  0.5409  0.0598 -0.1609
  516TMC3    C2 7715   0.090   0.545  14.533  0.2568  1.0086 -0.0973
  516TMC3    C3 7716   4.716   0.476  14.565 -0.6516  0.6870 -0.1851
  516TMC3    C4 7717   0.215   0.362  14.579 -0.5129  0.0660  0.0723
  516TMC3    C5 7718   0.103   0.291  14.601  0.8065 -0.2219 -0.3441
  516TMC3    C6 7719   4.716   0.338  14.593  0.1713 -0.1271 -0.6793
  516TMC3     C 7720   0.318   0.571  14.623 -0.0327  0.8679  0.6225
  516TMC3     O 7721   0.362   0.510  14.722  0.1917 -0.0643 -0.3231
  516TMC3     H 7722   0.078   0.651  14.512 -0.0207  1.2364  1.2125
  516TMC3    H1 7723   0.310   0.311  14.587  0.0941  1.4729  1.7535
  516TMC3    H2 7724   4.635   0.281  14.637  1.5834 -1.1048  0.6629
  516TMC3    C7 7725   0.129   0.175  14.687  0.1672 -0.3851  0.6390
  516TMC3    C8 7726   4.588   0.536  14.550 -0.5408  1.2476 -0.6535
  516TMC3    O1 7727   0.234   0.178  14.749  0.2698  0.0669  0.1436
  516TMC3    O2 7728   4.489   0.480  14.506 -0.1826  0.2330  0.6394
  517MPD2     C 7729   0.102   2.777   0.115 -0.6328  0.2690  0.3351
  517MPD2    C1 7730   0.240   2.779   0.132  0.2030 -0.1113 -0.3987
  517MPD2    C2 7731   0.303   2.888   0.189 -0.6377  0.5150 -0.4591
  517MPD2    C3 7732   0.222   2.996   0.227  0.2932  0.9221 -0.2447
  517MPD2    C4 7733   0.092   3.003   0.206 -0.1677 -0.8654  0.3252
  517MPD2    C5 7734   0.027   2.888   0.157  0.0432  0.3466 -0.4422
  517MPD2     H 7735   0.409   2.880   0.207 -1.1453  1.3192  2.9700
  517MPD2    H1 7736   0.033   3.091   0.228 -1.4985 -0.9297 -2.9008
  517MPD2    H2 7737   0.055   2.688   0.074  0.0078  0.0370  0.0924
  517MPD2    H3 7738   4.658   2.887   0.137 -0.3121  1.1365  1.4184
  517MPD2     N 7739   0.272   3.108   0.296  0.4933 -0.0474 -0.0416
  517MPD2    H5 7740   0.202   3.179   0.316  2.0617  0.9519  1.8812
  517MPD2    N1 7741   0.310   2.665   0.090 -0.2763  0.0050  0.2644
  517MPD2    H7 7742   0.255   2.581   0.072 -0.4759  0.5023 -1.5010
  518TMC3    C1 7743   0.489   2.530  17.745  0.7003 -1.0538  0.4518
  518TMC3    C2 7744   0.422   2.415   0.028 -0.6294  0.1709  0.9598
  518TMC3    C3 7745   0.464   2.299  17.726 -0.2745  0.0016 -0.0873
  518TMC3    C4 7746   0.593   2.528  17.657 -0.2356 -0.6213  0.4131
  518TMC3    C5 7747   0.628   2.407  17.600  0.3741 -0.4138  0.0629
  518TMC3    C6 7748   0.565   2.288  17.635 -0.7717 -0.4400  0.4932
  518TMC3     C 7749   0.437   2.666   0.030 -0.2064  0.0142 -0.0196
  518TMC3     O 7750   0.509   2.764  17.747  0.3141 -0.4428  0.1280
  518TMC3     H 7751   0.355   2.409   0.114 -2.3263 -2.8604 -0.5468
  518TMC3    H1 7752   0.639   2.619  17.620 -0.2148 -1.0279 -0.5556
  518TMC3    H2 7753   0.615   2.195  17.611  3.3211  2.4708 -2.2361
  518TMC3    C7 7754   0.714   2.414  17.480  0.2990  0.6659 -0.5622
  518TMC3    C8 7755   0.381   2.174  17.736 -0.4597 -0.1257 -0.2016
  518TMC3    O1 7756   0.706   2.518  17.416 -0.6205  0.1551 -0.0433
  518TMC3    O2 7757   0.432   2.075  17.686  0.4328  0.3181 -0.0232
  519MPD2     C 7758   1.452   0.887  14.566 -0.5330 -0.3177 -0.0051
  519MPD2    C1 7759   1.488   0.851  14.439 -0.1231  0.3917 -0.6694
  519MPD2    C2 7760   1.598   0.765  14.424 -0.1989  0.0997 -0.0842
  519MPD2    C3 7761   1.670   0.722  14.535  0.2774  0.3720 -0.2930
  519MPD2    C4 7762   1.623   0.747  14.666 -0.7941 -0.5271 -0.9514
  519MPD2    C5 7763   1.506   0.819  14.678  0.5072 -0.5675 -0.0044
  519MPD2     H 7764   1.628   0.730  14.326 -0.0930  0.8271 -0.3094
  519MPD2    H1 7765   1.675   0.703  14.750 -0.6561  0.4735 -0.5202
  519MPD2    H2 7766   1.369   0.954  14.584  0.1840  0.2651  1.1399
  519MPD2    H3 7767   1.465   0.844  14.776  0.4743 -1.5354  0.2212
  519MPD2     N 7768   1.789   0.647  14.527  0.1384 -0.1622 -0.1500
  519MPD2    H5 7769   1.833   0.620  14.614 -0.4294  1.2133  0.5653
  519MPD2    N1 7770   1.415   0.900  14.323  0.4642  0.1819 -0.0625
  519MPD2    H7 7771   1.328   0.950  14.343 -0.1603 -0.9361 -0.0017
  520TMC3    C1 7772   1.968   0.524  14.415 -0.7464  0.1762  0.2558
  520TMC3    C2 7773   2.029   0.510  14.298 -0.2132  0.1914 -0.1606
  520TMC3    C3 7774   2.129   0.415  14.288 -0.5354 -0.0137  0.0220
  520TMC3    C4 7775   1.989   0.449  14.520  0.1088 -0.4367  0.1387
  520TMC3    C5 7776   2.093   0.357  14.510 -0.2277 -0.4409  0.0312
  520TMC3    C6 7777   2.160   0.330  14.390 -0.5181 -0.7855  0.0863
  520TMC3     C 7778   1.851   0.609  14.408 -0.8753 -0.0816  0.3368
  520TMC3     O 7779   1.809   0.618  14.295  0.1805  0.1587  0.0242
  520TMC3     H 7780   1.999   0.575  14.217 -1.7709  0.0320  0.2999
  520TMC3    H1 7781   1.922   0.451  14.605  1.0879  1.5975  0.8445
  520TMC3    H2 7782   2.235   0.252  14.382  0.8815  0.4107  1.5696
  520TMC3    C7 7783   2.114   0.260  14.616 -0.4611  0.5337  0.2833
  520TMC3    C8 7784   2.165   0.371  14.156  0.8461  0.7103 -0.5287
  520TMC3    O1 7785   2.227   0.220  14.649 -0.6071 -0.2608  0.6124
  520TMC3    O2 7786   2.269   0.308  14.147 -0.1765  0.3774 -0.0649
  521MPD2     C 7787   2.292   3.064  17.652 -0.1630  0.0082 -0.8217
  521MPD2    C1 7788   2.309   3.122  17.527  0.4828 -0.0127  0.0754
  521MPD2    C2 7789   2.430   3.132  17.472 -0.1568  0.0823 -0.3801
  521MPD2    C3 7790   2.537   3.063  17.527  0.3736 -0.1933 -0.0957
  521MPD2    C4 7791   2.523   3.005  17.647  0.3372 -0.6096 -0.5031
  521MPD2    C5 7792   2.400   3.002  17.710 -0.2786 -0.1955 -0.2426
  521MPD2     H 7793   2.452   3.188  17.382 -1.6659  1.7590  0.2840
  521MPD2    H1 7794   2.597   2.944  17.697 -1.3074 -0.8304  1.6934
  521MPD2    H2 7795   2.199   3.055  17.707 -0.1288 -0.6653 -0.8685
  521MPD2    H3 7796   2.385   2.951   0.054  0.0255  0.2200  0.0313
  521MPD2     N 7797   2.655   3.048  17.450 -0.1044  0.1177  0.1751
  521MPD2    H5 7798   2.665   3.095  17.361 -0.7718 -1.7512 -0.8974
  521MPD2    N1 7799   2.195   3.179  17.475  0.1918  0.4123  0.0298
  521MPD2    H7 7800   2.108   3.157  17.523 -0.0542  0.2127 -0.5095
  522TMC3    C1 7801   2.849   2.946  17.372  0.3115 -0.2405 -0.1458
  522TMC3    C2 7802   2.922   2.835  17.380  0.3545  0.2564 -0.2703
  522TMC3    C3 7803   3.020   2.801  17.287  0.2070  0.0682 -0.0438
  522TMC3    C4 7804   2.882   3.040  17.276  0.0746  0.3255 -0.4860
  522TMC3    C5 7805   2.978   3.009  17.187 -0.4090  0.0849 -0.8062
  522TMC3    C6 7806   3.047   2.893  17.184 -0.2580 -0.4459 -0.4574
  522TMC3     C 7807   2.756   2.958  17.477 -0.1075 -0.0282 -0.2621
  522TMC3     O 7808   2.786   2.906  17.583 -0.0641  0.7895 -0.5912
  522TMC3     H 7809   2.910   2.765  17.462 -0.6838  1.6555  0.7712
  522TMC3    H1 7810   2.820   3.129  17.280  1.1788  1.0762 -0.1005
  522TMC3    H2 7811   3.111   2.867  17.101  2.0477  0.5696  0.9860
  522TMC3    C7 7812   3.023   3.098  17.077  0.2761 -0.7350 -0.0332
  522TMC3    C8 7813   3.089   2.672  17.297  0.4992  0.2831  0.3727
  522TMC3    O1 7814   3.137   3.086  17.039 -0.0176 -0.2958 -0.3638
  522TMC3    O2 7815   3.037   2.587  17.370 -0.3987 -0.4414 -0.3049
  523MPD2     C 7816   0.467   4.161  10.329 -0.1438 -0.2347 -0.1759
  523MPD2    C1 7817   0.379   4.101  10.239  0.3534 -0.1857  0.6375
  523MPD2    C2 7818   0.320   4.178  10.141  0.4049  0.4818 -0.4181
  523MPD2    C3 7819   0.346   4.314  10.140  0.4787 -0.1654  0.5198
  523MPD2    C4 7820   0.446   4.364  10.225 -0.1968  0.2839  0.7093
  523MPD2    C5 7821   0.502   4.291  10.327 -0.2997 -0.2450  0.4322
  523MPD2     H 7822   0.256   4.127  10.070  0.0375  0.6684 -0.2209
  523MPD2    H1 7823   0.477   4.466  10.209 -1.2935  0.4742 -0.1863
  523MPD2    H2 7824   0.495   4.108  10.419 -1.3047 -0.3415  0.1286
  523MPD2    H3 7825   0.575   4.341  10.389  0.0375  0.6157 -0.6552
  523MPD2     N 7826   0.307   4.397  10.035 -0.4691 -0.2411 -0.5302
  523MPD2    H5 7827   0.361   4.482  10.018 -0.8726  0.4600  1.6402
  523MPD2    N1 7828   0.352   3.970  10.262 -0.6803 -0.1414 -0.3272
  523MPD2    H7 7829   0.412   3.915  10.323 -0.4159  1.6733  1.0330
  524TMC3    C1 7830   0.169   4.474   9.851 -1.3302 -0.8410  0.3843
  524TMC3    C2 7831   0.259   4.571   9.828  0.7535 -0.5292  0.6371
  524TMC3    C3 7832   0.211   4.679   9.755  0.2221 -0.3925 -0.1161
  524TMC3    C4 7833   0.035   4.477   9.813  0.4169  0.1615 -0.4678
  524TMC3    C5 7834   4.726   4.589   9.753  0.2537  0.4434  0.0443
  524TMC3    C6 7835   0.074   4.693   9.729 -0.2398  0.4350 -1.0180
  524TMC3     C 7836   0.202   4.376   9.950  1.1349  0.1151  0.1430
  524TMC3     O 7837   0.132   4.274   9.946  0.2191  0.0107  0.1441
  524TMC3     H 7838   0.362   4.538   9.828  0.5129 -1.2936 -0.7328
  524TMC3    H1 7839   4.705   4.403   9.854 -0.7259  1.2841 -0.3487
  524TMC3    H2 7840   0.048   0.037   9.662  1.8813  1.1156 -0.9961
  524TMC3    C7 7841   4.581   4.615   9.776  0.3733 -0.3748 -0.0346
  524TMC3    C8 7842   0.311   0.018   9.687  0.0300 -0.3076  0.8456
  524TMC3    O1 7843   4.508   4.523   9.819 -0.0911  1.0045 -0.4428
  524TMC3    O2 7844   0.429   4.721   9.707 -0.6652 -0.1410  0.8475
  525MPD2     C 7845   3.815   4.498  14.977 -0.0929  0.2751 -0.2455
  525MPD2    C1 7846   3.698   4.561  15.025  0.3588 -0.0865  0.3025
  525MPD2    C2 7847   3.656   4.668  14.960 -0.0246 -0.2657  0.3244
  525MPD2    C3 7848   3.716   4.730  14.851 -0.1968 -0.1913 -0.1034
  525MPD2    C4 7849   3.840   4.673  14.810 -0.4573  0.3163 -0.4510
  525MPD2    C5 7850   3.880   4.558  14.872  0.3378 -0.6144  0.4026
  525MPD2     H 7851   3.562   4.709  14.994  1.2327  2.2090  0.8018
  525MPD2    H1 7852   3.908   4.703  14.731  2.1355 -0.1983  1.5839
  525MPD2    H2 7853   3.859   4.410  15.021 -1.9207 -0.1399  0.7521
  525MPD2    H3 7854   3.975   4.519  14.838  1.4152  0.8585  1.7040
  525MPD2     N 7855   3.658   0.095  14.774  0.0704 -0.1512 -0.4780
  525MPD2    H5 7856   3.688   0.117  14.680  0.3376  0.0265 -0.3498
  525MPD2    N1 7857   3.642   4.520  15.153 -0.5174  0.5785 -0.2392
  525MPD2    H7 7858   3.699   4.447  15.194  0.2360  0.2334 -1.9225
  526TMC3    C1 7859   3.542   4.532  15.369  0.4720 -0.5283 -0.3251
  526TMC3    C2 7860   3.418   4.524  15.423 -0.0600 -0.5361  0.5144
  526TMC3    C3 7861   3.399   4.438  15.524 -0.3447  0.2889 -0.3655
  526TMC3    C4 7862   3.633   4.438  15.404 -0.3572  0.6167 -0.9978
  526TMC3    C5 7863   3.603   4.334  15.496 -0.1170 -0.0319  0.2611
  526TMC3    C6 7864   3.482   4.334  15.561 -0.0671 -0.9540 -0.5515
  526TMC3     C 7865   3.549   4.596  15.234  0.4102 -0.2150  0.1005
  526TMC3     O 7866   3.474   4.687  15.207  0.3933 -0.2645 -0.4543
  526TMC3     H 7867   3.342   4.596  15.393  0.7419  0.3256  0.5641
  526TMC3    H1 7868   3.737   4.441  15.372  0.7348  1.2520  2.5806
  526TMC3    H2 7869   3.452   4.251  15.625  1.1262 -1.2884 -0.4284
  526TMC3    C7 7870   3.666   4.202  15.469 -0.4061 -0.3590 -0.9487
  526TMC3    C8 7871   3.323   4.500  15.633 -0.4465  0.0602  0.2122
  526TMC3    O1 7872   3.668   4.125  15.566  0.2417 -0.5142 -0.0721
  526TMC3    O2 7873   3.295   4.618  15.616 -0.4839  0.1447  0.1267
  527MPD2     C 7874   0.812   2.968   1.586  0.7311 -0.0388  0.0225
  527MPD2    C1 7875   0.812   3.059   1.486  0.1824  0.3451 -0.0094
  527MPD2    C2 7876   0.901   3.045   1.379 -0.3510  0.0673  0.1640
  527MPD2    C3 7877   0.984   2.939   1.374  0.2382  0.1969 -0.6099
  527MPD2    C4 7878   0.984   2.852   1.484 -0.9685  0.5346 -0.4026
  527MPD2    C5 7879   0.896   2.862   1.593 -0.1968 -0.3623  0.8390
  527MPD2     H 7880   0.912   3.129   1.310  0.2864  0.0829  0.2858
  527MPD2    H1 7881   1.026   2.753   1.478 -0.9888  0.4983  0.0431
  527MPD2    H2 7882   0.744   2.982   1.669  0.2114  0.7534 -0.5370
  527MPD2    H3 7883   0.896   2.789   1.673 -0.6525  0.4598  1.5844
  527MPD2     N 7884   1.067   2.920   1.260 -0.3799  0.1137  0.2938
  527MPD2    H5 7885   1.055   2.982   1.180 -0.8552 -2.6637 -1.7861
  527MPD2    N1 7886   0.729   3.175   1.495  0.0081  0.6663 -0.4662
  527MPD2    H7 7887   0.756   3.245   1.427 -0.9615 -0.1847 -1.7360
  528TMC3    C1 7888   0.566   3.331   1.546 -0.3635 -0.3013  0.6771
  528TMC3    C2 7889   0.653   3.437   1.529  0.5551 -0.1397 -0.1417
  528TMC3    C3 7890   0.596   3.537   1.457 -0.4612  0.3672  0.1046
  528TMC3    C4 7891   0.429   3.330   1.517  0.1863  0.7787 -0.1478
  528TMC3    C5 7892   0.390   3.433   1.439  0.8315 -0.0452  0.5809
  528TMC3    C6 7893   0.468   3.536   1.403 -0.1281  0.4442  0.2194
  528TMC3     C 7894   0.618   3.199   1.573 -0.6269  1.0598  0.1169
  528TMC3     O 7895   0.568   3.136   1.666  0.4150 -0.2410 -0.5055
  528TMC3     H 7896   0.761   3.426   1.537  0.4120 -0.9924  0.6674
  528TMC3    H1 7897   0.372   3.241   1.540 -0.5134  1.4165  0.5946
  528TMC3    H2 7898   0.431   3.630   1.364  2.8487  0.2334 -3.1167
  528TMC3    C7 7899   0.248   3.434   1.407 -0.2361 -0.2417 -0.2768
  528TMC3    C8 7900   0.656   3.667   1.476  0.6315  0.2512  0.1295
  528TMC3    O1 7901   0.202   3.508   1.312 -0.0954  0.7747 -0.8072
  528TMC3    O2 7902   0.624   3.746   1.388 -0.1311 -0.8389  0.3189
  529MPD2     C 7903   2.841   1.436   1.077 -0.3138 -0.5091  0.2239
  529MPD2    C1 7904   2.961   1.477   1.019  1.2002 -0.0527  0.2905
  529MPD2    C2 7905   2.957   1.581   0.935  0.2268  0.0463  0.2187
  529MPD2    C3 7906   2.840   1.658   0.915 -0.5341 -0.2971 -0.4553
  529MPD2    C4 7907   2.721   1.622   0.982  0.1480 -0.3572  0.1665
  529MPD2    C5 7908   2.730   1.513   1.070 -0.2902 -0.3478  0.1666
  529MPD2     H 7909   3.050   1.618   0.894 -0.3601  1.8988  0.5322
  529MPD2    H1 7910   2.633   1.683   0.969 -0.3992 -1.2293 -0.2199
  529MPD2    H2 7911   2.815   1.349   1.137  0.6479 -1.3875 -0.6267
  529MPD2    H3 7912   2.646   1.481   1.131 -1.2606  1.9469  0.0261
  529MPD2     N 7913   2.824   1.751   0.814 -0.6108 -0.3062 -0.0946
  529MPD2    H5 7914   2.739   1.805   0.810  0.0458  0.6871 -0.7072
  529MPD2    N1 7915   3.084   1.411   1.018 -0.4499 -0.0022  0.3995
  529MPD2    H7 7916   3.157   1.446   0.957 -2.5246  0.0707 -2.0391
  530TMC3    C1 7917   3.252   1.238   1.082 -0.1754  0.1201 -0.4387
  530TMC3    C2 7918   3.353   1.315   1.018  0.5462 -0.0653 -0.3266
  530TMC3    C3 7919   3.468   1.251   1.004 -0.3572  0.0811 -1.1353
  530TMC3    C4 7920   3.265   1.114   1.125 -0.3304  0.5773  0.2686
  530TMC3    C5 7921   3.386   1.049   1.096 -0.6199  0.3811 -0.4142
  530TMC3    C6 7922   3.489   1.120   1.039  0.2429  0.0221 -0.3763
  530TMC3     C 7923   3.118   1.296   1.096 -0.1020  0.6028  0.2590
  530TMC3     O 7924   3.036   1.230   1.161 -0.2794 -0.3098 -0.7475
  530TMC3     H 7925   3.346   1.423   1.006 -0.3811  0.0397  1.1120
  530TMC3    H1 7926   3.179   1.061   1.166  1.7860 -3.1551 -0.0796
  530TMC3    H2 7927   3.581   1.070   1.014 -1.3088 -1.6913 -2.6637
  530TMC3    C7 7928   3.398   0.907   1.116  0.1608 -0.1548 -0.0519
  530TMC3    C8 7929   3.574   1.345   0.969 -0.9425  0.1355  0.1182
  530TMC3    O1 7930   3.456   0.849   1.029  0.4612 -0.0589 -0.2584
  530TMC3    O2 7931   3.542   1.459   0.941  0.0313 -0.1326 -0.0778
  531MPD2     C 7932   2.773   4.062  13.475 -0.0210  0.7456  0.2001
  531MPD2    C1 7933   2.811   4.022  13.345  0.3699 -0.2558 -0.1215
  531MPD2    C2 7934   2.715   4.037  13.247 -0.9199 -0.0119 -0.4652
  531MPD2    C3 7935   2.589   4.085  13.273 -0.1564 -0.3627  0.0642
  531MPD2    C4 7936   2.550   4.125  13.399 -0.1465 -0.4674  0.3223
  531MPD2    C5 7937   2.645   4.109  13.496 -0.4654 -0.3395  0.1849
  531MPD2     H 7938   2.735   4.012  13.143  0.8985  4.2691 -1.1360
  531MPD2    H1 7939   2.449   4.149  13.428 -0.8350 -0.5597 -1.9957
  531MPD2    H2 7940   2.831   4.034  13.562  0.7370 -2.5864 -1.3475
  531MPD2    H3 7941   2.617   4.120  13.600  2.4169 -1.1340  1.0533
  531MPD2     N 7942   2.515   4.089  13.156 -0.0597 -0.2610  0.0948
  531MPD2    H5 7943   2.557   4.059  13.068  1.8360  0.8829  0.6177
  531MPD2    N1 7944   2.941   3.974  13.322  0.1153  0.0248 -0.4654
  531MPD2    H7 7945   3.003   3.974  13.403 -0.9496 -0.9508  0.3588
  532TMC3    C1 7946   3.072   3.805  13.231  0.0627  0.0025 -0.4994
  532TMC3    C2 7947   3.104   3.749  13.107 -0.6732 -0.8039  0.1016
  532TMC3    C3 7948   3.110   3.610  13.106  0.2416 -0.5329  0.7239
  532TMC3    C4 7949   3.064   3.727  13.344 -0.2624 -1.0404 -0.2651
  532TMC3    C5 7950   3.097   3.593  13.340 -0.8269  0.0760  0.2008
  532TMC3    C6 7951   3.116   3.534  13.219  0.5726 -0.2027  0.2511
  532TMC3     C 7952   2.965   3.894  13.214  0.6796  0.0133 -0.2053
  532TMC3     O 7953   2.900   3.888  13.107 -0.3057  0.2269 -0.2741
  532TMC3     H 7954   3.118   3.803  13.014  1.7918 -0.0748  0.9333
  532TMC3    H1 7955   3.036   3.768  13.441  2.9806  1.4747 -0.3851
  532TMC3    H2 7956   3.125   3.426  13.212  0.6758 -0.2340  0.8684
  532TMC3    C7 7957   3.041   3.517  13.447 -0.2777 -0.8906 -0.1078
  532TMC3    C8 7958   3.053   3.554  12.989 -0.3692 -0.1668  0.0446
  532TMC3    O1 7959   3.045   3.570  13.554 -0.1661  0.0524 -0.4085
  532TMC3    O2 7960   3.064   3.438  12.964  0.2732 -0.1744  0.3037
  533TMC3    C1 7961   3.536   0.287  14.737  0.4707 -0.2254  0.2994
  533TMC3    C2 7962   3.640   0.378  14.718  0.5048 -0.4097  0.0270
  533TMC3    C3 7963   3.611   0.511  14.733 -0.5777 -0.3395 -0.6514
  533TMC3    C4 7964   3.423   0.346  14.793 -0.1615  0.1780 -0.5000
  533TMC3    C5 7965   3.401   0.480  14.813 -0.1918 -0.4647 -0.1488
  533TMC3    C6 7966   3.496   0.565  14.779 -0.4886 -0.2788  0.7461
  533TMC3     C 7967   3.567   0.181  14.825 -0.3975 -0.6999 -0.0587
  533TMC3     O 7968   3.523   0.182  14.939  0.5949  0.1282  0.3894
  533TMC3     H 7969   3.737   0.337  14.690  0.5649 -1.2066  1.3989
  533TMC3    H1 7970   3.347   0.274  14.823  0.1915 -0.9929 -2.3660
  533TMC3    H2 7971   3.503   0.666  14.817  1.3768  0.0177 -0.3741
  533TMC3    C7 7972   3.340   0.499  14.942  0.0967  0.0025  0.0783
  533TMC3    C8 7973   3.732   0.598  14.739 -0.5428 -0.1243  0.2560
  533TMC3    O1 7974   3.308   0.402  15.010  0.4597 -0.4938  0.3086
  533TMC3    O2 7975   3.840   0.545  14.770  0.0375  0.2401 -0.2725
  534MPD2     C 7976   1.577   1.301   1.579 -0.4850 -0.1767 -0.3258
  534MPD2    C1 7977   1.490   1.408   1.567 -0.0819  0.0025  0.0110
  534MPD2    C2 7978   1.358   1.380   1.596  0.0873  0.0391 -0.1056
  534MPD2    C3 7979   1.299   1.257   1.612  0.6568  0.1645 -0.6913
  534MPD2    C4 7980   1.385   1.155   1.619  0.6398  0.5936 -0.8339
  534MPD2    C5 7981   1.523   1.179   1.601  0.1168  0.3114  0.4687
  534MPD2     H 7982   1.285   1.461   1.599  0.1262  0.1090 -1.1877
  534MPD2    H1 7983   1.366   1.049   1.630 -0.5868  1.0025  0.8258
  534MPD2    H2 7984   1.681   1.311   1.547 -0.1842 -1.6423  0.1959
  534MPD2    H3 7985   1.596   1.098   1.599 -1.6953 -1.3299  1.1766
  534MPD2     N 7986   1.164   1.232   1.605 -0.3354  0.1802 -0.1234
  534MPD2    H5 7987   1.141   1.137   1.577 -0.5881 -0.5827  2.6884
  534MPD2    N1 7988   1.530   1.541   1.552 -1.1289 -0.0154  0.3463
  534MPD2    H7 7989   1.455   1.606   1.537  0.0518  0.9702 -1.3814
  535TMC3    C1 7990   0.937   1.281   1.565 -0.4146 -0.3494  0.1494
  535TMC3    C2 7991   0.824   1.350   1.619  0.1354 -0.6673  0.0342
  535TMC3    C3 7992   0.726   1.374   1.528  0.3955  0.1250  0.4418
  535TMC3    C4 7993   0.946   1.242   1.434 -0.4058 -0.7444  0.0710
  535TMC3    C5 7994   0.845   1.268   1.354  0.0469  1.0561  0.6714
  535TMC3    C6 7995   0.737   1.341   1.397 -0.0908 -0.3147  0.0757
  535TMC3     C 7996   1.064   1.326   1.620 -0.0465 -0.5952 -0.0953
  535TMC3     O 7997   1.063   1.443   1.658  0.9579 -0.0623 -0.4975
  535TMC3     H 7998   0.837   1.397   1.716  0.0153  1.4148 -0.9553
  535TMC3    H1 7999   1.036   1.208   1.385  0.1581  0.9291 -0.0378
  535TMC3    H2 8000   0.652   1.359   1.332  0.7565  0.7730 -0.7369
  535TMC3    C7 8001   0.871   1.307   1.214  1.0925  0.5085  0.5110
  535TMC3    C8 8002   0.597   1.440   1.561 -0.2606 -0.1283 -0.0041
  535TMC3    O1 8003   0.930   1.223   1.142 -0.7496  0.0618  0.2256
  535TMC3    O2 8004   0.522   1.477   1.467 -0.0424 -0.0486  0.2802
  536MPD2     C 8005   3.899   4.478  16.719 -0.0887  0.4750  0.8050
  536MPD2    C1 8006   3.999   4.446  16.642 -0.7579 -0.4973 -1.0561
  536MPD2    C2 8007   4.001   4.497  16.512  0.2884 -0.1744 -0.2806
  536MPD2    C3 8008   3.915   4.600  16.477  0.0829 -0.6486  0.2909
  536MPD2    C4 8009   3.809   4.633  16.559 -0.3655  0.0075  0.2406
  536MPD2    C5 8010   3.802   4.571  16.683  0.3855  0.4226  0.2945
  536MPD2     H 8011   4.082   4.467  16.445 -1.1224  1.6783 -2.8128
  536MPD2    H1 8012   3.733   4.704  16.529 -0.8518 -0.3697  0.5865
  536MPD2    H2 8013   3.897   4.429  16.816  3.3877 -1.6589 -0.1937
  536MPD2    H3 8014   3.723   4.596  16.754  1.3334  3.1422  0.3735
  536MPD2     N 8015   3.936   4.679  16.362  0.2612 -0.3463 -0.0105
  536MPD2    H5 8016   3.885   0.028  16.352 -0.1866 -1.0508 -4.0197
  536MPD2    N1 8017   4.088   4.345  16.692  0.3458  0.0779  0.4436
  536MPD2    H7 8018   4.058   4.296  16.775 -0.7154 -3.1199 -1.8603
  537TMC3    C1 8019   4.280   4.229  16.744 -0.3377  0.4323  0.1808
  537TMC3    C2 8020   4.408   4.260  16.755  0.2083  0.3929 -0.7760
  537TMC3    C3 8021   4.472   4.228  16.870 -0.1692  0.4540  0.3958
  537TMC3    C4 8022   4.212   4.152  16.837  0.7089  0.0032  0.1209
  537TMC3    C5 8023   4.289   4.108  16.946  0.0310 -0.5837 -0.1908
  537TMC3    C6 8024   4.419   4.154  16.970 -0.4280  0.0366 -0.0072
  537TMC3     C 8025   4.214   4.315  16.648  0.5078  0.1307 -0.3206
  537TMC3     O 8026   4.264   4.351  16.540  0.6466 -0.4312 -0.2226
  537TMC3     H 8027   4.448   4.331  16.684 -2.8250  1.6554 -1.2340
  537TMC3    H1 8028   4.109   4.125  16.819  0.5496  0.0021  1.0442
  537TMC3    H2 8029   4.481   4.116  17.050 -1.6117 -0.3397  0.7324
  537TMC3    C7 8030   4.220   4.027  17.042 -0.1393  0.2107  0.0246
  537TMC3    C8 8031   4.587   4.299  16.902 -0.5768 -0.1100 -0.4163
  537TMC3    O1 8032   4.095   4.025  17.039  0.0510  0.2737 -0.4827
  537TMC3    O2 8033   4.633   4.295  17.012  0.3142 -0.3916  0.1712
  538TMC3    C1 8034   0.662   3.485  11.026 -0.5786 -0.6018 -0.7979
  538TMC3    C2 8035   0.800   3.470  11.022  0.3125 -0.2229  0.4610
  538TMC3    C3 8036   0.872   3.550  10.934  0.4109 -0.1990 -0.1599
  538TMC3    C4 8037   0.600   3.566  10.934 -0.1616  0.0437 -0.3919
  538TMC3    C5 8038   0.675   3.641  10.850  0.0177 -0.0205 -0.5197
  538TMC3    C6 8039   0.811   3.633  10.850  0.0562 -0.7191  0.2505
  538TMC3     C 8040   0.577   3.395  11.107  0.8225 -0.4238 -0.5207
  538TMC3     O 8041   0.462   3.393  11.064 -0.1117  0.0793  0.1579
  538TMC3     H 8042   0.849   3.391  11.077  1.0702  0.2679  0.5016
  538TMC3    H1 8043   0.496   3.595  10.946 -0.0597  0.6603 -0.9925
  538TMC3    H2 8044   0.870   3.688  10.777  0.6497 -0.9239  0.5765
  538TMC3    C7 8045   0.606   3.736  10.775 -0.1927  0.9534  0.3548
  538TMC3    C8 8046   1.002   3.590  10.975  0.3371 -0.0829 -0.3315
  538TMC3    O1 8047   0.668   3.831  10.731  0.3628 -0.2189 -0.3792
  538TMC3    O2 8048   1.045   3.573  11.089  0.1236  0.2478  0.0140
  539MPD2     C 8049   0.213   2.282  11.408 -0.2813  0.0950 -0.8069
  539MPD2    C1 8050   0.271   2.378  11.325 -0.3342  0.4634 -0.2016
  539MPD2    C2 8051   0.184   2.481  11.289 -0.3349 -0.0612 -0.0019
  539MPD2    C3 8052   0.050   2.485  11.331  0.2422  1.0243  0.5359
  539MPD2    C4 8053   4.732   2.377  11.394 -0.1541  0.2219 -0.0570
  539MPD2    C5 8054   0.079   2.272  11.424  0.1184  0.5743 -0.4154
  539MPD2     H 8055   0.232   2.561  11.234  0.5068 -0.0099  0.8028
  539MPD2    H1 8056   4.626   2.375  11.414 -0.2073 -0.3306 -0.3902
  539MPD2    H2 8057   0.266   2.191  11.429 -0.2534  0.0083 -1.2701
  539MPD2    H3 8058   0.040   2.180  11.467  2.6274 -0.9159 -1.3333
  539MPD2     N 8059   4.704   2.598  11.310  0.0355  0.2377  0.0953
  539MPD2    H5 8060   4.607   2.587  11.336  0.2643 -1.7391  0.1270
  539MPD2    N1 8061   0.411   2.385  11.296 -0.1383  0.1728  0.5020
  539MPD2    H7 8062   0.444   2.448  11.225 -1.9426 -0.6079 -1.0227
  540TMC3    C1 8063   4.627   2.819  11.256  0.0751 -0.4988  0.2499
  540TMC3    C2 8064   4.653   2.926  11.172  0.3752  0.0070  0.1387
  540TMC3    C3 8065   4.593   3.042  11.198  0.5354  0.7572 -1.3047
  540TMC3    C4 8066   4.580   2.843  11.377  0.1709  0.0378 -0.1785
  540TMC3    C5 8067   4.532   2.968  11.410 -0.3921  0.3740 -0.9495
  540TMC3    C6 8068   4.540   3.072  11.319 -0.4340 -0.4740 -0.2416
  540TMC3     C 8069   0.004   2.727  11.264 -0.1864 -0.8155  0.4407
  540TMC3     O 8070   0.108   2.775  11.227 -0.3528  0.1481  0.3251
  540TMC3     H 8071   4.713   2.901  11.085 -0.4244  0.2203 -0.4714
  540TMC3    H1 8072   4.580   2.764  11.450 -1.2959 -0.3132 -0.5531
  540TMC3    H2 8073   4.493   3.166  11.345  1.4143  0.5924 -0.7606
  540TMC3    C7 8074   4.439   2.986  11.518 -0.2833 -0.1580  0.2391
  540TMC3    C8 8075   4.629   3.155  11.120  0.2744  0.0037  0.3023
  540TMC3    O1 8076   4.375   3.088  11.515  0.2852  0.3571  0.4797
  540TMC3    O2 8077   4.610   3.269  11.166  0.1993  0.1918 -0.1428
  541MPD2     C 8078   3.394   4.016  13.220  0.3046 -0.4973 -0.2909
  541MPD2    C1 8079   3.393   3.913  13.128 -0.7328  0.4972  0.2325
  541MPD2    C2 8080   3.372   3.946  12.998  0.1492 -0.5487  0.2055
  541MPD2    C3 8081   3.332   4.073  12.958 -0.0735 -0.1092  0.1252
  541MPD2    C4 8082   3.318   4.170  13.054  0.3781 -0.4309 -0.3942
  541MPD2    C5 8083   3.342   4.139  13.181 -0.5610  0.2046 -0.4372
  541MPD2     H 8084   3.387   3.872  12.920 -0.1599  1.1866 -1.4993
  541MPD2    H1 8085   3.292   4.272  13.031 -0.9917 -1.1252 -1.9580
  541MPD2    H2 8086   3.403   4.010  13.328 -1.6179 -3.4375 -0.3030
  541MPD2    H3 8087   3.347   4.211  13.261 -0.1960  1.1902 -1.3479
  541MPD2     N 8088   3.291   4.106  12.825  0.3358  0.0131 -0.2182
  541MPD2    H5 8089   3.280   4.206  12.812  0.4433 -0.0684 -0.9180
  541MPD2    N1 8090   3.421   3.777  13.156 -0.6482  0.1377 -0.0122
  541MPD2    H7 8091   3.420   3.705  13.084  0.0069  0.4406 -0.3283
  542TMC3    C1 8092   3.261   4.106  12.591  0.2674 -0.5344  0.0720
  542TMC3    C2 8093   3.316   4.084  12.473 -0.3925  0.6195 -0.0334
  542TMC3    C3 8094   3.292   4.170  12.363 -0.1431 -0.4838  0.0752
  542TMC3    C4 8095   3.173   4.208  12.605 -0.2097  0.2804 -0.3745
  542TMC3    C5 8096   3.148   4.294  12.500 -0.2515 -0.3846 -0.0205
  542TMC3    C6 8097   3.217   4.282  12.380 -0.2101  0.3100 -0.3051
  542TMC3     C 8098   3.307   4.035  12.708  1.1490  0.2609 -0.0190
  542TMC3     O 8099   3.349   3.921  12.695  0.2782 -0.3587 -0.5797
  542TMC3     H 8100   3.389   4.004  12.460  0.0099  0.7838  1.1639
  542TMC3    H1 8101   3.129   4.231  12.701  0.0717  1.5021 -0.5392
  542TMC3    H2 8102   3.190   4.346  12.297 -1.3031  0.6978  0.3457
  542TMC3    C7 8103   3.111   4.428  12.532  0.7762 -0.2785 -0.0504
  542TMC3    C8 8104   3.387   4.175  12.255  0.1879 -0.4431  1.1453
  542TMC3    O1 8105   3.108   4.458  12.652 -0.4226 -0.1255  0.5336
  542TMC3    O2 8106   3.339   4.233  12.156 -0.2085 -0.4830  0.0429
  543TMC3    C1 8107   3.230   0.956  17.161 -0.5266  0.8035 -0.0906
  543TMC3    C2 8108   3.186   0.824  17.168 -0.9181  0.1071 -0.2180
  543TMC3    C3 8109   3.087   0.798  17.254  0.3276  0.5468  0.1008
  543TMC3    C4 8110   3.201   1.050  17.250  0.0921  0.9283 -0.3442
  543TMC3    C5 8111   3.105   1.012  17.350 -0.1805 -0.4706 -0.5399
  543TMC3    C6 8112   3.050   0.886  17.356  0.4119  0.0500  0.7581
  543TMC3     C 8113   3.304   0.994  17.041  0.0811  0.4939  0.1720
  543TMC3     O 8114   3.396   0.922  16.997 -0.1729 -0.2665  0.3019
  543TMC3     H 8115   3.196   0.760  17.081 -0.4608 -1.2795  0.8672
  543TMC3    H1 8116   3.239   1.149  17.229  3.7094 -0.6370 -1.1778
  543TMC3    H2 8117   2.974   0.851  17.425 -0.9961 -2.2880 -1.9806
  543TMC3    C7 8118   3.053   1.111  17.441 -0.2626  0.4324  0.0494
  543TMC3    C8 8119   3.023   0.666  17.251 -0.1700  0.0291  0.4875
  543TMC3    O1 8120   3.001   1.064  17.541 -0.2429  0.2455 -0.2780
  543TMC3    O2 8121   3.089   0.578  17.197 -0.2255  0.8608  0.2384
  544MPD2     C 8122   2.635   0.333  17.260 -0.9816 -0.3511 -0.0652
  544MPD2    C1 8123   2.768   0.307  17.260  0.2525  0.1705  0.0901
  544MPD2    C2 8124   2.849   0.416  17.265 -0.2221 -0.0329 -0.3452
  544MPD2    C3 8125   2.805   0.546  17.280 -0.9354 -0.0173  0.1704
  544MPD2    C4 8126   2.671   0.564  17.288 -0.7131  0.3135  0.2619
  544MPD2    C5 8127   2.585   0.461  17.277 -0.4225  0.8395 -0.3798
  544MPD2     H 8128   2.956   0.398  17.271  0.0929  2.0417  0.2194
  544MPD2    H1 8129   2.631   0.664  17.304 -1.0261  0.0258  1.2896
  544MPD2    H2 8130   2.557   0.258  17.258  0.4310 -1.8305  0.2404
  544MPD2    H3 8131   2.477   0.471  17.281 -0.6699 -2.8206  1.6011
  544MPD2     N 8132   2.887   0.665  17.285 -0.4802 -0.2281 -0.2424
  544MPD2    H5 8133   2.850   0.758  17.301  0.6720  0.7433 -3.1634
  544MPD2    N1 8134   2.813   0.171  17.248 -0.5137 -0.3702 -0.5204
  544MPD2    H7 8135   2.744   0.098  17.237 -0.8260 -0.3544  1.3052
  545TMC3    C1 8136   2.963   4.729  17.239  0.4964 -0.4638 -1.2118
  545TMC3    C2 8137   3.086   4.682  17.198 -0.0043  0.1086 -0.2149
  545TMC3    C3 8138   3.101   4.544  17.194  0.0280 -0.2658  0.0876
  545TMC3    C4 8139   2.864   4.646  17.282  0.2233  0.2112  0.4906
  545TMC3    C5 8140   2.893   4.506  17.290  0.4277 -0.5955 -0.6409
  545TMC3    C6 8141   3.009   4.458  17.248  0.0178 -0.1485 -0.1755
  545TMC3     C 8142   2.943   0.131  17.226 -0.4863  0.6445 -0.0982
  545TMC3     O 8143   3.044   0.203  17.208 -1.0195  0.2138  0.8081
  545TMC3     H 8144   3.155   0.019  17.163 -0.0260  0.0976 -0.2810
  545TMC3    H1 8145   2.771   4.683  17.324 -0.0020  0.4919 -0.2476
  545TMC3    H2 8146   3.016   4.352  17.227  0.0409  0.6397 -4.0904
  545TMC3    C7 8147   2.791   4.425  17.349 -0.2478 -0.4861  0.2654
  545TMC3    C8 8148   3.222   4.490  17.152 -0.1299  0.0630 -0.6243
  545TMC3    O1 8149   2.683   4.427  17.290 -0.2635  0.1061  0.3025
  545TMC3    O2 8150   3.259   4.381  17.196  0.2688  0.5740  0.7199
  546MPD2     C 8151   4.683   0.685   0.047  0.5663 -0.1436 -0.6629
  546MPD2    C1 8152   4.667   0.746  17.676 -0.1862  0.3398  0.3446
  546MPD2    C2 8153   4.710   0.879  17.667 -0.3284  0.4346  0.6543
  546MPD2    C3 8154   0.036   0.942   0.023  0.6606 -0.4417  0.2902
  546MPD2    C4 8155   0.059   0.871   0.138 -0.0530  0.1493 -0.7976
  546MPD2    C5 8156   0.015   0.742   0.155 -0.7305  0.3283 -0.4940
  546MPD2     H 8157   4.691   0.939  17.578  0.9255  1.9873  1.4350
  546MPD2    H1 8158   0.125   0.904   0.217 -1.1728  0.1804  0.1180
  546MPD2    H2 8159   4.645   0.584   0.062  1.9127 -0.6865 -0.9318
  546MPD2    H3 8160   0.038   0.692   0.248  0.5698 -0.3364 -1.1686
  546MPD2     N 8161   0.101   1.071   0.008 -0.4469  0.1265 -0.8596
  546MPD2    H5 8162   0.124   1.111   0.098 -2.0441  0.8028 -0.7505
  546MPD2    N1 8163   4.591   0.679  17.574 -0.0114  0.5165  0.0732
  546MPD2    H7 8164   4.552   0.589  17.601 -1.2581  1.4114  1.2803
  547TMC3    C1 8165   4.450   0.645  17.404 -0.8832 -0.4655  0.6239
  547TMC3    C2 8166   4.444   0.638  17.267 -0.3294 -0.4256 -0.3570
  547TMC3    C3 8167   4.365   0.540  17.214 -1.1127 -0.1456  0.4449
  547TMC3    C4 8168   4.403   0.542  17.479 -0.1893  0.1974  0.0287
  547TMC3    C5 8169   4.332   0.437  17.423 -0.0220  0.0694 -0.0399
  547TMC3    C6 8170   4.305   0.437  17.288  0.4958  0.0812  0.3599
  547TMC3     C 8171   4.548   0.732  17.454  0.4487 -0.3808  0.7185
  547TMC3     O 8172   4.593   0.832  17.398  0.8347  0.9741 -0.3049
  547TMC3     H 8173   4.468   0.726  17.208  0.7486 -1.3463 -1.2869
  547TMC3    H1 8174   4.400   0.548  17.587 -2.1169 -3.6094  0.2049
  547TMC3    H2 8175   4.242   0.358  17.249  1.5660 -1.0596  0.9632
  547TMC3    C7 8176   4.237   0.376  17.522  0.0984 -0.0118 -0.2669
  547TMC3    C8 8177   4.284   0.592  17.111  0.0064  0.1166  0.0876
  547TMC3    O1 8178   4.201   0.448  17.614  0.0149 -0.1319 -0.3605
  547TMC3    O2 8179   4.331   0.691  17.053  0.3569  0.1769  0.2061
  548MPD2     C 8180   4.299   1.135  12.964 -0.4164  0.3532 -0.2609
  548MPD2    C1 8181   4.195   1.052  12.917 -0.0240  0.1314 -0.4264
  548MPD2    C2 8182   4.211   1.002  12.791 -0.5177 -0.0101 -0.1327
  548MPD2    C3 8183   4.318   1.050  12.708  0.2711 -0.2258 -0.4191
  548MPD2    C4 8184   4.412   1.130  12.763 -0.0289  0.3260 -0.2740
  548MPD2    C5 8185   4.397   1.186  12.887  0.2920  0.3453  0.0481
  548MPD2     H 8186   4.126   0.946  12.752 -0.2446 -1.1906  0.9616
  548MPD2    H1 8187   4.498   1.163  12.706 -0.7093  1.7528 -0.4820
  548MPD2    H2 8188   4.285   1.176  13.063 -2.1743  0.7036 -0.6490
  548MPD2    H3 8189   4.471   1.252  12.930 -0.4225  1.3953 -0.3419
  548MPD2     N 8190   4.319   1.012  12.569  0.1454 -0.6035 -0.4273
  548MPD2    H5 8191   4.244   0.954  12.534 -0.7930  0.8343 -0.7686
  548MPD2    N1 8192   4.090   1.023  13.001  0.0784 -0.3091  0.2635
  548MPD2    H7 8193   4.087   1.072  13.090  1.6532 -1.0089  0.6983
  549TMC3    C1 8194   3.894   0.950  13.081 -0.2420 -0.9201  0.2006
  549TMC3    C2 8195   3.835   1.073  13.070 -0.0302 -0.0019  0.2681
  549TMC3    C3 8196   3.693   1.082  13.071 -0.1713  0.0595  0.5011
  549TMC3    C4 8197   3.821   0.838  13.098 -0.6189  0.2135  0.3732
  549TMC3    C5 8198   3.686   0.852  13.107  0.3363  0.2451 -0.6583
  549TMC3    C6 8199   3.624   0.969  13.097 -0.6821  0.0421 -0.1448
  549TMC3     C 8200   4.001   0.923  12.989 -0.1947 -0.2743 -0.6273
  549TMC3     O 8201   4.018   0.820  12.931 -0.0275 -0.0512  0.2233
  549TMC3     H 8202   3.902   1.154  13.094 -0.5200  0.7358 -0.8514
  549TMC3    H1 8203   3.870   0.744  13.080 -0.6398  0.0206  1.3405
  549TMC3    H2 8204   3.518   0.984  13.077 -0.5885 -0.2169 -0.8150
  549TMC3    C7 8205   3.605   0.741  13.064  0.2060  0.1782 -0.0819
  549TMC3    C8 8206   3.630   1.158  12.957 -1.0347 -0.3846 -0.2456
  549TMC3    O1 8207   3.500   0.768  13.005 -0.1341 -0.1637 -0.3368
  549TMC3    O2 8208   3.512   1.137  12.931 -0.0855 -0.2500  0.0711
  550TMC3    C1 8209   2.971   3.687  12.004  0.5240 -0.1107  0.2680
  550TMC3    C2 8210   3.023   3.776  12.102 -0.1205  0.1159 -0.1501
  550TMC3    C3 8211   2.980   3.904  12.101  0.4684  0.0091  0.4920
  550TMC3    C4 8212   2.876   3.731  11.907 -0.6829  0.7795  0.2353
  550TMC3    C5 8213   2.849   3.862  11.907  0.6113 -0.0111 -0.3397
  550TMC3    C6 8214   2.903   3.952  12.001  0.1825 -0.1306 -0.7124
  550TMC3     C 8215   3.051   3.567  11.978  0.7293  1.1503  0.5331
  550TMC3     O 8216   3.132   3.542  12.064  0.2482  0.5570  0.4160
  550TMC3     H 8217   3.083   3.741  12.186  2.3418  0.6889 -1.6809
  550TMC3    H1 8218   2.817   3.659  11.851 -0.8683  1.7607 -0.8189
  550TMC3    H2 8219   2.863   4.053  11.999 -1.1262 -0.6278  0.3032
  550TMC3    C7 8220   2.750   3.925  11.823 -0.4747  1.1963 -0.3942
  550TMC3    C8 8221   2.973   3.986  12.227  0.7538 -0.0270  0.6107
  550TMC3    O1 8222   2.713   4.033  11.851  0.3500  0.8000  0.0643
  550TMC3    O2 8223   2.906   4.091  12.229  0.1455 -0.3748  0.2618
  551TMC3    C1 8224   0.653   1.564  13.244  0.0651 -0.2656  0.4624
  551TMC3    C2 8225   0.774   1.569  13.188  0.1791  0.2045  0.6988
  551TMC3    C3 8226   0.885   1.525  13.257  0.6163 -0.0524 -0.4218
  551TMC3    C4 8227   0.638   1.514  13.372 -0.2371  0.7391  0.1015
  551TMC3    C5 8228   0.744   1.469  13.440 -0.1506 -0.2118  0.1921
  551TMC3    C6 8229   0.867   1.472  13.390 -0.1961  0.5690  0.3117
  551TMC3     C 8230   0.549   1.641  13.170  1.0667 -0.4142 -0.0151
  551TMC3     O 8231   0.557   1.633  13.049 -0.5639 -0.2717 -0.3182
  551TMC3     H 8232   0.785   1.642  13.109  0.0366  0.6803  1.1162
  551TMC3    H1 8233   0.541   1.528  13.417  0.0060  0.4671  0.7061
  551TMC3    H2 8234   0.947   1.418  13.440  0.9634  1.0150 -1.0841
  551TMC3    C7 8235   0.744   1.459  13.586 -0.5814 -0.0801 -0.0586
  551TMC3    C8 8236   1.020   1.582  13.231 -0.2185  0.4020 -0.4628
  551TMC3    O1 8237   0.852   1.460  13.639  0.0820  0.2188 -0.1843
  551TMC3    O2 8238   1.123   1.518  13.256 -0.6342  0.0838  0.0136
  552MPD2     C 8239   2.234   3.126  14.639 -0.6581 -0.2148  0.6179
  552MPD2    C1 8240   2.350   3.069  14.594  0.2340  0.8063 -0.4708
  552MPD2    C2 8241   2.471   3.103  14.650 -0.8836 -0.1544 -0.8174
  552MPD2    C3 8242   2.476   3.202  14.746  0.0753 -0.4676  0.3359
  552MPD2    C4 8243   2.364   3.265  14.789  0.3527  0.2989  0.2147
  552MPD2    C5 8244   2.245   3.219  14.736  0.4685 -0.4041 -0.2200
  552MPD2     H 8245   2.563   3.055  14.620  1.1388  2.1327  1.6310
  552MPD2    H1 8246   2.368   3.345  14.861  2.8575 -1.3816  1.9584
  552MPD2    H2 8247   2.137   3.088  14.610  0.1525 -0.7963 -1.3523
  552MPD2    H3 8248   2.163   3.272  14.781 -1.1132 -1.6733 -1.6333
  552MPD2     N 8249   2.595   3.255  14.800  0.2799 -0.6046  0.0307
  552MPD2    H5 8250   2.594   3.312  14.885 -0.5882 -0.1619 -0.2769
  552MPD2    N1 8251   2.350   2.958  14.500  0.0341  0.0070  0.4721
  552MPD2    H7 8252   2.438   2.907  14.498 -0.0322 -0.0877 -0.0330
  553TMC3    C1 8253   2.283   2.796  14.357  0.3000  0.0033  0.1075
  553TMC3    C2 8254   2.259   2.810  14.221 -0.0133 -0.2400  1.1505
  553TMC3    C3 8255   2.330   2.728  14.138  0.0736 -0.0385 -0.5000
  553TMC3    C4 8256   2.374   2.703  14.410  0.5058 -0.2103  0.1431
  553TMC3    C5 8257   2.451   2.637  14.321 -0.1459  0.7811 -0.1990
  553TMC3    C6 8258   2.437   2.660  14.184  0.8789  0.2788 -0.6003
  553TMC3     C 8259   2.246   2.916  14.424  0.5420 -0.1067 -0.3287
  553TMC3     O 8260   2.144   2.976  14.393 -0.6129 -0.1414 -0.1325
  553TMC3     H 8261   2.188   2.880  14.178 -0.2226  0.0125  1.8915
  553TMC3    H1 8262   2.402   2.710  14.515  1.4130 -2.2423  0.0215
  553TMC3    H2 8263   2.493   2.606  14.110  2.5296  1.8314 -0.4717
  553TMC3    C7 8264   2.567   2.574  14.376 -0.1979 -0.2526  0.5727
  553TMC3    C8 8265   2.325   2.749  13.997  0.4567  0.0127  0.1715
  553TMC3    O1 8266   2.558   2.537  14.492 -0.2287 -0.1056  0.1232
  553TMC3    O2 8267   2.436   2.742  13.940  0.0502  0.2703 -0.2620
  554TMC3    C1 8268   4.195   2.689  11.166  0.1022 -0.9917  0.6320
  554TMC3    C2 8269   4.085   2.664  11.085 -0.2923  0.3571  0.2761
  554TMC3    C3 8270   4.017   2.775  11.048  0.5199  0.3524 -1.5863
  554TMC3    C4 8271   4.242   2.812  11.195  1.5007  0.0326 -0.1480
  554TMC3    C5 8272   4.172   2.923  11.161  1.2198  0.6207 -1.0588
  554TMC3    C6 8273   4.064   2.899  11.086  0.6573  0.9280 -0.3200
  554TMC3     C 8274   4.298   2.583  11.155  0.3233  0.3854  0.5043
  554TMC3     O 8275   4.406   2.628  11.123  0.1310 -0.0249 -0.0701
  554TMC3     H 8276   4.058   2.566  11.048 -0.9775  0.5516  0.2472
  554TMC3    H1 8277   4.338   2.820  11.244  1.6110  2.5819 -0.7679
  554TMC3    H2 8278   4.010   2.981  11.039 -0.7115 -0.2017 -0.6995
  554TMC3    C7 8279   4.248   3.029  11.101 -0.2176 -0.2925  0.5181
  554TMC3    C8 8280   3.980   2.771  10.910  0.8884 -0.4578 -0.2276
  554TMC3    O1 8281   4.320   3.011  11.009  0.4625  0.6605 -0.1449
  554TMC3    O2 8282   4.048   2.856  10.849 -0.6639 -0.2071  0.0185
  555TMC3    C1 8283   3.503   1.923  14.769 -0.7188 -0.1081  0.0851
  555TMC3    C2 8284   3.432   2.008  14.849  0.1572  0.3117  0.1701
  555TMC3    C3 8285   3.460   2.015  14.977  0.1176 -0.6442 -0.2694
  555TMC3    C4 8286   3.587   1.834  14.830  0.0415  0.3305  0.3220
  555TMC3    C5 8287   3.613   1.844  14.963  0.1990  0.5965 -0.5963
  555TMC3    C6 8288   3.560   1.943  15.041 -0.8817 -0.3588  0.4243
  555TMC3     C 8289   3.461   1.905  14.627 -0.7941 -0.8269  0.1570
  555TMC3     O 8290   3.549   1.861  14.551 -0.4963  0.5161 -0.2739
  555TMC3     H 8291   3.368   2.082  14.803  0.4478  2.5379  3.3182
  555TMC3    H1 8292   3.635   1.756  14.772 -2.6861 -1.9573  1.1299
  555TMC3    H2 8293   3.563   1.943  15.149 -0.8634  0.7171  0.4220
  555TMC3    C7 8294   3.622   1.718  15.038 -1.2701  0.7913  0.0156
  555TMC3    C8 8295   3.423   2.135  15.045 -1.0851 -0.5899 -0.1402
  555TMC3    O1 8296   3.545   1.722  15.131  0.7460 -0.6176  0.7034
  555TMC3    O2 8297   3.311   2.177  15.026 -0.2622  0.9707  0.6560
  556MPD2     C 8298   1.444   4.565  10.607  0.0215  0.4172 -0.1485
  556MPD2    C1 8299   1.444   4.452  10.687 -0.2612 -0.0589 -0.1446
  556MPD2    C2 8300   1.481   4.334  10.621  0.3466 -0.0684  0.1419
  556MPD2    C3 8301   1.507   4.323  10.486 -0.4236 -0.1186 -0.6007
  556MPD2    C4 8302   1.485   4.431  10.408  0.3086  0.1484  0.2030
  556MPD2    C5 8303   1.448   4.550  10.472 -0.1868 -0.2906  0.0861
  556MPD2     H 8304   1.498   4.245  10.680 -1.2329 -0.5884 -0.2033
  556MPD2    H1 8305   1.481   4.422  10.300 -0.3936 -1.4773  0.3719
  556MPD2    H2 8306   1.418   4.666  10.636  0.6462 -0.0073  1.9193
  556MPD2    H3 8307   1.434   4.628  10.399 -1.5521 -0.3462  0.2969
  556MPD2     N 8308   1.536   4.197  10.434  0.7901 -0.7926  0.6724
  556MPD2    H5 8309   1.558   4.128  10.505  0.3979 -1.2418  0.3478
  556MPD2    N1 8310   1.424   4.454  10.821 -0.1814  0.3358  0.3507
  556MPD2    H7 8311   1.423   4.364  10.868  1.2310  0.4058  0.5018
  557TMC3    C1 8312   1.529   4.011  10.296 -0.1431  0.1745  0.2534
  557TMC3    C2 8313   1.543   3.937  10.179 -0.4023  0.9706 -0.3690
  557TMC3    C3 8314   1.522   3.804  10.170 -0.4186  0.2585 -0.2368
  557TMC3    C4 8315   1.467   3.945  10.391  0.6402  0.5695 -0.5340
  557TMC3    C5 8316   1.449   3.809  10.386  0.4009  0.6766  1.0274
  557TMC3    C6 8317   1.477   3.729  10.278  0.2651 -0.4681  0.2608
  557TMC3     C 8318   1.534   4.151  10.301 -0.7580 -0.6456 -0.6251
  557TMC3     O 8319   1.529   4.205  10.195  0.6023  0.9894 -0.4739
  557TMC3     H 8320   1.572   3.996  10.092 -1.3832  0.5671 -0.9703
  557TMC3    H1 8321   1.436   3.985  10.487 -2.1232 -0.1493 -1.1380
  557TMC3    H2 8322   1.435   3.630  10.276  1.4227 -0.9800  1.8425
  557TMC3    C7 8323   1.397   3.741  10.500  0.2646  0.0071  0.1259
  557TMC3    C8 8324   1.499   3.759  10.033  0.4107  0.4076 -0.0589
  557TMC3    O1 8325   1.325   3.648  10.482 -0.1318  0.2534 -0.0478
  557TMC3    O2 8326   1.465   3.846   9.952 -0.5042 -0.1330 -0.0388
  558TMC3    C1 8327   3.823   1.908  10.266  0.1696 -0.2717  0.2331
  558TMC3    C2 8328   3.718   1.834  10.311  0.0260 -0.4647  0.4030
  558TMC3    C3 8329   3.599   1.862  10.242 -0.3707 -0.8322  0.6216
  558TMC3    C4 8330   3.819   1.978  10.150 -0.0816  0.3691  0.0527
  558TMC3    C5 8331   3.707   1.988  10.078  0.2779  1.0264  0.4298
  558TMC3    C6 8332   3.591   1.935  10.126  0.1178  0.0053  0.5873
  558TMC3     C 8333   3.947   1.924  10.349 -0.5978  0.1209  0.1961
  558TMC3     O 8334   4.046   1.977  10.305  0.2903 -0.0161 -0.1623
  558TMC3     H 8335   3.724   1.771  10.398  0.5336  0.4875  1.0604
  558TMC3    H1 8336   3.911   2.018  10.110  0.4326 -1.5861 -0.7029
  558TMC3    H2 8337   3.496   1.953  10.078  1.1567 -0.2058 -1.5379
  558TMC3    C7 8338   3.724   2.030   9.944 -0.8397 -0.3727 -0.6026
  558TMC3    C8 8339   3.475   1.809  10.286  0.4425  0.1284 -0.4774
  558TMC3    O1 8340   3.821   2.099   9.918 -0.1391 -0.0826 -0.9282
  558TMC3    O2 8341   3.381   1.804  10.206  0.1575  0.1107 -0.6749
  559MPD2     C 8342   3.790   2.348  10.193 -0.3513  0.0506 -1.0754
  559MPD2    C1 8343   3.738   2.285  10.300 -0.1017  0.4133 -0.0304
  559MPD2    C2 8344   3.817   2.260  10.413  0.6169  0.0527  0.3498
  559MPD2    C3 8345   3.953   2.287  10.412 -0.4683 -1.1049  0.0606
  559MPD2    C4 8346   4.005   2.344  10.306 -0.1140  0.4134  0.4448
  559MPD2    C5 8347   3.921   2.381  10.197 -0.2949 -0.2388 -0.6972
  559MPD2     H 8348   3.780   2.206  10.499 -0.5197 -0.2789 -0.3480
  559MPD2    H1 8349   4.109   2.375  10.307 -0.4699  1.6311 -0.6923
  559MPD2    H2 8350   3.724   2.376  10.112 -0.6341  1.6125 -0.3109
  559MPD2    H3 8351   3.956   2.446  10.118  0.5899  1.6212  1.2380
  559MPD2     N 8352   4.029   2.235  10.525  0.0735  0.2204  0.2789
  559MPD2    H5 8353   3.980   2.192  10.603 -2.7170  1.1205 -0.9637
  559MPD2    N1 8354   3.598   2.274  10.297 -0.2785 -0.0261  0.2159
  559MPD2    H7 8355   3.545   2.321  10.225  1.7543  0.6857 -0.8257
  560TMC3    C1 8356   4.218   2.198  10.672 -0.6394 -0.0687 -0.5502
  560TMC3    C2 8357   4.133   2.124  10.755  0.1704  0.0894 -0.3156
  560TMC3    C3 8358   4.179   2.077  10.876  0.0780 -0.3458  0.0589
  560TMC3    C4 8359   4.345   2.236  10.721 -0.3430 -0.8699  0.0874
  560TMC3    C5 8360   4.381   2.178  10.837 -0.8080  0.5538  0.0268
  560TMC3    C6 8361   4.306   2.096  10.918  0.2510  0.0165 -0.6312
  560TMC3     C 8362   4.164   2.248  10.541  0.4031 -0.1206 -0.0740
  560TMC3     O 8363   4.239   2.310  10.469 -0.2449  0.7527 -0.0228
  560TMC3     H 8364   4.034   2.098  10.720 -0.1241 -1.2690  1.5179
  560TMC3    H1 8365   4.419   2.293  10.666 -1.0615  1.5173  1.6035
  560TMC3    H2 8366   4.348   2.080  11.016 -0.3556  0.3892 -0.3159
  560TMC3    C7 8367   4.527   2.160  10.852 -0.3133 -0.0359 -0.2271
  560TMC3    C8 8368   4.098   2.000  10.964  0.0802  0.2599  0.0646
  560TMC3    O1 8369   4.556   2.059  10.912  0.0513  0.0552 -0.7204
  560TMC3    O2 8370   3.980   2.029  10.959  0.1603 -0.1246 -1.5009
  561TMC3    C1 8371   1.696   1.222  11.486 -0.0532  0.6202  0.1989
  561TMC3    C2 8372   1.601   1.205  11.581  0.4187  0.3305 -1.1702
  561TMC3    C3 8373   1.567   1.315  11.659  0.1289  0.5498 -0.4674
  561TMC3    C4 8374   1.747   1.341  11.442  0.0686 -0.2965  0.2424
  561TMC3    C5 8375   1.698   1.448  11.516 -0.7044 -0.4184  0.2201
  561TMC3    C6 8376   1.617   1.439  11.627 -0.2442 -0.2695 -0.6689
  561TMC3     C 8377   1.776   1.110  11.454  0.4148  0.3624 -0.0749
  561TMC3     O 8378   1.722   0.998  11.463  0.4186  0.1170  0.4949
  561TMC3     H 8379   1.562   1.109  11.613  3.4737 -0.1563  1.0232
  561TMC3    H1 8380   1.812   1.359  11.358  0.4945  1.0319  0.8520
  561TMC3    H2 8381   1.577   1.530  11.669 -0.5150 -0.5700 -0.2733
  561TMC3    C7 8382   1.700   1.578  11.459 -0.0232  0.3809 -0.1918
  561TMC3    C8 8383   1.488   1.300  11.788 -0.0575 -0.7223  0.0845
  561TMC3    O1 8384   1.612   1.651  11.498 -0.1713 -0.3503 -0.3128
  561TMC3    O2 8385   1.428   1.198  11.815 -0.1689 -0.7157 -0.6993
  562TMC3    C1 8386   3.431   2.029  16.416 -0.2369 -0.2934  0.3722
  562TMC3    C2 8387   3.373   2.144  16.457 -0.4610 -0.0991 -0.4638
  562TMC3    C3 8388   3.273   2.200  16.371  0.4284 -0.2158 -0.3501
  562TMC3    C4 8389   3.418   1.986  16.287 -0.0725  0.3910 -0.0968
  562TMC3    C5 8390   3.324   2.048  16.207  0.6663 -0.4375  0.3064
  562TMC3    C6 8391   3.246   2.154  16.247  1.3792  0.4761 -0.7041
  562TMC3     C 8392   3.540   1.977  16.507 -0.2269 -0.6892 -0.1639
  562TMC3     O 8393   3.545   2.011  16.623  0.6178 -0.3084 -0.6998
  562TMC3     H 8394   3.370   2.181  16.558 -2.1599 -0.6700 -0.3077
  562TMC3    H1 8395   3.472   1.898  16.254 -0.9711 -0.2757  0.2058
  562TMC3    H2 8396   3.185   2.212  16.179  0.8741  1.9674  1.0251
  562TMC3    C7 8397   3.289   1.996  16.077  0.2788 -0.4083 -0.0114
  562TMC3    C8 8398   3.213   2.316  16.422 -0.2313  1.0575 -0.5415
  562TMC3    O1 8399   3.176   2.016  16.034 -0.1960 -0.2275  0.3346
  562TMC3    O2 8400   3.211   2.341  16.542  0.1513  0.2301  0.2776
  563MPD2     C 8401   1.042   3.637  15.757  0.1420 -0.7156 -0.0737
  563MPD2    C1 8402   1.085   3.695  15.876 -0.2298 -0.7776  0.0235
  563MPD2    C2 8403   1.204   3.661  15.931 -0.0962 -0.0695  0.3687
  563MPD2    C3 8404   1.289   3.575  15.865  1.2789  0.8413 -0.0308
  563MPD2    C4 8405   1.257   3.521  15.744  0.0169  0.2724  0.1142
  563MPD2    C5 8406   1.128   3.550  15.700 -0.2259 -0.2876  0.1408
  563MPD2     H 8407   1.218   3.689  16.035  0.3128  0.4674  0.1642
  563MPD2    H1 8408   1.310   3.441  15.694  1.4400  1.5465 -0.4450
  563MPD2    H2 8409   0.942   3.651  15.719  0.7029 -0.6293 -1.5134
  563MPD2    H3 8410   1.100   3.498  15.609 -0.5874  1.0947 -0.5322
  563MPD2     N 8411   1.398   3.526  15.932 -0.0377 -0.5446  0.1976
  563MPD2    H5 8412   1.391   3.541  16.032  1.0514 -0.2193  0.2193
  563MPD2    N1 8413   0.999   3.778  15.947 -0.2144  0.2973 -0.0326
  563MPD2    H7 8414   1.033   3.806  16.039 -0.7753 -0.1150  0.2939
  564TMC3    C1 8415   0.814   3.866  16.030 -0.1499  0.1547  0.3205
  564TMC3    C2 8416   0.682   3.823  16.032  0.4059  0.0125  0.0045
  564TMC3    C3 8417   0.609   3.801  16.143  0.8277  0.6293 -0.3325
  564TMC3    C4 8418   0.880   3.874  16.148 -0.1493  1.0142 -0.0528
  564TMC3    C5 8419   0.804   3.845  16.258  0.0784  0.3695 -0.4934
  564TMC3    C6 8420   0.669   3.803  16.263  0.5351  0.1245 -0.5201
  564TMC3     C 8421   0.886   3.844  15.907 -0.5065  0.8282 -0.3527
  564TMC3     O 8422   0.826   3.838  15.799 -0.1005 -0.2526 -0.2772
  564TMC3     H 8423   0.640   3.802  15.935  1.2319  1.0388 -0.5710
  564TMC3    H1 8424   0.982   3.910  16.158  0.5178 -0.8717 -0.0483
  564TMC3    H2 8425   0.616   3.775  16.353  0.8042  1.7007  0.1337
  564TMC3    C7 8426   0.881   3.773  16.359 -0.5280 -0.0793 -0.7249
  564TMC3    C8 8427   0.516   3.693  16.145  0.3457  0.6433  0.7386
  564TMC3    O1 8428   0.996   3.804  16.381  0.0279  0.0748 -0.1530
  564TMC3    O2 8429   0.526   3.608  16.231  0.6883 -0.2550  0.5081
  565TMC3    C1 8430   1.210   0.862  10.292  1.4802  0.5172 -0.0514
  565TMC3    C2 8431   1.194   0.766  10.381  0.3861 -0.6934  0.8514
  565TMC3    C3 8432   1.109   0.667  10.352 -0.3876  0.1423  0.2925
  565TMC3    C4 8433   1.133   0.877  10.180  0.6357  0.1761 -0.3732
  565TMC3    C5 8434   1.045   0.777  10.163  0.2049 -0.2993  0.4623
  565TMC3    C6 8435   1.041   0.662  10.240  0.0862 -0.3697 -0.1642
  565TMC3     C 8436   1.290   0.977  10.320  0.4857  0.4983  0.4173
  565TMC3     O 8437   1.312   1.041  10.221  0.0903 -0.0427 -0.3703
  565TMC3     H 8438   1.259   0.763  10.468  0.1462  1.4196  1.1001
  565TMC3    H1 8439   1.128   0.974  10.131  0.9862  1.2362  1.7221
  565TMC3    H2 8440   0.954   0.598  10.251  0.4765 -0.6817  1.0307
  565TMC3    C7 8441   0.962   0.795  10.039  0.4041 -0.6445 -0.2281
  565TMC3    C8 8442   1.122   0.540  10.426 -0.5299 -0.0989 -0.3334
  565TMC3    O1 8443   0.979   0.899   9.982 -0.5709  0.4721  0.3947
  565TMC3    O2 8444   1.142   0.554  10.544  0.3791  0.1117 -0.6460
  566MPD2     C 8445   2.770   1.577  14.258 -0.4335 -0.2421  0.7349
  566MPD2    C1 8446   2.825   1.677  14.191 -0.1638 -1.0443  0.1325
  566MPD2    C2 8447   2.749   1.770  14.133  0.9664 -0.0884 -0.1510
  566MPD2    C3 8448   2.607   1.768  14.138 -0.7948 -0.7583  0.0909
  566MPD2    C4 8449   2.548   1.672  14.215  0.1614  0.2135 -0.0851
  566MPD2    C5 8450   2.633   1.570  14.260  0.5779 -0.4108  0.5199
  566MPD2     H 8451   2.793   1.853  14.080  0.0714  0.7452  0.4009
  566MPD2    H1 8452   2.440   1.670  14.218  0.1169 -1.4439 -1.9643
  566MPD2    H2 8453   2.831   1.499  14.302  0.2777  0.3720  0.8346
  566MPD2    H3 8454   2.583   1.494  14.320 -1.2203  0.2632 -0.1121
  566MPD2     N 8455   2.523   1.850  14.069 -0.5417 -0.1685 -0.3969
  566MPD2    H5 8456   2.427   1.860  14.101 -0.4146  3.4328 -1.0690
  566MPD2    N1 8457   2.967   1.677  14.185  0.4590  0.1767 -0.2994
  566MPD2    H7 8458   3.019   1.600  14.224  2.0648 -0.2433 -3.2326
  567TMC3    C1 8459   3.183   1.716  14.121 -0.3954 -0.5785  0.3394
  567TMC3    C2 8460   3.261   1.783  14.032  0.1700  0.5464  0.1000
  567TMC3    C3 8461   3.395   1.778  14.043  0.3099  0.3030  0.5509
  567TMC3    C4 8462   3.235   1.647  14.226  0.1940 -0.4616  0.0364
  567TMC3    C5 8463   3.374   1.650  14.239 -0.0659  0.3031  0.4558
  567TMC3    C6 8464   3.459   1.705  14.141  0.2450  0.3289  0.3649
  567TMC3     C 8465   3.046   1.766  14.125  0.1916 -0.4634  0.0881
  567TMC3     O 8466   3.016   1.840  14.037 -0.0410  0.2204 -0.5445
  567TMC3     H 8467   3.214   1.837  13.951  1.3624  1.2111 -0.1610
  567TMC3    H1 8468   3.168   1.595  14.293 -0.6728 -1.4812 -1.6027
  567TMC3    H2 8469   3.566   1.705  14.151  0.2836  0.9920  0.0032
  567TMC3    C7 8470   3.433   1.609  14.358 -0.3717  0.1018 -0.0082
  567TMC3    C8 8471   3.459   1.878  13.968 -0.1892 -0.5358  0.1507
  567TMC3    O1 8472   3.550   1.566  14.355 -0.6981  0.5224 -0.3999
  567TMC3    O2 8473   3.397   1.927  13.874 -0.6310 -0.3561  0.3881
  568MPD2     C 8474   0.515   2.356  16.369  0.3238  0.1756  0.2668
  568MPD2    C1 8475   0.492   2.424  16.485  0.5274 -0.3681 -0.2439
  568MPD2    C2 8476   0.388   2.515  16.482 -0.0792 -0.1658  0.1778
  568MPD2    C3 8477   0.321   2.555  16.375 -1.2012  1.1065 -0.4035
  568MPD2    C4 8478   0.352   2.490  16.254 -0.3097 -0.1765 -0.8193
  568MPD2    C5 8479   0.443   2.387  16.256 -0.1716 -0.1027  0.5235
  568MPD2     H 8480   0.359   2.567  16.573  1.2248  0.9558 -0.0619
  568MPD2    H1 8481   0.288   2.521  16.172  1.9703 -0.3159 -2.6541
  568MPD2    H2 8482   0.584   2.272  16.360 -2.1537 -1.9935  1.3303
  568MPD2    H3 8483   0.455   2.329  16.165  1.5086 -0.8332  1.2187
  568MPD2     N 8484   0.219   2.654  16.383  0.8735 -0.7821  0.4053
  568MPD2    H5 8485   0.184   2.671  16.477 -0.0681  0.3386 -0.1403
  568MPD2    N1 8486   0.563   2.390  16.597 -0.3555  0.2767 -0.7845
  568MPD2    H7 8487   0.636   2.320  16.588  0.3714  0.6303  2.3309
  569TMC3    C1 8488   0.133   2.865  16.327 -1.0824 -0.2159 -0.1371
  569TMC3    C2 8489   0.139   2.898  16.458  0.1338 -0.3239  0.0170
  569TMC3    C3 8490   0.154   3.033  16.481 -0.1361  0.3619  0.1248
  569TMC3    C4 8491   0.119   2.959  16.229 -0.7428  0.2966 -0.1608
  569TMC3    C5 8492   0.125   3.094  16.254 -0.5644 -0.7693  0.1781
  569TMC3    C6 8493   0.142   3.141  16.387  0.0384  0.5259  0.0545
  569TMC3     C 8494   0.206   2.752  16.286 -0.0838  0.0995 -0.7440
  569TMC3     O 8495   0.247   2.753  16.173  0.3549 -0.1300  0.0436
  569TMC3     H 8496   0.138   2.822  16.536 -1.6178 -0.8269 -0.5043
  569TMC3    H1 8497   0.110   2.934  16.124 -1.4316  1.0236 -0.2758
  569TMC3    H2 8498   0.128   3.243  16.419 -0.7424  0.1690  0.8440
  569TMC3    C7 8499   0.118   3.185  16.139  0.4623  0.4284  0.0386
  569TMC3    C8 8500   0.180   3.067  16.625  0.3139 -0.5415 -0.2085
  569TMC3    O1 8501   0.065   3.153  16.034 -0.4803 -0.2630  0.6682
  569TMC3    O2 8502   0.169   2.973  16.703 -0.3145 -0.0749 -0.0472
  570TMC3    C1 8503   4.657   1.513  16.245  0.2367 -0.4190 -0.1030
  570TMC3    C2 8504   0.016   1.475  16.160  0.7119 -0.4903  0.6861
  570TMC3    C3 8505   0.144   1.532  16.174  0.6756 -0.2650 -0.0494
  570TMC3    C4 8506   4.670   1.610  16.336  0.3407 -0.2922 -0.4157
  570TMC3    C5 8507   0.059   1.657  16.351 -0.7173  0.3309  0.1166
  570TMC3    C6 8508   0.170   1.624  16.274  0.4127 -0.0532 -0.3551
  570TMC3     C 8509   4.553   1.422  16.266  0.3015  0.0885 -0.9818
  570TMC3     O 8510   4.489   1.385  16.168 -0.3911 -0.3319  0.5524
  570TMC3     H 8511   4.726   1.398  16.089  1.3559 -1.1997  1.2026
  570TMC3    H1 8512   4.584   1.648  16.390  2.4907  0.8135  2.2310
  570TMC3    H2 8513   0.258   1.685  16.289 -0.4077  0.3662  2.7424
  570TMC3    C7 8514   0.084   1.750  16.461  0.6569 -0.7230  0.4128
  570TMC3    C8 8515   0.252   1.497  16.088 -0.5112 -0.0421  0.1402
  570TMC3    O1 8516   0.196   1.751  16.508  0.6408 -0.4199  0.0374
  570TMC3    O2 8517   0.344   1.578  16.099  0.3418 -0.3717  0.2977
  571MPD2     C 8518   1.417   3.152   0.491 -0.0842  0.6979 -0.6760
  571MPD2    C1 8519   1.547   3.135   0.456 -0.1839 -0.4875 -0.4662
  571MPD2    C2 8520   1.620   3.243   0.411 -0.6264  0.4347  0.1089
  571MPD2    C3 8521   1.558   3.370   0.423 -0.5331 -0.6797  0.4278
  571MPD2    C4 8522   1.426   3.388   0.466  0.2473 -0.3984  0.4945
  571MPD2    C5 8523   1.352   3.271   0.483 -0.2817 -0.8890  0.6775
  571MPD2     H 8524   1.725   3.230   0.389 -1.0694 -2.5013 -0.3637
  571MPD2    H1 8525   1.379   3.486   0.462 -0.2239 -0.7691 -2.6689
  571MPD2    H2 8526   1.362   3.064   0.522 -1.2519  2.1376  1.3307
  571MPD2    H3 8527   1.246   3.280   0.505 -0.1963 -1.4877  1.3130
  571MPD2     N 8528   1.626   3.491   0.419 -0.5475  0.2488  0.5469
  571MPD2    H5 8529   1.566   3.569   0.443  0.5957  1.0703  0.7375
  571MPD2    N1 8530   1.596   3.003   0.474  0.0840  0.0433  0.0417
  571MPD2    H7 8531   1.537   2.938   0.525  1.5003 -0.2766  1.2827
  572TMC3    C1 8532   1.777   3.653   0.341  0.0842 -0.5243 -0.2390
  572TMC3    C2 8533   1.728   3.735   0.440 -0.0249 -0.2110  0.7631
  572TMC3    C3 8534   1.763   3.867   0.438  0.4707 -0.6553 -0.0890
  572TMC3    C4 8535   1.870   3.700   0.244 -0.1553 -0.2001 -0.4317
  572TMC3    C5 8536   1.902   3.832   0.252 -0.3394 -0.8220  0.0172
  572TMC3    C6 8537   1.852   3.916   0.345 -0.6009  0.5666  0.3365
  572TMC3     C 8538   1.743   3.513   0.348 -0.2343 -0.0727 -0.1320
  572TMC3     O 8539   1.815   3.432   0.291  0.0062 -0.4587  0.1654
  572TMC3     H 8540   1.677   3.698   0.528 -0.5094  1.0323  1.0128
  572TMC3    H1 8541   1.898   3.639   0.159 -0.2660  1.1575 -1.4359
  572TMC3    H2 8542   1.858   4.023   0.331  1.8283  0.1588 -1.6862
  572TMC3    C7 8543   1.972   3.894   0.148 -0.2196  0.4415  0.2818
  572TMC3    C8 8544   1.731   3.947   0.553  0.0979 -0.6628  0.1437
  572TMC3    O1 8545   1.954   3.875   0.027  0.1717  0.5779 -0.2249
  572TMC3    O2 8546   1.805   4.042   0.573  0.4779  0.0819  0.2960
  573MPD2     C 8547   3.067   4.586   0.596 -1.2049  0.8950 -0.7398
  573MPD2    C1 8548   2.955   4.512   0.587  0.6334  0.2563  0.1759
  573MPD2    C2 8549   2.963   4.390   0.523  0.9988  0.1200 -0.0650
  573MPD2    C3 8550   3.081   4.340   0.466  0.3557  0.3291 -0.3198
  573MPD2    C4 8551   3.193   4.426   0.469  0.4557  0.7401  0.3922
  573MPD2    C5 8552   3.182   4.544   0.535  0.2231 -0.1252  0.0794
  573MPD2     H 8553   2.879   4.322   0.524  1.4430 -0.4387 -1.1187
  573MPD2    H1 8554   3.290   4.411   0.425  0.3815  1.6519 -0.0747
  573MPD2    H2 8555   3.061   4.676   0.656  0.8875 -0.0243  0.8438
  573MPD2    H3 8556   3.260   4.617   0.552 -0.7641  0.6007  1.4998
  573MPD2     N 8557   3.091   4.210   0.399  0.2957  0.3980  0.2977
  573MPD2    H5 8558   3.175   4.205   0.343  0.7200  3.3793  0.6704
  573MPD2    N1 8559   2.841   4.569   0.637  0.4454  0.4222  0.0014
  573MPD2    H7 8560   2.853   4.658   0.683 -0.6413  0.0594  1.0231
  574TMC3    C1 8561   3.028   3.997   0.326  0.0106  0.1303 -0.3013
  574TMC3    C2 8562   2.920   3.935   0.278 -0.1663  0.8029  0.3528
  574TMC3    C3 8563   2.941   3.873   0.162  0.0718  0.4298 -0.4880
  574TMC3    C4 8564   3.163   3.980   0.273  0.3898  0.0103  0.3330
  574TMC3    C5 8565   3.178   3.919   0.153  0.2758 -0.1357  0.7150
  574TMC3    C6 8566   3.060   3.872   0.091  0.6618  1.4151  0.1268
  574TMC3     C 8567   2.998   4.111   0.405  0.3124 -0.0552 -0.2576
  574TMC3     O 8568   2.885   4.107   0.453 -0.4580 -0.2055 -0.7562
  574TMC3     H 8569   2.835   3.908   0.339  0.6884  0.5116  1.4068
  574TMC3    H1 8570   3.244   4.012   0.338  0.5256  0.6923 -0.1702
  574TMC3    H2 8571   3.066   3.835  17.741 -0.5136 -1.1560  1.0105
  574TMC3    C7 8572   3.305   3.905   0.089  0.1987  0.0132 -0.1635
  574TMC3    C8 8573   2.826   3.877   0.075  1.0762  0.4196  0.3428
  574TMC3    O1 8574   3.313   3.813   0.012 -0.3799 -0.2655 -0.1280
  574TMC3    O2 8575   2.719   3.843   0.119  0.1316  0.1110  0.0828
  575TMC3    C1 8576   1.171   0.091  11.142  0.0472 -0.3046 -0.3965
  575TMC3    C2 8577   1.108   4.705  11.155  0.6800 -1.0362  0.2540
  575TMC3    C3 8578   1.061   4.639  11.040  0.2807  0.6489  1.2812
  575TMC3    C4 8579   1.209   0.136  11.023 -0.0175 -0.3523  0.7975
  575TMC3    C5 8580   1.175   0.066  10.912 -0.7453 -0.5228 -0.3462
  575TMC3    C6 8581   1.099   4.687  10.913 -0.2283  0.2857  0.2331
  575TMC3     C 8582   1.238   0.137  11.261 -0.9952 -0.1477  0.7750
  575TMC3     O 8583   1.358   0.165  11.244 -0.4171  0.0828 -0.2660
  575TMC3     H 8584   1.093   4.667  11.255 -0.3226  1.0781  0.9153
  575TMC3    H1 8585   1.267   0.227  11.012 -0.8672  0.2923  1.6724
  575TMC3    H2 8586   1.056   4.643  10.824  1.5830 -2.1387  0.5688
  575TMC3    C7 8587   1.195   0.141  10.794  0.2502 -0.2890  0.2972
  575TMC3    C8 8588   0.980   4.520  11.061  0.8135  0.4926  0.2163
  575TMC3    O1 8589   1.221   0.259  10.802 -0.5099 -0.1671  0.5413
  575TMC3    O2 8590   0.957   4.505  11.183 -0.3255 -0.2310 -0.1606
  576MPD2     C 8591   0.711   2.173  12.300  0.3303  0.1323 -0.0993
  576MPD2    C1 8592   0.803   2.102  12.372 -0.1423 -0.4393 -0.3908
  576MPD2    C2 8593   0.760   2.052  12.491 -0.2928  0.0853 -0.1134
  576MPD2    C3 8594   0.632   2.047  12.533  0.5380  0.8244  0.7607
  576MPD2    C4 8595   0.535   2.103  12.455  0.2253  0.4245 -0.2819
  576MPD2    C5 8596   0.577   2.157  12.332 -0.3259 -0.1950 -0.1430
  576MPD2     H 8597   0.833   1.994  12.547  1.1940  2.9946  0.9795
  576MPD2    H1 8598   0.430   2.103  12.482  0.3811  1.8073  0.3053
  576MPD2    H2 8599   0.735   2.219  12.204 -1.8495 -1.7366 -1.5479
  576MPD2    H3 8600   0.499   2.185  12.262 -0.1464  0.7541  0.0390
  576MPD2     N 8601   0.607   1.985  12.656 -0.0619 -0.8650 -0.1973
  576MPD2    H5 8602   0.690   1.943  12.697  0.6500 -0.3518 -1.1046
  576MPD2    N1 8603   0.940   2.096  12.344 -0.7486 -0.1039  0.1175
  576MPD2    H7 8604   1.004   2.055  12.412 -0.3277 -0.6305 -0.5999
  577TMC3    C1 8605   1.140   2.117  12.212 -0.3703 -0.2950  0.1963
  577TMC3    C2 8606   1.198   2.013  12.279 -0.2199  0.6887 -0.0849
  577TMC3    C3 8607   1.318   1.971  12.235 -0.0319  1.0641  0.1082
  577TMC3    C4 8608   1.188   2.164  12.093  0.2362 -0.0544 -0.7531
  577TMC3    C5 8609   1.316   2.118  12.062  0.1195  0.1628 -0.1048
  577TMC3    C6 8610   1.386   2.017  12.121 -0.3245 -0.0108 -0.6533
  577TMC3     C 8611   0.995   2.135  12.222  1.4830  0.1112 -0.3433
  577TMC3     O 8612   0.940   2.163  12.118 -0.1699  0.4156 -0.0923
  577TMC3     H 8613   1.148   1.977  12.369  0.6133  1.1017  0.5519
  577TMC3    H1 8614   1.151   2.251  12.039  0.8776  0.3415 -0.5590
  577TMC3    H2 8615   1.486   1.979  12.104  0.4661  2.4060 -1.3258
  577TMC3    C7 8616   1.373   2.170  11.939 -0.1620  0.0637  0.1652
  577TMC3    C8 8617   1.333   1.826  12.262  0.2318  0.0655 -0.0725
  577TMC3    O1 8618   1.494   2.183  11.941 -0.4047  0.6648 -0.2541
  577TMC3    O2 8619   1.279   1.781  12.362  0.4844  0.5281 -0.0245
  578MPD2     C 8620   3.953   2.084   1.436  0.1121  0.2815  0.0018
  578MPD2    C1 8621   4.033   2.043   1.334 -0.0928  0.6078 -0.0080
  578MPD2    C2 8622   4.138   1.950   1.364 -0.7696 -0.0247 -0.1058
  578MPD2    C3 8623   4.151   1.900   1.491  0.0664  0.4171  0.0048
  578MPD2    C4 8624   4.061   1.933   1.589 -0.0177 -0.4398  0.2163
  578MPD2    C5 8625   3.970   2.031   1.562 -0.3069 -0.3761 -0.2297
  578MPD2     H 8626   4.215   1.921   1.293 -1.1682 -0.7702 -0.2411
  578MPD2    H1 8627   4.061   1.896   1.691 -0.5783  1.9025  1.0800
  578MPD2    H2 8628   3.881   2.165   1.427 -0.2755 -0.0929 -0.2441
  578MPD2    H3 8629   3.916   2.064   1.650  1.2215  0.7077  0.2839
  578MPD2     N 8630   4.258   1.816   1.510  0.1079 -0.4389 -0.2747
  578MPD2    H5 8631   4.309   1.804   1.423 -0.8033 -0.1183 -0.8597
  578MPD2    N1 8632   4.015   2.106   1.209  0.3423  0.2451  0.1123
  578MPD2    H7 8633   3.954   2.186   1.208  1.4229  1.0733  0.0544
  579TMC3    C1 8634   4.421   1.670   1.604  0.3085 -0.2324  0.1019
  579TMC3    C2 8635   4.515   1.663   1.701  0.4126  0.2979  0.1044
  579TMC3    C3 8636   4.629   1.586   1.680  0.0368  0.0412 -0.0985
  579TMC3    C4 8637   4.439   1.613   1.476 -0.3705  0.1268  0.8983
  579TMC3    C5 8638   4.555   1.546   1.461 -0.3222  0.9603  0.2090
  579TMC3    C6 8639   4.648   1.520   1.562  0.1799  0.0261 -0.7638
  579TMC3     C 8640   4.304   1.754   1.626 -0.4722 -0.0764  0.0055
  579TMC3     O 8641   4.261   1.769   1.742  0.2801 -0.6444  0.2472
  579TMC3     H 8642   4.512   1.730   1.787  0.6480  0.4096  0.0263
  579TMC3    H1 8643   4.368   1.629   1.396 -0.0410 -1.1263  0.3490
  579TMC3    H2 8644   4.734   1.455   1.548 -0.9549 -2.1002  2.0953
  579TMC3    C7 8645   4.584   1.484   1.337 -0.8480 -0.2967 -0.4095
  579TMC3    C8 8646   4.732   1.599   1.774 -0.3389 -0.2490 -1.1548
  579TMC3    O1 8647   4.690   1.417   1.336 -0.2979  1.0189 -0.3658
  579TMC3    O2 8648   4.705   1.627   1.888 -0.3291  0.1142 -0.3499
  580TMC3    C1 8649   3.599   0.830  12.551 -0.1270 -0.6755  0.3476
  580TMC3    C2 8650   3.704   0.912  12.543  0.6404  0.3629 -0.2036
  580TMC3    C3 8651   3.828   0.863  12.563 -0.2564 -0.6191 -0.3262
  580TMC3    C4 8652   3.606   0.695  12.588  0.1805  0.0714  0.0390
  580TMC3    C5 8653   3.737   0.644  12.596 -0.4393  0.1116  0.4461
  580TMC3    C6 8654   3.845   0.729  12.589 -0.6494 -0.3359  0.5631
  580TMC3     C 8655   3.511   0.864  12.439 -0.3517  0.5534  0.6553
  580TMC3     O 8656   3.568   0.927  12.351  0.4797 -0.0017 -0.1761
  580TMC3     H 8657   3.684   1.017  12.525  1.6281  0.7922  1.2179
  580TMC3    H1 8658   3.521   0.628  12.587  0.4471 -0.2487 -0.9756
  580TMC3    H2 8659   3.944   0.685  12.582  0.0605  1.2062  0.9990
  580TMC3    C7 8660   3.752   0.505  12.551  0.0067 -0.5378 -0.2093
  580TMC3    C8 8661   3.939   0.921  12.490  0.3572 -0.2126  0.3839
  580TMC3    O1 8662   3.677   0.473  12.463 -0.7630  0.5994 -0.4451
  580TMC3    O2 8663   4.057   0.892  12.518 -0.5851  0.6839 -0.5326
  581MPD2     C 8664   1.311   0.074  14.766 -0.5969  0.1835 -0.3327
  581MPD2    C1 8665   1.189   0.105  14.827 -0.0354  0.8740  0.5334
  581MPD2    C2 8666   1.109   0.207  14.777  0.0596  0.3565 -0.2259
  581MPD2    C3 8667   1.152   0.270  14.659 -0.6441 -0.4804  0.0049
  581MPD2    C4 8668   1.264   0.231  14.595  0.3958  0.2941  0.3030
  581MPD2    C5 8669   1.347   0.137  14.649  0.5033 -0.0775  0.6562
  581MPD2     H 8670   1.015   0.244  14.815  0.0461 -0.1360  0.2268
  581MPD2    H1 8671   1.290   0.285  14.505  0.9038 -0.0910  0.2203
  581MPD2    H2 8672   1.378   0.010  14.822 -2.9639 -3.0321 -1.1516
  581MPD2    H3 8673   1.450   0.130  14.616  0.3482  2.6398 -0.3546
  581MPD2     N 8674   1.073   0.380  14.606 -0.6574  0.1583  0.1828
  581MPD2    H5 8675   0.977   0.391  14.639 -1.2821  1.2249 -2.0063
  581MPD2    N1 8676   1.178   0.056  14.958  0.2883  0.1076 -0.5884
  581MPD2    H7 8677   1.251   4.733  14.994  0.0900 -0.2053 -0.7196
  582TMC3    C1 8678   1.098   0.051  15.178  0.2899 -0.5532  0.2539
  582TMC3    C2 8679   1.223   0.006  15.230 -0.5189 -0.2369  0.0879
  582TMC3    C3 8680   1.228   0.011  15.367  0.4025  0.5779 -0.4429
  582TMC3    C4 8681   0.991   0.088  15.260 -0.4113 -0.1713  0.1263
  582TMC3    C5 8682   1.006   0.072  15.400  0.0757 -0.3953  0.0933
  582TMC3    C6 8683   1.132   0.049  15.449  0.6109 -0.1270  0.1407
  582TMC3     C 8684   1.074   0.095  15.035  0.2322  0.1286 -0.0876
  582TMC3     O 8685   0.970   0.155  15.015  0.1837 -0.1045  0.0460
  582TMC3     H 8686   1.316   4.728  15.176 -0.1298  3.0282 -0.2591
  582TMC3    H1 8687   0.896   0.119  15.217 -0.9613 -2.4018 -0.2756
  582TMC3    H2 8688   1.137   0.051  15.557  0.5367 -0.0894  0.1436
  582TMC3    C7 8689   0.905   0.136  15.486 -0.1905 -0.1282 -0.0747
  582TMC3    C8 8690   1.362   0.015  15.420  1.0632  0.0192 -0.4252
  582TMC3    O1 8691   0.900   0.093  15.602 -0.2222  0.3527 -0.2425
  582TMC3    O2 8692   1.440   4.665  15.382 -0.1099  0.1003  0.3632
  583MPD2     C 8693   1.818   1.943  16.717  0.1251 -0.2345  0.0658
  583MPD2    C1 8694   1.768   2.063  16.665 -0.0532  0.7100  0.5741
  583MPD2    C2 8695   1.654   2.118  16.724 -0.3713  0.1290  0.3623
  583MPD2    C3 8696   1.604   2.066  16.843 -0.0467 -0.3822 -0.1130
  583MPD2    C4 8697   1.658   1.948  16.893 -0.5044 -0.1810 -0.9662
  583MPD2    C5 8698   1.759   1.882  16.820 -0.5373 -0.2051 -0.5445
  583MPD2     H 8699   1.623   2.216  16.690 -1.4093 -0.9159 -1.6715
  583MPD2    H1 8700   1.632   1.897  16.985  0.3495  0.0065 -0.6214
  583MPD2    H2 8701   1.904   1.895  16.670 -0.6525 -0.2027 -1.4136
  583MPD2    H3 8702   1.793   1.782  16.846  0.1575  0.1627 -0.0194
  583MPD2     N 8703   1.500   2.139  16.907 -0.2478 -0.1859 -0.0098
  583MPD2    H5 8704   1.447   2.203  16.850  0.3334 -1.6791 -2.2215
  583MPD2    N1 8705   1.829   2.132  16.555 -0.4606 -0.2331  0.3992
  583MPD2    H7 8706   1.782   2.212  16.514 -0.2031 -0.2476  0.0692
  584TMC3    C1 8707   1.361   2.218  17.073 -0.3590  0.1476  0.1466
  584TMC3    C2 8708   1.345   2.327  16.991 -0.0149 -0.3538  0.2406
  584TMC3    C3 8709   1.298   2.444  17.049 -0.4533 -0.1649  0.6923
  584TMC3    C4 8710   1.337   2.221  17.211  0.0900  0.1531 -0.6690
  584TMC3    C5 8711   1.291   2.339  17.256 -0.0756  0.5194  0.1772
  584TMC3    C6 8712   1.270   2.449  17.179 -0.0238 -0.3412 -0.0364
  584TMC3     C 8713   1.451   2.108  17.033 -0.2098 -0.3272 -0.4154
  584TMC3     O 8714   1.501   2.037  17.118  0.3495 -0.7411  0.2703
  584TMC3     H 8715   1.355   2.331  16.883  0.0477 -0.0012  0.2583
  584TMC3    H1 8716   1.345   2.128  17.267  0.1266  0.1488 -0.6811
  584TMC3    H2 8717   1.239   2.537  17.233 -0.1148 -1.4308  1.6911
  584TMC3    C7 8718   1.254   2.342  17.399 -0.1624 -0.3528  0.3203
  584TMC3    C8 8719   1.349   2.562  16.986 -0.6128  0.6445 -0.8436
  584TMC3    O1 8720   1.297   2.247  17.465 -0.4097  0.1599 -0.2431
  584TMC3    O2 8721   1.330   2.572  16.866  0.2601  0.0759 -0.4719
  585MPD2     C 8722   0.707   0.986   0.553  0.8115 -0.0923  0.1925
  585MPD2    C1 8723   0.788   1.019   0.453 -0.7451 -0.0655 -0.1277
  585MPD2    C2 8724   0.752   0.983   0.326 -0.3417 -0.1534  0.5415
  585MPD2    C3 8725   0.641   0.902   0.299 -0.2199 -0.0863 -0.2738
  585MPD2    C4 8726   0.571   0.859   0.405 -0.0079  0.0876 -0.0946
  585MPD2    C5 8727   0.609   0.898   0.532  0.1326  0.2093 -0.4675
  585MPD2     H 8728   0.800   1.031   0.242 -0.0704  0.5227  1.0885
  585MPD2    H1 8729   0.488   0.790   0.391  0.5309 -0.0988 -2.3937
  585MPD2    H2 8730   0.731   1.018   0.654 -2.7500 -1.2906  1.4177
  585MPD2    H3 8731   0.544   0.874   0.616 -1.6946  0.7812 -1.7164
  585MPD2     N 8732   0.594   0.868   0.169  0.6518 -0.1298 -0.6840
  585MPD2    H5 8733   0.509   0.814   0.161  1.0955 -1.2660  2.0967
  585MPD2    N1 8734   0.891   1.117   0.475  0.5236  0.6792  0.0122
  585MPD2    H7 8735   0.899   1.160   0.566 -1.1649  1.7095 -0.3272
  586TMC3    C1 8736   0.556   0.918  17.686 -0.1744 -0.3586 -0.5166
  586TMC3    C2 8737   0.606   0.965  17.574  0.0838 -0.1747 -0.5718
  586TMC3    C3 8738   0.540   0.965  17.461 -0.0968  0.8037  0.2151
  586TMC3    C4 8739   0.423   0.877  17.699  0.4151  0.2467  0.2784
  586TMC3    C5 8740   0.351   0.886  17.579  0.4297 -0.4929 -0.7057
  586TMC3    C6 8741   0.405   0.931  17.462  0.3659  0.4001 -0.1658
  586TMC3     C 8742   0.646   0.924   0.052 -0.7071  0.4132 -0.3144
  586TMC3     O 8743   0.749   0.985   0.022  0.0443 -0.1508  0.3810
  586TMC3     H 8744   0.705   1.009  17.571  0.1143 -0.0983  1.4777
  586TMC3    H1 8745   0.373   0.856   0.042 -1.2064  0.4703 -0.5258
  586TMC3    H2 8746   0.347   0.952  17.372 -0.9736  0.8770  0.8057
  586TMC3    C7 8747   0.272   0.760  17.561  0.0313 -1.0934 -0.0094
  586TMC3    C8 8748   0.617   0.932  17.344 -0.3630  0.2790  0.3503
  586TMC3    O1 8749   0.281   0.680  17.654  0.4818 -0.0435  0.0938
  586TMC3    O2 8750   0.743   0.941  17.349 -0.6785  0.1919  0.1519
  587TMC3    C1 8751   3.079   4.460  16.630 -0.2188 -0.1067 -0.4173
  587TMC3    C2 8752   3.137   4.578  16.592 -0.5931  0.5222  1.0014
  587TMC3    C3 8753   3.273   4.586  16.613 -0.2041 -0.2572 -0.1677
  587TMC3    C4 8754   3.152   4.358  16.692 -0.2060 -0.5126  0.3264
  587TMC3    C5 8755   3.284   4.373  16.722 -0.2730 -0.2152 -0.5574
  587TMC3    C6 8756   3.350   4.487  16.676  0.3748 -0.1659 -0.7142
  587TMC3     C 8757   2.934   4.440  16.592  0.1649  0.4769  0.3103
  587TMC3     O 8758   2.864   4.536  16.554 -0.1546 -0.2208 -0.0396
  587TMC3     H 8759   3.074   4.646  16.535 -1.2548  0.1542  1.2976
  587TMC3    H1 8760   3.109   4.264  16.725  0.6969 -0.0855  2.7218
  587TMC3    H2 8761   3.453   4.512  16.699 -0.3918  1.3350  1.1069
  587TMC3    C7 8762   3.352   4.279  16.810 -0.6762 -0.1770 -0.2620
  587TMC3    C8 8763   3.342   4.714  16.593 -0.3282 -0.0558 -0.1853
  587TMC3    O1 8764   3.287   4.198  16.875 -0.1362 -0.2628  0.6731
  587TMC3    O2 8765   3.465   4.708  16.589  0.8064  0.1077  0.1704
  588TMC3    C1 8766   0.689   2.851   9.687 -0.2132  1.2676 -0.6597
  588TMC3    C2 8767   0.623   2.731   9.669  0.3895 -0.1689  0.1951
  588TMC3    C3 8768   0.639   2.627   9.756 -0.6573 -0.1924  0.6538
  588TMC3    C4 8769   0.780   2.861   9.791  0.0672 -0.2474  0.7482
  588TMC3    C5 8770   0.795   2.753   9.878  0.5137 -0.1958 -0.2853
  588TMC3    C6 8771   0.718   2.641   9.866 -0.2917 -0.5216  0.1880
  588TMC3     C 8772   0.629   2.983   9.643  0.1238  0.3963 -0.6797
  588TMC3     O 8773   0.515   2.989   9.593 -0.0525  0.1776  0.2704
  588TMC3     H 8774   0.552   2.725   9.587  2.4034 -1.2266 -1.4609
  588TMC3    H1 8775   0.847   2.945   9.804  1.1508 -0.8468 -1.0592
  588TMC3    H2 8776   0.717   2.560   9.938  1.0505 -1.7372 -1.1767
  588TMC3    C7 8777   0.891   2.764   9.988  0.1361 -0.0172 -0.7897
  588TMC3    C8 8778   0.561   2.503   9.744 -0.6669 -0.2963  0.1360
  588TMC3    O1 8779   0.957   2.666  10.020 -0.1170 -0.5049  0.3713
  588TMC3    O2 8780   0.479   2.489   9.653 -0.1682  0.1141 -0.4597
  589TMC3    C1 8781   4.557   0.195   1.035 -0.2140  0.6120 -0.1257
  589TMC3    C2 8782   4.670   0.230   1.099 -0.9329  0.0617  0.2098
  589TMC3    C3 8783   0.033   0.143   1.110  0.6215  0.0271  0.1968
  589TMC3    C4 8784   4.536   0.072   0.981  0.1808  0.0363 -0.0034
  589TMC3    C5 8785   4.641   4.726   0.997 -0.2081  0.1431 -0.0986
  589TMC3    C6 8786   0.022   0.020   1.058  0.4375 -0.2913 -0.2286
  589TMC3     C 8787   4.451   0.292   1.019 -0.0637  0.1383  0.3350
  589TMC3     O 8788   4.377   0.283   0.923 -0.1073 -0.1599  0.0589
  589TMC3     H 8789   4.684   0.328   1.145 -1.9489 -0.1684  0.9890
  589TMC3    H1 8790   4.439   0.044   0.941  0.2917 -0.0004 -0.2428
  589TMC3    H2 8791   0.107   4.691   1.058  0.0461 -0.7800 -1.6092
  589TMC3    C7 8792   4.636   4.599   0.918  0.4368 -0.1178 -0.0576
  589TMC3    C8 8793   0.159   0.206   1.147  0.4067 -0.0656  0.0737
  589TMC3    O1 8794   4.544   4.595   0.839  0.3954  0.4278  0.2863
  589TMC3    O2 8795   0.149   0.307   1.218 -0.3622  0.1424  0.2951
  590MPD2     C 8796   3.987   2.161  16.541  0.2337  0.5866  0.0026
  590MPD2    C1 8797   3.942   2.276  16.493 -1.3457 -1.0096 -0.1065
  590MPD2    C2 8798   4.025   2.364  16.431  0.5284 -0.2621  0.2806
  590MPD2    C3 8799   4.154   2.325  16.413  0.2014 -0.0844  0.3496
  590MPD2    C4 8800   4.206   2.209  16.467 -0.4042  0.7895  0.0796
  590MPD2    C5 8801   4.119   2.127  16.540  0.1061 -0.6160  0.3889
  590MPD2     H 8802   3.986   2.456  16.389 -2.9502 -1.9270 -0.0719
  590MPD2    H1 8803   4.310   2.185  16.451 -0.1681  2.0521 -0.2454
  590MPD2    H2 8804   3.933   2.089  16.602  1.5583  0.0556  0.5505
  590MPD2    H3 8805   4.157   2.034  16.581 -0.7640 -1.8976 -1.6943
  590MPD2     N 8806   4.243   2.419  16.354  1.0644 -0.1456  0.1281
  590MPD2    H5 8807   4.201   2.506  16.322  1.8927 -0.4552 -1.7894
  590MPD2    N1 8808   3.800   2.305  16.509  0.3222 -0.0946 -0.0808
  590MPD2    H7 8809   3.752   2.250  16.580 -2.0885  1.9487 -0.1648
  591TMC3    C1 8810   4.442   2.531  16.276 -0.1043  0.0408  0.2217
  591TMC3    C2 8811   4.545   2.516  16.191  0.8165 -0.0252  0.5589
  591TMC3    C3 8812   4.601   2.626  16.134 -0.1409 -0.3765  0.2546
  591TMC3    C4 8813   4.395   2.654  16.305 -0.4805  0.9037  0.3797
  591TMC3    C5 8814   4.438   2.758  16.230 -0.2396 -0.2670 -0.2512
  591TMC3    C6 8815   4.544   2.749  16.147  1.3874  0.2628 -0.4424
  591TMC3     C 8816   4.376   2.409  16.325  0.8018  0.0053  0.2282
  591TMC3     O 8817   4.448   2.311  16.325 -0.4315  0.2609 -0.5776
  591TMC3     H 8818   4.599   2.422  16.187 -0.0232 -0.4540 -0.6181
  591TMC3    H1 8819   4.308   2.671  16.367  1.7826  0.2212  3.7489
  591TMC3    H2 8820   4.601   2.835  16.114  0.4194  1.1791  0.2402
  591TMC3    C7 8821   4.417   2.881  16.294  0.2137 -0.1103  0.0381
  591TMC3    C8 8822   4.685   2.602  16.020  0.2852  0.4952  0.5531
  591TMC3    O1 8823   4.372   2.879  16.410 -0.2325  0.8876  0.1931
  591TMC3    O2 8824   0.015   2.500  16.015 -0.1510 -0.2764  0.1020
  592MPD2     C 8825   4.117   0.782  11.289 -0.0300 -1.2962  0.6161
  592MPD2    C1 8826   4.159   0.772  11.424  0.2048 -0.5524 -0.5405
  592MPD2    C2 8827   4.106   0.673  11.505  0.4419  0.5079  0.2249
  592MPD2    C3 8828   4.020   0.574  11.460  0.1389 -1.3637  0.0359
  592MPD2    C4 8829   3.980   0.583  11.330 -0.4456 -0.0806  0.3675
  592MPD2    C5 8830   4.034   0.683  11.242 -1.0980  0.3196  0.1554
  592MPD2     H 8831   4.124   0.667  11.611  0.1838  0.7419  0.2784
  592MPD2    H1 8832   3.926   0.503  11.281  0.8522 -0.1811 -0.8881
  592MPD2    H2 8833   4.154   0.860  11.224 -0.2374 -2.3592 -0.7714
  592MPD2    H3 8834   4.016   0.688  11.135  2.5605  1.3880 -0.4282
  592MPD2     N 8835   3.978   0.467  11.543  0.1788  0.6334 -0.2526
  592MPD2    H5 8836   3.990   0.492  11.641 -0.4829 -0.5642  0.1304
  592MPD2    N1 8837   4.248   0.876  11.470  0.8451  0.4075 -0.0559
  592MPD2    H7 8838   4.288   0.938  11.400  0.4474 -2.1024 -2.4700
  593TMC3    C1 8839   4.380   0.999  11.629  0.0246 -0.2171 -0.2291
  593TMC3    C2 8840   4.391   1.058  11.753  0.4541 -0.4228 -0.1067
  593TMC3    C3 8841   4.501   1.140  11.777  0.6409 -0.3187  0.2089
  593TMC3    C4 8842   4.472   1.027  11.533  0.0610 -0.3400  0.5162
  593TMC3    C5 8843   4.589   1.093  11.564 -0.0674 -0.1173  0.3570
  593TMC3    C6 8844   4.603   1.157  11.686  0.2815 -0.4192 -0.5169
  593TMC3     C 8845   4.268   0.905  11.603 -0.0422  0.3424 -0.2757
  593TMC3     O 8846   4.195   0.879  11.696 -0.6674 -0.3496 -0.3190
  593TMC3     H 8847   4.308   1.045  11.822  0.3515 -2.6378 -0.6538
  593TMC3    H1 8848   4.472   0.969  11.441  2.3958 -0.5351  0.6588
  593TMC3    H2 8849   4.695   1.206  11.715 -1.9378  1.1544  3.8812
  593TMC3    C7 8850   4.702   1.113  11.466  0.5031 -0.0650  0.0649
  593TMC3    C8 8851   4.500   1.216  11.904 -0.2438 -0.0545  0.3901
  593TMC3    O1 8852   0.070   1.145  11.519 -0.5267  0.0732 -0.3792
  593TMC3    O2 8853   4.388   1.225  11.956 -0.0982 -0.0151 -0.1562
  594MPD2     C 8854   3.264   3.422  14.380 -0.2443 -0.4924  0.0311
  594MPD2    C1 8855   3.245   3.485  14.499  0.1446 -0.1769  0.3388
  594MPD2    C2 8856   3.333   3.580  14.537 -0.0250 -0.0473  0.4416
  594MPD2    C3 8857   3.443   3.616  14.458 -0.3792  0.0224 -0.2264
  594MPD2    C4 8858   3.472   3.541  14.343 -0.3749  0.1255  0.5350
  594MPD2    C5 8859   3.377   3.441  14.307 -0.0271 -0.3123  0.8674
  594MPD2     H 8860   3.314   3.628  14.633  0.8774  1.9855 -0.3992
  594MPD2    H1 8861   3.555   3.558  14.275 -1.2958 -1.4016 -0.9616
  594MPD2    H2 8862   3.200   3.338  14.357  1.2900 -1.7630  0.4371
  594MPD2    H3 8863   3.399   3.380  14.221 -0.6068  0.8867 -0.1496
  594MPD2     N 8864   3.531   3.722  14.510  0.0468 -0.5245  0.9394
  594MPD2    H5 8865   3.494   3.779  14.585 -0.3787  0.2605  0.1499
  594MPD2    N1 8866   3.156   3.430  14.590  0.3914  0.5312  0.1946
  594MPD2    H7 8867   3.108   3.346  14.558  0.4868  1.3351 -2.1099
  595TMC3    C1 8868   3.829   4.072  14.513 -0.1027  0.3097 -0.1774
  595TMC3    C2 8869   3.791   3.953  14.456  0.1497  0.2682 -0.1693
  595TMC3    C3 8870   3.706   3.873  14.526  0.2514 -0.4357 -0.0095
  595TMC3    C4 8871   3.792   4.108  14.638  0.2921  0.0579 -0.2082
  595TMC3    C5 8872   3.721   4.023  14.706  0.2568 -0.4314  0.7006
  595TMC3    C6 8873   3.672   3.904  14.656 -0.1555 -0.6055 -0.4165
  595TMC3     C 8874   3.957   4.139  14.476 -0.2831  0.9127  0.0085
  595TMC3     O 8875   3.989   4.241  14.537 -0.0676 -0.2716  0.0267
  595TMC3     H 8876   3.822   3.926  14.356  1.8335  1.9015 -0.0880
  595TMC3    H1 8877   3.834   4.196  14.685 -0.3204  0.2063  0.0710
  595TMC3    H2 8878   3.619   3.833  14.719 -0.8131  0.4971  0.2739
  595TMC3    C7 8879   3.711   4.053  14.843  0.3165 -0.7683  0.1608
  595TMC3    C8 8880   3.651   3.759  14.456 -0.0999  0.4131 -0.4826
  595TMC3    O1 8881   3.675   4.164  14.877  0.0350  0.6233  0.0943
  595TMC3    O2 8882   3.704   3.724  14.354  0.0113 -0.3476 -0.3526
  596MPD2     C 8883   2.632   1.959  16.843  0.2201 -1.1766 -0.6060
  596MPD2    C1 8884   2.589   2.063  16.762 -0.0098  0.3980  0.2769
  596MPD2    C2 8885   2.621   2.057  16.628 -0.2089  0.3484  0.0986
  596MPD2    C3 8886   2.670   1.945  16.572 -0.4183  0.3677  0.0545
  596MPD2    C4 8887   2.711   1.839  16.651  0.3573 -0.1812 -0.1581
  596MPD2    C5 8888   2.695   1.853  16.785  0.3894 -0.6860 -0.3077
  596MPD2     H 8889   2.605   2.142  16.564 -1.5570 -0.1194 -0.1771
  596MPD2    H1 8890   2.750   1.744  16.618  0.9638  0.8823 -2.4926
  596MPD2    H2 8891   2.620   1.966  16.950 -1.1934  1.8253 -0.9755
  596MPD2    H3 8892   2.716   1.764  16.843  1.6697 -0.6430 -0.7184
  596MPD2     N 8893   2.690   1.933  16.435 -0.3954 -0.4940 -0.6688
  596MPD2    H5 8894   2.741   1.848  16.415  2.6370  1.3397 -0.7063
  596MPD2    N1 8895   2.528   2.179  16.811 -0.3849 -0.1586  0.0800
  596MPD2    H7 8896   2.511   2.254  16.745  2.0648  0.4804  0.1446
  597TMC3    C1 8897   2.462   2.343  16.964 -0.1186  0.6407  0.2860
  597TMC3    C2 8898   2.501   2.432  16.867  0.7463 -0.5276 -0.0875
  597TMC3    C3 8899   2.456   2.562  16.886 -0.1883  0.6377  0.0865
  597TMC3    C4 8900   2.375   2.365  17.058  0.0404 -1.0923 -0.5518
  597TMC3    C5 8901   2.322   2.492  17.069  0.3041 -0.2262 -0.1406
  597TMC3    C6 8902   2.354   2.585  16.980  0.9902  0.0850  0.4126
  597TMC3     C 8903   2.500   2.204  16.942  0.1427 -0.7566 -0.0728
  597TMC3     O 8904   2.477   2.126  17.031 -0.7458  0.3437  0.2615
  597TMC3     H 8905   2.576   2.415  16.790  2.7371  1.3466  1.4116
  597TMC3    H1 8906   2.362   2.296  17.140 -0.2268  0.4814  0.7341
  597TMC3    H2 8907   2.312   2.685  16.978  0.2186 -0.2123  1.4147
  597TMC3    C7 8908   2.202   2.511  17.154  0.3700 -0.0088 -0.4044
  597TMC3    C8 8909   2.526   2.676  16.834 -0.1449  0.1133  0.4891
  597TMC3    O1 8910   2.157   2.408  17.203  0.5591 -0.3265 -0.5290
  597TMC3    O2 8911   2.457   2.774  16.799 -0.0144 -0.3016 -0.2659
  598TMC3    C1 8912   0.642   3.385  15.507 -0.4982  0.1356  0.2736
  598TMC3    C2 8913   0.563   3.274  15.517 -0.6401  0.6496  0.5174
  598TMC3    C3 8914   0.480   3.247  15.413  0.5347  0.0600 -0.0851
  598TMC3    C4 8915   0.638   3.474  15.400 -0.5699  0.7743  0.1251
  598TMC3    C5 8916   0.547   3.450  15.300 -0.5507 -0.2714 -0.1473
  598TMC3    C6 8917   0.470   3.335  15.307 -0.2406  0.5566  0.1381
  598TMC3     C 8918   0.711   3.433  15.628  0.1724  0.1466  0.1023
  598TMC3     O 8919   0.755   3.545  15.613 -0.1212 -0.4930  0.1438
  598TMC3     H 8920   0.544   3.226  15.613 -0.8893 -0.7825 -0.2508
  598TMC3    H1 8921   0.705   3.559  15.399 -0.9029  1.0758  2.1833
  598TMC3    H2 8922   0.400   3.313  15.227 -0.2327  0.5696  0.1277
  598TMC3    C7 8923   0.568   3.510  15.173 -0.1056  0.0782  0.0823
  598TMC3    C8 8924   0.416   3.119  15.407 -0.1783  0.9744 -0.1300
  598TMC3    O1 8925   0.498   3.474  15.079 -0.6259  0.0987 -0.1064
  598TMC3    O2 8926   0.464   3.035  15.484 -0.9690  0.1077  0.1589
  599MPD2     C 8927   1.038   0.987  15.944 -0.1270 -0.0734 -0.1438
  599MPD2    C1 8928   0.932   0.896  15.937  0.2240 -0.1846  0.7971
  599MPD2    C2 8929   0.807   0.942  15.976  0.0442  0.6089 -0.2517
  599MPD2    C3 8930   0.782   1.072  16.016  0.0044 -0.3538 -0.4741
  599MPD2    C4 8931   0.891   1.155  16.037  0.5538 -0.5541 -0.5275
  599MPD2    C5 8932   1.018   1.111  15.999  0.0737  0.2291 -0.0650
  599MPD2     H 8933   0.727   0.870  15.979  1.2863 -0.7857 -0.5445
  599MPD2    H1 8934   0.876   1.255  16.074  2.0687  0.1621 -1.8224
  599MPD2    H2 8935   1.141   0.959  15.927  1.1805  3.5487  1.8662
  599MPD2    H3 8936   1.102   1.180  16.003  1.1542 -1.0906 -0.2626
  599MPD2     N 8937   0.653   1.116  16.065 -0.1837 -0.0792  0.3521
  599MPD2    H5 8938   0.642   1.204  16.115 -1.6248 -0.2039  0.2590
  599MPD2    N1 8939   0.968   0.762  15.892  0.2509 -0.3683  0.0724
  599MPD2    H7 8940   1.062   0.744  15.860  0.9182  4.2783 -0.4905
  600TMC3    C1 8941   0.422   1.091  16.120 -0.0363 -0.0567 -0.2678
  600TMC3    C2 8942   0.295   1.035  16.097 -0.0630 -0.4299  0.0243
  600TMC3    C3 8943   0.195   1.063  16.191 -0.6470 -0.1028  0.2627
  600TMC3    C4 8944   0.440   1.180  16.219 -0.0784 -0.2196 -0.0323
  600TMC3    C5 8945   0.333   1.208  16.300 -0.2017 -0.9992  0.2775
  600TMC3    C6 8946   0.210   1.159  16.279  0.2417  0.3241 -1.1048
  600TMC3     C 8947   0.537   1.038  16.045  0.2533  0.2699 -0.6203
  600TMC3     O 8948   0.510   0.954  15.961  0.1787 -0.3688 -0.2466
  600TMC3     H 8949   0.283   0.967  16.014 -2.5825  1.7135 -1.3646
  600TMC3    H1 8950   0.539   1.204  16.255 -0.3090 -0.7875  0.9818
  600TMC3    H2 8951   0.132   1.179  16.351 -0.6095 -2.0535 -1.3688
  600TMC3    C7 8952   0.368   1.284  16.424  0.0058  0.5985 -0.0792
  600TMC3    C8 8953   0.082   0.973  16.193 -0.0288 -0.8480  0.1000
  600TMC3    O1 8954   0.291   1.378  16.450 -0.3009 -0.2239  0.2332
  600TMC3    O2 8955   0.038   0.927  16.091  0.6610 -0.0079 -0.5266
  601MPD2     C 8956   2.361   4.240   0.045 -0.3618  0.1254  0.7404
  601MPD2    C1 8957   2.263   4.190  17.708 -0.0294 -0.6188  0.7045
  601MPD2    C2 8958   2.170   4.103   0.007 -0.5210 -0.1040  0.1808
  601MPD2    C3 8959   2.165   4.068   0.141  0.4871  0.6500 -0.4308
  601MPD2    C4 8960   2.257   4.128   0.219  0.8771 -0.6910  0.5180
  601MPD2    C5 8961   2.354   4.215   0.178  0.5697 -0.9110  0.4641
  601MPD2     H 8962   2.099   4.055  17.692  1.9387  0.6723 -3.0060
  601MPD2    H1 8963   2.262   4.100   0.324 -0.2706 -2.0600  0.1969
  601MPD2    H2 8964   2.438   4.308   0.012 -0.1744 -0.3242  0.2542
  601MPD2    H3 8965   2.431   4.251   0.245  3.2776 -1.1079 -2.5666
  601MPD2     N 8966   2.071   3.978   0.202 -0.2746 -0.7486 -0.0936
  601MPD2    H5 8967   2.083   3.969   0.302 -1.8191  2.3883  0.3888
  601MPD2    N1 8968   2.251   4.229  17.572 -0.2542  0.3724 -0.1128
  601MPD2    H7 8969   2.174   4.197  17.514  2.6579 -2.4308 -2.4087
  602TMC3    C1 8970   2.285   4.375  17.386 -0.4251 -0.6076  0.5964
  602TMC3    C2 8971   2.362   4.482  17.338  0.1098 -0.4949  0.4506
  602TMC3    C3 8972   2.326   4.530  17.214 -0.1092 -0.4630 -0.2558
  602TMC3    C4 8973   2.180   4.324  17.318 -0.5953 -0.0355 -1.1019
  602TMC3    C5 8974   2.147   4.372  17.191 -0.2652 -0.9493 -0.5068
  602TMC3    C6 8975   2.226   4.476  17.141  0.0329 -0.7573 -0.1501
  602TMC3     C 8976   2.334   4.329  17.515 -0.2395  0.3293  0.1294
  602TMC3     O 8977   2.421   4.394  17.566 -0.5697 -0.0607  0.1200
  602TMC3     H 8978   2.452   4.519  17.386 -0.4082  0.2872  0.8172
  602TMC3    H1 8979   2.136   4.230  17.350 -0.5831  0.2943 -0.1177
  602TMC3    H2 8980   2.205   4.508  17.039  0.4145  1.0196  0.3210
  602TMC3    C7 8981   2.045   4.305  17.114 -0.2045  0.0740  0.1835
  602TMC3    C8 8982   2.398   4.656  17.166  0.2956 -0.3225 -0.6733
  602TMC3    O1 8983   1.990   4.209  17.169  0.3552 -0.3291 -0.5581
  602TMC3    O2 8984   2.506   4.695  17.204 -0.1811  0.1510  0.3140
  603TMC3    C1 8985   0.847   0.133  10.659 -0.2782  0.0403  0.6185
  603TMC3    C2 8986   0.840   0.122  10.791 -0.4052  0.0135 -0.3441
  603TMC3    C3 8987   0.863   0.227  10.867  0.2820  0.6516  0.6302
  603TMC3    C4 8988   0.838   0.253  10.591  0.0704  0.5658 -0.1661
  603TMC3    C5 8989   0.831   0.364  10.673 -0.6408 -0.7293  0.0261
  603TMC3    C6 8990   0.853   0.352  10.807 -0.6061 -0.5662 -0.1806
  603TMC3     C 8991   0.843   0.010  10.581  0.0321  0.2983 -0.4656
  603TMC3     O 8992   0.892   4.655  10.640  0.1107  0.2538 -0.0721
  603TMC3     H 8993   0.847   0.023  10.833 -1.9493  0.0660  0.0534
  603TMC3    H1 8994   0.849   0.261  10.484 -1.1511  2.5041 -0.1331
  603TMC3    H2 8995   0.843   0.442  10.867  0.7568 -0.3856 -0.2171
  603TMC3    C7 8996   0.798   0.494  10.613  0.5986  0.6342 -0.6081
  603TMC3    C8 8997   0.853   0.202  11.012 -0.5559  0.1900  0.7160
  603TMC3    O1 8998   0.797   0.599  10.680 -0.1474  0.1442  0.6778
  603TMC3    O2 8999   0.816   0.094  11.043 -0.4687  0.1829 -0.6392
  604MPD2     C 9000   1.955   3.192  16.568  0.4800  0.0717 -0.3926
  604MPD2    C1 9001   1.831   3.144  16.526 -0.1510  0.1841 -0.0272
  604MPD2    C2 9002   1.809   3.081  16.406 -0.0330  0.1422  0.2724
  604MPD2    C3 9003   1.915   3.071  16.317  0.1847 -0.1360  0.0090
  604MPD2    C4 9004   2.038   3.132  16.356  0.2002 -0.3191  0.6934
  604MPD2    C5 9005   2.063   3.182  16.483 -0.4570  0.4639 -0.2472
  604MPD2     H 9006   1.706   3.063  16.377 -0.5663  0.8351  1.7375
  604MPD2    H1 9007   2.117   3.136  16.281 -0.4208 -1.7673 -0.0516
  604MPD2    H2 9008   1.954   3.245  16.663  1.5225 -0.0349 -0.3190
  604MPD2    H3 9009   2.160   3.222  16.511 -1.5608  1.7376  1.7081
  604MPD2     N 9010   1.896   3.008  16.192 -0.2129 -0.1335  0.0890
  604MPD2    H5 9011   1.803   2.971  16.179 -0.6693  1.6081 -1.5518
  604MPD2    N1 9012   1.719   3.173  16.616 -0.4923  0.1563  0.1753
  604MPD2    H7 9013   1.743   3.234  16.693  1.1165  1.9201 -1.7354
  605TMC3    C1 9014   1.503   3.202  16.702  1.0791 -0.5099 -1.0874
  605TMC3    C2 9015   1.573   3.259  16.803  0.5493  0.8669 -0.1061
  605TMC3    C3 9016   1.540   3.391  16.834 -0.3403  0.2043 -0.2390
  605TMC3    C4 9017   1.400   3.263  16.635  0.0607  0.4897  0.5848
  605TMC3    C5 9018   1.376   3.391  16.666 -0.3670 -0.2808  0.9613
  605TMC3    C6 9019   1.446   3.459  16.766 -0.9823  0.1285 -0.3971
  605TMC3     C 9020   1.587   3.134  16.600 -0.3988 -0.1549 -0.0807
  605TMC3     O 9021   1.529   3.072  16.510  0.3352  0.7431 -0.0558
  605TMC3     H 9022   1.628   3.199  16.875 -0.1315  1.0285  0.5385
  605TMC3    H1 9023   1.352   3.209  16.554 -2.1815  1.8288  1.0340
  605TMC3    H2 9024   1.428   3.563  16.789  0.2774  0.6850 -1.9370
  605TMC3    C7 9025   1.259   3.460  16.605  0.2781 -0.3193  0.0296
  605TMC3    C8 9026   1.659   3.464  16.864 -0.5497  0.9404 -0.2154
  605TMC3    O1 9027   1.258   3.582  16.596 -0.1331 -0.1372 -0.1880
  605TMC3    O2 9028   1.736   3.460  16.768 -0.1070 -0.0019  0.1372
  606TMC3    C1 9029   1.986   1.594   0.332 -0.4311  0.1180 -0.7182
  606TMC3    C2 9030   1.998   1.721   0.382  0.4473  0.1186 -0.8706
  606TMC3    C3 9031   2.028   1.820   0.301  0.2716  0.2057 -0.1756
  606TMC3    C4 9032   2.006   1.566   0.201  0.9580  0.5569  0.0608
  606TMC3    C5 9033   2.058   1.676   0.124  0.0746  0.3406 -0.3618
  606TMC3    C6 9034   2.064   1.801   0.174  0.3177 -0.0248  0.1910
  606TMC3     C 9035   1.921   1.489   0.409  0.6932 -0.2211  0.0332
  606TMC3     O 9036   1.858   1.535   0.502  0.0909 -1.0941 -0.1711
  606TMC3     H 9037   1.952   1.742   0.478  0.6381 -2.4339 -0.2366
  606TMC3    H1 9038   1.968   1.480   0.146  1.8423  0.5303 -0.5081
  606TMC3    H2 9039   2.109   1.880   0.115 -2.1981 -0.7753 -2.7430
  606TMC3    C7 9040   2.078   1.670  17.738  0.3490 -0.5151  0.5207
  606TMC3    C8 9041   2.106   1.921   0.374  0.1892 -0.0848  0.1206
  606TMC3    O1 9042   2.060   1.777  17.681  0.2740 -0.2323  0.5736
  606TMC3    O2 9043   2.162   1.875   0.469  0.3547 -0.0305  0.4565
  607MPD2     C 9044   4.427   0.572  11.637  0.7109 -0.0173 -0.7452
  607MPD2    C1 9045   4.518   0.625  11.720  0.4064 -0.1467  0.3674
  607MPD2    C2 9046   4.519   0.590  11.849  0.8397  0.1405 -0.5017
  607MPD2    C3 9047   4.434   0.498  11.901  0.8967 -0.1313  0.4488
  607MPD2    C4 9048   4.341   0.439  11.818 -0.2640 -0.0146  0.2114
  607MPD2    C5 9049   4.337   0.472  11.681  0.4685 -0.1235 -0.1617
  607MPD2     H 9050   4.603   0.629  11.906  0.2157 -1.6288  1.6245
  607MPD2    H1 9051   4.269   0.367  11.853  2.0345 -2.2256  0.3996
  607MPD2    H2 9052   4.420   0.596  11.532  1.7637 -1.3752 -1.1296
  607MPD2    H3 9053   4.263   0.429  11.614 -0.0366 -1.0985  1.0318
  607MPD2     N 9054   4.447   0.469  12.040  0.6188  0.3299 -0.0287
  607MPD2    H5 9055   4.515   0.517  12.098  1.6233  1.5908 -2.2591
  607MPD2    N1 9056   4.627   0.696  11.675  0.8319 -0.3793 -0.5530
  607MPD2    H7 9057   4.690   0.727  11.748 -0.1477  0.5314 -0.0905
  608TMC3    C1 9058   0.070   0.780  11.548 -0.2225 -0.2198  0.5778
  608TMC3    C2 9059   0.144   0.779  11.664 -0.0510  0.7632  0.3753
  608TMC3    C3 9060   0.280   0.782  11.656  0.8299 -0.4743 -0.1485
  608TMC3    C4 9061   0.133   0.792  11.426  0.6439  0.7191  0.5868
  608TMC3    C5 9062   0.268   0.789  11.426 -0.1710  0.5834  0.2194
  608TMC3    C6 9063   0.349   0.792  11.539 -0.3338  0.0225  0.5269
  608TMC3     C 9064   4.669   0.737  11.548 -0.1745  0.1284 -0.7461
  608TMC3     O 9065   4.611   0.740  11.440 -0.8201 -0.4446  0.8894
  608TMC3     H 9066   0.094   0.765  11.760  1.4630 -1.2734  0.8775
  608TMC3    H1 9067   0.077   0.787  11.334  1.2325  0.8408  0.2175
  608TMC3    H2 9068   0.456   0.807  11.553 -0.4370  1.0438  0.1954
  608TMC3    C7 9069   0.339   0.768  11.302  0.2874 -0.2710 -1.2718
  608TMC3    C8 9070   0.360   0.743  11.772  0.2304 -0.5765  0.2755
  608TMC3    O1 9071   0.269   0.764  11.202  0.2141  0.8579 -0.2250
  608TMC3    O2 9072   0.481   0.756  11.776  0.0127  0.8402  0.3767
  609TMC3    C1 9073   3.708   3.813   8.957 -0.3346  0.1546 -0.0634
  609TMC3    C2 9074   3.621   3.712   8.925 -0.0566  0.2143  0.3747
  609TMC3    C3 9075   3.669   3.597   8.879  0.1006 -0.0536 -0.4351
  609TMC3    C4 9076   3.842   3.792   8.942 -0.3706 -0.3207 -0.2857
  609TMC3    C5 9077   3.890   3.673   8.904  0.1670  0.1448 -0.4976
  609TMC3    C6 9078   3.805   3.571   8.870  0.0841  0.3279  0.3019
  609TMC3     C 9079   3.648   3.943   9.006 -0.0945  0.5327 -0.7375
  609TMC3     O 9080   3.527   3.943   9.016 -0.1450 -0.4595  0.3598
  609TMC3     H 9081   3.515   3.726   8.943  0.2507  1.9811  0.7865
  609TMC3    H1 9082   3.907   3.874   8.969  0.2676 -0.7886 -0.4124
  609TMC3    H2 9083   3.844   3.470   8.868 -0.0797  0.3330 -2.2720
  609TMC3    C7 9084   4.029   3.640   8.926 -0.6983 -0.5574  0.4537
  609TMC3    C8 9085   3.573   3.498   8.833 -0.2835 -0.7070 -0.1995
  609TMC3    O1 9086   4.080   3.698   9.024 -0.0622  0.3557  0.0867
  609TMC3    O2 9087   3.451   3.526   8.851 -0.4728 -0.2795  0.3422
  610TMC3    C1 9088   0.036   0.509  13.440  0.4150  0.0432 -0.2982
  610TMC3    C2 9089   0.036   0.580  13.318 -0.0784 -0.0973  0.1583
  610TMC3    C3 9090   0.115   0.523  13.219 -0.0333 -0.7905 -0.0501
  610TMC3    C4 9091   0.098   0.389  13.461  0.1905  0.2284  0.4616
  610TMC3    C5 9092   0.173   0.340  13.356  0.6597  0.1646  0.7890
  610TMC3    C6 9093   0.188   0.409  13.233  0.4012  0.0437 -0.1314
  610TMC3     C 9094   4.679   0.543  13.540 -0.1638 -0.2016  0.2623
  610TMC3     O 9095   4.683   0.464  13.633  0.4368  0.2596 -0.6643
  610TMC3     H 9096   4.706   0.660  13.291  2.3433  1.8714 -0.1190
  610TMC3    H1 9097   0.108   0.339  13.557  1.8064 -0.5313 -0.1031
  610TMC3    H2 9098   0.258   0.369  13.160 -1.2314 -2.2475 -0.4583
  610TMC3    C7 9099   0.235   0.214  13.368 -0.7603 -0.1738  0.3131
  610TMC3    C8 9100   0.130   0.587  13.087 -0.6537  0.3986  0.3275
  610TMC3    O1 9101   0.346   0.194  13.321  0.3963 -0.0133 -0.1596
  610TMC3    O2 9102   0.189   0.527  12.999 -0.1731 -0.0287  0.2775
  611MPD2     C 9103   0.139   4.701  10.156 -0.0412 -0.1945 -0.0380
  611MPD2    C1 9104   0.048   0.046  10.096 -0.3118  0.1356  0.8156
  611MPD2    C2 9105   0.096   0.151  10.024  0.2258  0.0194 -0.3252
  611MPD2    C3 9106   0.234   0.170  10.021 -0.5222 -0.2366  0.6551
  611MPD2    C4 9107   0.324   0.087  10.094  0.4138 -0.0060  0.2628
  611MPD2    C5 9108   0.269   4.722  10.161  0.2214  0.1028 -0.3527
  611MPD2     H 9109   0.031   0.214   9.964 -2.5761 -2.8608 -0.2972
  611MPD2    H1 9110   0.430   0.111  10.098  0.6899 -0.6735 -3.1692
  611MPD2    H2 9111   0.105   4.617  10.216  1.6733 -0.4791  0.5420
  611MPD2    H3 9112   0.331   4.669  10.233 -1.3378 -1.0974  0.0989
  611MPD2     N 9113   0.287   0.278   9.947 -0.6420 -0.3941  0.2064
  611MPD2    H5 9114   0.383   0.303   9.967 -0.4393  0.1083 -1.3307
  611MPD2    N1 9115   4.649   0.015  10.113 -0.7284  0.0464 -0.9974
  611MPD2    H7 9116   4.632   4.675  10.176 -3.5951  0.5409 -1.1443
  612TMC3    C1 9117   0.278   0.476   9.829 -0.1251 -0.0500  0.7650
  612TMC3    C2 9118   0.366   0.533   9.917 -0.0281 -0.2399  0.1923
  612TMC3    C3 9119   0.414   0.655   9.893  0.3245  0.6850 -0.2578
  612TMC3    C4 9120   0.241   0.545   9.725  0.1685  0.4261  0.0137
  612TMC3    C5 9121   0.282   0.678   9.707 -0.4438  0.6773  0.4785
  612TMC3    C6 9122   0.369   0.736   9.792  0.0631 -0.1278 -0.2808
  612TMC3     C 9123   0.215   0.353   9.861 -0.1083  0.4479 -0.0510
  612TMC3     O 9124   0.114   0.324   9.798 -0.5322 -0.4346  0.0088
  612TMC3     H 9125   0.354   0.504  10.021  0.1043  0.0634  0.2902
  612TMC3    H1 9126   0.172   0.505   9.652  0.8101  0.5572 -0.6671
  612TMC3    H2 9127   0.406   0.836   9.770 -1.7427  0.5359 -0.3383
  612TMC3    C7 9128   0.229   0.758   9.599  0.3668 -0.3274  0.3533
  612TMC3    C8 9129   0.494   0.719   9.988  0.3924  0.3717  0.4007
  612TMC3    O1 9130   0.286   0.865   9.571 -0.7848 -0.0961 -0.0020
  612TMC3    O2 9131   0.503   0.844   9.982  0.2456  0.4734  0.4677
  613MPD2     C 9132   4.536   2.163  15.440 -0.0628 -0.1822 -0.5392
  613MPD2    C1 9133   4.405   2.194  15.483  0.2204 -0.0287 -0.2687
  613MPD2    C2 9134   4.320   2.092  15.523 -0.3212  0.3691  0.3276
  613MPD2    C3 9135   4.369   1.959  15.522  0.1900 -1.2614 -0.3870
  613MPD2    C4 9136   4.489   1.935  15.459  0.4881  0.3923  0.1628
  613MPD2    C5 9137   4.573   2.034  15.421 -0.0810  0.4576  0.2479
  613MPD2     H 9138   4.218   2.118  15.547 -1.1043  0.2396 -2.8227
  613MPD2    H1 9139   4.522   1.836  15.431 -1.0245 -0.5562  1.7566
  613MPD2    H2 9140   4.595   2.248  15.409  1.9176 -0.6941  1.8386
  613MPD2    H3 9141   4.674   2.015  15.386 -1.3358 -1.8661 -2.1213
  613MPD2     N 9142   4.281   1.851  15.527 -0.4415  0.3140  0.3123
  613MPD2    H5 9143   4.313   1.760  15.496 -0.7219  0.2369  0.2540
  613MPD2    N1 9144   4.370   2.332  15.469  0.2793 -0.0134  0.2197
  613MPD2    H7 9145   4.445   2.390  15.432 -0.0317 -0.0555 -0.4866
  614TMC3    C1 9146   4.225   2.494  15.394  0.7347  0.5439  0.2593
  614TMC3    C2 9147   4.264   2.463  15.262 -0.6220 -0.4092  0.4776
  614TMC3    C3 9148   4.172   2.484  15.168 -0.8231 -0.1671  0.0322
  614TMC3    C4 9149   4.113   2.578  15.419 -1.4126  1.1056 -0.7122
  614TMC3    C5 9150   4.030   2.607  15.315 -0.0544 -0.5991  0.2228
  614TMC3    C6 9151   4.060   2.566  15.191  0.1904  0.3148  0.2341
  614TMC3     C 9152   4.244   2.382  15.480 -0.2730  0.0359 -0.6270
  614TMC3     O 9153   4.142   2.328  15.528  0.4036  0.2844 -0.3331
  614TMC3     H 9154   4.347   2.396  15.242  1.2053  2.0063 -0.0958
  614TMC3    H1 9155   4.081   2.588  15.522  2.2145  0.6116  0.4616
  614TMC3    H2 9156   3.997   2.592  15.107  1.2231 -1.7606 -1.1871
  614TMC3    C7 9157   3.888   2.604  15.344 -0.3565  0.7306 -0.1414
  614TMC3    C8 9158   4.133   2.360  15.111 -0.4660 -0.7105  0.6660
  614TMC3    O1 9159   3.851   2.670  15.440 -0.3650  0.2234  0.2591
  614TMC3    O2 9160   4.016   2.329  15.111 -0.4799  0.2606  0.4927
  615MPD2     C 9161   3.334   3.278  16.405 -0.8572 -0.2821  0.0436
  615MPD2    C1 9162   3.315   3.414  16.366  0.6724  0.4349 -0.0199
  615MPD2    C2 9163   3.264   3.440  16.237  0.3104  0.1525  0.2501
  615MPD2    C3 9164   3.254   3.344  16.140  0.4891 -0.1460 -0.3367
  615MPD2    C4 9165   3.293   3.213  16.168 -0.8001 -0.0858  0.1554
  615MPD2    C5 9166   3.318   3.185  16.302  0.0228 -0.8119  0.5931
  615MPD2     H 9167   3.228   3.540  16.221  1.6985  0.5114 -0.6404
  615MPD2    H1 9168   3.278   3.125  16.107  3.2439  0.3282 -1.4163
  615MPD2    H2 9169   3.353   3.237  16.504 -1.3737 -0.2243  0.1679
  615MPD2    H3 9170   3.344   3.083  16.328 -1.0706 -1.5699 -1.2397
  615MPD2     N 9171   3.211   3.367  16.006 -0.4982  0.3987  0.1540
  615MPD2    H5 9172   3.137   3.436  15.991  1.0453  2.0004 -0.1569
  615MPD2    N1 9173   3.324   3.519  16.460 -0.5425 -0.6569  0.7451
  615MPD2    H7 9174   3.302   3.614  16.431  1.3511 -1.4074 -3.1671
  616TMC3    C1 9175   3.405   3.638  16.647  0.9767  0.1191  0.3767
  616TMC3    C2 9176   3.428   3.739  16.565 -0.2310  0.1402 -0.2049
  616TMC3    C3 9177   3.423   3.866  16.618  0.3298 -0.1327 -0.1354
  616TMC3    C4 9178   3.388   3.646  16.782 -0.1953 -0.1538 -0.1986
  616TMC3    C5 9179   3.377   3.776  16.829 -0.0727  0.2063 -0.1467
  616TMC3    C6 9180   3.396   3.888  16.751 -0.0725  0.2703 -0.0304
  616TMC3     C 9181   3.375   3.508  16.590  0.2205  0.5571  0.2038
  616TMC3     O 9182   3.394   3.407  16.663  0.1016 -0.0143  0.1384
  616TMC3     H 9183   3.448   3.731  16.459 -3.1738  2.0478 -0.9065
  616TMC3    H1 9184   3.373   3.553  16.837 -0.3879 -0.5086 -0.8507
  616TMC3    H2 9185   3.383   3.988  16.793 -1.1806  0.2142 -0.2368
  616TMC3    C7 9186   3.382   3.786  16.980 -0.1757 -0.4517 -0.3074
  616TMC3    C8 9187   3.475   3.969  16.536 -0.3364  0.4583  0.5854
  616TMC3    O1 9188   3.428   3.694  17.048 -0.1473  0.3599  0.2535
  616TMC3    O2 9189   3.414   4.073  16.506  0.3704 -0.4077  0.2454
  617MPD2     C 9190   1.727   1.537  13.330  0.0477 -0.2067  0.2943
  617MPD2    C1 9191   1.673   1.529  13.456 -1.6823 -0.8143  0.0739
  617MPD2    C2 9192   1.564   1.446  13.496 -0.2644 -0.5851  0.0197
  617MPD2    C3 9193   1.493   1.388  13.397  0.3043  0.3256 -0.2940
  617MPD2    C4 9194   1.553   1.388  13.274  0.2762 -0.1893 -0.2094
  617MPD2    C5 9195   1.667   1.455  13.241  0.6121 -0.8843 -0.5580
  617MPD2     H 9196   1.543   1.445  13.603  1.6599 -1.4212  0.3835
  617MPD2    H1 9197   1.505   1.329  13.197 -1.5280 -0.3544  1.0420
  617MPD2    H2 9198   1.812   1.596  13.298 -1.6472  1.1158 -1.7894
  617MPD2    H3 9199   1.692   1.461  13.135 -1.1256  1.0646 -0.8648
  617MPD2     N 9200   1.373   1.312  13.404 -0.3041 -0.0676  0.7410
  617MPD2    H5 9201   1.323   1.294  13.318  0.6537  1.9052 -0.2440
  617MPD2    N1 9202   1.734   1.620  13.547 -0.5124  0.7480  0.4216
  617MPD2    H7 9203   1.795   1.693  13.510  0.8752 -0.7271 -0.2042
  618TMC3    C1 9204   1.772   1.737  13.750  0.3468  0.2233 -0.1918
  618TMC3    C2 9205   1.847   1.691  13.851  0.3302 -0.2514 -0.1870
  618TMC3    C3 9206   1.949   1.768  13.902 -0.7429 -0.5328  0.2285
  618TMC3    C4 9207   1.798   1.856  13.686  0.0600  0.1001  0.1128
  618TMC3    C5 9208   1.891   1.938  13.753  0.4879 -0.0939 -0.0678
  618TMC3    C6 9209   1.968   1.897  13.858 -0.5659  0.2113 -0.3858
  618TMC3     C 9210   1.703   1.627  13.682  0.6802  0.2191 -1.4122
  618TMC3     O 9211   1.658   1.543  13.757  0.0080 -0.2119 -1.2020
  618TMC3     H 9212   1.830   1.594  13.896  0.4906  0.1000  0.6284
  618TMC3    H1 9213   1.738   1.889  13.603  1.9462  1.4123 -0.7305
  618TMC3    H2 9214   2.048   1.962  13.890  0.9779 -1.8857 -0.0112
  618TMC3    C7 9215   1.933   2.051  13.668  0.0414  0.0682  0.6890
  618TMC3    C8 9216   2.036   1.702  13.992  0.0648 -0.4123 -1.0763
  618TMC3    O1 9217   1.842   2.127  13.635 -0.6150  0.2321  0.4701
  618TMC3    O2 9218   2.092   1.778  14.073 -0.0847 -0.2651 -0.0341
  619MPD2     C 9219   2.529   2.398  13.624 -0.0473 -0.5106  0.1300
  619MPD2    C1 9220   2.427   2.449  13.538  0.9397 -0.7144 -0.4840
  619MPD2    C2 9221   2.296   2.457  13.581 -0.3370  1.0303 -0.1893
  619MPD2    C3 9222   2.260   2.399  13.700  0.0743  0.2870  0.0473
  619MPD2    C4 9223   2.361   2.356  13.783 -0.4025 -0.2964 -0.1704
  619MPD2    C5 9224   2.488   2.341  13.745  0.4167 -0.1900 -0.2827
  619MPD2     H 9225   2.218   2.506  13.524 -0.6843  2.6413  1.6566
  619MPD2    H1 9226   2.331   2.323  13.882  1.1080  1.3472  0.8416
  619MPD2    H2 9227   2.636   2.395  13.608 -0.2345 -0.8260 -1.0034
  619MPD2    H3 9228   2.550   2.286  13.815 -0.1079  0.6225  0.8167
  619MPD2     N 9229   2.125   2.389  13.750  0.3708  0.0604 -0.0293
  619MPD2    H5 9230   2.112   2.363  13.848  1.3817 -1.8670 -0.3996
  619MPD2    N1 9231   2.448   2.498  13.409  0.3703 -0.1767  0.1953
  619MPD2    H7 9232   2.367   2.540  13.364 -0.3014 -0.5062  1.0875
  620TMC3    C1 9233   2.566   2.639  13.262  0.0338  0.9052 -0.1144
  620TMC3    C2 9234   2.445   2.701  13.257  0.8354  0.7963  1.0735
  620TMC3    C3 9235   2.428   2.834  13.267 -0.2227 -0.0542 -0.5519
  620TMC3    C4 9236   2.678   2.717  13.265 -0.1442 -0.3762  0.6874
  620TMC3    C5 9237   2.655   2.853  13.280 -0.8948  0.0040 -0.1609
  620TMC3    C6 9238   2.536   2.914  13.282  0.2937 -0.1048  0.3253
  620TMC3     C 9239   2.572   2.525  13.355 -0.5997 -0.3543  0.1143
  620TMC3     O 9240   2.684   2.500  13.393  0.2352  0.3020 -0.4653
  620TMC3     H 9241   2.348   2.652  13.258  2.2603 -2.0475 -0.3059
  620TMC3    H1 9242   2.776   2.674  13.279  0.9285  1.8026 -0.0204
  620TMC3    H2 9243   2.530   3.022  13.284 -1.6011 -0.2064  0.4961
  620TMC3    C7 9244   2.776   2.919  13.343  0.1143  0.1473 -0.5471
  620TMC3    C8 9245   2.314   2.870  13.344  0.6298 -0.4179 -0.0450
  620TMC3    O1 9246   2.879   2.925  13.282 -0.7881 -0.1872  0.3333
  620TMC3    O2 9247   2.234   2.954  13.301 -0.1726  0.3065 -0.0593
  621MPD2     C 9248   3.009   3.151   9.530 -0.4404  1.3034  0.2771
  621MPD2    C1 9249   3.093   3.108   9.620 -0.4880 -0.0390  0.2889
  621MPD2    C2 9250   3.203   3.182   9.648 -0.3689  0.5462  0.6688
  621MPD2    C3 9251   3.238   3.299   9.576  0.4308  0.4560 -0.1147
  621MPD2    C4 9252   3.148   3.343   9.481 -0.0169 -0.1066  0.4490
  621MPD2    C5 9253   3.032   3.271   9.462 -0.6801  0.0612 -1.1036
  621MPD2     H 9254   3.272   3.150   9.726 -0.1800 -1.9620 -0.5246
  621MPD2    H1 9255   3.174   3.427   9.417 -0.5842 -0.2694  0.0057
  621MPD2    H2 9256   2.918   3.097   9.506  0.7641 -0.4024 -0.4710
  621MPD2    H3 9257   2.957   3.314   9.397 -1.2456  0.5047 -0.1658
  621MPD2     N 9258   3.353   3.365   9.627  0.6439 -0.0957  0.1191
  621MPD2    H5 9259   3.395   3.329   9.712  1.6736 -1.0446 -0.7916
  621MPD2    N1 9260   3.063   2.988   9.694 -0.1832 -0.0671  0.0981
  621MPD2    H7 9261   3.126   2.962   9.769  0.9228 -1.3584 -1.2874
  622TMC3    C1 9262   2.947   2.825   9.801  0.3476  0.0338 -0.0955
  622TMC3    C2 9263   2.964   2.875   9.925  0.2281  0.3963 -0.0739
  622TMC3    C3 9264   2.919   2.795  10.029  0.7897  0.7020  0.2208
  622TMC3    C4 9265   2.884   2.708   9.768  0.5702  0.1835 -0.1894
  622TMC3    C5 9266   2.829   2.633   9.872  0.3838  0.3890 -0.2143
  622TMC3    C6 9267   2.846   2.680  10.002 -0.1536 -0.8647 -0.3783
  622TMC3     C 9268   2.951   2.911   9.688  0.6213 -0.1940  0.0550
  622TMC3     O 9269   2.861   2.909   9.604  0.0371 -0.4958  0.3819
  622TMC3     H 9270   3.016   2.969   9.938  1.2654 -0.1821  0.0086
  622TMC3    H1 9271   2.892   2.675   9.665 -2.4590  1.5309 -0.8262
  622TMC3    H2 9272   2.798   2.624  10.081  0.0528  0.6297  0.8252
  622TMC3    C7 9273   2.747   2.516   9.852  0.5438 -0.0160  0.2641
  622TMC3    C8 9274   2.902   2.849  10.162 -0.6688  0.1478 -0.2536
  622TMC3    O1 9275   2.712   2.451   9.952  0.1156 -0.3067  0.4346
  622TMC3    O2 9276   2.855   2.778  10.252  0.2391  0.0954 -0.6846
  623MPD2     C 9277   2.223   3.407  16.080 -0.2012  0.1381 -0.2383
  623MPD2    C1 9278   2.123   3.445  16.167  0.1855  0.5541  0.0860
  623MPD2    C2 9279   2.160   3.512  16.283 -0.1966 -0.4384 -0.4933
  623MPD2    C3 9280   2.291   3.540  16.316 -0.2151  0.5709 -0.8650
  623MPD2    C4 9281   2.385   3.504  16.220  0.0805 -0.9158  0.2244
  623MPD2    C5 9282   2.351   3.440  16.102 -1.3780  0.2277  0.5080
  623MPD2     H 9283   2.075   3.539  16.343  0.2710 -0.6014  0.2502
  623MPD2    H1 9284   2.489   3.533  16.237 -0.4399  0.7144  0.6648
  623MPD2    H2 9285   2.196   3.344  15.996 -0.6206 -0.3130  0.2348
  623MPD2    H3 9286   2.429   3.422  16.030 -1.1420  0.5503  0.6817
  623MPD2     N 9287   2.312   3.604  16.440  0.2177  0.1548  0.0903
  623MPD2    H5 9288   2.231   3.591  16.500 -0.6213 -0.6044 -1.2243
  623MPD2    N1 9289   1.986   3.422  16.156 -0.4127 -0.1167  0.0125
  623MPD2    H7 9290   1.919   3.445  16.229  1.1123  0.5115  1.2196
  624TMC3    C1 9291   2.517   3.652  16.815 -0.3327  0.3976 -0.4742
  624TMC3    C2 9292   2.399   3.659  16.881  0.0865 -1.1439 -0.6063
  624TMC3    C3 9293   2.292   3.690  16.805  0.8002 -0.9863 -0.3449
  624TMC3    C4 9294   2.538   3.696  16.681 -0.2051  0.6733  0.2378
  624TMC3    C5 9295   2.422   3.713  16.616  0.6825  0.5279  0.7589
  624TMC3    C6 9296   2.299   3.714  16.670  0.8821 -0.1093  0.3332
  624TMC3     C 9297   2.615   3.563  16.869  0.3599 -0.1025 -0.2961
  624TMC3     O 9298   2.578   3.480  16.953 -0.4361 -0.5193 -0.1497
  624TMC3     H 9299   2.392   3.634  16.986  0.6029  1.1302 -0.0344
  624TMC3    H1 9300   2.631   3.689  16.624 -0.5692 -0.8497 -0.1837
  624TMC3    H2 9301   2.207   3.722  16.612  1.2565  0.6802 -0.1523
  624TMC3    C7 9302   2.427   3.666  16.479  0.4241  0.3422 -0.2932
  624TMC3    C8 9303   2.162   3.636  16.851 -0.2053  0.2643 -0.5930
  624TMC3    O1 9304   2.523   3.691  16.406  0.4516  0.6635  0.3506
  624TMC3    O2 9305   2.085   3.606  16.766 -0.1925 -0.2486  0.2588
  625MPD2     C 9306   2.701   4.597   0.285 -0.0102  0.4230 -1.2299
  625MPD2    C1 9307   2.697   4.724   0.323  0.0593 -0.0366  0.3853
  625MPD2    C2 9308   2.812   0.055   0.355 -0.3858  0.0305  0.4632
  625MPD2    C3 9309   2.935   0.004   0.320 -0.3887  0.8252  0.8632
  625MPD2    C4 9310   2.943   4.611   0.280 -0.0837 -0.5777 -0.8954
  625MPD2    C5 9311   2.824   4.539   0.261  0.5165  0.4999 -0.1725
  625MPD2     H 9312   2.803   0.158   0.387 -1.9540  0.3418 -1.0125
  625MPD2    H1 9313   3.033   4.555   0.258  0.9995  0.5767  0.5742
  625MPD2    H2 9314   2.609   4.544   0.263 -0.0189 -0.1473  0.1824
  625MPD2    H3 9315   2.830   4.438   0.224 -0.6872  1.5462 -3.1971
  625MPD2     N 9316   3.047   0.089   0.344  0.7351  0.7345 -0.0266
  625MPD2    H5 9317   3.036   0.168   0.407  2.1903  0.4363  0.5878
  625MPD2    N1 9318   2.574   0.052   0.345  1.0581 -0.3283  0.3128
  625MPD2    H7 9319   2.590   0.150   0.367 -0.1818  0.8307 -3.9933
  626TMC3    C1 9320   2.348   0.103   0.346  0.1133  0.5193 -0.3792
  626TMC3    C2 9321   2.233   0.101   0.270  0.3384  0.0999 -0.0528
  626TMC3    C3 9322   2.158   0.215   0.267 -0.6705  0.8685  0.0777
  626TMC3    C4 9323   2.369   0.193   0.449  0.5021  0.0876  0.3570
  626TMC3    C5 9324   2.282   0.301   0.449 -0.7269  0.6710 -0.0265
  626TMC3    C6 9325   2.194   0.314   0.352  0.8667 -0.2304 -0.3248
  626TMC3     C 9326   2.447   0.009   0.313  0.5936  0.1346 -0.0289
  626TMC3     O 9327   2.397   4.640   0.288 -0.0707  0.2424 -0.3699
  626TMC3     H 9328   2.220   0.026   0.192  1.9096 -0.0328 -0.1779
  626TMC3    H1 9329   2.449   0.189   0.521 -0.6699  0.0177  1.6528
  626TMC3    H2 9330   2.129   0.400   0.360  0.6117 -0.3888 -0.7012
  626TMC3    C7 9331   2.311   0.408   0.544  0.3992 -0.2726  0.8775
  626TMC3    C8 9332   2.101   0.272   0.144 -0.0264  0.3725  0.3089
  626TMC3    O1 9333   2.426   0.406   0.585 -0.1485  0.5003 -0.0255
  626TMC3    O2 9334   2.133   0.387   0.113 -0.1763  0.1400 -0.0787
  627MPD2     C 9335   0.435   0.437  14.268 -0.0517  0.1984 -0.5077
  627MPD2    C1 9336   0.521   0.383  14.363  0.1958 -1.1793 -0.4684
  627MPD2    C2 9337   0.505   0.257  14.409 -0.7782 -0.9224  0.2604
  627MPD2    C3 9338   0.402   0.179  14.366  0.1446  0.3901 -0.8904
  627MPD2    C4 9339   0.311   0.226  14.280  0.5328  0.0605 -0.1504
  627MPD2    C5 9340   0.333   0.354  14.224  0.0157 -0.4866  0.0721
  627MPD2     H 9341   0.572   0.212  14.482 -0.6668 -0.5483  0.3870
  627MPD2    H1 9342   0.232   0.163  14.241 -0.5394  0.2765  1.6639
  627MPD2    H2 9343   0.459   0.534  14.226  1.1592  0.3650  0.5445
  627MPD2    H3 9344   0.271   0.401  14.149 -1.0286 -0.0073  1.2380
  627MPD2     N 9345   0.398   0.052  14.426  0.5774 -0.2145  0.0271
  627MPD2    H5 9346   0.471   0.024  14.492  0.9825 -0.5529 -0.5691
  627MPD2    N1 9347   0.631   0.461  14.412  0.0392 -0.0990 -0.4754
  627MPD2    H7 9348   0.695   0.408  14.470 -0.3634  1.7528  1.6636
  628TMC3    C1 9349   0.803   0.616  14.411  0.2862 -0.5124 -0.4092
  628TMC3    C2 9350   0.892   0.528  14.451 -0.4049  0.0842 -0.6374
  628TMC3    C3 9351   1.022   0.567  14.484 -0.2576  0.4554  0.0918
  628TMC3    C4 9352   0.839   0.743  14.389  0.3778 -0.7197 -0.2399
  628TMC3    C5 9353   0.969   0.779  14.427  1.0222 -0.2343  0.2094
  628TMC3    C6 9354   1.060   0.695  14.485 -0.3640 -0.2514 -0.2336
  628TMC3     C 9355   0.667   0.586  14.368  0.0179  0.1748  0.1484
  628TMC3     O 9356   0.603   0.674  14.311 -0.6568 -0.0257 -0.3049
  628TMC3     H 9357   0.867   0.423  14.466 -3.0679  0.9756  1.3283
  628TMC3    H1 9358   0.770   0.812  14.341  2.3656  1.0688 -0.5389
  628TMC3    H2 9359   1.162   0.731  14.501 -0.2598  1.2071 -3.9958
  628TMC3    C7 9360   1.030   0.904  14.376 -0.0789 -0.0809 -0.4967
  628TMC3    C8 9361   1.118   0.466  14.512 -0.5162  0.5134 -0.4502
  628TMC3    O1 9362   1.135   0.936  14.431  0.2692  0.1563  0.3097
  628TMC3    O2 9363   1.237   0.497  14.487  1.0002 -0.4550 -0.1717
  629MPD2     C 9364   3.883   4.185  16.284  0.7174 -0.0116  0.0594
  629MPD2    C1 9365   3.921   4.080  16.362  0.1109  0.0783  0.1109
  629MPD2    C2 9366   3.832   3.997  16.427  0.1522 -0.2095  0.2028
  629MPD2    C3 9367   3.699   4.021  16.427  0.1876  0.9228 -1.0134
  629MPD2    C4 9368   3.657   4.125  16.353 -0.2989 -0.9335 -0.3328
  629MPD2    C5 9369   3.748   4.205  16.286  0.2447  0.5901  0.5142
  629MPD2     H 9370   3.864   3.903  16.472 -0.9814 -2.1296 -2.9713
  629MPD2    H1 9371   3.553   4.150  16.340  0.4703  1.4021 -1.9857
  629MPD2    H2 9372   3.954   4.260  16.253  1.7957 -0.1601  2.2098
  629MPD2    H3 9373   3.714   4.289  16.226  0.9905 -0.9087 -2.0245
  629MPD2     N 9374   3.606   3.946  16.508 -0.3127  0.0758 -0.2263
  629MPD2    H5 9375   3.645   3.860  16.546  0.8192 -0.0584 -1.6378
  629MPD2    N1 9376   4.060   4.063  16.383 -0.0605  0.2639 -0.3523
  629MPD2    H7 9377   4.120   4.140  16.353 -0.5780  0.9887  0.4540
  630TMC3    C1 9378   4.261   3.998  16.502  0.1272  0.4446  1.1490
  630TMC3    C2 9379   4.342   4.071  16.408 -0.0489  0.5211  0.4114
  630TMC3    C3 9380   4.480   4.059  16.429 -0.5432 -0.7697  0.7448
  630TMC3    C4 9381   4.314   3.923  16.608 -0.1747  0.4865 -0.3283
  630TMC3    C5 9382   4.448   3.933  16.627 -0.1337  0.1416 -0.4910
  630TMC3    C6 9383   4.531   3.999  16.536  0.1315  0.3382 -0.3841
  630TMC3     C 9384   4.116   3.988  16.487  0.7323  0.4112  0.4860
  630TMC3     O 9385   4.059   3.932  16.580  0.7498 -0.0349 -0.1957
  630TMC3     H 9386   4.294   4.118  16.323 -0.9382 -2.5573 -0.7898
  630TMC3    H1 9387   4.257   3.838  16.644 -0.6163 -0.5960 -3.6097
  630TMC3    H2 9388   4.637   3.977  16.537  0.4224  1.6780 -2.0796
  630TMC3    C7 9389   4.504   3.891  16.753  0.0703 -0.0713 -0.3699
  630TMC3    C8 9390   4.568   4.162  16.379 -0.2853  0.7390  0.2156
  630TMC3    O1 9391   4.428   3.822  16.822 -0.6354  0.6364 -0.6592
  630TMC3    O2 9392   4.686   4.150  16.403 -0.2041 -0.7578  0.3373
  631MPD2     C 9393   2.435   3.827  15.771  0.1127 -0.3841  0.1611
  631MPD2    C1 9394   2.510   3.847  15.664  0.4126 -0.4757  0.0160
  631MPD2    C2 9395   2.606   3.747  15.639 -0.0686  0.0904  0.2363
  631MPD2    C3 9396   2.627   3.638  15.728 -0.4975  0.1107  0.3140
  631MPD2    C4 9397   2.539   3.624  15.839 -0.1420 -0.2351  0.0033
  631MPD2    C5 9398   2.436   3.717  15.856  0.0156  0.0188 -0.3073
  631MPD2     H 9399   2.671   3.752  15.552  1.7108  1.4453  1.6375
  631MPD2    H1 9400   2.558   3.547  15.913 -3.4896 -1.2254 -0.1610
  631MPD2    H2 9401   2.361   3.903  15.794 -1.2509 -1.8451  0.5916
  631MPD2    H3 9402   2.371   3.738  15.940  2.0144  0.0024  1.2191
  631MPD2     N 9403   2.738   3.548  15.698 -0.1743 -0.0477  0.4055
  631MPD2    H5 9404   2.799   3.574  15.622 -1.5898 -1.6153 -1.2482
  631MPD2    N1 9405   2.499   3.966  15.589 -0.0598  0.3023 -0.1823
  631MPD2    H7 9406   2.437   4.038  15.625 -0.7573 -0.3253 -0.1405
  632TMC3    C1 9407   2.520   4.111  15.401 -0.2773  0.2234  0.1407
  632TMC3    C2 9408   2.389   4.142  15.410  0.0372  0.3683  0.0358
  632TMC3    C3 9409   2.319   4.186  15.295 -0.3710 -0.2056 -0.3568
  632TMC3    C4 9410   2.579   4.123  15.282  0.0953 -0.2046  0.4975
  632TMC3    C5 9411   2.511   4.156  15.169 -0.5025 -0.2643  0.0796
  632TMC3    C6 9412   2.378   4.185  15.171  0.1735 -0.0399 -0.1992
  632TMC3     C 9413   2.556   3.983  15.467  0.3284  0.2704 -0.0999
  632TMC3     O 9414   2.623   3.907  15.398 -0.0461  0.3217  0.2476
  632TMC3     H 9415   2.338   4.148  15.505  2.3289 -0.3314  1.2916
  632TMC3    H1 9416   2.688   4.125  15.275  0.0639 -0.9483 -0.1486
  632TMC3    H2 9417   2.327   4.199  15.076 -0.2156 -0.5279 -0.0611
  632TMC3    C7 9418   2.553   4.081  15.054  0.5916 -0.2615  0.0452
  632TMC3    C8 9419   2.177   4.183  15.300  0.3162  0.8269 -0.2869
  632TMC3    O1 9420   2.517   4.117  14.940 -0.0765  0.6266  0.8950
  632TMC3    O2 9421   2.122   4.159  15.406  0.6789  0.5726  0.9495
  633MPD2     C 9422   1.912   1.696  17.221 -0.1345 -0.0408  0.1720
  633MPD2    C1 9423   1.962   1.655  17.097  0.5693 -0.7202 -0.1557
  633MPD2    C2 9424   1.947   1.518  17.069  0.5699 -0.0457  0.0051
  633MPD2    C3 9425   1.889   1.428  17.153 -0.0858 -0.4108  0.3029
  633MPD2    C4 9426   1.836   1.469  17.274 -0.0924 -0.4217  0.1217
  633MPD2    C5 9427   1.855   1.604  17.301 -0.5224  0.1313  0.4121
  633MPD2     H 9428   1.984   1.486  16.972  0.5241  1.6003 -0.5569
  633MPD2    H1 9429   1.783   1.409  17.346 -0.8444  0.2230  0.1019
  633MPD2    H2 9430   1.931   1.794  17.263 -0.9781  0.8659 -1.5711
  633MPD2    H3 9431   1.813   1.631  17.397 -0.3694 -0.2674  0.5931
  633MPD2     N 9432   1.881   1.287  17.132  0.1724 -0.2977 -0.0254
  633MPD2    H5 9433   1.847   1.227  17.207 -2.8636 -2.6460 -3.3277
  633MPD2    N1 9434   2.026   1.737  17.005  0.6119  0.5592  0.4698
  633MPD2    H7 9435   2.045   1.688  16.918 -1.1311  2.4321 -0.9758
  634TMC3    C1 9436   2.169   1.906  16.913  0.1514  0.0817  0.8131
  634TMC3    C2 9437   2.224   1.816  16.833 -0.2760  0.2463  0.1549
  634TMC3    C3 9438   2.287   1.867  16.727 -0.1786 -0.0569  0.3127
  634TMC3    C4 9439   2.157   2.039  16.890 -0.6370 -0.1693 -0.8119
  634TMC3    C5 9440   2.209   2.086  16.777 -0.6534  0.4907 -0.2220
  634TMC3    C6 9441   2.285   2.002  16.696  0.1754 -0.5671  0.1542
  634TMC3     C 9442   2.080   1.864  17.023  0.7855 -0.1757 -0.3949
  634TMC3     O 9443   2.076   1.936  17.124  0.0985 -0.1909  0.7744
  634TMC3     H 9444   2.223   1.710  16.854  0.4878  0.8142  3.1775
  634TMC3    H1 9445   2.112   2.099  16.968  0.9939  0.4420 -0.3426
  634TMC3    H2 9446   2.343   2.042  16.614  0.5337  1.3860  1.3421
  634TMC3    C7 9447   2.191   2.220  16.729  0.9440  0.3744 -0.0240
  634TMC3    C8 9448   2.341   1.781  16.626 -0.4005 -0.4924 -0.1600
  634TMC3    O1 9449   2.279   2.273  16.669 -0.2915 -0.2414  0.6371
  634TMC3    O2 9450   2.398   1.677  16.660  0.4052  0.5232 -0.7493
  635TMC3    C1 9451   1.742   2.815   0.448  0.3464  0.5010 -0.0196
  635TMC3    C2 9452   1.822   2.753   0.357  0.1508  0.2432  0.1813
  635TMC3    C3 9453   1.837   2.616   0.358 -0.5029 -0.0597 -0.3014
  635TMC3    C4 9454   1.665   2.753   0.537 -0.1580 -0.6660  0.0314
  635TMC3    C5 9455   1.679   2.617   0.532 -0.2766  0.2003 -0.2410
  635TMC3    C6 9456   1.765   2.546   0.452  0.3954  0.5567 -1.0339
  635TMC3     C 9457   1.712   2.961   0.426 -0.8219  0.3003 -0.6541
  635TMC3     O 9458   1.795   3.022   0.360  0.3713 -0.4702 -0.3823
  635TMC3     H 9459   1.890   2.808   0.294 -0.6426  1.6169  0.5181
  635TMC3    H1 9460   1.577   2.792   0.588  1.0155 -0.1959  1.6889
  635TMC3    H2 9461   1.777   2.438   0.456 -1.7433  0.2639 -2.5983
  635TMC3    C7 9462   1.590   2.543   0.619  0.2892 -0.2542  0.3503
  635TMC3    C8 9463   1.886   2.541   0.241 -0.5825 -0.6247  0.4635
  635TMC3    O1 9464   1.495   2.592   0.680  0.1617  0.3111  0.7315
  635TMC3    O2 9465   1.902   2.423   0.263  0.6655 -1.0363  0.2001
  636MPD2     C 9466   3.297   1.845  15.829  0.1410 -0.3962 -0.3174
  636MPD2    C1 9467   3.410   1.875  15.904  0.1751  0.6858 -0.7043
  636MPD2    C2 9468   3.533   1.846  15.850 -0.2542 -0.0622  0.3829
  636MPD2    C3 9469   3.541   1.799  15.722  0.0984 -0.2628  0.6869
  636MPD2    C4 9470   3.428   1.765  15.660  0.6006  0.1852  0.5037
  636MPD2    C5 9471   3.302   1.782  15.711  0.5679 -0.3009  0.0420
  636MPD2     H 9472   3.622   1.865  15.910  0.1608 -0.9455  0.0481
  636MPD2    H1 9473   3.434   1.729  15.558  0.1291  3.6396 -0.7756
  636MPD2    H2 9474   3.196   1.851  15.866 -1.0455  0.0859 -3.6290
  636MPD2    H3 9475   3.213   1.762  15.652  0.0093  0.2558  0.7020
  636MPD2     N 9476   3.676   1.785  15.662 -0.6746  0.0477  0.0410
  636MPD2    H5 9477   3.747   1.829  15.720  0.0430  0.4236 -1.1338
  636MPD2    N1 9478   3.402   1.947  16.023 -0.4658 -0.0255 -0.0122
  636MPD2    H7 9479   3.485   1.954  16.081 -1.4143  1.8456  1.1352
  637TMC3    C1 9480   3.844   1.762  15.479  0.1185 -0.1251  0.5297
  637TMC3    C2 9481   3.947   1.754  15.572 -0.0760 -0.0237 -0.5527
  637TMC3    C3 9482   4.073   1.748  15.519  0.2331  0.6428 -0.3895
  637TMC3    C4 9483   3.858   1.758  15.350 -0.0193  0.2218 -0.0766
  637TMC3    C5 9484   3.981   1.752  15.295 -0.2128  0.2605  0.8339
  637TMC3    C6 9485   4.088   1.740  15.379  0.5135 -0.2219  0.4247
  637TMC3     C 9486   3.703   1.739  15.531 -0.5281 -0.1248  0.0710
  637TMC3     O 9487   3.623   1.707  15.447 -0.8425  0.1294  0.2570
  637TMC3     H 9488   3.922   1.767  15.676  2.1776 -1.4850  0.1799
  637TMC3    H1 9489   3.767   1.762  15.291 -1.3901  3.0220  2.2210
  637TMC3    H2 9490   4.185   1.749  15.331  0.3738  0.0094  0.1861
  637TMC3    C7 9491   4.000   1.850  15.194  0.1611 -0.1896  0.3334
  637TMC3    C8 9492   4.154   1.852  15.577  0.5822 -0.4205  0.2369
  637TMC3    O1 9493   3.919   1.942  15.198  0.8030  0.2917 -0.4209
  637TMC3    O2 9494   4.096   1.939  15.644  0.3316  0.5086  0.0120
  638MPD2     C 9495   3.242   0.832  15.087  0.7701  0.0521  0.5350
  638MPD2    C1 9496   3.264   0.692  15.080  0.2683 -0.0497 -0.2427
  638MPD2    C2 9497   3.237   0.617  15.197 -0.2021  0.4478 -0.3030
  638MPD2    C3 9498   3.198   0.673  15.316 -0.1416 -0.7087 -0.1919
  638MPD2    C4 9499   3.161   0.808  15.318 -0.1392  0.7317  0.2145
  638MPD2    C5 9500   3.189   0.885  15.204  0.3923  0.6199 -0.2962
  638MPD2     H 9501   3.251   0.510  15.193 -3.0687  0.0767 -0.6127
  638MPD2    H1 9502   3.142   0.856  15.413  0.2425  1.7273 -0.2118
  638MPD2    H2 9503   3.267   0.897  15.004  0.2801  0.4416  0.6874
  638MPD2    H3 9504   3.172   0.992  15.208 -1.2231  0.3438  0.2153
  638MPD2     N 9505   3.181   0.584  15.423 -0.3598 -0.2987 -0.0414
  638MPD2    H5 9506   3.219   0.493  15.398 -0.5322 -0.0499 -1.2474
  638MPD2    N1 9507   3.307   0.636  14.959  0.3316  0.1079  0.1705
  638MPD2    H7 9508   3.326   0.701  14.883 -0.3934  0.0139 -0.0905
  639TMC3    C1 9509   3.131   0.493  15.626 -0.5567 -0.2348  0.1865
  639TMC3    C2 9510   3.005   0.460  15.671  0.1045 -0.6745  0.0373
  639TMC3    C3 9511   2.991   0.342  15.737 -0.3656  0.0084 -0.0605
  639TMC3    C4 9512   3.233   0.404  15.632  0.2995 -0.1679  0.5928
  639TMC3    C5 9513   3.212   0.291  15.697 -0.6663  0.1518 -0.2796
  639TMC3    C6 9514   3.096   0.256  15.749 -0.7245 -0.3474  0.2508
  639TMC3     C 9515   3.131   0.614  15.541  0.8535  0.7456  0.0733
  639TMC3     O 9516   3.061   0.710  15.576  0.1600 -0.7068  0.4891
  639TMC3     H 9517   2.929   0.538  15.678 -1.6115 -2.1393 -1.9100
  639TMC3    H1 9518   3.327   0.436  15.588 -0.3836  1.2176  0.1438
  639TMC3    H2 9519   3.101   0.164  15.807  0.2212 -0.2236  0.3684
  639TMC3    C7 9520   3.318   0.195  15.731  0.6520  0.5265  0.5496
  639TMC3    C8 9521   2.866   0.265  15.719  0.2413 -0.0085 -0.2899
  639TMC3    O1 9522   3.326   0.157  15.851  0.1352 -0.3257  0.2835
  639TMC3    O2 9523   2.786   0.295  15.632  0.0524  0.3024 -0.1361
  640MPD2     C 9524   3.938   4.449   9.975 -0.0490 -0.1024 -0.0166
  640MPD2    C1 9525   3.928   4.542   9.871 -0.9549  0.1721 -0.8088
  640MPD2    C2 9526   3.821   4.625   9.869  0.1104  0.5124  0.0304
  640MPD2    C3 9527   3.729   4.629   9.974 -0.1761 -0.1162  0.0467
  640MPD2    C4 9528   3.745   4.539  10.077 -0.6147 -0.7215  0.7142
  640MPD2    C5 9529   3.847   4.456  10.080  0.3381 -0.6154 -0.0412
  640MPD2     H 9530   3.802   4.691   9.785  0.1689  3.2387  2.1869
  640MPD2    H1 9531   3.674   4.535  10.159  1.2272 -1.4661  2.2704
  640MPD2    H2 9532   4.024   4.383   9.987  0.5169  0.9087  1.5623
  640MPD2    H3 9533   3.865   4.401  10.172  0.7916 -1.2861 -0.5367
  640MPD2     N 9534   3.632   4.727   9.974  0.7827  0.2337  0.7020
  640MPD2    H5 9535   3.553   4.707  10.035 -1.3601  2.8937 -1.2160
  640MPD2    N1 9536   4.026   4.546   9.768 -0.0025 -0.0404  0.4425
  640MPD2    H7 9537   4.109   4.493   9.793  0.5578  1.3752  1.5619
  641TMC3    C1 9538   4.115   4.577   9.556  0.4406  0.3225 -0.4681
  641TMC3    C2 9539   4.187   4.462   9.562 -0.3665  0.2590  0.2129
  641TMC3    C3 9540   4.300   4.445   9.477  0.4725  0.9811 -0.7812
  641TMC3    C4 9541   4.143   4.673   9.462  0.6705  0.2201  1.0550
  641TMC3    C5 9542   4.244   4.652   9.375  0.1102 -0.4477  0.6889
  641TMC3    C6 9543   4.322   4.536   9.376  0.2073 -0.0119  0.8635
  641TMC3     C 9544   4.010   4.600   9.640  0.4206 -1.1088  0.1590
  641TMC3     O 9545   3.918   4.676   9.604  0.3796  0.3151 -0.0015
  641TMC3     H 9546   4.150   4.382   9.626  0.4078 -0.9279 -0.8269
  641TMC3    H1 9547   4.083   0.024   9.475  1.1982  0.8276 -0.7147
  641TMC3    H2 9548   4.392   4.515   9.296  0.1351 -0.2373  0.8595
  641TMC3    C7 9549   4.307   0.022   9.311  0.0013 -0.4734 -0.1458
  641TMC3    C8 9550   4.393   4.333   9.494 -1.2970 -0.9226 -0.0642
  641TMC3    O1 9551   4.414   0.002   9.259 -0.0820  0.1406  0.2535
  641TMC3    O2 9552   4.458   4.294   9.402  0.7052  0.1558  0.1546
  642TMC3    C1 9553   4.413   0.954  12.350 -0.0352  0.1489  0.6148
  642TMC3    C2 9554   4.506   0.978  12.260  0.4239  0.6349  0.3252
  642TMC3    C3 9555   4.510   0.921  12.137 -0.0248  0.6342 -0.2160
  642TMC3    C4 9556   4.311   0.876  12.323  0.2031 -0.1934 -0.1649
  642TMC3    C5 9557   4.314   0.807  12.206  0.0878  0.0606  0.1880
  642TMC3    C6 9558   4.409   0.836  12.109  0.2553 -0.2329 -0.0411
  642TMC3     C 9559   4.430   1.016  12.484  0.3378 -0.4120 -0.2531
  642TMC3     O 9560   4.530   1.079  12.499  0.4366  0.6271  0.2881
  642TMC3     H 9561   4.579   1.051  12.292  0.2110  1.1109 -0.2797
  642TMC3    H1 9562   4.239   0.846  12.399 -2.9145 -1.0655 -3.4772
  642TMC3    H2 9563   4.409   0.797  12.008 -0.9253  1.0883 -0.5308
  642TMC3    C7 9564   4.205   0.717  12.176 -0.2883  0.0400 -0.1643
  642TMC3    C8 9565   4.634   0.923  12.056  0.3431  0.1720 -0.1849
  642TMC3    O1 9566   4.163   0.713  12.058  0.2224  0.2333 -0.0043
  642TMC3    O2 9567   4.634   0.880  11.944  0.1322 -0.3443 -0.6605
  643TMC3    C1 9568   3.593   0.357   0.371  0.6769 -0.2744  0.1429
  643TMC3    C2 9569   3.524   0.476   0.356 -0.0710 -0.1248 -0.1751
  643TMC3    C3 9570   3.550   0.549   0.245  0.6506  0.2306 -0.2815
  643TMC3    C4 9571   3.664   0.301   0.269 -0.2599 -0.0637 -0.2685
  643TMC3    C5 9572   3.669   0.366   0.153  0.2386 -0.7732  0.3413
  643TMC3    C6 9573   3.629   0.497   0.143 -0.1071 -0.2303  0.6336
  643TMC3     C 9574   3.651   0.350   0.506 -0.1787 -0.1767  0.9361
  643TMC3     O 9575   3.591   0.417   0.591 -0.5120 -0.5214 -0.1714
  643TMC3     H 9576   3.469   0.522   0.436 -1.5642 -0.0997 -1.2144
  643TMC3    H1 9577   3.697   0.197   0.273  0.2784  0.2238  2.8733
  643TMC3    H2 9578   3.647   0.548   0.049 -3.4848  2.0040  1.2143
  643TMC3    C7 9579   3.792   0.339   0.078 -0.0221  0.0836 -0.1762
  643TMC3    C8 9580   3.525   0.694   0.249 -0.0691  0.0798 -0.4153
  643TMC3    O1 9581   3.860   0.441   0.064 -0.1477  0.5661 -0.0885
  643TMC3    O2 9582   3.442   0.742   0.327  0.1969 -0.5382 -0.3508
  644MPD2     C 9583   3.882   1.188   9.886  0.6919 -0.3695 -0.1654
  644MPD2    C1 9584   3.865   1.078   9.810 -0.3612  0.0753  0.0275
  644MPD2    C2 9585   3.739   1.046   9.769  0.1168  1.0821 -0.4508
  644MPD2    C3 9586   3.636   1.128   9.811  0.0992  0.6405  1.1867
  644MPD2    C4 9587   3.657   1.233   9.895 -0.1457  0.0635 -0.5027
  644MPD2    C5 9588   3.782   1.278   9.918  0.2979 -0.1504 -0.8236
  644MPD2     H 9589   3.714   0.952   9.723  0.6582  0.1840  1.0757
  644MPD2    H1 9590   3.587   1.307   9.931  2.3081  2.0576  0.1879
  644MPD2    H2 9591   3.982   1.224   9.907  0.1149  1.9753 -1.4417
  644MPD2    H3 9592   3.804   1.369   9.974  2.4861 -1.6639  0.7585
  644MPD2     N 9593   3.507   1.102   9.765  0.6180  0.1279 -0.0739
  644MPD2    H5 9594   3.498   1.033   9.691  0.8295  0.8633 -0.7813
  644MPD2    N1 9595   3.976   0.996   9.768 -0.0047 -0.0598  0.1233
  644MPD2    H7 9596   4.064   1.046   9.781 -1.8532  2.9431  1.0280
  645TMC3    C1 9597   3.270   1.112   9.758 -0.1160 -0.5774  0.4733
  645TMC3    C2 9598   3.172   1.196   9.711 -0.6457  0.0395 -0.6628
  645TMC3    C3 9599   3.083   1.143   9.623  0.1717 -0.3471 -0.2568
  645TMC3    C4 9600   3.260   0.977   9.748 -0.5113  0.4494 -0.1052
  645TMC3    C5 9601   3.146   0.928   9.686  0.8495  0.0181 -0.7285
  645TMC3    C6 9602   3.057   1.006   9.623  0.0816 -0.1669  0.1998
  645TMC3     C 9603   3.392   1.174   9.800  0.4907  0.2726  0.4894
  645TMC3     O 9604   3.374   1.271   9.872  0.0997  0.4925  0.0043
  645TMC3     H 9605   3.190   1.303   9.707 -0.4428  0.0479  0.5873
  645TMC3    H1 9606   3.337   0.919   9.797 -0.9886 -1.4273 -1.6004
  645TMC3    H2 9607   2.970   0.961   9.576 -1.4319  1.1416  1.7142
  645TMC3    C7 9608   3.133   0.784   9.673  0.5542  0.3078  0.0769
  645TMC3    C8 9609   3.038   1.234   9.522 -0.0215  0.8502 -0.1784
  645TMC3    O1 9610   3.013   0.750   9.667  0.1916  0.5140 -0.3688
  645TMC3    O2 9611   3.116   1.315   9.472  0.5062  0.4991 -0.5767
  646MPD2     C 9612   3.008   4.159  14.954  0.5383  0.3093 -0.3577
  646MPD2    C1 9613   3.019   4.195  15.091  0.2119 -0.3594  0.5251
  646MPD2    C2 9614   2.946   4.300  15.136 -0.0749 -0.0813 -0.1558
  646MPD2    C3 9615   2.844   4.354  15.052  0.2009  0.6968  0.4246
  646MPD2    C4 9616   2.830   4.304  14.924  0.3736  0.3075  0.2775
  646MPD2    C5 9617   2.918   4.213  14.875 -0.0263 -0.0679 -0.4402
  646MPD2     H 9618   2.967   4.344  15.233  2.5458  0.8956 -1.1351
  646MPD2    H1 9619   2.753   4.346  14.859 -0.1926 -0.2554  0.5819
  646MPD2    H2 9620   3.070   4.084  14.906 -0.8116  1.9200 -4.6445
  646MPD2    H3 9621   2.919   4.183  14.771  0.5559  1.5678 -0.9050
  646MPD2     N 9622   2.744   4.440  15.115 -0.6882  0.2526  0.0126
  646MPD2    H5 9623   2.769   4.456  15.212 -0.6772 -0.5685  0.1401
  646MPD2    N1 9624   3.126   4.133  15.169  0.1228 -0.1719  0.4096
  646MPD2    H7 9625   3.203   4.079  15.131  0.9072  0.7549  0.6820
  647TMC3    C1 9626   3.215   4.055  15.370 -0.0131  0.4750  0.1593
  647TMC3    C2 9627   3.232   4.076  15.503  0.0335  0.9838 -0.0951
  647TMC3    C3 9628   3.328   4.010  15.565  0.8713  0.0197  0.5222
  647TMC3    C4 9629   3.290   3.963  15.304  0.6653 -0.5128  0.6309
  647TMC3    C5 9630   3.391   3.902  15.370 -0.2361  0.4506  0.0561
  647TMC3    C6 9631   3.416   3.926  15.501 -0.3487 -0.4285 -0.3275
  647TMC3     C 9632   3.109   4.123  15.306  0.4304 -0.0727  0.2825
  647TMC3     O 9633   3.018   4.166  15.374  0.6944 -0.0197  0.3593
  647TMC3     H 9634   3.161   4.136  15.559 -0.9574  0.3803 -0.7246
  647TMC3    H1 9635   3.265   3.930  15.204 -0.3927  1.1820  0.3281
  647TMC3    H2 9636   3.482   3.861  15.558  0.0819  1.1751  1.0088
  647TMC3    C7 9637   3.460   3.791  15.305 -0.0430 -0.3704 -0.2963
  647TMC3    C8 9638   3.330   4.024  15.711  0.1289  0.2623 -0.1244
  647TMC3    O1 9639   3.520   3.721  15.383  0.8066  0.2673  0.1758
  647TMC3    O2 9640   3.286   4.129  15.761  0.8267  0.1944 -0.1997
  648TMC3    C1 9641   2.693   1.965  16.207 -0.1921 -0.1106 -0.3794
  648TMC3    C2 9642   2.769   1.852  16.197 -0.2893 -0.0751 -0.2642
  648TMC3    C3 9643   2.816   1.824  16.074 -0.1953  0.2362  0.3604
  648TMC3    C4 9644   2.667   2.052  16.102 -0.2780 -0.1756  0.0316
  648TMC3    C5 9645   2.726   2.027  15.982  0.5272 -0.4783  0.0304
  648TMC3    C6 9646   2.793   1.907  15.962 -0.1496  0.1766 -0.4271
  648TMC3     C 9647   2.658   2.016  16.336 -0.4550 -0.6093 -0.2727
  648TMC3     O 9648   2.626   2.133  16.346 -0.0987  0.1413 -0.2738
  648TMC3     H 9649   2.775   1.775  16.273 -2.2962  1.0218  1.0267
  648TMC3    H1 9650   2.616   2.145  16.124  0.2562  0.5188 -1.7523
  648TMC3    H2 9651   2.828   1.870  15.867 -0.7507  1.9940 -1.3451
  648TMC3    C7 9652   2.676   2.106  15.872  0.7614 -0.3637  0.0419
  648TMC3    C8 9653   2.933   1.750  16.084 -0.5046  0.4903 -0.5094
  648TMC3    O1 9654   2.632   2.038  15.778  0.4202  0.1294 -0.1354
  648TMC3    O2 9655   2.978   1.746  16.197 -0.5099 -0.0009 -0.5196
  649TMC3    C1 9656   1.490   2.839  12.856  0.0307 -0.3969  0.5162
  649TMC3    C2 9657   1.595   2.759  12.841  0.8359  0.2583 -0.0301
  649TMC3    C3 9658   1.591   2.637  12.905  0.5519 -0.0070  0.3291
  649TMC3    C4 9659   1.389   2.809  12.946  0.5653 -0.1381  0.7387
  649TMC3    C5 9660   1.396   2.688  13.017  0.0476 -0.2746  0.2025
  649TMC3    C6 9661   1.497   2.600  13.000  0.4331 -0.2200 -1.3253
  649TMC3     C 9662   1.474   2.954  12.769  0.2472  0.2328 -0.0589
  649TMC3     O 9663   1.358   2.988  12.753  0.4762  0.1401  0.3588
  649TMC3     H 9664   1.680   2.783  12.777  0.8256 -1.1160 -0.5531
  649TMC3    H1 9665   1.313   2.880  12.973  0.2391 -0.2204  0.0352
  649TMC3    H2 9666   1.488   2.498  13.035 -1.5748 -0.4168 -2.4306
  649TMC3    C7 9667   1.308   2.659  13.127  0.2040 -0.0326  0.2141
  649TMC3    C8 9668   1.704   2.551  12.897 -0.2769  0.6541  1.0135
  649TMC3    O1 9669   1.210   2.728  13.131  0.1271 -0.1191 -0.3004
  649TMC3    O2 9670   1.709   2.465  12.984  0.3196  0.2977 -0.6849
  650TMC3    C1 9671   4.071   4.627  13.230  0.0751  0.6146  0.0132
  650TMC3    C2 9672   3.980   4.707  13.297  0.0301  0.8412  0.0692
  650TMC3    C3 9673   3.866   0.001  13.227 -0.5615  0.0319 -0.4479
  650TMC3    C4 9674   4.052   4.584  13.107  0.1663 -0.4129  0.3944
  650TMC3    C5 9675   3.928   4.610  13.047  1.1644 -0.0569 -0.7525
  650TMC3    C6 9676   3.829   4.675  13.114 -0.3239  0.9745 -0.1447
  650TMC3     C 9677   4.203   4.594  13.285  0.2558  1.0563 -0.1912
  650TMC3     O 9678   4.278   4.669  13.345  0.3528  0.5056 -0.5078
  650TMC3     H 9679   4.003   0.030  13.384  0.0243  0.2420  0.4904
  650TMC3    H1 9680   4.128   4.541  13.042  0.4644  0.9596 -0.1648
  650TMC3    H2 9681   3.736   4.686  13.060 -1.2627 -0.1306  1.2476
  650TMC3    C7 9682   3.939   4.627  12.904  0.4623  0.0662 -0.1325
  650TMC3    C8 9683   3.826   0.142  13.228 -0.5174  0.7852  0.5159
  650TMC3    O1 9684   4.006   4.544  12.839  0.2920 -0.1999  0.5146
  650TMC3    O2 9685   3.917   0.221  13.241 -0.4337  0.3507  0.3042
  651MPD2     C 9686   2.685   1.780  10.518  0.0724  0.4181 -0.1606
  651MPD2    C1 9687   2.681   1.903  10.581 -0.6280 -0.5211 -0.3806
  651MPD2    C2 9688   2.771   2.001  10.549  0.0391 -0.3791 -0.7528
  651MPD2    C3 9689   2.860   1.982  10.450 -0.1376 -0.3409  0.0829
  651MPD2    C4 9690   2.856   1.865  10.375 -0.4249  0.4154 -0.6429
  651MPD2    C5 9691   2.782   1.760  10.423  0.0897  0.1118  0.8395
  651MPD2     H 9692   2.766   2.097  10.598  0.7284 -1.5357  1.5836
  651MPD2    H1 9693   2.927   1.844  10.295 -0.7405  0.7008 -0.9974
  651MPD2    H2 9694   2.627   1.699  10.561  0.7921 -2.0692 -3.7736
  651MPD2    H3 9695   2.795   1.661  10.383 -1.7313  0.1409  0.2079
  651MPD2     N 9696   2.960   2.081  10.436 -0.2578  0.2868 -0.1327
  651MPD2    H5 9697   2.952   2.168  10.489  0.2207 -0.3294  0.9657
  651MPD2    N1 9698   2.592   1.934  10.682 -0.1492  0.3718 -0.0867
  651MPD2    H7 9699   2.603   2.021  10.734  1.8764 -0.5152  0.9704
  652TMC3    C1 9700   3.380   2.249  10.378 -0.3809 -0.1265 -0.1486
  652TMC3    C2 9701   3.291   2.148  10.373  0.4006  1.0055  0.0115
  652TMC3    C3 9702   3.159   2.180  10.370 -0.3611  1.0482  0.2940
  652TMC3    C4 9703   3.345   2.374  10.410  0.2230  0.0707  0.2045
  652TMC3    C5 9704   3.214   2.399  10.435 -0.5353 -0.6650  0.6595
  652TMC3    C6 9705   3.121   2.310  10.395 -0.2477  0.4335  1.2392
  652TMC3     C 9706   3.523   2.217  10.395 -0.1477  0.3283 -0.4756
  652TMC3     O 9707   3.552   2.145  10.490 -0.7541  0.2297  0.3981
  652TMC3     H 9708   3.326   2.045  10.369  1.6374  1.4852 -1.3305
  652TMC3    H1 9709   3.419   2.427  10.469 -1.5618  2.4462  0.3127
  652TMC3    H2 9710   3.017   2.340  10.402 -0.3667 -0.0097  1.3963
  652TMC3    C7 9711   3.174   2.529  10.485  0.5779  0.1521 -0.4976
  652TMC3    C8 9712   3.069   2.073  10.351 -0.5266  1.1245 -0.3814
  652TMC3    O1 9713   3.055   2.545  10.517  0.6375 -0.1679  0.3092
  652TMC3    O2 9714   3.100   1.995  10.260 -0.1127 -0.6570 -1.2289
  653MPD2     C 9715   1.601   1.905  17.675 -0.7296 -0.1082 -0.4548
  653MPD2    C1 9716   1.589   2.007  17.583 -0.8986  1.1701  0.0252
  653MPD2    C2 9717   1.559   1.974  17.454 -0.1634 -0.0230  0.0664
  653MPD2    C3 9718   1.537   1.841  17.418  0.9054  0.4590 -0.7601
  653MPD2    C4 9719   1.558   1.740  17.510  0.2188 -0.5854 -0.2447
  653MPD2    C5 9720   1.590   1.779  17.636 -0.4585 -0.0780 -0.4871
  653MPD2     H 9721   1.553   2.058  17.387  0.8056  1.2088  1.5180
  653MPD2    H1 9722   1.547   1.633  17.494  0.5786 -1.0352  2.5054
  653MPD2    H2 9723   1.623   1.929   0.028 -1.4311  0.8670 -0.5321
  653MPD2    H3 9724   1.601   1.706  17.716  2.1457 -3.0445 -3.6106
  653MPD2     N 9725   1.503   1.811  17.286  0.5200  0.4046 -0.2755
  653MPD2    H5 9726   1.484   1.888  17.221 -2.3543  0.8322  1.0802
  653MPD2    N1 9727   1.594   2.147  17.617 -0.2525  0.4651  0.4074
  653MPD2    H7 9728   1.571   2.216  17.546 -1.5026 -0.6348 -0.2448
  654TMC3    C1 9729   1.490   1.680  17.093 -0.1564 -0.0815 -0.8740
  654TMC3    C2 9730   1.396   1.768  17.032  0.0242 -0.4467 -0.1320
  654TMC3    C3 9731   1.359   1.755  16.901  0.1538 -0.1593  0.1583
  654TMC3    C4 9732   1.536   1.570  17.013 -0.6917  0.5550  0.0332
  654TMC3    C5 9733   1.487   1.559  16.889  0.3701 -0.0805  0.7774
  654TMC3    C6 9734   1.397   1.647  16.830 -0.0867 -0.3732 -0.3993
  654TMC3     C 9735   1.505   1.685  17.233  0.1397  0.1833  0.6783
  654TMC3     O 9736   1.534   1.579  17.285  0.3647  0.1228  0.3517
  654TMC3     H 9737   1.362   1.855  17.089 -3.8023 -1.1118 -1.4150
  654TMC3    H1 9738   1.606   1.504  17.063 -0.7448  0.8570  0.5062
  654TMC3    H2 9739   1.366   1.619  16.730  0.5692  0.2356 -0.7664
  654TMC3    C7 9740   1.489   1.426  16.824 -0.0236  0.3901  0.3664
  654TMC3    C8 9741   1.254   1.840  16.855  0.2781  0.2207 -0.6480
  654TMC3    O1 9742   1.440   1.416  16.710 -0.5904 -0.5355 -0.2614
  654TMC3    O2 9743   1.205   1.906  16.942  0.3564 -0.1923 -0.2140
  655MPD2     C 9744   3.374   2.224  15.700  0.0537 -0.0659 -0.0495
  655MPD2    C1 9745   3.250   2.254  15.642 -0.0097  1.1058 -0.4512
  655MPD2    C2 9746   3.214   2.197  15.524 -0.3308  0.0814 -0.6694
  655MPD2    C3 9747   3.297   2.106  15.457 -0.0676 -0.5422  0.5056
  655MPD2    C4 9748   3.424   2.086  15.513 -0.7511 -0.1067  0.7870
  655MPD2    C5 9749   3.459   2.145  15.633  0.7696 -0.7020  0.8442
  655MPD2     H 9750   3.114   2.222  15.490 -0.4419  1.2956  0.5856
  655MPD2    H1 9751   3.503   2.042  15.452 -1.4023  2.5907 -2.0032
  655MPD2    H2 9752   3.406   2.245  15.801  1.9243  1.7087 -0.9939
  655MPD2    H3 9753   3.557   2.121  15.673  1.6164  1.5198  0.0870
  655MPD2     N 9754   3.250   2.039  15.342 -0.3488 -0.4789 -0.0195
  655MPD2    H5 9755   3.300   1.956  15.313  1.1651  0.0610  1.0734
  655MPD2    N1 9756   3.153   2.334  15.711 -0.0190 -0.0456 -0.2137
  655MPD2    H7 9757   3.068   2.352  15.658  0.0908 -1.7571 -0.9650
  656TMC3    C1 9758   3.041   2.452  15.870  0.3364  0.3067 -0.0113
  656TMC3    C2 9759   3.006   2.437  16.004 -0.2383  0.4242  0.1569
  656TMC3    C3 9760   2.906   2.511  16.041  0.4456 -0.0162  0.7649
  656TMC3    C4 9761   2.979   2.535  15.785  0.0367 -0.6396  0.2124
  656TMC3    C5 9762   2.876   2.613  15.828  0.0003  0.2547  0.1138
  656TMC3    C6 9763   2.839   2.601  15.959 -0.3786  0.5431 -0.4675
  656TMC3     C 9764   3.162   2.388  15.832  0.9675  1.2045 -0.2962
  656TMC3     O 9765   3.246   2.371  15.916  0.2872 -0.3076 -0.4051
  656TMC3     H 9766   3.059   2.372  16.074 -0.5924 -0.5229 -0.4489
  656TMC3    H1 9767   3.017   2.532  15.683 -0.4799 -0.5091  0.0161
  656TMC3    H2 9768   2.755   2.657  15.999  1.1786  1.4774  1.4900
  656TMC3    C7 9769   2.802   2.689  15.726  0.6825 -0.8522 -1.1599
  656TMC3    C8 9770   2.821   2.456  16.142 -0.5439  0.4143 -0.4653
  656TMC3    O1 9771   2.859   2.708  15.620 -0.1405 -0.1070 -0.6118
  656TMC3    O2 9772   2.786   2.342  16.141 -0.7607  0.4327 -0.0729
  657TMC3    C1 9773   1.340   1.604  14.859  0.1531  0.0031 -0.3370
  657TMC3    C2 9774   1.388   1.626  14.983 -0.2637  0.2193  0.1983
  657TMC3    C3 9775   1.417   1.757  15.019 -0.3521 -0.1426  0.3896
  657TMC3    C4 9776   1.313   1.702  14.770  0.9518 -0.4552  0.9518
  657TMC3    C5 9777   1.346   1.834  14.803 -0.0995  0.2344 -0.4784
  657TMC3    C6 9778   1.386   1.857  14.931  0.0303 -0.7446 -0.6902
  657TMC3     C 9779   1.295   1.469  14.816  0.7398 -1.2210 -0.0696
  657TMC3     O 9780   1.218   1.456  14.722 -0.1722 -0.0563  0.1183
  657TMC3     H 9781   1.390   1.548  15.058  0.6309 -0.1202 -0.1849
  657TMC3    H1 9782   1.275   1.675  14.671 -1.5576 -3.3157  2.6869
  657TMC3    H2 9783   1.412   1.959  14.955 -0.4158 -0.7779 -0.0706
  657TMC3    C7 9784   1.331   1.940  14.706  0.7279 -0.6903 -0.5821
  657TMC3    C8 9785   1.401   1.791  15.156  0.0942 -0.1330 -0.4622
  657TMC3    O1 9786   1.243   1.940  14.621 -0.1584 -0.2958 -0.3336
  657TMC3    O2 9787   1.351   1.898  15.185  0.3289 -0.1733 -0.5480
  658MPD2     C 9788   3.392   1.523  14.874  0.2125 -0.2386 -0.6296
  658MPD2    C1 9789   3.303   1.619  14.830 -0.0509  0.0145 -0.0739
  658MPD2    C2 9790   3.288   1.645  14.698  0.2128  0.1562  0.5217
  658MPD2    C3 9791   3.371   1.583  14.604 -0.4918 -0.5143  0.1938
  658MPD2    C4 9792   3.473   1.504  14.647  0.8821 -0.2721  0.6495
  658MPD2    C5 9793   3.484   1.478  14.783 -0.5324 -0.0528 -0.5178
  658MPD2     H 9794   3.212   1.711  14.658 -0.8403  0.5580  3.1307
  658MPD2    H1 9795   3.543   1.465  14.574 -1.2091 -1.7011 -0.5743
  658MPD2    H2 9796   3.407   1.491  14.976  0.7671 -0.2173 -0.7029
  658MPD2    H3 9797   3.555   1.404  14.817  1.2328  1.4147 -1.0288
  658MPD2     N 9798   3.353   1.624  14.468 -0.2642  0.2421 -0.4130
  658MPD2    H5 9799   3.268   1.671  14.439  0.1467  0.1620 -1.7441
  658MPD2    N1 9800   3.233   1.697  14.924 -0.3023 -0.1351 -0.0871
  658MPD2    H7 9801   3.231   1.662  15.019  1.2100 -0.3827 -0.1510
  659TMC3    C1 9802   3.073   1.848  15.002  0.2878 -0.7357  0.5903
  659TMC3    C2 9803   3.141   1.895  15.111  0.3053 -0.3716  0.0720
  659TMC3    C3 9804   3.073   1.971  15.199  0.4161  0.0123 -0.4265
  659TMC3    C4 9805   2.938   1.881  14.976  0.0333 -0.2080  0.1341
  659TMC3    C5 9806   2.877   1.949  15.073  0.0536 -0.3935  0.7502
  659TMC3    C6 9807   2.940   1.991  15.192  0.7146  0.1508  0.1287
  659TMC3     C 9808   3.146   1.799  14.892  0.3626  0.2269  0.3917
  659TMC3     O 9809   3.123   1.858  14.785  0.0077  0.3590 -0.2618
  659TMC3     H 9810   3.246   1.869  15.117  0.3368 -0.1405  0.5346
  659TMC3    H1 9811   2.895   1.860  14.878 -1.8445 -0.8891  1.0955
  659TMC3    H2 9812   2.889   2.040  15.274 -0.0149  0.3286 -0.4392
  659TMC3    C7 9813   2.734   1.922  15.093 -0.6812 -0.4242 -0.2909
  659TMC3    C8 9814   3.133   2.074  15.278  0.0372 -0.0897 -0.2582
  659TMC3    O1 9815   2.696   1.910  15.214  0.0700 -0.2367 -0.4533
  659TMC3    O2 9816   3.078   2.184  15.281 -0.3114 -0.4743  0.9006
  660MPD2     C 9817   0.895   0.879  12.735  0.1188  0.7353 -0.1491
  660MPD2    C1 9818   0.784   0.956  12.762 -0.0568 -0.1380  0.2643
  660MPD2    C2 9819   0.746   0.975  12.896  0.3392  1.3415 -0.3342
  660MPD2    C3 9820   0.816   0.906  12.996  0.1428 -0.2896 -0.0997
  660MPD2    C4 9821   0.929   0.830  12.965  0.3653 -0.7783  0.6770
  660MPD2    C5 9822   0.957   0.811  12.831  0.1742 -0.1681  0.2248
  660MPD2     H 9823   0.663   1.038  12.924 -0.8099 -0.5907  0.5505
  660MPD2    H1 9824   0.995   0.776  13.031  1.6528 -2.2057 -1.7505
  660MPD2    H2 9825   0.932   0.858  12.635 -1.0245 -0.1786 -0.3711
  660MPD2    H3 9826   1.043   0.748  12.812  1.4276  2.1869 -2.1116
  660MPD2     N 9827   0.776   0.916  13.131 -0.2845 -1.1786  0.2840
  660MPD2    H5 9828   0.822   0.851  13.193  1.9285 -0.2421 -0.3474
  660MPD2    N1 9829   0.711   1.015  12.659 -0.1935  0.2588 -0.2968
  660MPD2    H7 9830   0.749   1.015  12.565  0.6175  2.2123  0.0438
  661TMC3    C1 9831   0.549   1.139  12.549  0.0267  0.4268  0.3557
  661TMC3    C2 9832   0.640   1.185  12.455 -0.4908 -0.3973  0.9852
  661TMC3    C3 9833   0.603   1.279  12.366 -0.4417  0.4845 -0.1810
  661TMC3    C4 9834   0.422   1.175  12.539 -0.2444  0.4984  0.8561
  661TMC3    C5 9835   0.386   1.264  12.438 -0.1709 -0.5375  0.9944
  661TMC3    C6 9836   0.474   1.322  12.350 -0.2545 -0.1703  0.3255
  661TMC3     C 9837   0.591   1.070  12.669  0.2160 -0.6348  0.0539
  661TMC3     O 9838   0.507   1.070  12.764  0.0350  1.3261  0.2746
  661TMC3     H 9839   0.747   1.172  12.471  0.0625  0.7130 -1.7598
  661TMC3    H1 9840   0.347   1.139  12.609 -2.3482  1.7355 -0.7719
  661TMC3    H2 9841   0.442   1.393  12.276  0.0988  0.1920  0.5203
  661TMC3    C7 9842   0.243   1.270  12.415 -0.4382 -0.4674 -0.8708
  661TMC3    C8 9843   0.703   1.353  12.296 -0.0061  0.4609  0.2813
  661TMC3    O1 9844   0.166   1.222  12.498 -0.1616 -0.4249 -0.1515
  661TMC3    O2 9845   0.789   1.293  12.234  0.1709  0.0006 -0.2121
  662MPD2     C 9846   0.632   0.527  17.018  0.5143 -0.0999  0.0575
  662MPD2    C1 9847   0.744   0.600  17.063  0.2399  0.3551  0.4924
  662MPD2    C2 9848   0.722   0.713  17.144  0.4430  0.0251  0.9114
  662MPD2    C3 9849   0.594   0.752  17.171 -0.4608  0.0777 -0.1170
  662MPD2    C4 9850   0.491   0.682  17.123  0.3270 -0.0020  0.2549
  662MPD2    C5 9851   0.512   0.568  17.061  0.1564  0.2518  1.5568
  662MPD2     H 9852   0.812   0.750  17.192 -0.2406  2.3557  0.3860
  662MPD2    H1 9853   0.389   0.705  17.150 -0.1953 -1.3697 -0.5886
  662MPD2    H2 9854   0.638   0.434  16.963  1.7664 -1.7215  2.9135
  662MPD2    H3 9855   0.423   0.517  17.026  0.2128 -0.6083  2.6659
  662MPD2     N 9856   0.545   0.864  17.253  0.4101 -0.0186  0.1876
  662MPD2    H5 9857   0.445   0.878  17.243  0.4814  0.5655  0.3031
  662MPD2    N1 9858   0.877   0.562  17.032 -0.1010  0.3811  0.9709
  662MPD2    H7 9859   0.955   0.619  17.065 -1.2490  0.7071  3.1197
  663TMC3    C1 9860   1.042   0.442  16.928 -0.5640  0.9642 -0.3256
  663TMC3    C2 9861   1.117   0.414  17.039  0.8873  0.6426 -0.3394
  663TMC3    C3 9862   1.236   0.344  17.022  0.2366 -0.1890  0.0333
  663TMC3    C4 9863   1.076   0.413  16.796 -0.2231  0.7848 -0.1892
  663TMC3    C5 9864   1.191   0.334  16.783 -0.1297 -0.4488  0.9781
  663TMC3    C6 9865   1.260   0.298  16.894  0.0377 -0.8548 -0.3347
  663TMC3     C 9866   0.905   0.469  16.941 -0.1306 -0.2487  0.3680
  663TMC3     O 9867   0.835   0.426  16.854 -0.6661 -0.2317 -0.9000
  663TMC3     H 9868   1.087   0.452  17.136 -0.8182  0.0635 -0.6346
  663TMC3    H1 9869   1.009   0.438  16.714 -0.4429 -2.6108 -1.0641
  663TMC3    H2 9870   1.357   0.252  16.878  0.9962  1.5659 -1.5375
  663TMC3    C7 9871   1.153   0.227  16.694 -0.1482 -0.1564 -0.4802
  663TMC3    C8 9872   1.256   0.233  17.103 -0.3019  0.4666  0.0456
  663TMC3    O1 9873   1.087   0.239  16.593 -0.8112  0.3259 -0.0856
  663TMC3    O2 9874   1.280   0.126  17.046  0.5166 -0.3512 -0.0214
  664MPD2     C 9875   4.079   3.381  17.393  0.7342 -0.6611  0.4542
  664MPD2    C1 9876   4.155   3.402  17.508  0.3231  0.5189 -0.3343
  664MPD2    C2 9877   4.095   3.451  17.623 -0.1202 -0.1856 -0.6485
  664MPD2    C3 9878   3.957   3.469  17.622  0.5396  0.6298  0.5795
  664MPD2    C4 9879   3.877   3.435  17.512  0.4631 -0.6435 -0.0323
  664MPD2    C5 9880   3.941   3.393  17.398  0.2334  0.3889 -0.0020
  664MPD2     H 9881   4.154   3.470  17.712 -0.5633  1.6747 -0.7548
  664MPD2    H1 9882   3.769   3.431  17.504  0.3061 -0.4557  2.0541
  664MPD2    H2 9883   4.128   3.356  17.300  0.7561 -3.7435  1.2742
  664MPD2    H3 9884   3.888   3.382  17.305  1.5738 -4.2314 -0.1928
  664MPD2     N 9885   3.900   3.533  17.740  0.4534 -0.5574  0.2949
  664MPD2    H5 9886   3.964   3.563   0.063  1.1117  0.5829 -0.7205
  664MPD2    N1 9887   4.298   3.394  17.504  0.4896  0.0357 -0.7185
  664MPD2    H7 9888   4.334   3.429  17.592 -0.9623  0.5636 -0.3314
  665TMC3    C1 9889   3.746   3.626   0.141 -0.0024  0.8474  0.0443
  665TMC3    C2 9890   3.618   3.641   0.195  0.1070  0.4382  0.1546
  665TMC3    C3 9891   3.604   3.718   0.310 -0.3286  0.1361 -0.4022
  665TMC3    C4 9892   3.846   3.709   0.192  0.1811  0.2174  0.1678
  665TMC3    C5 9893   3.821   3.806   0.288  0.4244 -0.3098  0.4442
  665TMC3    C6 9894   3.701   3.804   0.350  0.1658  0.2378 -0.3726
  665TMC3     C 9895   3.765   3.554   0.010  0.6242  0.0890 -0.2753
  665TMC3     O 9896   3.662   3.535  17.695 -0.4363  0.1236  0.0168
  665TMC3     H 9897   3.534   3.598   0.141  2.4344 -2.6228 -0.9715
  665TMC3    H1 9898   3.938   3.717   0.135  1.3542  0.9068  2.1750
  665TMC3    H2 9899   3.681   3.865   0.437 -0.7728 -0.8061  0.1396
  665TMC3    C7 9900   3.932   3.896   0.317 -0.1045  0.7401 -0.4225
  665TMC3    C8 9901   3.477   3.714   0.378  0.3609 -0.0193 -0.3680
  665TMC3    O1 9902   4.042   3.857   0.285 -0.3266  0.2433  0.0706
  665TMC3    O2 9903   3.455   3.805   0.457  0.3652 -0.5176  0.6265
  666TMC3    C1 9904   3.527   3.526   9.645 -0.2571  0.8260  1.2616
  666TMC3    C2 9905   3.610   3.440   9.709  0.2276 -0.0091 -0.4840
  666TMC3    C3 9906   3.732   3.479   9.738 -0.4473  0.1679 -0.2686
  666TMC3    C4 9907   3.561   3.654   9.633  1.0809 -0.2258  0.2990
  666TMC3    C5 9908   3.682   3.697   9.678  0.6596  0.0600 -0.2486
  666TMC3    C6 9909   3.771   3.609   9.726 -0.0093  0.2224 -0.3813
  666TMC3     C 9910   3.396   3.488   9.584  0.0113 -0.3024 -0.5374
  666TMC3     O 9911   3.352   3.557   9.495 -0.0617  0.1110 -0.0496
  666TMC3     H 9912   3.572   3.339   9.714  0.1330 -0.0155 -1.2492
  666TMC3    H1 9913   3.487   3.722   9.593 -0.5179 -0.8790  2.1996
  666TMC3    H2 9914   3.867   3.639   9.765 -0.1888  1.6030 -1.0212
  666TMC3    C7 9915   3.703   3.839   9.694  0.6794 -0.5100  0.1080
  666TMC3    C8 9916   3.805   3.391   9.821 -0.0694 -0.4108  0.5740
  666TMC3    O1 9917   3.816   3.886   9.705 -0.7957  0.9605 -0.3208
  666TMC3    O2 9918   3.739   3.294   9.858 -0.2013 -0.3973  0.0220
  667MPD2     C 9919   0.318   3.553  14.681  0.1515  0.2875  0.3824
  667MPD2    C1 9920   0.256   3.605  14.788 -0.8708  0.1525  0.9375
  667MPD2    C2 9921   0.138   3.545  14.824  0.2928  0.1228  0.4613
  667MPD2    C3 9922   0.091   3.434  14.753 -0.1906  0.7306  0.2040
  667MPD2    C4 9923   0.162   3.385  14.652  0.1299  0.9604  0.2725
  667MPD2    C5 9924   0.268   3.449  14.604 -0.6788  0.2666  0.2079
  667MPD2     H 9925   0.087   3.574  14.915  0.0412  2.0259 -0.2886
  667MPD2    H1 9926   0.117   3.303  14.598  1.9949 -0.3694  0.7521
  667MPD2    H2 9927   0.401   3.607  14.636  0.0881 -0.5508 -0.7582
  667MPD2    H3 9928   0.327   3.421  14.517  1.0260  2.2798  0.7208
  667MPD2     N 9929   4.717   3.361  14.790  0.1022  0.3842 -0.4053
  667MPD2    H5 9930   4.688   3.278  14.740  1.2476 -1.7171  2.4219
  667MPD2    N1 9931   0.309   3.711  14.861  0.5389  0.4336 -0.2419
  667MPD2    H7 9932   0.264   3.721  14.951  1.1641  1.5663 -0.0457
  668TMC3    C1 9933   0.454   3.872  14.941  0.6290 -0.6641 -0.3783
  668TMC3    C2 9934   0.525   3.987  14.914  0.1090 -0.0777 -0.0437
  668TMC3    C3 9935   0.557   4.078  15.011 -0.0770 -0.2796 -0.3355
  668TMC3    C4 9936   0.411   3.840  15.064  0.0171  0.2124 -0.2727
  668TMC3    C5 9937   0.451   3.928  15.159  0.4718  0.2254 -0.2361
  668TMC3    C6 9938   0.524   4.046  15.141 -0.3359 -0.4720 -0.5853
  668TMC3     C 9939   0.420   3.784  14.831 -0.2877 -0.5198 -0.2998
  668TMC3     O 9940   0.482   3.803  14.727  0.1422 -0.2943 -0.3928
  668TMC3     H 9941   0.566   4.003  14.815 -0.5349  1.1143 -0.1159
  668TMC3    H1 9942   0.378   3.739  15.087  1.2201 -0.3621 -1.0296
  668TMC3    H2 9943   0.570   4.091  15.228 -2.0938  0.8537 -0.3448
  668TMC3    C7 9944   0.446   3.879  15.299  0.7696 -0.7590  0.3738
  668TMC3    C8 9945   0.650   4.184  14.997 -0.3729  0.1851  0.3700
  668TMC3    O1 9946   0.499   3.949  15.385  0.4950  0.4378  0.3509
  668TMC3    O2 9947   0.662   4.256  15.093  1.0773  0.0989  0.5176
  669TMC3    C1 9948   2.959   3.303  14.989 -0.5257 -0.0828 -0.5891
  669TMC3    C2 9949   2.838   3.263  14.937 -0.6415  0.1671  0.0540
  669TMC3    C3 9950   2.831   3.276  14.802 -0.3562 -0.6155  0.4122
  669TMC3    C4 9951   3.062   3.350  14.913  0.1808 -0.4280  0.4397
  669TMC3    C5 9952   3.045   3.363  14.780 -0.7154  0.0744  0.0425
  669TMC3    C6 9953   2.928   3.331  14.714 -0.1280  0.2981  0.2785
  669TMC3     C 9954   2.994   3.246  15.115  0.4974 -0.4039  0.1472
  669TMC3     O 9955   2.922   3.272  15.211 -0.0404 -0.5145  0.4318
  669TMC3     H 9956   2.757   3.220  14.995  0.2362 -1.5471  0.0149
  669TMC3    H1 9957   3.148   3.387  14.968 -0.1885 -0.3293  0.9562
  669TMC3    H2 9958   2.905   3.336  14.609  2.6892  1.9226 -0.2692
  669TMC3    C7 9959   3.130   3.461  14.720 -0.2322  0.2219 -0.0449
  669TMC3    C8 9960   2.710   3.229  14.738  0.0236 -0.6689  0.0013
  669TMC3    O1 9961   3.183   3.545  14.794 -0.2780  0.0174 -0.8265
  669TMC3    O2 9962   2.727   3.196  14.621  0.2795 -0.0015  0.1506
  670MPD2     C 9963   1.630   1.021  13.368 -0.4422 -0.0778  1.2680
  670MPD2    C1 9964   1.655   1.110  13.474 -0.1761 -0.6182 -0.3112
  670MPD2    C2 9965   1.565   1.113  13.578 -0.2591  0.1524 -0.0778
  670MPD2    C3 9966   1.450   1.035  13.585  0.3683  0.8925 -0.4740
  670MPD2    C4 9967   1.432   0.946  13.477 -0.4264  0.5452  0.7213
  670MPD2    C5 9968   1.514   0.954  13.369  0.2755 -0.7114  0.6963
  670MPD2     H 9969   1.591   1.176  13.663  0.4064  0.5359 -0.5679
  670MPD2    H1 9970   1.339   0.890  13.469 -0.7884  0.8745  2.6309
  670MPD2    H2 9971   1.683   1.011  13.274  0.8675  1.3752  1.8696
  670MPD2    H3 9972   1.486   0.889  13.287  1.4811  0.8879 -0.9782
  670MPD2     N 9973   1.374   1.034  13.709  0.0065 -0.4865 -0.1153
  670MPD2    H5 9974   1.393   1.115  13.767 -0.3776 -0.4402 -0.0552
  670MPD2    N1 9975   1.777   1.180  13.484 -0.1028  0.0932 -0.0710
  670MPD2    H7 9976   1.798   1.231  13.569 -0.9815 -0.7662  0.6539
  671TMC3    C1 9977   1.245   0.938  13.889  0.0503  0.5038 -0.6939
  671TMC3    C2 9978   1.349   0.950  13.981  0.5801 -0.0724  0.3645
  671TMC3    C3 9979   1.333   0.911  14.113  0.4272  0.0341  0.6681
  671TMC3    C4 9980   1.139   0.855  13.917  0.4545  0.1256  0.0132
  671TMC3    C5 9981   1.149   0.786  14.040 -0.3531  0.0830  0.2192
  671TMC3    C6 9982   1.242   0.815  14.135 -0.3225 -0.0929  0.2068
  671TMC3     C 9983   1.277   0.941  13.748 -0.4747  0.3972 -0.3718
  671TMC3     O 9984   1.230   0.849  13.684  0.6632  0.1395 -0.4910
  671TMC3     H 9985   1.438   1.005  13.951  1.6439 -2.1082 -0.1900
  671TMC3    H1 9986   1.079   0.823  13.833 -0.5321  0.1740  0.6984
  671TMC3    H2 9987   1.244   0.760  14.228 -1.1693 -0.9718 -0.2873
  671TMC3    C7 9988   1.118   0.652  14.029  0.1866 -0.1880  0.7927
  671TMC3    C8 9989   1.451   0.882  14.190  0.8195  0.4609  0.0634
  671TMC3    O1 9990   1.101   0.593  14.134  0.7510 -0.2195 -0.0087
  671TMC3    O2 9991   1.541   0.815  14.139  0.0312  0.0406 -0.1423
  672MPD2     C 9992   1.255   1.757   1.258 -0.0938 -0.4997  0.3059
  672MPD2    C1 9993   1.361   1.668   1.234 -0.5274  0.7074  0.3487
  672MPD2    C2 9994   1.486   1.710   1.205  0.6802  0.7658  0.7157
  672MPD2    C3 9995   1.516   1.839   1.202  0.3010  0.6251  0.1871
  672MPD2    C4 9996   1.417   1.930   1.227 -0.2027  0.1505  0.2908
  672MPD2    C5 9997   1.290   1.890   1.254  0.3180  0.2422  0.1458
  672MPD2     H 9998   1.555   1.638   1.162  0.4484  0.7183  0.4235
  672MPD2    H1 9999   1.436   2.037   1.219 -3.2927  0.8661  2.3965
  672MPD2    H210000   1.151   1.727   1.268  0.2202 -1.2213  1.4948
  672MPD2    H310001   1.215   1.966   1.271 -1.6298 -1.5008 -0.6413
  672MPD2     N10002   1.627   1.901   1.150  0.2877 -0.3065  0.0259
  672MPD2    H510003   1.621   2.002   1.145 -0.8860 -0.4172 -0.8981
  672MPD2    N110004   1.339   1.531   1.216  0.6636 -0.5367  0.2292
  672MPD2    H710005   1.416   1.472   1.186  2.2273  1.5279  0.1669
  673TMC3    C110006   1.221   1.357   1.148 -0.0655  0.3783  0.4747
  673TMC3    C210007   1.266   1.235   1.199 -0.1133  0.3559  0.5746
  673TMC3    C310008   1.359   1.164   1.127 -0.7833  0.3974 -0.2357
  673TMC3    C410009   1.275   1.408   1.035  0.0025  0.0319  0.5283
  673TMC3    C510010   1.367   1.330   0.959  0.0210  0.1242  0.8437
  673TMC3    C610011   1.405   1.207   1.009 -0.5500  0.2231  0.9349
  673TMC3     C10012   1.226   1.465   1.243  0.0011 -1.0177  0.3103
  673TMC3     O10013   1.131   1.500   1.312  0.0131  0.1826  0.2463
  673TMC3     H10014   1.237   1.201   1.298  1.9843 -1.0008  0.7341
  673TMC3    H110015   1.223   1.493   0.992 -0.2770  0.1978  1.2010
  673TMC3    H210016   1.474   1.145   0.953  0.2379  1.9157  0.0061
  673TMC3    C710017   1.426   1.375   0.829  0.1983 -0.1500 -0.2343
  673TMC3    C810018   1.404   1.043   1.199  0.2979  0.2039 -0.5862
  673TMC3    O110019   1.483   1.287   0.767 -0.1582 -0.3323 -0.2275
  673TMC3    O210020   1.323   0.975   1.259 -0.2144  0.3925  0.3447
  674MPD2     C10021   1.777   1.322   0.041 -0.3170  0.1387 -0.0773
  674MPD2    C110022   1.722   1.217   0.115 -0.0928  0.0688  0.7680
  674MPD2    C210023   1.611   1.228   0.180  1.0313 -0.7204 -0.2462
  674MPD2    C310024   1.538   1.346   0.184  0.0376 -0.1888 -0.6110
  674MPD2    C410025   1.596   1.455   0.119 -0.3971 -0.7678 -0.4284
  674MPD2    C510026   1.712   1.440   0.043  0.7184 -0.6441  0.6073
  674MPD2     H10027   1.574   1.142   0.235  1.7379 -1.7633 -1.4028
  674MPD2    H110028   1.543   1.550   0.121  0.6267 -0.2114  0.1063
  674MPD2    H210029   1.868   1.302  17.736  0.0269  0.4013  0.3811
  674MPD2    H310030   1.745   1.529  17.742 -0.4175  0.0142  1.0214
  674MPD2     N10031   1.410   1.355   0.245  0.0585  0.0330  0.2616
  674MPD2    H510032   1.381   1.272   0.296  0.0983 -0.4796 -0.5482
  674MPD2    N110033   1.780   1.086   0.132 -0.3324  0.1705 -0.2595
  674MPD2    H710034   1.731   1.028   0.200  1.3176 -0.2180  0.5894
  675TMC3    C110035   1.915   0.903   0.118 -0.1613  0.0948 -0.3321
  675TMC3    C210036   1.814   0.818   0.150 -0.0873  0.2713  0.4062
  675TMC3    C310037   1.839   0.690   0.196 -0.3752  0.2811 -0.0069
  675TMC3    C410038   2.047   0.863   0.124  0.7909 -0.4201  0.0740
  675TMC3    C510039   2.067   0.735   0.172  0.5448 -0.3790  0.0165
  675TMC3    C610040   1.962   0.656   0.220 -0.0209 -0.0539 -0.7672
  675TMC3     C10041   1.891   1.040   0.069 -0.4970  0.1425  0.7655
  675TMC3     O10042   1.971   1.094  17.750  0.1742 -0.7316  0.3672
  675TMC3     H10043   1.714   0.849   0.123  0.0509 -1.1937 -1.7085
  675TMC3    H110044   2.122   0.935   0.093  0.6657  0.2124  1.2343
  675TMC3    H210045   1.983   0.558   0.262  0.0567  0.6894  0.9165
  675TMC3    C710046   2.188   0.710   0.247 -1.1816 -0.0278  0.0890
  675TMC3    C810047   1.727   0.606   0.225 -0.1352 -0.1252  0.3968
  675TMC3    O110048   2.232   0.817   0.298 -0.0748 -0.1661 -0.0389
  675TMC3    O210049   1.760   0.486   0.227 -0.5566  0.0337  0.2720
  676MPD2     C10050   3.637   0.055  10.942  0.0944 -0.5898  0.2087
  676MPD2    C110051   3.575   4.700  11.023  0.0023  0.0456 -0.3577
  676MPD2    C210052   3.577   4.567  10.992  0.3415  0.2413  0.5135
  676MPD2    C310053   3.640   4.524  10.873 -0.4127  0.6066 -0.2566
  676MPD2    C410054   3.698   4.618  10.786 -0.1290  0.1986 -0.4422
  676MPD2    C510055   3.701   0.009  10.828 -0.2855  0.2212  0.2486
  676MPD2     H10056   3.518   4.496  11.049  1.3918 -0.1075  1.1674
  676MPD2    H110057   3.744   4.585  10.693 -1.8222 -0.1895 -1.1465
  676MPD2    H210058   3.643   0.162  10.960  0.6077 -0.4755 -0.6576
  676MPD2    H310059   3.740   0.084  10.760 -0.9513  0.2346 -0.1256
  676MPD2     N10060   3.654   4.389  10.832 -0.2019  0.4296  0.6089
  676MPD2    H510061   3.693   4.361  10.742  0.4281  0.9927  0.7037
  676MPD2    N110062   3.501   0.005  11.135  0.4095 -0.1395 -0.5792
  676MPD2    H710063   3.457   4.676  11.197 -4.3012  2.0541 -1.5497
  677TMC3    C110064   3.405   0.136  11.294 -0.3789  0.2768 -0.9172
  677TMC3    C210065   3.306   0.041  11.305 -0.4808 -0.2170  0.0691
  677TMC3    C310066   3.251   0.023  11.427 -0.1583 -0.5824  0.0587
  677TMC3    C410067   3.445   0.212  11.397  0.1957 -0.3132  0.3350
  677TMC3    C510068   3.376   0.201  11.515 -0.8210 -0.3972 -0.3212
  677TMC3    C610069   3.283   0.102  11.535 -0.5296  0.1325  0.0293
  677TMC3     C10070   3.498   0.132  11.184  0.4075 -0.7399  0.0795
  677TMC3     O10071   3.555   0.238  11.150  0.0431 -0.0921 -0.2425
  677TMC3     H10072   3.299   4.702  11.229 -0.3754 -0.2709  0.1144
  677TMC3    H110073   3.524   0.282  11.372 -0.4804 -0.2051 -1.5404
  677TMC3    H210074   3.244   0.078  11.633  1.9846  1.0559  1.2668
  677TMC3    C710075   3.424   0.263  11.637 -0.3093  0.3519  0.5686
  677TMC3    C810076   3.177   4.632  11.436 -0.2084 -0.3636 -0.0962
  677TMC3    O110077   3.398   0.206  11.741  0.6931  0.7413  0.1023
  677TMC3    O210078   3.126   4.602  11.331 -0.3854 -0.7442  0.6400
  678MPD2     C10079   0.642   0.132   1.327  0.5714  0.5636  0.3143
  678MPD2    C110080   0.636   0.068   1.206 -0.2134 -0.5294  0.5994
  678MPD2    C210081   0.511   0.074   1.139 -0.1827  0.6567  0.1772
  678MPD2    C310082   0.397   0.141   1.189  0.0073  0.3029  0.0465
  678MPD2    C410083   0.404   0.206   1.308 -0.7582  0.1257 -0.5270
  678MPD2    C510084   0.531   0.206   1.371 -0.4139 -0.8360  0.3910
  678MPD2     H10085   0.510   0.025   1.042 -0.9793  1.4506 -0.2121
  678MPD2    H110086   0.329   0.268   1.355  0.2443 -1.9611  3.7861
  678MPD2    H210087   0.733   0.144   1.385 -0.0360 -1.8750  1.7562
  678MPD2    H310088   0.524   0.258   1.466 -1.4637 -0.8250  0.2997
  678MPD2     N10089   0.274   0.138   1.115  0.0846  0.2443 -0.5494
  678MPD2    H510090   0.266   0.092   1.025 -1.2369  0.8568 -0.7429
  678MPD2    N110091   0.741   0.005   1.145  0.6739  0.1472  0.5963
  678MPD2    H710092   0.734   4.709   1.050 -1.7623 -0.5407  1.0113
  679TMC3    C110093   1.089   4.464   1.062 -0.1876 -0.4025  0.3517
  679TMC3    C210094   0.989   4.515   1.147 -0.5413  0.1016 -0.1226
  679TMC3    C310095   0.950   4.643   1.116 -0.3446  0.2065  0.2555
  679TMC3    C410096   1.162   4.542   0.977 -0.2929 -0.2841  0.3426
  679TMC3    C510097   1.127   4.673   0.960 -0.3060 -0.2649  0.1186
  679TMC3    C610098   1.016   4.727   1.028  0.3418  0.1959  0.7934
  679TMC3     C10099   1.075   4.326   1.025 -0.6359  0.5678  0.1182
  679TMC3     O10100   1.124   4.295   0.918 -0.0850 -0.2179 -0.1198
  679TMC3     H10101   0.947   4.458   1.229 -1.1654 -0.6564 -0.9735
  679TMC3    H110102   1.242   4.495   0.920 -0.1550 -0.3665  0.6040
  679TMC3    H210103   0.986   0.092   1.025 -0.3796 -0.0958 -1.9881
  679TMC3    C710104   1.139   4.731   0.832  0.2371  0.7967 -0.1842
  679TMC3    C810105   0.850   4.701   1.208  0.0815  0.3367  0.0479
  679TMC3    O110106   1.042   0.057   0.790 -0.2023 -0.0825  0.3180
  679TMC3    O210107   0.861   4.697   1.329  0.0034 -0.0844 -0.2263
  680MPD2     C10108   0.598   3.131  13.626  0.6490 -0.5191 -0.2473
  680MPD2    C110109   0.718   3.081  13.662  0.4069 -0.1726  0.3625
  680MPD2    C210110   0.831   3.159  13.660 -0.1536 -0.4278 -0.2593
  680MPD2    C310111   0.820   3.291  13.628 -0.0669 -0.2541 -0.4062
  680MPD2    C410112   0.701   3.349  13.587  0.2652  1.1156 -0.8365
  680MPD2    C510113   0.592   3.262  13.575  0.6877 -0.1753 -0.5047
  680MPD2     H10114   0.926   3.114  13.685 -0.0433  0.3824  0.7616
  680MPD2    H110115   0.688   3.455  13.570  0.8255  1.1019 -1.3514
  680MPD2    H210116   0.518   3.061  13.606 -0.8567  0.7460  1.3888
  680MPD2    H310117   0.495   3.291  13.538  0.1085  1.2027  2.0823
  680MPD2     N10118   0.930   3.383  13.637  0.0502  0.2976  0.8521
  680MPD2    H510119   0.913   3.480  13.611 -0.3172  0.0539  0.2107
  680MPD2    N110120   0.738   2.945  13.701  0.7955 -0.1021  0.4865
  680MPD2    H710121   0.835   2.921  13.723  1.1502 -1.3462 -2.4661
  681TMC3    C110122   0.659   2.714  13.730  0.1768 -0.3484  0.3073
  681TMC3    C210123   0.574   2.629  13.800 -0.6800  0.1633 -0.3149
  681TMC3    C310124   0.627   2.502  13.803  0.4006 -0.9040 -0.2436
  681TMC3    C410125   0.768   2.667  13.659  0.0476  0.6571 -0.4750
  681TMC3    C510126   0.795   2.533  13.649  0.1733  0.6595  0.4016
  681TMC3    C610127   0.729   2.447  13.731 -0.2730 -0.2339  0.1199
  681TMC3     C10128   0.634   2.861  13.736  0.3657  0.2788  0.1067
  681TMC3     O10129   0.516   2.881  13.760  0.5729 -0.4310  0.0830
  681TMC3     H10130   0.486   2.666  13.851 -0.0371 -1.4891  2.0299
  681TMC3    H110131   0.826   2.733  13.595 -1.4682  0.3091 -2.2168
  681TMC3    H210132   0.749   2.341  13.741 -2.4299 -0.7727 -1.3169
  681TMC3    C710133   0.933   2.489  13.641 -0.5573 -0.8475  0.0724
  681TMC3    C810134   0.585   2.426  13.920  0.3865 -0.0324  0.5948
  681TMC3    O110135   0.968   2.412  13.730  0.1343  0.2362 -0.2397
  681TMC3    O210136   0.579   2.304  13.919  0.4724 -0.5619 -0.4547
  682MPD2     C10137   2.983   0.046  10.520 -0.3115 -0.2002  0.2503
  682MPD2    C110138   2.983   4.645  10.538  0.1420 -0.1757 -0.3068
  682MPD2    C210139   2.941   4.589  10.657 -0.0589 -0.0091  0.0597
  682MPD2    C310140   2.906   4.671  10.759 -0.0144  0.2272  0.1829
  682MPD2    C410141   2.891   0.070  10.732  0.3881 -0.5036 -0.4727
  682MPD2    C510142   2.941   0.123  10.615  0.0410  0.5518 -0.2595
  682MPD2     H10143   2.943   4.481  10.664 -0.3096 -0.0270 -0.1554
  682MPD2    H110144   2.846   0.132  10.808  0.1560  0.2726 -1.2533
  682MPD2    H210145   3.012   0.091  10.426 -0.6109 -1.1791 -0.3156
  682MPD2    H310146   2.937   0.230  10.602  1.9642  0.7013  0.3597
  682MPD2     N10147   2.879   4.628  10.887  0.2516 -0.0155  0.0559
  682MPD2    H510148   2.840   4.694  10.952 -3.0902 -2.5447  0.6210
  682MPD2    N110149   3.014   4.548  10.443 -0.4448  0.0925  0.3674
  682MPD2    H710150   2.992   4.451  10.465  2.1015 -0.7961 -0.9664
  683TMC3    C110151   2.789   4.574  11.283  0.1449 -0.0720 -0.2029
  683TMC3    C210152   2.745   4.447  11.315  1.1668  0.2222 -0.5964
  683TMC3    C310153   2.772   4.345  11.228 -0.6252 -0.8047  0.4464
  683TMC3    C410154   2.832   4.603  11.151  0.2273 -0.4054  0.4602
  683TMC3    C510155   2.847   4.497  11.062 -0.5235  0.2438  0.1920
  683TMC3    C610156   2.817   4.372  11.100  0.0202 -0.2602  0.2063
  683TMC3     C10157   2.809   4.672  11.395 -0.9842 -0.1600 -1.1320
  683TMC3     O10158   2.838   0.046  11.365  0.2752  0.4703 -0.0571
  683TMC3     H10159   2.694   4.421  11.407  2.9846 -0.5354  0.1997
  683TMC3    H110160   2.877   4.700  11.134  0.6899 -0.8733 -0.9772
  683TMC3    H210161   2.818   4.284  11.036  0.2190 -0.6604  0.7529
  683TMC3    C710162   2.893   4.500  10.931 -0.4407  0.5137 -0.7272
  683TMC3    C810163   2.680   4.230  11.229 -0.8145  0.6867  0.1392
  683TMC3    O110164   2.949   4.401  10.885 -0.5439  0.2430  0.0845
  683TMC3    O210165   2.564   4.255  11.252  0.5980 -0.3678  0.6093
  684MPD2     C10166   1.563   3.675  16.505  0.0608  0.3557 -0.5057
  684MPD2    C110167   1.482   3.652  16.397  0.0765  0.0057 -0.3926
  684MPD2    C210168   1.405   3.758  16.351 -0.0299  0.4146  0.2663
  684MPD2    C310169   1.414   3.888  16.399  0.1468  0.0591  0.1986
  684MPD2    C410170   1.497   3.909  16.506  0.3024 -0.4359 -0.5460
  684MPD2    C510171   1.562   3.801  16.557 -0.4350 -0.4362 -0.0253
  684MPD2     H10172   1.342   3.741  16.265  1.3394 -3.1883 -0.0140
  684MPD2    H110173   1.511   4.010  16.542 -0.9942 -0.5485  0.2866
  684MPD2    H210174   1.618   3.599  16.558 -0.3218  0.6251  0.2650
  684MPD2    H310175   1.622   3.825  16.644 -2.8138  0.5153  1.3677
  684MPD2     N10176   1.364   3.999  16.321  0.0401 -0.4258 -0.1661
  684MPD2    H510177   1.385   4.097  16.339  3.9039 -1.1553 -0.6653
  684MPD2    N110178   1.478   3.524  16.326  0.0188 -0.1770 -0.4961
  684MPD2    H710179   1.410   3.524  16.251 -0.5264  0.4570 -0.0120
  685TMC3    C110180   1.601   3.353  16.218  0.1094  0.4508  0.1083
  685TMC3    C210181   1.528   3.388  16.109 -0.2132  0.0519  0.2871
  685TMC3    C310182   1.584   3.398  15.986  0.5935 -0.4720 -0.4717
  685TMC3    C410183   1.735   3.330  16.195  0.3260 -0.6437 -0.6089
  685TMC3    C510184   1.786   3.344  16.068  0.0442  0.3736 -0.4441
  685TMC3    C610185   1.714   3.371  15.959 -0.3737  0.5659  0.1312
  685TMC3     C10186   1.576   3.429  16.342  0.2288 -0.5587 -0.6535
  685TMC3     O10187   1.670   3.427  16.427  0.0749 -0.2643 -0.5743
  685TMC3     H10188   1.420   3.398  16.118 -0.0194  1.0131  1.5253
  685TMC3    H110189   1.795   3.318  16.284  1.8462  1.2802 -1.3806
  685TMC3    H210190   1.759   3.377  15.861  0.0066  2.3545  0.4160
  685TMC3    C710191   1.930   3.353  16.052  0.2561  0.3863 -0.0087
  685TMC3    C810192   1.508   3.453  15.882  0.1796  0.1768  0.1571
  685TMC3    O110193   1.977   3.315  15.945 -0.2708 -0.0190  0.0942
  685TMC3    O210194   1.547   3.432  15.768 -0.0084 -0.3040  0.4312
  686MPD2     C10195   2.942   3.891  15.552  0.0815  0.8894 -0.1762
  686MPD2    C110196   2.997   3.797  15.640 -0.0360 -0.5377  0.0809
  686MPD2    C210197   3.064   3.693  15.588 -0.9604  0.4668 -0.2764
  686MPD2    C310198   3.061   3.661  15.457 -0.1125 -0.6901 -0.2409
  686MPD2    C410199   2.988   3.744  15.365  0.3275  0.0418  0.0494
  686MPD2    C510200   2.935   3.861  15.421 -0.0195  0.7060  0.1081
  686MPD2     H10201   3.113   3.636  15.666 -1.3686  0.4625 -0.0251
  686MPD2    H110202   2.982   3.718  15.260  0.7373 -0.4650  0.1487
  686MPD2    H210203   2.878   3.965  15.600  0.1216  0.7386  0.1075
  686MPD2    H310204   2.893   3.935  15.354 -0.9011 -0.7141 -0.9053
  686MPD2     N10205   3.122   3.548  15.399  0.0343  0.3599  0.1264
  686MPD2    H510206   3.135   3.555  15.299  0.7863 -1.2786  0.1008
  686MPD2    N110207   2.990   3.822  15.774 -0.0180  0.3489 -0.2740
  686MPD2    H710208   2.953   3.911  15.805 -0.5635  0.4760 -1.2899
  687TMC3    C110209   3.088   3.386  15.579  0.6764 -0.0256 -0.2194
  687TMC3    C210210   2.964   3.417  15.612  0.0804  0.5544 -0.3349
  687TMC3    C310211   2.912   3.385  15.736 -0.3790  0.2293 -0.1807
  687TMC3    C410212   3.173   3.338  15.678  0.7707 -0.1020  0.6566
  687TMC3    C510213   3.121   3.312  15.800  0.2388 -0.3796 -0.1559
  687TMC3    C610214   2.991   3.330  15.831 -0.4572 -0.5684  0.1187
  687TMC3     C10215   3.161   3.430  15.459  0.1386  0.1139  0.5477
  687TMC3     O10216   3.267   3.378  15.433 -0.0328 -0.0533 -0.0115
  687TMC3     H10217   2.890   3.450  15.540 -1.6136  0.8926  1.5680
  687TMC3    H110218   3.280   3.332  15.659  0.6055 -0.5424 -0.0960
  687TMC3    H210219   2.951   3.303  15.928 -1.1716 -1.0869 -0.3230
  687TMC3    C710220   3.219   3.278  15.905  0.4636 -0.3605 -0.2926
  687TMC3    C810221   2.787   3.448  15.784 -0.6206  0.5251  0.6141
  687TMC3    O110222   3.302   3.187  15.883  0.2183 -0.0914  0.1339
  687TMC3    O210223   2.748   3.422  15.896 -0.4182 -0.2210  0.2401
  688MPD2     C10224   1.852   2.808  17.384 -0.0523  0.1091 -0.1470
  688MPD2    C110225   1.847   2.669  17.363  0.8400  0.3358  0.1794
  688MPD2    C210226   1.947   2.615  17.288  0.2238  0.5011 -0.1079
  688MPD2    C310227   2.049   2.689  17.234 -0.1750  0.2444  0.4147
  688MPD2    C410228   2.041   2.829  17.250 -0.5524  0.8844  0.0462
  688MPD2    C510229   1.950   2.883  17.331 -0.5597  0.0922  0.4739
  688MPD2     H10230   1.959   2.508  17.285 -1.5254  0.3416 -1.3263
  688MPD2    H110231   2.110   2.883  17.186  0.8620 -0.5544  0.3611
  688MPD2    H210232   1.785   2.856  17.454  1.2698  0.2942  0.9925
  688MPD2    H310233   1.955   2.990  17.349  0.3187  0.5947 -2.8695
  688MPD2     N10234   2.157   2.641  17.158  0.2992  0.0226 -0.5128
  688MPD2    H510235   2.220   2.710  17.118  1.4431  0.1875  1.5444
  688MPD2    N110236   1.758   2.587  17.441 -0.2701 -0.2158  0.1970
  688MPD2    H710237   1.786   2.489  17.447  0.8977 -0.0288 -2.3815
  689TMC3    C110238   1.600   2.543  17.629 -0.5956  0.3310 -0.0247
  689TMC3    C210239   1.518   2.595  17.724  0.1222 -0.4567  0.1771
  689TMC3    C310240   1.484   2.519   0.084  0.1799  0.0731 -0.5342
  689TMC3    C410241   1.639   2.412  17.635 -0.2995  0.3933 -0.4341
  689TMC3    C510242   1.603   2.345  17.747 -0.5571 -0.0898 -0.1446
  689TMC3    C610243   1.543   2.398   0.106 -0.2251 -0.0552  0.3384
  689TMC3     C10244   1.662   2.637  17.530 -0.7216  0.6138  0.6258
  689TMC3     O10245   1.612   2.748  17.525 -0.4300  0.4065 -0.2050
  689TMC3     H10246   1.490   2.699  17.722 -3.9553 -1.5657 -0.2906
  689TMC3    H110247   1.696   2.358  17.561  1.4011 -2.6031  3.0837
  689TMC3    H210248   1.505   2.338   0.187  0.1415  2.6652  2.5289
  689TMC3    C710249   1.605   2.196  17.746  0.7098  0.1578 -0.0913
  689TMC3    C810250   1.435   2.585   0.209  1.1475  0.3889  0.5075
  689TMC3    O110251   1.612   2.136   0.101 -0.0318  0.0772 -0.0990
  689TMC3    O210252   1.470   2.539   0.317  0.5694 -0.1056  0.6360
  690MPD2     C10253   4.627   4.676  15.806  0.2862  0.5650  0.0425
  690MPD2    C110254   4.621   4.544  15.777 -1.0191  0.5889  0.6605
  690MPD2    C210255   4.723   4.481  15.712  0.3962 -0.0899 -0.1220
  690MPD2    C310256   0.101   4.543  15.678  0.4068 -0.3388 -1.0153
  690MPD2    C410257   0.107   4.677  15.708 -0.1741  0.0780  1.4011
  690MPD2    C510258   0.006   0.003  15.771  1.0353  0.5782  0.5534
  690MPD2     H10259   4.710   4.381  15.675  0.5101  0.4809 -1.7002
  690MPD2    H110260   0.205   4.721  15.692 -0.0968 -0.4258  0.4944
  690MPD2    H210261   4.541   4.726  15.848 -0.7759 -0.1506 -1.2787
  690MPD2    H310262   0.007   0.107  15.801  0.2342  0.3690  1.3304
  690MPD2     N10263   0.209   4.473  15.607 -0.0297  0.5295  0.2667
  690MPD2    H510264   0.184   4.378  15.581  0.7474  0.6635 -1.0023
  690MPD2    N110265   4.523   4.452  15.810 -0.6931 -0.3596 -1.1732
  690MPD2    H710266   4.547   4.357  15.782 -2.2015 -0.2662 -2.7497
  691TMC3    C110267   4.326   4.362  15.907 -0.2887  0.5110 -0.0820
  691TMC3    C210268   4.190   4.378  15.909 -0.0606 -0.3056  0.6020
  691TMC3    C310269   4.115   4.269  15.946 -0.0087 -0.1589 -0.0124
  691TMC3    C410270   4.382   4.239  15.946  0.3920  0.3945  0.6665
  691TMC3    C510271   4.300   4.135  15.977  0.6860 -0.0510 -0.2346
  691TMC3    C610272   4.165   4.144  15.980  0.3288 -0.3242  0.4586
  691TMC3     C10273   4.407   4.480  15.874 -0.1472  0.1645 -0.9009
  691TMC3     O10274   4.365   4.593  15.906  0.7920 -0.3722  0.4880
  691TMC3     H10275   4.143   4.474  15.890 -1.0892 -1.3303 -1.9846
  691TMC3    H110276   4.490   4.234  15.949  0.2252 -2.2827  2.1934
  691TMC3    H210277   4.095   4.069  16.013  1.2735 -1.8660 -1.0873
  691TMC3    C710278   4.367   4.014  16.027 -0.5062 -0.2627 -0.2987
  691TMC3    C810279   3.974   4.271  15.921  0.5115 -0.2597 -0.0787
  691TMC3    O110280   4.486   4.021  16.051  0.1506  0.2479  0.5424
  691TMC3    O210281   3.922   4.162  15.887  0.8599 -0.0367 -0.0401
  692TMC3    C110282   0.951   0.524  15.888 -0.7122  0.0288  0.5126
  692TMC3    C210283   1.034   0.528  15.780  0.4040  0.2369 -0.1841
  692TMC3    C310284   1.115   0.415  15.775 -0.3333  0.6847  0.3791
  692TMC3    C410285   0.916   0.410  15.954 -0.7038  0.0793 -0.4871
  692TMC3    C510286   0.969   0.293  15.914  0.2929  0.3241  0.6395
  692TMC3    C610287   1.073   0.295  15.822 -1.0553  0.1961  0.2622
  692TMC3     C10288   0.885   0.654  15.923 -1.3229 -0.0905 -0.0775
  692TMC3     O10289   0.787   0.656  15.994 -0.3744  0.2849 -0.1959
  692TMC3     H10290   1.058   0.622  15.733 -2.3297 -0.3055 -2.6231
  692TMC3    H110291   0.841   0.417  16.032 -0.3777 -0.0439 -0.1615
  692TMC3    H210292   1.130   0.205  15.805 -0.9822  0.5283 -1.1644
  692TMC3    C710293   0.952   0.180  16.003 -0.6944  0.5352  0.1600
  692TMC3    C810294   1.239   0.458  15.839  0.6305  0.6571 -0.1494
  692TMC3    O110295   0.956   0.212  16.122 -0.6333  0.1264 -0.3039
  692TMC3    O210296   1.254   0.578  15.845 -0.0117 -0.1120  0.3637
  693MPD2     C10297   0.203   3.977  10.572  0.4687  0.8326 -0.0986
  693MPD2    C110298   0.178   3.840  10.576  0.1089 -0.2327 -0.4478
  693MPD2    C210299   0.275   3.752  10.618  0.1976  0.4387  0.2355
  693MPD2    C310300   0.391   3.794  10.680 -0.6251 -0.0921 -0.4835
  693MPD2    C410301   0.413   3.932  10.678 -0.2047 -0.1628  0.2381
  693MPD2    C510302   0.321   4.021  10.622  0.6591 -0.3638 -0.8237
  693MPD2     H10303   0.257   3.646  10.635 -3.4201  1.0147 -0.0439
  693MPD2    H110304   0.498   3.976  10.728 -1.0407  0.2555  1.2777
  693MPD2    H210305   0.121   4.040  10.541 -1.1045 -1.6552 -0.9588
  693MPD2    H310306   0.336   4.127  10.639  1.4361 -0.4499 -0.9749
  693MPD2     N10307   0.481   3.698  10.738 -0.1621 -0.1918 -0.7477
  693MPD2    H510308   0.446   3.605  10.759 -0.4255  0.5723  2.2000
  693MPD2    N110309   0.058   3.792  10.521  0.0972 -0.3304 -0.3269
  693MPD2    H710310   4.721   3.859  10.508  2.2543  2.3314  0.9888
  694TMC3    C110311   4.637   3.632  10.465 -0.2651 -0.6640  0.5904
  694TMC3    C210312   4.628   3.514  10.395 -0.3105  0.4161 -0.7666
  694TMC3    C310313   4.555   3.410  10.445 -0.4008 -0.0716 -0.2474
  694TMC3    C410314   4.560   3.656  10.572 -0.2212  0.0814  0.1119
  694TMC3    C510315   4.479   3.550  10.616 -0.0070 -0.7892 -0.3067
  694TMC3    C610316   4.488   3.424  10.564  0.2546  0.0923 -0.2062
  694TMC3     C10317   0.041   3.665  10.467  0.1639  0.2890  0.5730
  694TMC3     O10318   0.120   3.569  10.474 -0.4322  0.1869 -0.2989
  694TMC3     H10319   4.683   3.502  10.302 -2.4781 -1.8591 -1.7874
  694TMC3    H110320   4.545   3.752  10.620  1.4592  0.7750 -0.7630
  694TMC3    H210321   4.419   3.346  10.594 -0.2090  0.6497  0.1899
  694TMC3    C710322   4.418   3.563  10.752 -0.6456 -0.3312  0.8855
  694TMC3    C810323   4.570   3.272  10.394 -0.2076 -0.0348  0.0535
  694TMC3    O110324   4.402   3.677  10.789 -0.2072 -0.4611 -0.1097
  694TMC3    O210325   4.498   3.191  10.452 -0.2014 -0.5339  0.3581
  695MPD2     C10326   2.190   0.334  13.865  0.3715 -0.1092 -0.8155
  695MPD2    C110327   2.070   0.366  13.927  0.5972 -0.1724 -0.3602
  695MPD2    C210328   1.960   0.375  13.846 -0.2613 -0.0092 -0.1131
  695MPD2    C310329   1.964   0.354  13.712  0.3617 -0.1257  0.2812
  695MPD2    C410330   2.081   0.318  13.653 -1.0947  0.6663 -0.4809
  695MPD2    C510331   2.189   0.306  13.733 -0.2443 -0.7217 -0.9767
  695MPD2     H10332   1.861   0.405  13.876 -0.0930  0.3756  0.0533
  695MPD2    H110333   2.085   0.290  13.548  0.9424  0.5252 -0.3590
  695MPD2    H210334   2.283   0.318  13.918 -0.0752 -0.5140 -0.1618
  695MPD2    H310335   2.289   0.289  13.693  0.8119 -2.4615  2.3930
  695MPD2     N10336   1.845   0.356  13.632 -0.4342 -0.1887 -0.0468
  695MPD2    H510337   1.756   0.391  13.665  0.1884 -0.0473  1.4694
  695MPD2    N110338   2.064   0.399  14.064  0.2016 -0.0867 -0.6456
  695MPD2    H710339   1.974   0.438  14.089  0.0971 -1.1881  0.7278
  696TMC3    C110340   1.697   0.324  13.444 -0.1325 -0.3606  0.2457
  696TMC3    C210341   1.597   0.274  13.520 -0.2347  0.1692 -0.2541
  696TMC3    C310342   1.479   0.266  13.457  0.1930  0.6812  0.4027
  696TMC3    C410343   1.677   0.383  13.322  0.2137  0.2116 -0.1054
  696TMC3    C510344   1.552   0.375  13.265 -0.5562  0.3002 -0.0744
  696TMC3    C610345   1.454   0.307  13.328  0.6448  0.5399 -0.2811
  696TMC3     C10346   1.834   0.333  13.494  0.4304  0.7661 -0.1338
  696TMC3     O10347   1.916   0.343  13.407  0.5774  0.5735 -0.2805
  696TMC3     H10348   1.618   0.232  13.617  1.3144  1.8725  0.1407
  696TMC3    H110349   1.747   0.454  13.280 -0.4983  1.1089  0.2297
  696TMC3    H210350   1.354   0.306  13.286 -0.4554  2.0019  2.3197
  696TMC3    C710351   1.527   0.497  13.184  0.0643 -0.8978  0.2243
  696TMC3    C810352   1.373   0.325  13.537 -0.0992 -0.2062  0.2350
  696TMC3    O110353   1.615   0.540  13.111 -0.6940 -0.0436 -0.4334
  696TMC3    O210354   1.297   0.414  13.486 -0.3530 -0.2752  0.0445
  697MPD2     C10355   0.673   2.405  15.605 -0.7531 -0.3168  0.2552
  697MPD2    C110356   0.617   2.338  15.500 -0.5240  0.2214 -1.4018
  697MPD2    C210357   0.569   2.408  15.393  0.2460 -0.0036  0.0009
  697MPD2    C310358   0.600   2.544  15.381 -0.5819 -0.2834 -0.0111
  697MPD2    C410359   0.677   2.599  15.479  0.3041 -0.3302  0.0824
  697MPD2    C510360   0.720   2.531  15.593  0.2280  0.7505  0.9129
  697MPD2     H10361   0.510   2.359  15.316  1.5168  0.6441 -1.3709
  697MPD2    H110362   0.713   2.701  15.483 -0.7328  0.0972 -1.8887
  697MPD2    H210363   0.722   2.346  15.682  1.9447  2.1902  0.4549
  697MPD2    H310364   0.774   2.586  15.669 -0.6187  0.4252  1.7617
  697MPD2     N10365   0.554   2.611  15.267 -0.0602 -0.0396  0.0718
  697MPD2    H510366   0.494   2.563  15.200  0.0384  1.3078 -0.9931
  697MPD2    N110367   0.607   2.196  15.497  0.0330  0.1358  0.4228
  697MPD2    H710368   0.578   2.152  15.410  0.7031 -0.7004  0.6207
  698TMC3    C110369   0.511   2.802  15.116 -0.6854  0.5589  0.4173
  698TMC3    C210370   0.502   2.939  15.099  0.3023 -0.0679 -0.2302
  698TMC3    C310371   0.427   2.987  14.992 -0.0114  0.9092 -0.3566
  698TMC3    C410372   0.465   2.720  15.018  0.5121 -0.7994 -0.2286
  698TMC3    C510373   0.390   2.770  14.915  0.1725  0.0537  0.8307
  698TMC3    C610374   0.363   2.899  14.905 -0.8895 -0.0352 -0.0758
  698TMC3     C10375   0.578   2.746  15.235 -0.1042  0.3902  0.1761
  698TMC3     O10376   0.650   2.829  15.293  0.3412 -0.0107 -0.2094
  698TMC3     H10377   0.540   3.013  15.169  1.7850  1.1812 -2.3671
  698TMC3    H110378   0.483   2.614  15.031  0.9001 -0.6808  0.1987
  698TMC3    H210379   0.304   2.937  14.823 -0.1359  1.6893  0.1850
  698TMC3    C710380   0.358   2.689  14.802  0.0198  0.5790 -0.3613
  698TMC3    C810381   0.457   3.114  14.940  0.5021  0.1000  0.0172
  698TMC3    O110382   0.322   2.753  14.703 -0.3443  0.0762  0.5794
  698TMC3    O210383   0.379   3.155  14.853 -0.0643  0.0897 -0.0585
  699TMC3    C110384   0.678   1.006  13.332 -0.5523 -0.4054 -0.0554
  699TMC3    C210385   0.699   0.894  13.409  0.2673 -0.5395 -0.2446
  699TMC3    C310386   0.648   0.897  13.536 -0.1435 -0.3909 -0.0734
  699TMC3    C410387   0.621   1.117  13.384  0.2762 -0.3993  0.1302
  699TMC3    C510388   0.572   1.110  13.508 -0.4585 -0.4070 -0.8186
  699TMC3    C610389   0.582   0.997  13.587 -0.7593 -0.4488 -0.2962
  699TMC3     C10390   0.698   1.014  13.188 -0.1065 -0.1327 -0.4970
  699TMC3     O10391   0.660   1.119  13.138 -0.2668 -0.7215  0.4104
  699TMC3     H10392   0.727   0.804  13.357  1.6333  0.1176 -0.6396
  699TMC3    H110393   0.600   1.204  13.323 -1.2048 -0.8232  0.0471
  699TMC3    H210394   0.552   1.003  13.691 -0.7472  0.4439 -0.3417
  699TMC3    C710395   0.458   1.203  13.529 -0.2135  0.2266  0.3259
  699TMC3    C810396   0.673   0.778  13.622 -0.6740 -0.6912  0.3858
  699TMC3    O110397   0.458   1.307  13.464 -0.7848  0.0889  0.4022
  699TMC3    O210398   0.603   0.776  13.719  0.0763  0.7982  0.6288
  700TMC3    C110399   4.713   2.967  17.391  0.1753  0.0254  0.0678
  700TMC3    C210400   0.036   2.853  17.416 -0.5200 -0.0985  0.2479
  700TMC3    C310401   0.140   2.845  17.502 -0.3074  0.1260 -0.0023
  700TMC3    C410402   0.002   3.082  17.460  0.1552 -0.1775  0.1862
  700TMC3    C510403   0.114   3.074  17.545 -0.0180  0.0799 -0.4989
  700TMC3    C610404   0.191   2.960  17.557  0.1439 -0.2453 -0.0265
  700TMC3     C10405   4.673   2.993  17.250  0.0579  0.0057 -0.1012
  700TMC3     O10406   4.615   2.904  17.184 -0.1971  0.0537 -1.0400
  700TMC3     H10407   0.010   2.763  17.361 -1.3856  0.7552 -0.7425
  700TMC3    H110408   4.686   3.174  17.441 -1.1249 -0.9974 -0.1846
  700TMC3    H210409   0.284   2.955  17.611  0.6427  2.3738 -0.6140
  700TMC3    C710410   0.144   3.183  17.633 -0.2197 -0.3267  0.1791
  700TMC3    C810411   0.242   2.744  17.487 -0.7007 -0.5515  0.0305
  700TMC3    O110412   0.258   3.183  17.669 -0.4141  0.0482 -0.0522
  700TMC3    O210413   0.358   2.772  17.466 -0.0663 -0.4225  0.0887
  701TMC3    C110414   0.009   1.693  15.832 -0.0805 -0.2160  0.4439
  701TMC3    C210415   4.738   1.680  15.690 -0.1862  0.5075  0.2005
  701TMC3    C310416   0.105   1.712  15.605 -0.1891 -0.2315 -0.0372
  701TMC3    C410417   0.119   1.750  15.887 -0.2387  0.1017 -0.0408
  701TMC3    C510418   0.216   1.784  15.798 -0.4343 -0.1961  0.3502
  701TMC3    C610419   0.217   1.771  15.658 -1.0051 -0.0696  0.2690
  701TMC3     C10420   4.623   1.719  15.907  0.7625 -0.2750  0.3168
  701TMC3     O10421   4.623   1.776  16.018 -0.4069 -0.4597 -0.3238
  701TMC3     H10422   4.643   1.645  15.651  0.6271  0.5061 -1.8040
  701TMC3    H110423   0.124   1.779  15.992  0.1223 -0.2412  0.0386
  701TMC3    H210424   0.301   1.809  15.602  0.0574 -0.1160  1.8215
  701TMC3    C710425   0.314   1.878  15.848  0.7666  0.7214  0.5051
  701TMC3    C810426   0.077   1.718  15.464  0.2495 -0.6229  0.3455
  701TMC3    O110427   0.353   1.960  15.765  0.0737 -0.2685  0.6359
  701TMC3    O210428   0.120   1.815  15.402  0.1960  0.5427 -0.3617
  702MPD2     C10429   3.992   4.040  10.321 -0.3142  0.8451 -0.9459
  702MPD2    C110430   3.971   4.139  10.405 -0.2339 -0.5623  0.2476
  702MPD2    C210431   4.028   4.266  10.382  0.1614  0.4953  0.4666
  702MPD2    C310432   4.119   4.283  10.278  0.0760 -1.1201  0.0221
  702MPD2    C410433   4.147   4.174  10.198  0.3538 -0.6162  0.0905
  702MPD2    C510434   4.087   4.053  10.222 -0.1527 -0.4407 -0.3717
  702MPD2     H10435   4.001   4.350  10.444 -0.5893 -0.3141  1.2397
  702MPD2    H110436   4.194   4.190  10.102 -1.3504  1.0636 -0.4842
  702MPD2    H210437   3.944   3.943  10.320  0.2728  0.5403  0.3457
  702MPD2    H310438   4.094   3.976  10.146 -0.9478 -1.1279  0.2462
  702MPD2     N10439   4.158   4.417  10.254  0.0080  0.4943  0.1369
  702MPD2    H510440   4.114   4.486  10.313  0.0669  1.4548 -0.9262
  702MPD2    N110441   3.895   4.128  10.520 -0.1642 -0.5985 -0.8546
  702MPD2    H710442   3.880   4.212  10.576 -1.4042 -2.0393  1.0044
  703TMC3    C110443   4.270   4.598  10.149 -0.6945 -0.0691 -0.7896
  703TMC3    C210444   4.162   4.674  10.146  0.0462  0.3997  0.1781
  703TMC3    C310445   4.178   0.071  10.135  0.2178 -0.1872 -0.5432
  703TMC3    C410446   4.397   4.648  10.125 -0.0170  0.7402 -0.4661
  703TMC3    C510447   4.418   0.047  10.112 -0.0694  0.2840 -0.8853
  703TMC3    C610448   4.309   0.128  10.115  0.3684  0.4746  0.0695
  703TMC3     C10449   4.252   4.453  10.163  0.9697 -0.1777 -0.1186
  703TMC3     O10450   4.330   4.379  10.105  0.3256 -0.4839 -0.0659
  703TMC3     H10451   4.066   4.625  10.153  1.2225 -2.0245 -0.5898
  703TMC3    H110452   4.485   4.585  10.113 -0.2730 -0.5667  4.3619
  703TMC3    H210453   4.315   0.231  10.083  0.5274  0.8436  1.2863
  703TMC3    C710454   4.547   0.102  10.080  0.5546 -0.2139 -0.0154
  703TMC3    C810455   4.066   0.171  10.142  0.3688 -0.1682  0.0034
  703TMC3    O110456   4.541   0.206  10.018  0.0979 -0.2160 -0.1608
  703TMC3    O210457   4.096   0.284  10.111 -0.1819 -0.2573  0.3971
  704TMC3    C110458   1.609   1.727  12.462 -0.1786  0.1143 -0.4234
  704TMC3    C210459   1.644   1.660  12.355  0.2613 -0.1070  0.0288
  704TMC3    C310460   1.659   1.527  12.353  0.3799 -0.2981 -0.1995
  704TMC3    C410461   1.593   1.668  12.584  0.0523 -0.0481  0.5065
  704TMC3    C510462   1.604   1.535  12.580 -0.2023  0.0963 -0.9981
  704TMC3    C610463   1.630   1.460  12.469  0.1362  0.3720 -0.0111
  704TMC3     C10464   1.619   1.867  12.474  0.5233  0.0352  0.5024
  704TMC3     O10465   1.577   1.927  12.570  0.4239  0.1415  0.2984
  704TMC3     H10466   1.664   1.716  12.264  1.7700  1.4715  1.3258
  704TMC3    H110467   1.574   1.726  12.674 -2.3867  0.7789 -0.5471
  704TMC3    H210468   1.666   1.359  12.484 -1.3147  0.0265  1.1303
  704TMC3    C710469   1.641   1.468  12.708 -0.6170 -0.9799 -0.8109
  704TMC3    C810470   1.683   1.453  12.235  0.1940  0.6855  0.5193
  704TMC3    O110471   1.624   1.348  12.718  0.2538 -0.3738 -0.0289
  704TMC3    O210472   1.641   1.340  12.242  0.6000 -0.0555  0.0851
  705MPD2     C10473   1.469   0.570  16.669 -0.0176  0.2787 -1.4328
  705MPD2    C110474   1.395   0.628  16.565 -0.7141  1.0054  0.0978
  705MPD2    C210475   1.266   0.675  16.596 -0.1989 -0.0831 -0.8659
  705MPD2    C310476   1.226   0.683  16.731 -0.0318 -0.3952  0.4860
  705MPD2    C410477   1.314   0.657  16.832 -0.6789 -0.1147  0.7410
  705MPD2    C510478   1.424   0.581  16.798  0.0565  0.0917  0.8383
  705MPD2     H10479   1.211   0.714  16.512 -1.2149  0.1634 -0.0804
  705MPD2    H110480   1.288   0.672  16.936 -1.8534 -1.2658  0.6040
  705MPD2    H210481   1.565   0.526  16.648 -0.3293 -0.1176 -2.0343
  705MPD2    H310482   1.490   0.556  16.881 -0.6198 -1.5198  0.8793
  705MPD2     N10483   1.105   0.735  16.760 -0.6743 -0.1886  0.4055
  705MPD2    H510484   1.077   0.749  16.857  0.9966  0.6821  0.7609
  705MPD2    N110485   1.439   0.631  16.424  0.0216 -0.0875  0.1017
  705MPD2    H710486   1.372   0.669  16.357  0.9059 -0.4760 -1.0129
  706TMC3    C110487   1.609   0.532  16.012  0.3464  0.5930 -0.6422
  706TMC3    C210488   1.543   0.636  15.952  0.1956  0.1132  0.7453
  706TMC3    C310489   1.493   0.733  16.031  0.2828 -0.0311  0.6960
  706TMC3    C410490   1.619   0.511  16.149  0.1884 -0.6481  0.0086
  706TMC3    C510491   1.564   0.611  16.224 -0.0331 -0.2787 -0.0862
  706TMC3    C610492   1.510   0.729  16.169  0.1073  1.2770  0.2611
  706TMC3     C10493   1.663   0.420  15.935 -0.0816  0.5947  1.0414
  706TMC3     O10494   1.756   0.360  15.989 -0.0650 -0.1457 -0.2737
  706TMC3     H10495   1.537   0.644  15.844  0.4829  4.3699  1.0316
  706TMC3    H110496   1.654   0.420  16.196  0.8748  0.2030  1.1507
  706TMC3    H210497   1.479   0.803  16.242 -1.6719  0.1904  0.6045
  706TMC3    C710498   1.551   0.577  16.368 -0.5198 -0.3559 -0.7358
  706TMC3    C810499   1.459   0.859  15.966  0.0612  0.1049  0.7535
  706TMC3    O110500   1.640   0.506  16.417 -0.3769  0.4893 -0.2733
  706TMC3    O210501   1.479   0.870  15.846 -0.2660 -0.1096  0.4767
  707TMC3    C110502   1.821   4.216   0.890 -0.3786  0.2425  0.5228
  707TMC3    C210503   1.883   4.103   0.851 -0.2781 -0.3042 -0.4185
  707TMC3    C310504   1.867   3.990   0.924 -0.3305  0.3347  0.5109
  707TMC3    C410505   1.741   4.222   1.004  0.6395 -0.0168  0.0853
  707TMC3    C510506   1.720   4.103   1.069 -0.6244  0.0444 -0.2161
  707TMC3    C610507   1.782   3.985   1.029 -0.3600 -0.0112 -0.3809
  707TMC3     C10508   1.843   4.333   0.803 -0.7591  0.3346 -0.0917
  707TMC3     O10509   1.860   4.447   0.850 -0.1995 -0.4761  0.2297
  707TMC3     H10510   1.948   4.104   0.764  0.7519 -1.3023  0.3436
  707TMC3    H110511   1.709   4.319   1.039 -0.2629  0.0294 -0.8614
  707TMC3    H210512   1.767   3.888   1.074  0.7933  1.0428  2.3267
  707TMC3    C710513   1.658   4.117   1.207  0.6272  0.2431 -0.3267
  707TMC3    C810514   1.947   3.877   0.880 -0.5292 -0.6801  0.3008
  707TMC3    O110515   1.632   4.228   1.243  0.7133 -0.2835  0.2248
  707TMC3    O210516   1.896   3.765   0.900  0.7205  0.0119  0.1355
  708MPD2     C10517   4.283   3.045  14.119  0.7128 -0.2211  0.1003
  708MPD2    C110518   4.386   3.086  14.202 -0.5038 -0.0368  0.3109
  708MPD2    C210519   4.351   3.140  14.327  0.1937  0.3029  0.6178
  708MPD2    C310520   4.219   3.161  14.364  0.3885 -0.1634  0.0892
  708MPD2    C410521   4.125   3.139  14.270  0.1096 -0.3221  0.0449
  708MPD2    C510522   4.156   3.069  14.153 -0.2017  0.4224 -0.5838
  708MPD2     H10523   4.431   3.176  14.391  0.6346  0.6515 -0.1226
  708MPD2    H110524   4.021   3.160  14.291  0.1132  0.1767 -0.4447
  708MPD2    H210525   4.296   2.996  14.024  0.5663 -0.2323  0.0855
  708MPD2    H310526   4.087   3.045  14.073  1.0388 -2.0835 -0.9206
  708MPD2     N10527   4.184   3.248  14.471  0.1562 -0.0099  0.2003
  708MPD2    H510528   4.084   3.266  14.474  0.3266  1.1529 -1.1153
  708MPD2    N110529   4.516   3.083  14.148 -0.1618  0.0586  0.3539
  708MPD2    H710530   4.524   3.073  14.047  0.6328 -1.1533  0.5386
  709TMC3    C110531   4.687   3.226  14.147  0.4067  0.1151 -0.1947
  709TMC3    C210532   4.683   3.196  14.011  0.4302 -0.6548  0.0937
  709TMC3    C310533   4.608   3.282  13.937 -0.1459 -0.0937 -0.1917
  709TMC3    C410534   4.634   3.338  14.198 -0.0262 -0.4539 -0.1309
  709TMC3    C510535   4.552   3.417  14.120  0.1790  0.1797 -0.2669
  709TMC3    C610536   4.536   3.389  13.991 -0.3737 -0.1978 -0.6054
  709TMC3     C10537   4.627   3.120  14.220  0.4411  0.4390 -0.3263
  709TMC3     O10538   4.650   3.084  14.337 -0.0225 -0.1998 -0.2176
  709TMC3     H10539   4.714   3.099  13.976 -1.2508 -1.3259  0.4540
  709TMC3    H110540   4.622   3.345  14.305 -1.4489 -1.3616 -0.2286
  709TMC3    H210541   4.476   3.451  13.926 -0.1495  0.2821 -0.3577
  709TMC3    C710542   4.436   3.461  14.193 -0.6376  1.0357 -0.3678
  709TMC3    C810543   4.543   3.224  13.821  0.5331 -0.0068 -0.0534
  709TMC3    O110544   4.455   3.494  14.309 -1.0514 -0.1955 -0.6271
  709TMC3    O210545   4.501   3.113  13.842 -0.5838  1.0833 -0.0446
  710TMC3    C110546   0.687   0.212   0.179 -0.4894 -0.1555  0.0743
  710TMC3    C210547   0.730   0.173   0.050  0.1174 -0.5431  0.8224
  710TMC3    C310548   0.862   0.177   0.036 -1.1295 -0.3669  0.0056
  710TMC3    C410549   0.775   0.231   0.292 -0.1735  0.9200 -0.9791
  710TMC3    C510550   0.913   0.241   0.265 -0.9233  0.1865 -0.1176
  710TMC3    C610551   0.950   0.220   0.134 -0.9699  0.1347  0.2985
  710TMC3     C10552   0.545   0.225   0.197 -0.7043  0.3010  0.5968
  710TMC3     O10553   0.472   0.178   0.110 -0.2366  0.0934 -0.2112
  710TMC3     H10554   0.662   0.159  17.718  0.5974  0.4189  0.2666
  710TMC3    H110555   0.742   0.229   0.395  1.4448 -0.0684 -0.4839
  710TMC3    H210556   1.051   0.229   0.094  0.0050 -0.6538  2.5588
  710TMC3    C710557   1.002   0.218   0.379  0.0170  0.0367 -0.2196
  710TMC3    C810558   0.908   0.173  17.656  0.4904 -0.0209 -0.1341
  710TMC3    O110559   0.952   0.233   0.489 -0.4507 -0.1171  0.7505
  710TMC3    O210560   0.856   0.239  17.569  0.0480 -0.1757 -0.1115
  711TMC3    C110561   0.444   1.356  14.578  0.6243  0.1128 -0.7463
  711TMC3    C210562   0.424   1.419  14.700 -0.5669 -0.1872 -0.0645
  711TMC3    C310563   0.530   1.463  14.774 -0.1459  0.1968 -0.4595
  711TMC3    C410564   0.569   1.347  14.517  0.6905  0.2390  0.5410
  711TMC3    C510565   0.677   1.387  14.594 -0.0287  0.3207 -0.3252
  711TMC3    C610566   0.654   1.452  14.715 -0.5262  0.2390 -0.1354
  711TMC3     C10567   0.390   1.224  14.574 -0.2106  0.3318  0.6415
  711TMC3     O10568   0.400   1.166  14.462 -0.0673  0.6878  0.0045
  711TMC3     H10569   0.323   1.421  14.741 -0.7428  1.4447 -0.5910
  711TMC3    H110570   0.589   1.285  14.430 -0.7994  0.0026  0.3684
  711TMC3    H210571   0.742   1.486  14.767  1.4588 -4.0065 -0.7019
  711TMC3    C710572   0.784   1.293  14.617  0.0228  0.2192  0.0238
  711TMC3    C810573   0.517   1.405  14.906 -0.1351 -0.1864  0.3528
  711TMC3    O110574   0.872   1.332  14.696 -0.2078 -0.0064  0.3443
  711TMC3    O210575   0.424   1.329  14.932  0.2831  0.1548 -0.3756
  712MPD2     C10576   1.570   1.793  14.026  0.2308  0.0915  0.2813
  712MPD2    C110577   1.515   1.853  13.914  0.1597  0.1216 -0.4911
  712MPD2    C210578   1.564   1.979  13.882  0.2207  0.5243  0.3390
  712MPD2    C310579   1.658   2.038  13.964 -1.1423  0.0370 -0.6082
  712MPD2    C410580   1.706   1.975  14.077 -0.3137  1.1749  0.0460
  712MPD2    C510581   1.670   1.846  14.101 -0.4681 -0.5563 -0.1209
  712MPD2     H10582   1.536   2.021  13.786  1.1651  2.2584  0.8195
  712MPD2    H110583   1.772   2.021  14.150 -0.4047  1.3093  0.0449
  712MPD2    H210584   1.536   1.697  14.062  0.7704 -0.6745 -1.2584
  712MPD2    H310585   1.712   1.810  14.195  0.0237  0.1346 -0.0741
  712MPD2     N10586   1.713   2.167  13.932 -0.1630 -0.2803  0.2160
  712MPD2    H510587   1.798   2.205  13.970 -0.6893  3.2388 -2.1293
  712MPD2    N110588   1.433   1.791  13.820  0.3386 -0.0896 -0.0126
  712MPD2    H710589   1.405   1.843  13.737 -1.3488 -2.5845 -0.9917
  713TMC3    C110590   1.717   2.377  13.849 -0.3736 -0.1260  0.0608
  713TMC3    C210591   1.847   2.363  13.817  0.1022 -0.5070  0.4025
  713TMC3    C310592   1.912   2.472  13.775  0.3602  0.5661  0.0044
  713TMC3    C410593   1.648   2.487  13.806 -0.5545  0.6171  0.1314
  713TMC3    C510594   1.714   2.586  13.744 -0.4135  0.1229  0.0260
  713TMC3    C610595   1.846   2.587  13.731  0.1799  0.2285  0.3015
  713TMC3     C10596   1.635   2.260  13.867 -0.1052 -0.2525  0.4577
  713TMC3     O10597   1.521   2.274  13.841  0.6940  0.1362  0.3731
  713TMC3     H10598   1.902   2.269  13.823  0.7595 -0.1746 -0.3715
  713TMC3    H110599   1.547   2.508  13.840 -0.1692  0.9767  1.0606
  713TMC3    H210600   1.902   2.674  13.701  0.8849 -1.0938 -2.2462
  713TMC3    C710601   1.628   2.678  13.664 -0.4719 -0.3681  0.2657
  713TMC3    C810602   2.022   2.448  13.684 -0.5367 -0.0755  0.4427
  713TMC3    O110603   1.525   2.713  13.716 -0.4351  0.2740  0.3155
  713TMC3    O210604   2.007   2.502  13.576 -0.6203  0.0721 -0.2511
  714MPD2     C10605   4.082   1.435   1.002  0.5489  1.0708 -0.1847
  714MPD2    C110606   4.065   1.302   0.986  0.5097 -0.3337 -0.2266
  714MPD2    C210607   3.942   1.246   0.966 -0.1193 -0.8893 -0.0490
  714MPD2    C310608   3.825   1.328   0.969 -0.5403 -0.0847 -0.1174
  714MPD2    C410609   3.849   1.463   0.971 -0.0869  0.4078 -0.2427
  714MPD2    C510610   3.974   1.515   0.991 -0.4767  0.5526 -0.2397
  714MPD2     H10611   3.930   1.139   0.951  2.0821 -1.2846  1.0904
  714MPD2    H110612   3.762   1.528   0.967 -0.2448  0.1301 -1.3185
  714MPD2    H210613   4.178   1.481   1.021  0.8903  0.4009 -0.3003
  714MPD2    H310614   3.984   1.621   1.010  1.0595  0.2897  0.4338
  714MPD2     N10615   3.696   1.274   0.966 -0.4328  0.8838 -0.1513
  714MPD2    H510616   3.697   1.173   0.971  2.2686  0.9278  0.0581
  714MPD2    N110617   4.181   1.220   0.995  0.9582 -0.2382 -0.6341
  714MPD2    H710618   4.269   1.268   1.010  1.7388 -1.7047 -0.5140
  715TMC3    C110619   4.306   1.025   1.037 -0.1916  0.1221  0.1823
  715TMC3    C210620   4.372   0.942   0.953  0.0588 -0.1903 -0.8943
  715TMC3    C310621   4.476   0.880   1.008  0.6212  0.0872  0.0601
  715TMC3    C410622   4.343   1.064   1.163 -0.4827 -0.6610  0.4917
  715TMC3    C510623   4.466   1.015   1.201  0.2080  0.0828  0.8345
  715TMC3    C610624   4.531   0.919   1.127 -0.1878 -0.5416 -0.2876
  715TMC3     C10625   4.188   1.091   0.981 -0.1816 -0.3332 -0.2056
  715TMC3     O10626   4.109   1.012   0.928  0.3297  0.3540  0.5067
  715TMC3     H10627   4.313   0.897   0.875 -0.6128 -1.9191  0.6057
  715TMC3    H110628   4.289   1.145   1.210  2.3030  1.8372 -0.6567
  715TMC3    H210629   4.629   0.889   1.163 -0.6783 -1.3002  0.4102
  715TMC3    C710630   4.531   1.066   1.316 -0.1745 -0.8069  0.2004
  715TMC3    C810631   4.530   0.768   0.938  0.1003 -0.0022 -0.0928
  715TMC3    O110632   4.647   1.034   1.337  0.0957 -0.5257  0.1205
  715TMC3    O210633   4.492   0.756   0.825  0.3357  0.0713 -0.0479
  716MPD2     C10634   4.500   4.182   9.814  0.4696  0.3106  0.1476
  716MPD2    C110635   4.472   4.191   9.681  0.1948 -0.1468  0.4055
  716MPD2    C210636   4.509   4.082   9.605  1.1036 -0.2257 -0.0532
  716MPD2    C310637   4.575   3.973   9.659 -0.3947  0.9734 -0.6527
  716MPD2    C410638   4.602   3.969   9.793  1.1819 -0.4621  0.3032
  716MPD2    C510639   4.555   4.073   9.874  0.2831 -0.6164 -0.9035
  716MPD2     H10640   4.493   4.092   9.498  1.5698  1.4995  0.0408
  716MPD2    H110641   4.656   3.891   9.846  1.9952  1.6314  2.5480
  716MPD2    H210642   4.489   4.267   9.880 -1.2537 -0.4924  0.9017
  716MPD2    H310643   4.580   4.075   9.979 -0.5488  0.7071 -0.7326
  716MPD2     N10644   4.596   3.866   9.564  0.1335 -0.1398  0.2047
  716MPD2    H510645   4.568   3.885   9.468  2.1579 -0.9954 -0.5436
  716MPD2    N110646   4.406   4.299   9.629  0.3880  0.2340  0.0924
  716MPD2    H710647   4.379   4.369   9.697 -0.6917 -0.2583  0.1859
  717TMC3    C110648   4.673   3.666   9.484  0.6189 -0.0938  0.0829
  717TMC3    C210649   4.566   3.654   9.407  0.2399  0.0463 -0.7344
  717TMC3    C310650   4.587   3.592   9.292 -0.3633  0.3707 -0.1599
  717TMC3    C410651   0.063   3.632   9.446  0.6861 -0.1616  0.5211
  717TMC3    C510652   0.086   3.585   9.322 -0.8296 -0.4416  0.2169
  717TMC3    C610653   4.714   3.553   9.246 -0.1848 -0.5750 -0.0262
  717TMC3     C10654   4.667   3.753   9.597  0.1339 -0.5540  0.0019
  717TMC3     O10655   4.707   3.711   9.701 -0.5077 -0.2527 -0.2612
  717TMC3     H10656   4.468   3.677   9.449  1.1526 -2.0908  2.5096
  717TMC3    H110657   0.148   3.659   9.508  1.0746  0.1468 -0.1382
  717TMC3    H210658   4.734   3.525   9.143  0.6907 -1.8970  0.5038
  717TMC3    C710659   0.214   3.585   9.260 -0.6466 -0.4818 -0.6106
  717TMC3    C810660   4.473   3.565   9.215 -0.8390  0.4279 -0.1409
  717TMC3    O110661   0.301   3.657   9.303  0.3330 -0.6459  0.4363
  717TMC3    O210662   4.383   3.647   9.226 -0.4132 -0.0867  0.1290
  718MPD2     C10663   3.642   2.318  12.886  0.1335 -1.0061 -0.1864
  718MPD2    C110664   3.588   2.283  12.767 -0.9800 -0.1058  0.5244
  718MPD2    C210665   3.500   2.173  12.762  0.4435  0.1491  0.4082
  718MPD2    C310666   3.469   2.098  12.873 -0.6842  0.5964  0.0292
  718MPD2    C410667   3.537   2.131  12.992 -0.5881  0.0808  0.0764
  718MPD2    C510668   3.624   2.235  12.994 -0.1430  0.5037 -0.4940
  718MPD2     H10669   3.445   2.149  12.671  2.6226  0.8471 -1.0889
  718MPD2    H110670   3.517   2.077  13.083 -1.1720 -0.2348 -0.2339
  718MPD2    H210671   3.705   2.406  12.898 -0.3576 -0.8106  1.0147
  718MPD2    H310672   3.675   2.265  13.085 -1.3344  0.1618  0.2972
  718MPD2     N10673   3.372   1.998  12.851  0.4031 -0.6156  0.1949
  718MPD2    H510674   3.340   1.973  12.758 -1.3105  0.7450  0.4200
  718MPD2    N110675   3.610   2.360  12.662 -0.6193  0.1569 -0.4504
  718MPD2    H710676   3.671   2.440  12.676  1.9653 -1.6582 -1.2725
  719TMC3    C110677   3.587   2.415  12.431 -0.0333  0.2459  0.1354
  719TMC3    C210678   3.540   2.352  12.318  0.4409 -0.0638 -0.2260
  719TMC3    C310679   3.432   2.395  12.250 -0.0479 -0.4074 -0.5181
  719TMC3    C410680   3.548   2.537  12.464  0.2946  0.2083 -0.1855
  719TMC3    C510681   3.464   2.599  12.377 -0.2788  1.0498  0.8807
  719TMC3    C610682   3.396   2.525  12.278 -0.7513  0.0850  0.2134
  719TMC3     C10683   3.591   2.312  12.534  0.0188 -0.4017  0.1046
  719TMC3     O10684   3.583   2.192  12.496  0.5739 -0.1641  0.4952
  719TMC3     H10685   3.575   2.252  12.295  0.2885 -0.4764  1.3050
  719TMC3    H110686   3.585   2.581  12.555  1.0390  2.0087 -1.3495
  719TMC3    H210687   3.339   2.574  12.200 -1.6553 -2.7750 -0.9232
  719TMC3    C710688   3.473   2.741  12.372 -0.3919 -0.3818 -0.0149
  719TMC3    C810689   3.331   2.294  12.241  0.4383 -0.2085  0.4951
  719TMC3    O110690   3.572   2.799  12.425 -0.1022  0.0210  0.0646
  719TMC3    O210691   3.362   2.176  12.233 -0.1655  0.0544  0.1585
  720MPD2     C10692   1.792   3.756  14.196  0.0732  0.0762 -0.2822
  720MPD2    C110693   1.880   3.791  14.089 -0.0830 -0.1927  0.8220
  720MPD2    C210694   2.018   3.792  14.113 -0.0846 -0.3172 -1.1277
  720MPD2    C310695   2.066   3.753  14.238 -0.5252 -0.4554 -0.0845
  720MPD2    C410696   1.978   3.717  14.335  0.1489  0.0295  0.2146
  720MPD2    C510697   1.846   3.724  14.318 -0.9032 -0.0122 -0.1742
  720MPD2     H10698   2.085   3.832  14.038 -0.6754  1.1036 -0.8967
  720MPD2    H110699   2.022   3.680  14.427  0.0559 -0.7675 -0.0618
  720MPD2    H210700   1.685   3.771  14.188 -0.2046 -2.5581 -1.2570
  720MPD2    H310701   1.785   3.695  14.404  1.9561  0.8067  2.1173
  720MPD2     N10702   2.209   3.740  14.254 -0.1906  0.3228 -0.2864
  720MPD2    H510703   2.264   3.749  14.169 -2.0746  2.7271 -1.2556
  720MPD2    N110704   1.841   3.842  13.966  0.5559 -0.3093  0.1241
  720MPD2    H710705   1.910   3.875  13.899 -1.5895  1.4501 -1.2154
  721TMC3    C110706   2.416   3.692  14.342 -0.3929  0.7895  0.6969
  721TMC3    C210707   2.489   3.697  14.459  0.6640  0.6055 -0.4797
  721TMC3    C310708   2.623   3.682  14.454  0.6224  0.0471 -0.0390
  721TMC3    C410709   2.463   3.677  14.211 -0.1950 -0.6339  0.5603
  721TMC3    C510710   2.599   3.659  14.224  0.0397 -0.2686 -0.6474
  721TMC3    C610711   2.674   3.646  14.337 -0.2853 -0.1513  0.3655
  721TMC3     C10712   2.276   3.700  14.366 -0.1441 -0.1541 -0.0707
  721TMC3     O10713   2.230   3.668  14.476 -0.2243  0.4422  0.1145
  721TMC3     H10714   2.428   3.692  14.548  0.6021  0.3479 -0.5374
  721TMC3    H110715   2.412   3.644  14.121 -0.6580  0.0050  0.5913
  721TMC3    H210716   2.782   3.657  14.336 -0.4649  1.5969  1.0483
  721TMC3    C710717   2.674   3.624  14.107 -0.3352  0.2151 -0.5476
  721TMC3    C810718   2.698   3.668  14.570  0.1646  0.5618 -0.2229
  721TMC3    O110719   2.657   3.687  13.997 -0.3077 -0.0473 -0.5426
  721TMC3    O210720   2.804   3.610  14.571  0.1526  0.1445  0.4290
  722MPD2     C10721   0.618   2.664  13.319  0.1671 -0.2691  0.1578
  722MPD2    C110722   0.600   2.797  13.335  0.3342  0.1267 -0.2820
  722MPD2    C210723   0.469   2.843  13.332  0.6793  0.4555 -0.3299
  722MPD2    C310724   0.366   2.756  13.309  0.4750 -0.7238 -0.0459
  722MPD2    C410725   0.389   2.626  13.281  0.6397 -1.0216  0.0482
  722MPD2    C510726   0.516   2.583  13.287  0.3304  0.4178  0.5042
  722MPD2     H10727   0.453   2.950  13.329 -1.7386  0.1029  0.2444
  722MPD2    H110728   0.311   2.555  13.257 -0.0159 -0.1201 -0.5015
  722MPD2    H210729   0.716   2.619  13.311  0.3956 -0.2758  2.8428
  722MPD2    H310730   0.536   2.479  13.266 -0.0243  0.4414  0.0515
  722MPD2     N10731   0.236   2.814  13.292 -0.4688 -0.3713 -0.1696
  722MPD2    H510732   0.227   2.916  13.289  0.2427 -0.3034  0.1073
  722MPD2    N110733   0.707   2.891  13.351  0.9551  0.1671  0.2218
  722MPD2    H710734   0.674   2.986  13.365 -0.8993 -0.2754 -1.0409
  723TMC3    C110735   0.004   2.847  13.241  0.1484  0.5973  0.0358
  723TMC3    C210736   4.640   2.812  13.150 -0.5350  0.3557 -0.2852
  723TMC3    C310737   4.565   2.914  13.094  0.0718  0.1950  0.2203
  723TMC3    C410738   0.017   2.979  13.281  0.6139 -0.4994  0.3216
  723TMC3    C510739   4.677   3.076  13.228 -0.2522  0.2375 -0.5762
  723TMC3    C610740   4.586   3.041  13.123 -0.2107  0.2312  0.3598
  723TMC3     C10741   0.120   2.753  13.259  0.4378  0.1494  0.3844
  723TMC3     O10742   0.104   2.637  13.225  0.0599 -0.5713  0.5675
  723TMC3     H10743   4.628   2.714  13.104  0.2434  0.4146 -0.6128
  723TMC3    H110744   0.087   3.010  13.358  0.7274  0.9118 -0.3621
  723TMC3    H210745   4.546   3.116  13.055  0.6926 -1.1950 -1.7736
  723TMC3    C710746   4.715   3.214  13.244  0.4499 -0.3286 -0.3990
  723TMC3    C810747   4.477   2.896  12.982  0.4401  0.0990 -0.8936
  723TMC3    O110748   0.023   3.250  13.351 -0.2559  0.1184 -0.4557
  723TMC3    O210749   4.383   2.977  12.972  0.6438  0.0939 -0.1641
  724TMC3    C110750   1.221   1.314  10.852 -1.4722 -0.4128 -0.5397
  724TMC3    C210751   1.227   1.325  10.715  0.4033  1.0213  0.0497
  724TMC3    C310752   1.270   1.449  10.659 -0.0044 -0.7103 -0.4501
  724TMC3    C410753   1.270   1.420  10.928 -0.2828 -0.1211 -0.2480
  724TMC3    C510754   1.334   1.521  10.863 -0.5153  0.4512 -0.0026
  724TMC3    C610755   1.323   1.546  10.735 -0.0197  0.0518 -0.1344
  724TMC3     C10756   1.164   1.197  10.917 -0.9255  0.3073 -0.2094
  724TMC3     O10757   1.152   1.091  10.854 -0.2649 -0.0777 -0.5097
  724TMC3     H10758   1.178   1.253  10.650  0.5570  0.7919  0.1910
  724TMC3    H110759   1.295   1.398  11.032  0.4940 -0.1171 -0.4353
  724TMC3    H210760   1.346   1.646  10.700  1.7046 -0.0902  0.5936
  724TMC3    C710761   1.404   1.630  10.933  0.9428  1.3908  0.4276
  724TMC3    C810762   1.262   1.461  10.518 -0.6490  0.5503  0.5100
  724TMC3    O110763   1.514   1.661  10.887  0.0138  0.5979 -0.5780
  724TMC3    O210764   1.188   1.382  10.457 -0.1705  0.2727  0.3141
  725TMC3    C110765   2.797   4.603  12.731  0.3908  0.1624  0.8987
  725TMC3    C210766   2.724   4.679  12.645 -0.3118  0.2627  0.3632
  725TMC3    C310767   2.640   4.610  12.561  0.3964  0.3140  0.2306
  725TMC3    C410768   2.791   4.471  12.736 -0.0480 -0.7397 -0.3461
  725TMC3    C510769   2.698   4.416  12.650  0.0783 -0.4532 -0.0774
  725TMC3    C610770   2.614   4.480  12.568  0.2091  0.2104 -0.6801
  725TMC3     C10771   2.887   4.672  12.832  0.4545  0.8215 -0.0446
  725TMC3     O10772   2.886   0.056  12.819  0.5149 -0.1321  0.4715
  725TMC3     H10773   2.748   0.046  12.639 -2.0067  0.6402  0.1507
  725TMC3    H110774   2.867   4.415  12.790  0.1986  0.6222  0.7287
  725TMC3    H210775   2.537   4.429  12.511  2.3347 -0.7042 -2.7473
  725TMC3    C710776   2.747   4.296  12.584 -0.5622 -0.0488  0.0852
  725TMC3    C810777   2.625   4.671  12.431  0.3381 -0.3769  0.0032
  725TMC3    O110778   2.707   4.271  12.470  0.5364 -0.1243  0.5365
  725TMC3    O210779   2.619   0.054  12.426  0.2508 -0.3039  0.5238
  726MPD2     C10780   0.188   1.653  10.425  0.3339 -0.3818 -0.1387
  726MPD2    C110781   0.078   1.720  10.371 -0.1449  0.4323 -0.2565
  726MPD2    C210782   4.693   1.670  10.402  0.0097  0.1890  0.6270
  726MPD2    C310783   4.676   1.560  10.481 -0.1096  0.2256  0.1369
  726MPD2    C410784   0.050   1.495  10.529 -0.4536  0.1409 -0.1905
  726MPD2    C510785   0.169   1.548  10.501 -0.5575  0.1451 -0.2927
  726MPD2     H10786   4.604   1.719  10.363  0.5342  0.3286 -0.4026
  726MPD2    H110787   0.038   1.412  10.597  0.0225 -0.2197 -0.5455
  726MPD2    H210788   0.291   1.682  10.410  0.3172  0.0600  0.6012
  726MPD2    H310789   0.254   1.499  10.547 -2.0252 -3.2549 -1.2310
  726MPD2     N10790   4.555   1.494  10.511 -0.5904 -0.1152  0.3354
  726MPD2    H510791   4.571   1.413  10.571 -2.4522 -0.9490 -0.2777
  726MPD2    N110792   0.081   1.838  10.297  0.4728 -0.7170 -0.5311
  726MPD2    H710793   4.726   1.867  10.270  0.9731  3.1571  1.9391
  727TMC3    C110794   0.169   2.026  10.185  0.0290  0.0732 -0.3320
  727TMC3    C210795   0.267   2.125  10.189 -0.8427  0.1570 -0.2397
  727TMC3    C310796   0.258   2.227  10.106 -0.2246 -0.3340  0.1023
  727TMC3    C410797   0.052   2.043  10.114  0.0769 -0.6226  0.5627
  727TMC3    C510798   0.045   2.154  10.035  0.5371 -0.2868 -0.5280
  727TMC3    C610799   0.145   2.248  10.025 -0.3855 -0.3468 -0.9000
  727TMC3     C10800   0.196   1.908  10.264  0.5413  0.2287 -0.6594
  727TMC3     O10801   0.312   1.902  10.306 -0.1170 -0.2274 -0.2560
  727TMC3     H10802   0.355   2.121  10.251 -2.2779  2.1349  1.9141
  727TMC3    H110803   4.726   1.958  10.097  0.2815 -0.6644 -0.0056
  727TMC3    H210804   0.139   2.336   9.962  1.1312  0.5072  0.1629
  727TMC3    C710805   4.663   2.192   9.963  0.1589 -0.1031 -0.7903
  727TMC3    C810806   0.356   2.335  10.132 -0.1683 -0.2204  0.0435
  727TMC3    O110807   4.664   2.293   9.897 -0.2714 -0.2670  0.4798
  727TMC3    O210808   0.441   2.318  10.221 -0.5362 -0.6765  0.2838
  728TMC3    C110809   0.392   4.448  15.457 -0.6121 -0.3852  0.5903
  728TMC3    C210810   0.507   4.506  15.418 -0.2694 -0.3471  0.0945
  728TMC3    C310811   0.529   4.527  15.281  0.4760 -0.2500  0.1934
  728TMC3    C410812   0.300   4.402  15.364 -0.1596  0.4310 -0.3044
  728TMC3    C510813   0.320   4.437  15.230  0.7252 -0.7755  0.9081
  728TMC3    C610814   0.438   4.487  15.183  0.2621 -0.5755 -0.3576
  728TMC3     C10815   0.338   4.509  15.576  0.2742 -0.1060 -0.2123
  728TMC3     O10816   0.394   4.613  15.613 -0.3660  0.2041 -0.0505
  728TMC3     H10817   0.580   4.546  15.488  0.4359 -1.3524 -0.0651
  728TMC3    H110818   0.200   4.376  15.398 -0.3267  0.4226 -0.7909
  728TMC3    H210819   0.455   4.486  15.076  2.7302  0.8448  0.0269
  728TMC3    C710820   0.202   4.437  15.142  0.2636 -0.7897  0.3468
  728TMC3    C810821   0.598   4.656  15.250  1.0462 -0.9375  0.8061
  728TMC3    O110822   0.106   4.377  15.182  0.2664 -0.2595  0.3742
  728TMC3    O210823   0.656   4.709  15.343  0.1754  0.3817 -0.1101
  729MPD2     C10824   2.238   1.010  16.254 -0.0903 -0.0879  0.0491
  729MPD2    C110825   2.339   1.045  16.352  0.3090  0.0236  0.9718
  729MPD2    C210826   2.305   1.041  16.485 -0.0629  0.3916 -0.4450
  729MPD2    C310827   2.180   1.002  16.528 -0.3750 -0.4313 -0.3314
  729MPD2    C410828   2.078   0.959  16.437 -0.4830  0.2256 -0.0567
  729MPD2    C510829   2.109   0.968  16.304  0.4619  0.4950 -0.2234
  729MPD2     H10830   2.372   1.085  16.557  1.8302  0.7491 -2.4246
  729MPD2    H110831   1.978   0.939  16.473 -0.1491 -1.3341  0.0341
  729MPD2    H210832   2.256   1.016  16.148  0.4950 -0.0541  0.1488
  729MPD2    H310833   2.042   0.929  16.229  0.2681 -0.6965  0.5787
  729MPD2     N10834   2.136   1.022  16.663 -0.2235 -0.2617  0.4641
  729MPD2    H510835   2.037   1.011  16.680  0.1486 -1.6239  1.7876
  729MPD2    N110836   2.467   1.096  16.307  0.1975 -0.1614  0.5624
  729MPD2    H710837   2.477   1.100  16.206  1.7682 -0.6294  0.6999
  730TMC3    C110838   2.152   1.051  16.914 -0.3185  0.3367  0.5180
  730TMC3    C210839   2.240   1.061  17.022  0.0797  0.9175 -0.1706
  730TMC3    C310840   2.190   1.084  17.150  0.7567 -0.0864 -0.6644
  730TMC3    C410841   2.016   1.056  16.923 -0.3986 -0.3375  0.5401
  730TMC3    C510842   1.965   1.095  17.046  0.7554 -1.0898 -0.2861
  730TMC3    C610843   2.049   1.107  17.153  0.5961 -0.3896 -0.5641
  730TMC3     C10844   2.223   1.034  16.778  0.8165  0.5641 -0.3667
  730TMC3     O10845   2.346   1.020  16.787 -0.4166  0.3791 -0.1812
  730TMC3     H10846   2.347   1.053  17.011 -0.4361 -3.4350 -2.2011
  730TMC3    H110847   1.945   1.041  16.843 -0.2605  2.0118 -0.0220
  730TMC3    H210848   2.005   1.135  17.248  0.6154 -1.0623 -0.3545
  730TMC3    C710849   1.916   1.227  17.021 -0.6545  0.6255 -0.5000
  730TMC3    C810850   2.261   1.195  17.213  0.0309  0.0555 -0.5694
  730TMC3    O110851   1.937   1.270  16.911  0.3484  0.3554  0.3100
  730TMC3    O210852   2.344   1.250  17.144 -0.0072 -0.4980 -0.3326
  731MPD2     C10853   1.789   4.069  12.416 -0.2062 -0.1104  0.2675
  731MPD2    C110854   1.918   4.070  12.360  0.5382  0.3905  0.4185
  731MPD2    C210855   2.014   4.028  12.453  0.3378  0.0552 -0.6484
  731MPD2    C310856   1.990   3.982  12.582 -0.3159 -0.6147 -0.1614
  731MPD2    C410857   1.860   3.974  12.623 -0.4531 -0.2973 -0.5748
  731MPD2    C510858   1.763   4.027  12.542 -0.0711 -0.8661  0.9649
  731MPD2     H10859   2.116   4.023  12.414  0.4499  1.9699 -0.5826
  731MPD2    H110860   1.825   3.929  12.716 -0.2927 -2.3329 -1.5098
  731MPD2    H210861   1.705   4.114  12.365  0.8214  0.5176 -0.8898
  731MPD2    H310862   1.658   4.020  12.569 -0.3811 -3.9996 -1.0671
  731MPD2     N10863   2.100   3.957  12.663  0.2770  0.5258 -0.0886
  731MPD2    H510864   2.187   3.985  12.619  0.4087 -0.8203 -0.6971
  731MPD2    N110865   1.928   4.120  12.230  0.4204  0.3798  0.1441
  731MPD2    H710866   1.844   4.150  12.183  0.3070  1.7931  1.2483
  732TMC3    C110867   2.028   4.184  12.021  0.4379 -0.1808 -0.3552
  732TMC3    C210868   1.952   4.297  12.001 -0.1487 -0.2125 -0.2386
  732TMC3    C310869   1.930   4.329  11.869  0.3619  1.1027  0.1361
  732TMC3    C410870   2.108   4.126  11.931  0.0865 -0.5629  0.3751
  732TMC3    C510871   2.092   4.165  11.799  0.3329 -0.2586 -0.0862
  732TMC3    C610872   2.005   4.266  11.767 -0.7794  0.7476  0.0432
  732TMC3     C10873   2.042   4.116  12.152  0.6010 -0.4804  0.1412
  732TMC3     O10874   2.151   4.068  12.185  0.2956  0.4682  0.5087
  732TMC3     H10875   1.900   4.347  12.081 -0.2661 -0.1659 -0.3448
  732TMC3    H110876   2.173   4.044  11.959 -2.6152 -1.6122  3.6741
  732TMC3    H210877   2.009   4.297  11.663  1.0295 -0.2665 -0.1952
  732TMC3    C710878   2.146   4.076  11.696 -0.1038 -0.6863 -0.2564
  732TMC3    C810879   1.855   4.448  11.824 -0.0437  0.0861 -0.2494
  732TMC3    O110880   2.089   4.060  11.589 -0.0887  0.6543 -0.2235
  732TMC3    O210881   1.870   4.485  11.708  0.6126  0.1098  0.0485
  733TMC3    C110882   3.020   1.700  12.887 -0.4662 -0.1442 -0.2808
  733TMC3    C210883   3.127   1.764  12.950  0.2127 -0.1399  0.5246
  733TMC3    C310884   3.190   1.859  12.876 -0.2476  0.5393 -0.2412
  733TMC3    C410885   2.971   1.741  12.761 -0.8595 -0.1628  0.6603
  733TMC3    C510886   3.041   1.836  12.699  0.4403 -0.4695  0.2915
  733TMC3    C610887   3.154   1.898  12.750  0.6412  0.2564  0.3585
  733TMC3     C10888   2.909   1.683  12.976 -0.3736 -0.8466 -0.1214
  733TMC3     O10889   2.880   1.782  13.037  0.1400  0.9305  0.4811
  733TMC3     H10890   3.148   1.753  13.056  3.0526 -1.0587 -0.1386
  733TMC3    H110891   2.885   1.690  12.719  0.8607 -3.1509  0.7436
  733TMC3    H210892   3.186   1.995  12.714 -1.9632  0.6797 -0.7708
  733TMC3    C710893   2.969   1.918  12.596 -0.0072  0.1993  0.3555
  733TMC3    C810894   3.299   1.935  12.952 -0.4245 -0.5071 -0.1075
  733TMC3    O110895   2.847   1.921  12.603 -0.4032  0.3850  0.2812
  733TMC3    O210896   3.317   1.941  13.072  0.7231 -0.3350 -0.1857
  734MPD2     C10897   0.381   0.485  12.211 -0.0621  0.0016  0.4913
  734MPD2    C110898   0.252   0.518  12.186  0.4467  0.3970  0.4815
  734MPD2    C210899   0.230   0.598  12.075  0.0710 -0.1708  0.0919
  734MPD2    C310900   0.322   0.643  11.993  0.5004 -0.1815  0.1197
  734MPD2    C410901   0.451   0.624  12.032 -0.3724 -0.5834  0.2572
  734MPD2    C510902   0.481   0.546  12.144 -0.3850 -0.7384  0.4688
  734MPD2     H10903   0.132   0.610  12.032 -0.1760  1.2622  1.0666
  734MPD2    H110904   0.539   0.659  11.980 -1.4166  0.7278 -0.6197
  734MPD2    H210905   0.408   0.428  12.299  0.6734  0.3105  0.4590
  734MPD2    H310906   0.583   0.528  12.173 -0.5435 -0.8782  0.9499
  734MPD2     N10907   0.278   0.700  11.878 -0.3061 -0.3653  0.2652
  734MPD2    H510908   0.178   0.705  11.862 -0.2506  0.7083  0.1954
  734MPD2    N110909   0.141   0.467  12.263  0.7636  0.2223  0.0491
  734MPD2    H710910   0.161   0.400  12.337 -1.0858  0.5840  0.8826
  735TMC3    C110911   4.655   0.425  12.314 -0.6390  0.5819  0.6062
  735TMC3    C210912   4.529   0.446  12.266  0.1704 -0.3928  0.4184
  735TMC3    C310913   4.457   0.334  12.224 -0.4301 -0.0348  0.0253
  735TMC3    C410914   4.700   0.297  12.323  0.3851 -0.6876 -0.6971
  735TMC3    C510915   4.630   0.193  12.281  0.5762 -0.7091  0.6869
  735TMC3    C610916   4.500   0.206  12.239  0.0495  0.4433 -0.2316
  735TMC3     C10917   0.008   0.503  12.245 -0.1483 -0.2188 -0.3137
  735TMC3     O10918   4.691   0.577  12.165  0.3357 -0.1641 -0.1771
  735TMC3     H10919   4.468   0.534  12.286 -0.0396 -0.6654  0.9902
  735TMC3    H110920   0.051   0.266  12.377  1.0033  1.7506 -0.3149
  735TMC3    H210921   4.452   0.123  12.187  2.1344 -0.2729 -1.0007
  735TMC3    C710922   4.717   0.104  12.214 -0.3646 -0.4069 -0.7079
  735TMC3    C810923   4.392   0.355  12.098  0.8383 -0.0198 -0.3003
  735TMC3    O110924   0.089   0.139  12.180 -0.9394 -0.2963 -0.1204
  735TMC3    O210925   4.344   0.264  12.035 -0.5734 -0.3745  0.3673
  736MPD2     C10926   4.645   4.495  12.087 -0.1220  0.3337  0.3815
  736MPD2    C110927   4.717   4.609  12.113  0.1065  0.5966 -0.0817
  736MPD2    C210928   0.111   4.613  12.069 -0.1881 -0.1324 -0.3318
  736MPD2    C310929   0.171   4.508  11.992 -0.3218  0.4262  0.5693
  736MPD2    C410930   0.088   4.398  11.969 -0.2357  0.1557 -1.0438
  736MPD2    C510931   4.698   4.390  12.017  0.6467 -0.0054 -0.5977
  736MPD2     H10932   0.173   4.700  12.091 -1.3634  0.1540  1.8713
  736MPD2    H110933   0.125   4.310  11.918  2.9541 -0.0070  1.5228
  736MPD2    H210934   4.541   4.485  12.117  0.0031 -1.8825  0.0696
  736MPD2    H310935   4.644   4.297  12.006 -0.3822  0.3925  1.1345
  736MPD2     N10936   0.296   4.512  11.932 -0.5652 -0.0465 -0.1364
  736MPD2    H510937   0.326   4.435  11.873  2.8616  0.1952  1.2576
  736MPD2    N110938   4.653   4.718  12.186  0.2014 -0.7414  0.3043
  736MPD2    H710939   4.560   4.707  12.224  0.0980  3.3494  1.2066
  737TMC3    C110940   0.463   4.611  11.806  0.4061 -0.1612 -0.6978
  737TMC3    C210941   0.518   4.729  11.767 -0.3062  0.4195  0.1630
  737TMC3    C310942   0.617   4.714  11.679  0.1924 -0.1633  0.0735
  737TMC3    C410943   0.492   4.487  11.753 -0.0533 -0.3783 -1.0255
  737TMC3    C510944   0.599   4.479  11.668  0.9538 -0.4269 -0.3713
  737TMC3    C610945   0.668   4.596  11.632 -0.4383 -0.4752  0.4096
  737TMC3     C10946   0.356   4.626  11.896 -0.6050  0.5342 -0.3689
  737TMC3     O10947   0.336   0.004  11.926 -0.3997  0.2294  0.0788
  737TMC3     H10948   0.482   0.090  11.791  0.5603  0.3301  1.8736
  737TMC3    H110949   0.466   4.387  11.784  0.2859 -0.9580 -2.5619
  737TMC3    H210950   0.752   4.598  11.563 -0.1623 -0.8446  0.7401
  737TMC3    C710951   0.647   4.347  11.622  0.7020 -0.3634  0.4066
  737TMC3    C810952   0.683   0.100  11.636 -0.4705 -0.5212  0.8761
  737TMC3    O110953   0.593   4.245  11.658 -0.2269 -0.0510  0.3415
  737TMC3    O210954   0.653   0.200  11.695 -0.7557  0.2001  0.7869
  738MPD2     C10955   0.602   3.309  14.783  0.2312  0.5017 -0.1493
  738MPD2    C110956   0.672   3.223  14.867 -0.5282  0.0353  0.2198
  738MPD2    C210957   0.807   3.220  14.866  0.4586 -0.4354  0.0686
  738MPD2    C310958   0.878   3.304  14.777 -0.8369  0.5151 -0.7481
  738MPD2    C410959   0.802   3.380  14.695 -0.2638 -0.3086 -0.1204
  738MPD2    C510960   0.672   3.394  14.694  0.2640  0.0229  0.2026
  738MPD2     H10961   0.865   3.147  14.922  2.3472  1.1515  0.1590
  738MPD2    H110962   0.854   3.445  14.626 -2.4891  1.8192  0.2114
  738MPD2    H210963   0.495   3.320  14.772 -0.2181 -1.2112  2.4449
  738MPD2    H310964   0.623   3.470  14.634  0.8840  0.3704  0.1409
  738MPD2     N10965   1.010   3.291  14.730  0.0785  0.1866 -0.5319
  738MPD2    H510966   1.034   3.336  14.642  2.2724 -2.8928 -1.4903
  738MPD2    N110967   0.598   3.137  14.953  1.0089  0.7950 -0.1560
  738MPD2    H710968   0.651   3.071  15.009  0.6079  0.7733  0.1949
  739TMC3    C110969   1.237   3.216  14.724 -0.4302 -0.1512 -0.7007
  739TMC3    C210970   1.263   3.230  14.588  1.0786 -0.4726  0.0772
  739TMC3    C310971   1.397   3.227  14.549  0.1706  0.1695 -0.2345
  739TMC3    C410972   1.330   3.188  14.818  0.3562 -0.2063 -0.5560
  739TMC3    C510973   1.454   3.175  14.775 -0.2039 -0.1633 -0.2656
  739TMC3    C610974   1.494   3.204  14.643 -0.0710  0.4528 -0.2782
  739TMC3     C10975   1.102   3.204  14.790 -0.5458 -0.9120  0.9956
  739TMC3     O10976   1.092   3.144  14.895 -0.0074 -0.1936 -0.2740
  739TMC3     H10977   1.178   3.256  14.525  0.9436  0.6772  0.7140
  739TMC3    H110978   1.313   3.178  14.925 -0.7994  1.5713 -0.5728
  739TMC3    H210979   1.598   3.212  14.615 -1.0218  2.0585 -3.4020
  739TMC3    C710980   1.551   3.179  14.882 -0.1193 -0.6008 -0.4877
  739TMC3    C810981   1.426   3.288  14.422  0.5641 -0.3525 -0.0399
  739TMC3    O110982   1.519   3.136  14.991 -0.3695  0.1951 -0.0149
  739TMC3    O210983   1.327   3.295  14.346 -0.5419 -0.3711 -0.6169
  740TMC3    C110984   2.074   4.161  14.726 -0.1375  0.1066  0.3305
  740TMC3    C210985   2.066   4.093  14.846 -0.3692  0.0458 -0.4706
  740TMC3    C310986   2.159   3.987  14.856 -0.5967 -0.4235  0.0068
  740TMC3    C410987   2.173   4.135  14.633 -0.2059  0.2895 -0.1168
  740TMC3    C510988   2.266   4.039  14.657 -0.7654  0.3701  0.0846
  740TMC3    C610989   2.262   3.967  14.773 -0.6132  0.1133  0.5374
  740TMC3     C10990   1.968   4.246  14.674  0.2903  0.2738 -0.0869
  740TMC3     O10991   1.980   4.302  14.564  0.0253  0.4420 -0.1355
  740TMC3     H10992   1.987   4.109  14.919  0.8137  2.3759  0.2974
  740TMC3    H110993   2.172   4.187  14.538  0.6275  1.4219  0.4980
  740TMC3    H210994   2.320   3.876  14.776 -0.8283 -0.0325  0.2710
  740TMC3    C710995   2.374   4.004  14.567 -0.9006  0.6531  0.4672
  740TMC3    C810996   2.170   3.934  14.989  0.4144  0.6474  0.2481
  740TMC3    O110997   2.470   3.953  14.614 -0.1201  0.0494  0.5114
  740TMC3    O210998   2.278   3.889  15.019 -0.1481  0.3166  0.1493
  741TMC3    C110999   1.376   3.864  14.212  0.3458  0.0063 -0.6930
  741TMC3    C211000   1.246   3.833  14.168  0.4155 -0.3667  0.8548
  741TMC3    C311001   1.204   3.710  14.201 -0.0665 -0.1272  0.6572
  741TMC3    C411002   1.449   3.782  14.294 -0.4314 -0.4741  0.3480
  741TMC3    C511003   1.396   3.669  14.335 -0.2361  0.3894  0.3937
  741TMC3    C611004   1.274   3.632  14.296  0.4434  0.1267  0.3955
  741TMC3     C11005   1.451   3.991  14.180 -0.2119 -0.5390  0.3972
  741TMC3     O11006   1.559   4.019  14.234 -0.2165  0.1348  0.2786
  741TMC3     H11007   1.175   3.891  14.110  3.1678 -0.0076 -2.2022
  741TMC3    H111008   1.542   3.819  14.335 -0.2434  0.0964 -0.5996
  741TMC3    H211009   1.246   3.529  14.311 -0.4936  0.2327 -0.6138
  741TMC3    C711010   1.430   3.633  14.477 -0.0055 -0.6595 -0.4513
  741TMC3    C811011   1.095   3.649  14.119  0.1385 -0.2793 -0.7267
  741TMC3    O111012   1.548   3.656  14.510  0.3335 -0.4235  0.0648
  741TMC3    O211013   1.006   3.715  14.070  0.6431 -0.5919 -0.0747
  742TMC3    C111014   1.175   2.486  15.233 -0.4614 -0.8017  0.3799
  742TMC3    C211015   1.127   2.409  15.132 -0.3165 -0.4283  0.0894
  742TMC3    C311016   1.190   2.290  15.095 -0.1295  0.8063  0.8348
  742TMC3    C411017   1.286   2.438  15.306 -0.1108  0.2675  0.5641
  742TMC3    C511018   1.345   2.316  15.267 -0.2808 -0.8808 -0.0007
  742TMC3    C611019   1.295   2.244  15.167 -0.3326  0.1626  0.0876
  742TMC3     C11020   1.098   2.597  15.279  0.3279 -0.0612 -0.4997
  742TMC3     O11021   0.996   2.630  15.219 -0.6342 -0.3696  0.0336
  742TMC3     H11022   1.062   2.460  15.062 -0.3841  1.5504  1.5751
  742TMC3    H111023   1.342   2.504  15.372 -2.5418  2.0104  0.8739
  742TMC3    H211024   1.343   2.150  15.144 -1.1016  0.1020 -1.2862
  742TMC3    C711025   1.479   2.275  15.322 -0.4279  0.3732 -0.0898
  742TMC3    C811026   1.142   2.202  14.992  0.2384  0.1448  0.1136
  742TMC3    O111027   1.528   2.176  15.263  0.1288  0.1572  0.1430
  742TMC3    O211028   1.193   2.088  14.972 -0.5649 -0.1036 -0.1869
  743MPD2     C11029   2.807   4.576   1.074  0.6789  0.2602 -0.9277
  743MPD2    C111030   2.901   4.510   0.996  0.1724  0.3149  0.8002
  743MPD2    C211031   3.034   4.551   0.993 -0.1876 -0.0293  0.2108
  743MPD2    C311032   3.078   4.647   1.082  0.7219  0.3197  0.2514
  743MPD2    C411033   2.987   4.708   1.171 -0.1497 -0.2523  0.0351
  743MPD2    C511034   2.851   4.677   1.160 -0.3614  0.0409  0.1836
  743MPD2     H11035   3.100   4.494   0.928  0.1833 -1.3485  1.7394
  743MPD2    H111036   3.017   0.047   1.239 -0.9776  2.1085 -2.2784
  743MPD2    H211037   2.703   4.547   1.078  1.1246 -1.3897 -1.3811
  743MPD2    H311038   2.784   4.731   1.226  0.9250  1.3171  0.4695
  743MPD2     N11039   3.222   4.669   1.091  0.5897 -0.1200  0.0060
  743MPD2    H511040   3.281   4.615   1.028  0.6908 -0.0480  0.0372
  743MPD2    N111041   2.852   4.392   0.936  0.0661  0.5199  0.0675
  743MPD2    H711042   2.754   4.376   0.957  0.0146 -1.2416 -1.4803
  744TMC3    C111043   2.878   4.168   0.823  0.3235  0.3257  0.9518
  744TMC3    C211044   2.752   4.135   0.861  0.4733  0.2538  0.4315
  744TMC3    C311045   2.713   4.004   0.834 -0.1733  0.2612  0.0422
  744TMC3    C411046   2.960   4.092   0.744  0.2333 -0.2602  0.9586
  744TMC3    C511047   2.921   3.966   0.715  0.1785  0.4501  0.1005
  744TMC3    C611048   2.795   3.928   0.754  0.8979  0.4316  0.0451
  744TMC3     C11049   2.935   4.296   0.870  0.0285 -0.0416  0.7275
  744TMC3     O11050   3.058   4.293   0.869 -0.5290 -0.5714 -0.1730
  744TMC3     H11051   2.692   4.193   0.930  1.0216  1.9680 -0.5136
  744TMC3    H111052   3.047   4.138   0.699  0.7385 -0.4260  1.7526
  744TMC3    H211053   2.764   3.826   0.734 -3.1810  2.1223 -2.3033
  744TMC3    C711054   3.016   3.868   0.666  0.4757  0.0713  0.8009
  744TMC3    C811055   2.576   3.978   0.852 -0.2206  0.2402 -0.0708
  744TMC3    O111056   3.134   3.900   0.676 -0.2128 -0.0367  0.1634
  744TMC3    O211057   2.508   4.061   0.906 -0.7466 -0.3568 -0.1886
  745TMC3    C111058   1.279   1.643  13.731  0.1767 -0.2072  0.3035
  745TMC3    C211059   1.148   1.643  13.767 -0.2215  0.0844 -0.4926
  745TMC3    C311060   1.057   1.708  13.691 -0.2342 -0.4918  0.0746
  745TMC3    C411061   1.307   1.683  13.605  0.5314 -0.2018  0.4158
  745TMC3    C511062   1.208   1.725  13.519 -0.3795  1.0063  0.1595
  745TMC3    C611063   1.081   1.741  13.565  0.4742  0.2533 -0.1227
  745TMC3     C11064   1.366   1.674  13.842 -0.2338  0.2844 -0.2845
  745TMC3     O11065   1.348   1.622  13.949 -0.1106 -0.4922 -0.4066
  745TMC3     H11066   1.119   1.617  13.869  0.7222  2.6834  0.4471
  745TMC3    H111067   1.406   1.648  13.577  0.1275  0.0184 -1.2612
  745TMC3    H211068   0.997   1.766  13.502  0.9042  1.0177 -0.3966
  745TMC3    C711069   1.260   1.837  13.445 -0.0338  0.2146  0.9569
  745TMC3    C811070   0.991   1.814  13.761  0.1908 -0.7647 -0.2642
  745TMC3    O111071   1.180   1.927  13.433 -0.1011  0.1686 -0.4306
  745TMC3    O211072   0.885   1.848  13.709 -0.0019  0.4659  0.2059
  746TMC3    C111073   3.666   4.155  10.856  0.1933  0.9001 -0.3214
  746TMC3    C211074   3.724   4.146  10.731  0.2341 -0.2321 -0.9593
  746TMC3    C311075   3.779   4.026  10.701 -0.2117 -0.1574 -0.8007
  746TMC3    C411076   3.646   4.040  10.940  0.7315  0.0792  0.1592
  746TMC3    C511077   3.696   3.921  10.891  0.6028 -0.0031  0.7848
  746TMC3    C611078   3.766   3.914  10.775  0.1391 -0.3874 -0.8143
  746TMC3     C11079   3.633   4.279  10.915  0.0460 -0.3016  0.2630
  746TMC3     O11080   3.595   4.276  11.033  0.2959  0.1763  0.1525
  746TMC3     H11081   3.711   4.221  10.654  0.6318  0.4904 -0.3202
  746TMC3    H111082   3.592   4.030  11.033  1.5726  1.2017  0.7766
  746TMC3    H211083   3.799   3.815  10.748  1.5538  0.1398 -1.0163
  746TMC3    C711084   3.630   3.806  10.946  0.0553  0.1661 -0.3559
  746TMC3    C811085   3.847   4.010  10.575 -0.0579 -0.3463  0.1939
  746TMC3    O111086   3.632   3.800  11.067 -0.0546 -0.2749  0.0288
  746TMC3    O211087   3.876   3.898  10.541  0.2288 -0.2826  0.1196
  747TMC3    C111088   1.383   4.529  11.032  0.2797  0.2446  0.7951
  747TMC3    C211089   1.325   4.414  11.066 -0.4570  0.4977  0.0994
  747TMC3    C311090   1.335   4.380  11.197 -0.3866  0.8198  0.1330
  747TMC3    C411091   1.456   4.605  11.119 -0.8141  0.2426 -0.1495
  747TMC3    C511092   1.461   4.568  11.252 -0.3263 -0.0792 -0.7518
  747TMC3    C611093   1.408   4.449  11.293  0.2305  0.0923 -0.5263
  747TMC3     C11094   1.406   4.563  10.897  0.6908 -0.2543  0.4729
  747TMC3     O11095   1.437   4.676  10.867  0.4372 -0.2855 -0.9897
  747TMC3     H11096   1.270   4.352  10.996 -1.8716  0.5322  1.1807
  747TMC3    H111097   1.523   4.681  11.079 -0.6699  0.4365  0.4544
  747TMC3    H211098   1.408   4.430  11.400 -0.3818 -1.5142 -0.8131
  747TMC3    C711099   1.576   4.613  11.336 -0.4548 -0.2081  0.2038
  747TMC3    C811100   1.267   4.258  11.246  0.1495  0.0762  0.5475
  747TMC3    O111101   1.639   4.524  11.396 -0.2129 -0.4022 -0.3879
  747TMC3    O211102   1.273   4.159  11.175 -0.4638  0.2361 -0.0137
  748MPD2     C11103   2.411   1.046   0.965 -0.4002 -0.0923  0.0672
  748MPD2    C111104   2.490   0.975   1.057  0.3213  0.1048 -0.3855
  748MPD2    C211105   2.630   0.972   1.042  0.1920  0.2949 -0.1429
  748MPD2    C311106   2.698   1.043   0.942 -1.0564 -0.5516 -0.1688
  748MPD2    C411107   2.617   1.106   0.848  0.2890 -0.6484 -0.3498
  748MPD2    C511108   2.476   1.109   0.860 -0.4345  0.4001 -0.7081
  748MPD2     H11109   2.691   0.914   1.110 -0.7571  0.2085  0.6428
  748MPD2    H111110   2.671   1.158   0.770 -0.3830 -0.2110 -0.5256
  748MPD2    H211111   2.303   1.051   0.974 -0.4257 -0.4997 -0.0494
  748MPD2    H311112   2.423   1.170   0.788  0.5442  0.9737 -0.9366
  748MPD2     N11113   2.832   1.009   0.918 -0.6340  0.0003 -0.9829
  748MPD2    H511114   2.867   0.929   0.968  1.7086 -0.6188 -3.6499
  748MPD2    N111115   2.421   0.891   1.148 -0.2502  0.2096  0.3404
  748MPD2    H711116   2.321   0.908   1.159 -0.4362 -0.6665 -0.0203
  749TMC3    C111117   3.037   0.995   0.810  0.2197 -0.2035  0.0921
  749TMC3    C211118   3.043   0.867   0.859 -0.3082 -0.4867 -0.5421
  749TMC3    C311119   3.163   0.798   0.843 -0.5865 -0.1587  0.4326
  749TMC3    C411120   3.140   1.055   0.746  0.2602 -0.7481 -0.9164
  749TMC3    C511121   3.258   0.987   0.740  0.0109  0.2087 -0.2080
  749TMC3    C611122   3.271   0.861   0.780  0.1991  0.7104  0.3063
  749TMC3     C11123   2.913   1.070   0.825  0.1137  0.0214 -0.3069
  749TMC3     O11124   2.894   1.179   0.775 -0.3938 -0.1030  0.5961
  749TMC3     H11125   2.961   0.805   0.894  0.4885 -0.9084  0.6349
  749TMC3    H111126   3.139   1.159   0.716  1.7132 -1.0344 -1.9600
  749TMC3    H211127   3.366   0.808   0.786  1.1223  2.1306 -1.5726
  749TMC3    C711128   3.377   1.054   0.694  0.0950 -0.2157  0.4510
  749TMC3    C811129   3.152   0.647   0.852 -0.2060 -0.1590 -0.4347
  749TMC3    O111130   3.379   1.175   0.687  0.2292 -0.5613  0.7915
  749TMC3    O211131   3.044   0.609   0.897  0.2205 -0.0859 -0.2032
  750MPD2     C11132   3.639   1.319  11.466 -0.0875 -0.0633  0.1987
  750MPD2    C111133   3.547   1.225  11.501  0.3514 -0.1573 -0.6272
  750MPD2    C211134   3.513   1.134  11.407  0.5720  0.1123 -0.3624
  750MPD2    C311135   3.582   1.126  11.286  0.0939  0.4323 -0.8721
  750MPD2    C411136   3.684   1.217  11.259  0.0387  0.8954 -0.3630
  750MPD2    C511137   3.714   1.318  11.348  0.0398  0.0958  0.4653
  750MPD2     H11138   3.436   1.065  11.440 -0.3431  0.4155 -1.8736
  750MPD2    H111139   3.747   1.209  11.172 -2.1804 -2.2346 -1.6752
  750MPD2    H211140   3.677   1.381  11.547  1.9142 -0.1683 -0.6491
  750MPD2    H311141   3.793   1.392  11.342 -0.9440  1.1543  0.6319
  750MPD2     N11142   3.534   1.042  11.181  0.3174  0.4118 -0.3269
  750MPD2    H511143   3.588   1.059  11.097 -0.2048  3.9435  0.0446
  750MPD2    N111144   3.496   1.236  11.637 -0.0885  0.1169  0.1260
  750MPD2    H711145   3.516   1.320  11.689  1.3939 -0.7891  1.0108
  751TMC3    C111146   3.427   0.860  11.083 -0.0001  0.1473  0.1204
  751TMC3    C211147   3.308   0.791  11.072  0.3967  0.3819 -0.3599
  751TMC3    C311148   3.281   0.733  10.948 -0.3635 -0.0466  0.6688
  751TMC3    C411149   3.518   0.864  10.977 -0.5101  0.6003 -0.1096
  751TMC3    C511150   3.491   0.792  10.863 -0.5512 -0.1525  0.2698
  751TMC3    C611151   3.373   0.727  10.849  0.3702 -0.6300  0.1900
  751TMC3     C11152   3.433   0.943  11.201  0.0627 -0.3348  0.2670
  751TMC3     O11153   3.359   0.909  11.295  0.0868 -0.4179  0.4067
  751TMC3     H11154   3.242   0.789  11.158  1.3697 -0.4596  0.3656
  751TMC3    H111155   3.615   0.913  10.980 -0.1773 -0.0671 -0.2236
  751TMC3    H211156   3.343   0.697  10.749 -1.2856 -0.9167  0.7671
  751TMC3    C711157   3.605   0.737  10.789  0.2208 -0.5610 -0.3901
  751TMC3    C811158   3.189   0.618  10.950 -0.2985 -0.0425  0.0872
  751TMC3    O111159   3.704   0.806  10.785 -0.0982 -0.0044 -0.7386
  751TMC3    O211160   3.169   0.569  10.840  0.3170 -0.2829  1.0171
  752TMC3    C111161   2.679   1.391  17.268  0.1018  0.1047  0.8422
  752TMC3    C211162   2.705   1.260  17.272 -0.0773 -1.2566 -0.3286
  752TMC3    C311163   2.642   1.185  17.367 -0.2601  0.2788  0.1470
  752TMC3    C411164   2.589   1.454  17.350  0.0697 -0.3284 -0.0122
  752TMC3    C511165   2.539   1.375  17.454  0.2789 -0.5257  1.0813
  752TMC3    C611166   2.556   1.242  17.456  0.1945  0.2352  0.1086
  752TMC3     C11167   2.750   1.480  17.175  0.8465 -0.1001 -0.2101
  752TMC3     O11168   2.755   1.595  17.208  0.1845 -0.0093 -0.4051
  752TMC3     H11169   2.786   1.204  17.226 -0.4013 -1.9678 -0.0471
  752TMC3    H111170   2.596   1.561  17.366 -2.7206  0.3154 -3.1259
  752TMC3    H211171   2.507   1.177  17.527 -1.3299  1.2421 -0.0127
  752TMC3    C711172   2.517   1.427  17.590  0.0478 -0.8273  0.3804
  752TMC3    C811173   2.684   1.052  17.398 -0.6358 -0.0236 -0.0714
  752TMC3    O111174   2.530   1.342  17.677  0.0099 -0.5877 -0.6479
  752TMC3    O211175   2.726   0.978  17.309 -0.2203 -0.7071 -0.0486
  753TMC3    C111176   4.507   1.984  13.173 -0.1057  0.2714  0.0936
  753TMC3    C211177   4.543   1.959  13.303  0.0215 -0.1093  0.0574
  753TMC3    C311178   4.548   1.825  13.326 -0.0877 -0.5834 -0.5701
  753TMC3    C411179   4.483   1.891  13.073 -0.3232 -0.3077 -0.2414
  753TMC3    C511180   4.479   1.760  13.107 -0.1168  0.6174  0.3039
  753TMC3    C611181   4.513   1.726  13.234  0.4950  0.1177 -0.2547
  753TMC3     C11182   4.487   2.123  13.130 -0.4186  0.3497  0.3764
  753TMC3     O11183   4.433   2.209  13.202  0.1250  0.4439  0.3031
  753TMC3     H11184   4.555   2.037  13.377 -0.2698  1.3164 -1.4116
  753TMC3    H111185   4.451   1.924  12.975  0.0042 -1.6726 -0.8108
  753TMC3    H211186   4.517   1.622  13.265 -0.1224 -0.2175 -1.2986
  753TMC3    C711187   4.526   1.668  13.001 -0.0748  1.2306  0.3655
  753TMC3    C811188   4.642   1.779  13.416  0.0865  0.4117 -0.3838
  753TMC3    O111189   4.445   1.642  12.913 -0.4305 -0.2929 -0.4150
  753TMC3    O211190   4.696   1.673  13.387 -0.0338 -0.4894 -0.2054
  754MPD2     C11191   3.962   0.439  13.718 -0.0814  0.1026 -1.0724
  754MPD2    C111192   3.899   0.330  13.661 -0.0530  0.4467 -0.6570
  754MPD2    C211193   3.784   0.354  13.581 -0.4882  0.4739 -0.3215
  754MPD2    C311194   3.733   0.478  13.576 -0.3216  0.1222 -1.5723
  754MPD2    C411195   3.801   0.580  13.625  0.5513  0.0916 -0.0898
  754MPD2    C511196   3.912   0.561  13.707  0.0778 -0.5857 -0.2334
  754MPD2     H11197   3.744   0.272  13.523  1.3030 -0.3485 -0.3887
  754MPD2    H111198   3.768   0.683  13.619  1.7455  0.5569  1.1421
  754MPD2    H211199   4.043   0.432  13.789  0.2416  0.5301 -1.3954
  754MPD2    H311200   3.969   0.638  13.758 -0.0568 -0.9515  0.4753
  754MPD2     N11201   3.614   0.506  13.495 -0.2558 -0.9387 -0.2136
  754MPD2    H511202   3.616   0.596  13.449 -0.0800  0.0871  1.7663
  754MPD2    N111203   3.961   0.205  13.689 -0.1130  0.4935 -0.4543
  754MPD2    H711204   4.055   0.213  13.727  0.5509 -0.6924 -1.8783
  755MPD2     C11205   2.922   0.724  13.829 -0.5650 -0.2767  0.1802
  755MPD2    C111206   2.884   0.772  13.708  0.7258  0.3094 -0.4225
  755MPD2    C211207   2.966   0.748  13.602  0.5549  1.5112  0.0124
  755MPD2    C311208   3.087   0.683  13.621 -0.4580  0.2066 -0.1836
  755MPD2    C411209   3.122   0.637  13.749 -0.2265  0.4796 -0.2718
  755MPD2    C511210   3.041   0.666  13.857  0.6661 -1.0482  0.0579
  755MPD2     H11211   2.931   0.790  13.508  1.6437 -0.0450 -1.1000
  755MPD2    H111212   3.216   0.587  13.770 -0.9905 -1.2092 -0.8574
  755MPD2    H211213   2.848   0.724  13.908  1.1936  1.2907  1.8049
  755MPD2    H311214   3.065   0.612  13.947  1.9574  0.5581  0.6868
  755MPD2     N11215   3.175   0.647  13.520  0.0309  0.2038  0.1426
  755MPD2    H511216   3.251   0.584  13.542  1.5486  1.1336 -2.3762
  755MPD2    N111217   2.760   0.839  13.682  0.6385  0.1288 -0.3833
  755MPD2    H711218   2.736   0.858  13.585 -1.4398 -0.3112  0.0501
  756MPD2     C11219   3.670   2.108   9.645  0.1687  0.5606 -0.1491
  756MPD2    C111220   3.596   2.017   9.722  0.5890 -0.0456  0.4843
  756MPD2    C211221   3.492   1.947   9.665 -0.2664 -0.1502  0.1624
  756MPD2    C311222   3.461   1.971   9.527  0.7557 -0.0176 -0.6984
  756MPD2    C411223   3.540   2.051   9.446  0.8459  0.4247 -0.4979
  756MPD2    C511224   3.646   2.107   9.509  0.8646 -0.1284 -0.1321
  756MPD2     H11225   3.432   1.880   9.725 -0.8980 -1.1068 -1.5510
  756MPD2    H111226   3.521   2.071   9.341  1.3219 -1.0372 -0.8629
  756MPD2    H211227   3.761   2.158   9.673 -0.3971  1.4328  0.1393
  756MPD2    H311228   3.719   2.163   9.451  1.0289  0.2313  0.4175
  756MPD2     N11229   3.348   1.904   9.475 -0.0036  0.1388 -0.7032
  756MPD2    H511230   3.308   1.828   9.529  1.8312 -1.3590 -1.4290
  756MPD2    N111231   3.617   1.987   9.864 -0.7308 -0.1438 -0.5561
  756MPD2    H711232   3.551   1.920   9.903 -1.1463  1.2722  1.1376
  757MPD2     C11233   2.788   1.381   9.844 -0.3038 -0.0524  0.0677
  757MPD2    C111234   2.912   1.433   9.863  0.2420  0.3163 -0.8923
  757MPD2    C211235   2.962   1.520   9.759 -0.7567 -0.1891 -0.5366
  757MPD2    C311236   2.892   1.544   9.640 -0.0081 -0.5917  0.4912
  757MPD2    C411237   2.772   1.473   9.623  0.0114 -0.7141 -0.5555
  757MPD2    C511238   2.730   1.391   9.720  0.3718 -0.7442  0.3533
  757MPD2     H11239   3.060   1.566   9.767 -0.5025 -0.5604 -1.6661
  757MPD2    H111240   2.722   1.467   9.527 -1.4494  0.3562  0.1387
  757MPD2    H211241   2.738   1.321   9.919 -1.1011  0.0351 -0.3828
  757MPD2    H311242   2.640   1.334   9.700 -0.0167 -0.5586  1.5778
  757MPD2     N11243   2.948   1.621   9.532  0.2380 -0.3035 -0.4604
  757MPD2    H511244   3.046   1.649   9.534 -0.3207  1.7786 -1.7397
  757MPD2    N111245   2.981   1.403   9.983 -0.1987  0.3372 -0.3374
  757MPD2    H711246   2.944   1.327  10.038  0.5398  0.8676  0.8996
  758MPD2     C11247   3.862   0.600  15.900  0.0271 -0.0071  0.1394
  758MPD2    C111248   3.918   0.562  16.020  0.5256  0.0218  0.0385
  758MPD2    C211249   3.914   0.649  16.129 -0.6956 -0.1083 -0.7750
  758MPD2    C311250   3.843   0.768  16.119  0.1851  0.0547  0.0534
  758MPD2    C411251   3.763   0.794  16.006 -0.3238 -0.3657 -0.5185
  758MPD2    C511252   3.778   0.714  15.900  0.1917 -0.2529 -0.1666
  758MPD2     H11253   3.959   0.629  16.226  2.3641  3.3589 -1.4979
  758MPD2    H111254   3.701   0.883  15.994  1.3805  0.6313 -2.0444
  758MPD2    H211255   3.877   0.541  15.811  3.4089  1.3705 -0.1874
  758MPD2    H311256   3.731   0.750  15.810  0.1779  1.3250  0.4741
  758MPD2     N11257   3.840   0.862  16.229  0.4029 -0.6740  0.4172
  758MPD2    H511258   3.760   0.923  16.229  0.6652 -0.3333  0.7463
  758MPD2    N111259   3.977   0.431  16.031  0.5460  0.2986  0.0400
  758MPD2    H711260   3.960   0.373  15.950  0.1640 -2.2883  1.9758
  759MPD2     C11261   2.946   3.650   9.795  0.0985 -0.2659  0.3680
  759MPD2    C111262   2.870   3.760   9.832  0.3654 -0.3413 -0.2708
  759MPD2    C211263   2.916   3.885   9.806 -0.1798  0.4281 -0.4751
  759MPD2    C311264   3.032   3.912   9.737 -0.6731  0.8364  0.3376
  759MPD2    C411265   3.098   3.803   9.686 -0.3468  0.1515 -0.1059
  759MPD2    C511266   3.056   3.675   9.714  0.2038 -0.0958 -0.0063
  759MPD2     H11267   2.861   3.971   9.841  0.9783  1.7349 -1.8586
  759MPD2    H111268   3.193   3.802   9.633 -0.0477 -0.8763  0.4379
  759MPD2    H211269   2.916   3.546   9.805 -0.1893 -0.2760 -0.5861
  759MPD2    H311270   3.115   3.589   9.684 -0.2265 -0.3785 -0.0440
  759MPD2     N11271   3.071   4.047   9.733 -0.0327  0.7641  0.4050
  759MPD2    H511272   3.012   4.121   9.771 -0.6723  0.2084  0.4860
  759MPD2    N111273   2.757   3.727   9.912  0.1519 -0.2955 -0.1045
  759MPD2    H711274   2.733   3.629   9.926 -0.0127  0.0625  2.1136
  760MPD2     C11275   2.198   0.710  12.269 -0.3997  0.2020  0.1589
  760MPD2    C111276   2.196   0.772  12.154 -0.3172 -0.1435  0.3002
  760MPD2    C211277   2.224   0.694  12.038  0.0012  0.7259 -1.0593
  760MPD2    C311278   2.249   0.561  12.055  0.0341 -0.0589  0.1552
  760MPD2    C411279   2.226   0.501  12.182 -0.4475 -0.5055 -0.3508
  760MPD2    C511280   2.212   0.581  12.285  0.5560  0.4158 -0.4326
  760MPD2     H11281   2.243   0.743  11.943  0.7216  1.9609 -0.2774
  760MPD2    H111282   2.236   0.394  12.190  0.5279 -0.3771  0.2130
  760MPD2    H211283   2.207   0.770  12.359 -0.1650  0.5786 -0.1146
  760MPD2    H311284   2.218   0.539  12.385 -1.1217 -1.2057 -1.0039
  760MPD2     N11285   2.289   0.472  11.950 -0.4154  0.0372  0.0374
  760MPD2    H511286   2.325   0.381  11.979  0.4454  0.2971 -0.2241
  760MPD2    N111287   2.186   0.916  12.144 -0.5692 -0.2559  0.1350
  760MPD2    H711288   2.205   0.968  12.229  0.5560 -0.3361 -0.0655
  761MPD2     C11289   3.080   0.160  11.130 -0.2937 -0.3193 -0.3740
  761MPD2    C111290   3.154   0.194  11.015  0.9307 -0.5245  0.0583
  761MPD2    C211291   3.171   0.330  10.996 -0.6245 -0.6971 -0.0473
  761MPD2    C311292   3.139   0.426  11.090  0.6094  0.4883 -0.0823
  761MPD2    C411293   3.097   0.384  11.215  0.5787  0.5412 -0.6076
  761MPD2    C511294   3.059   0.250  11.232 -0.3240 -0.8879 -0.2017
  761MPD2     H11295   3.206   0.363  10.898 -0.5327 -1.5115 -0.2835
  761MPD2    H111296   3.082   0.452  11.298  0.0535 -0.4858  0.1186
  761MPD2    H211297   3.061   0.060  11.166 -1.2902  0.3433  0.9658
  761MPD2    H311298   3.009   0.211  11.320 -2.0872  2.6197  0.3540
  761MPD2     N11299   3.165   0.562  11.076 -0.2210  0.0570  0.1358
  761MPD2    H511300   3.183   0.616  11.161 -0.2856 -2.3331  1.6611
  761MPD2    N111301   3.207   0.092  10.927  0.2712  0.4485  0.1160
  761MPD2    H711302   3.183   4.734  10.953  1.9010 -0.2096 -0.8147
  762MPD2     C11303   3.594   0.290  10.295  0.8265 -0.2651  0.6245
  762MPD2    C111304   3.609   0.153  10.318  0.5840  0.5726 -0.8979
  762MPD2    C211305   3.727   0.097  10.273  0.0640 -0.1340 -0.5297
  762MPD2    C311306   3.829   0.179  10.221 -0.5177 -0.2118 -0.7141
  762MPD2    C411307   3.814   0.311  10.202  0.3800  0.4470  0.1339
  762MPD2    C511308   3.694   0.371  10.243 -0.2724  0.7356 -0.2891
  762MPD2     H11309   3.746   4.728  10.276 -3.9509 -0.8053  0.4889
  762MPD2    H111310   3.885   0.378  10.154 -0.4028  1.7980  0.8563
  762MPD2    H211311   3.498   0.335  10.321  0.1520 -1.9492  1.0376
  762MPD2    H311312   3.680   0.476  10.221  1.3873  1.6383  2.9734
  762MPD2     N11313   3.953   0.111  10.190 -0.3656  0.1702 -0.0348
  762MPD2    H511314   3.960   0.013  10.216  0.7993 -0.3502 -2.3642
  762MPD2    N111315   3.508   0.078  10.381 -0.0835 -0.0728 -0.1701
  762MPD2    H711316   3.416   0.118  10.396 -0.0801  0.3424 -1.2369
  763MPD2     C11317   0.297   0.564  16.177 -1.4201 -0.6016  0.6058
  763MPD2    C111318   0.421   0.515  16.147  0.0697 -0.9751 -0.0670
  763MPD2    C211319   0.540   0.575  16.187  0.1976  0.1263 -0.4179
  763MPD2    C311320   0.530   0.694  16.257 -0.0823 -0.3223  0.2987
  763MPD2    C411321   0.404   0.753  16.272 -0.5355  0.3537 -0.0071
  763MPD2    C511322   0.290   0.690  16.234  0.4631  0.0403 -0.5376
  763MPD2     H11323   0.637   0.527  16.177  0.2321  0.4719 -1.7409
  763MPD2    H111324   0.385   0.846  16.325 -0.3037  0.3272  0.1186
  763MPD2    H211325   0.209   0.510  16.142 -2.1743  1.9075 -1.3608
  763MPD2    H311326   0.195   0.741  16.248  0.3308 -0.9896  2.3829
  763MPD2     N11327   0.647   0.752  16.295  0.0569  0.4107 -0.7600
  763MPD2    H511328   0.731   0.705  16.262  0.8131 -1.0414  3.3233
  763MPD2    N111329   0.417   0.390  16.076 -0.4142  0.1526 -0.2071
  763MPD2    H711330   0.327   0.351  16.052 -2.1276  3.6894  0.4601
  764MPD2     C11331   3.300   2.028  17.625 -0.1281 -0.3623 -0.0306
  764MPD2    C111332   3.169   2.065  17.620 -0.7868 -0.2791  0.9749
  764MPD2    C211333   3.091   2.061  17.733  0.4323 -0.2606 -0.8685
  764MPD2    C311334   3.150   2.009   0.102 -0.5672 -0.3460 -0.1867
  764MPD2    C411335   3.281   1.965   0.104 -0.0903 -0.2740  0.4391
  764MPD2    C511336   3.352   1.974  17.737 -0.7266 -0.6851  0.2819
  764MPD2     H11337   2.986   2.086  17.725  0.7023  0.8115 -1.0001
  764MPD2    H111338   3.333   1.924   0.190 -2.1415 -4.0029 -0.1230
  764MPD2    H211339   3.362   2.018  17.536  0.6275  1.2445  0.3083
  764MPD2    H311340   3.450   1.928  17.738 -0.9583 -1.1667  0.5036
  764MPD2     N11341   3.061   2.014   0.213  0.6434 -0.3149 -0.4989
  764MPD2    H511342   2.966   2.048   0.206  0.8695  0.9833  2.6958
  764MPD2    N111343   3.124   2.100  17.491 -0.8062  0.2649 -0.1820
  764MPD2    H711344   3.192   2.081  17.418 -0.3018 -1.8157  0.8300
  765MPD2     C11345   3.526   4.433  16.066 -0.1679  0.3503  0.9284
  765MPD2    C111346   3.613   4.537  16.084  0.4696 -0.0703 -0.1187
  765MPD2    C211347   3.744   4.526  16.035  0.6811  0.5916 -0.2845
  765MPD2    C311348   3.782   4.404  15.972  0.3279  0.0809  0.0533
  765MPD2    C411349   3.686   4.305  15.940  0.7423 -0.4419 -0.3727
  765MPD2    C511350   3.559   4.320  15.993 -0.1024 -0.4316  0.9191
  765MPD2     H11351   3.814   4.608  16.045  1.2103 -0.1985  2.5255
  765MPD2    H111352   3.712   4.212  15.889  0.3071 -0.7664 -0.0097
  765MPD2    H211353   3.425   4.456  16.097 -0.1492  0.6281  0.7839
  765MPD2    H311354   3.479   4.249  15.978 -0.5434 -0.1306  1.7886
  765MPD2     N11355   3.918   4.384  15.961  0.5185 -0.0761 -0.9277
  765MPD2    H511356   3.978   4.464  15.981  0.0356  0.7372 -2.6882
  765MPD2    N111357   3.564   4.647  16.153  0.7434  0.1749 -0.6247
  765MPD2    H711358   3.472   4.639  16.196  1.8549  0.0428  1.7288
  766MPD2     C11359   3.130   4.532  16.111  1.2731 -0.1260 -0.2212
  766MPD2    C111360   3.175   4.636  16.021  0.7230  0.0679  0.2037
  766MPD2    C211361   3.220   4.598  15.898 -0.2151 -0.2520 -0.4992
  766MPD2    C311362   3.227   4.466  15.862  0.0774  0.0524 -0.2136
  766MPD2    C411363   3.188   4.371  15.950 -0.4868 -0.5105  0.3534
  766MPD2    C511364   3.152   4.398  16.080  0.5760  0.2720 -0.1924
  766MPD2     H11365   3.256   4.676  15.831 -0.5591  0.4819  0.1650
  766MPD2    H111366   3.195   4.269  15.915  2.6992 -1.1038  2.6574
  766MPD2    H211367   3.088   4.557  16.207 -1.1455  0.4460 -1.4222
  766MPD2    H311368   3.116   4.333  16.159  0.2378 -0.6374 -1.0900
  766MPD2     N11369   3.283   4.422  15.740 -0.8511 -0.3566  0.0113
  766MPD2    H511370   3.311   4.326  15.725  1.2652  0.1553  0.7230
  766MPD2    N111371   3.192   0.032  16.057  0.7961  0.0962  0.5271
  766MPD2    H711372   3.247   0.084  15.990  1.3108 -1.6589 -0.3980
  767MPD2     C11373   2.731   4.735  15.921 -0.2246 -0.1658 -0.3818
  767MPD2    C111374   2.762   0.062  15.807  0.5523 -0.0452  0.0949
  767MPD2    C211375   2.704   0.028  15.687 -0.1924 -0.1690 -0.0593
  767MPD2    C311376   2.630   4.649  15.679 -0.1571 -0.3233  0.5977
  767MPD2    C411377   2.598   4.582  15.791  0.1451 -0.1719  0.6630
  767MPD2    C511378   2.638   4.639  15.912 -0.0313  0.3878  0.0005
  767MPD2     H11379   2.724   0.085  15.597  0.1727  0.5678  0.4875
  767MPD2    H111380   2.533   4.495  15.797  1.6260 -1.2609  0.8971
  767MPD2    H211381   2.771   0.025  16.018  1.1157 -0.0079 -0.9923
  767MPD2    H311382   2.610   4.582  16.000  0.1991  0.4221  0.0955
  767MPD2     N11383   2.582   4.615  15.552 -0.1831 -0.0672  0.3612
  767MPD2    H511384   2.621   4.670  15.476  0.4709 -1.8562 -0.5840
  767MPD2    N111385   2.852   0.169  15.817  0.0716  0.5857  0.7302
  767MPD2    H711386   2.887   0.191  15.909  1.7500 -0.1796  0.2729
  768MPD2     C11387   3.585   3.363  10.222  0.4004 -0.7139 -0.4181
  768MPD2    C111388   3.511   3.362  10.344 -0.7359  0.5873  0.1703
  768MPD2    C211389   3.587   3.383  10.459  0.0007  0.4008  0.1142
  768MPD2    C311390   3.719   3.408  10.452 -0.0238 -0.1889 -0.1807
  768MPD2    C411391   3.792   3.408  10.336 -0.6555 -0.6191  0.3909
  768MPD2    C511392   3.723   3.384  10.220 -1.3057 -0.2177 -0.1085
  768MPD2     H11393   3.535   3.376  10.554  1.7198 -2.6583  0.8702
  768MPD2    H111394   3.898   3.429  10.329 -1.0647  0.8805 -1.2463
  768MPD2    H211395   3.540   3.343  10.125  2.8905 -1.9918 -1.2873
  768MPD2    H311396   3.779   3.396  10.128 -1.3143 -0.4876 -0.1485
  768MPD2     N11397   3.797   3.427  10.569 -0.0083  0.5069  0.9263
  768MPD2    H511398   3.895   3.442  10.549 -0.7392  1.1098 -2.1729
  768MPD2    N111399   3.376   3.333  10.367  0.2222 -0.7978 -0.7771
  768MPD2    H711400   3.345   3.334  10.463  0.1787  2.7746 -0.8114
  769MPD2     C11401   4.542   1.566  15.056 -0.6162  0.0383 -0.0599
  769MPD2    C111402   4.564   1.458  15.130 -0.3317 -0.1650 -0.2212
  769MPD2    C211403   4.637   1.476  15.251 -0.8161  0.4649  0.1202
  769MPD2    C311404   4.687   1.596  15.286  0.3016 -0.0231  0.4176
  769MPD2    C411405   4.674   1.703  15.196 -0.8422 -0.3718  0.6414
  769MPD2    C511406   4.600   1.681  15.085  0.2366  0.7669  0.0244
  769MPD2     H11407   4.636   1.388  15.314 -2.9495  1.4381  1.4511
  769MPD2    H111408   4.697   1.805  15.225  2.1142 -1.6759  2.8226
  769MPD2    H211409   4.474   1.562  14.971  1.8923  0.1556 -2.0965
  769MPD2    H311410   4.588   1.760  15.011  0.1511  0.5272 -0.2160
  769MPD2     N11411   0.015   1.607  15.410  0.2497 -0.3397 -0.3517
  769MPD2    H511412   0.013   1.522  15.465 -0.6012 -1.4932 -2.1572
  769MPD2    N111413   4.496   1.341  15.091 -0.8622  0.7255 -0.0934
  769MPD2    H711414   4.419   1.338  15.025 -1.0952  3.4156  0.0861
  770MPD2     C11415   4.515   0.249  14.979 -0.8007  0.8238  0.1610
  770MPD2    C111416   4.382   0.295  14.995 -0.1858  0.8792  0.0835
  770MPD2    C211417   4.355   0.431  14.987  0.0512  0.5217  0.4347
  770MPD2    C311418   4.458   0.524  14.980  0.0447  0.1363  0.2975
  770MPD2    C411419   4.590   0.486  14.969 -0.3982 -0.0345 -0.2645
  770MPD2    C511420   4.613   0.347  14.960 -0.5900 -0.9508  0.5322
  770MPD2     H11421   4.251   0.457  14.975  0.1443 -0.0533 -1.5095
  770MPD2    H111422   4.671   0.553  14.943 -1.7325  2.1505  1.2727
  770MPD2    H211423   4.537   0.143  14.977 -1.0518  0.7897 -0.6499
  770MPD2    H311424   4.714   0.312  14.939 -0.9880 -1.3594 -0.7008
  770MPD2     N11425   4.429   0.666  14.975 -0.0270  0.2116  0.6669
  770MPD2    H511426   4.330   0.692  14.971 -0.1142  0.0621  1.7019
  770MPD2    N111427   4.277   0.205  15.002  0.4371 -0.0118  0.1217
  770MPD2    H711428   4.309   0.108  15.002 -1.8742 -0.7780 -0.5628
  771MPD2     C11429   0.565   4.237  14.025  0.1425  0.7260  0.2315
  771MPD2    C111430   0.450   4.305  13.990  1.0154  0.4189 -0.2020
  771MPD2    C211431   0.335   4.246  13.940 -0.1504  0.3068  0.3376
  771MPD2    C311432   0.336   4.116  13.894  0.6340  0.3522 -0.1458
  771MPD2    C411433   0.454   4.049  13.906 -0.2813  0.4788 -0.1653
  771MPD2    C511434   0.563   4.109  13.971  0.9239  0.0237 -0.9517
  771MPD2     H11435   0.242   4.300  13.923  0.5456  2.0363  2.0433
  771MPD2    H111436   0.450   3.946  13.875 -1.5766  0.2163  0.8297
  771MPD2    H211437   0.656   4.278  14.068  0.5347  2.1300 -1.9076
  771MPD2    H311438   0.648   4.042  13.982 -0.3779 -1.3255  1.0745
  771MPD2     N11439   0.223   4.071  13.818 -0.1428 -0.5566  0.6273
  771MPD2    H511440   0.135   4.121  13.828 -0.3636 -0.9188  0.4924
  771MPD2    N111441   0.423   4.440  14.024  0.5018  0.3507 -0.1929
  771MPD2    H711442   0.335   4.481  13.994  0.3197  0.0457 -0.0769
  772MPD2     C11443   4.652   0.164  13.857 -0.1362  0.0127 -0.9740
  772MPD2    C111444   4.709   0.054  13.912 -0.3225 -0.5270  0.2506
  772MPD2    C211445   4.625   4.693  13.952  0.1753 -0.0731 -0.9087
  772MPD2    C311446   4.491   4.691  13.914 -0.4200 -0.4608  0.0659
  772MPD2    C411447   4.435   0.062  13.849  0.4220  0.1254  0.6504
  772MPD2    C511448   4.514   0.167  13.832  0.2611  0.0294  0.2574
  772MPD2     H11449   4.668   4.610  14.006  0.8749  0.1463 -1.1245
  772MPD2    H111450   4.330   0.069  13.823  0.1991 -1.5711  1.0818
  772MPD2    H211451   4.716   0.244  13.822 -0.4687  0.9687  0.6086
  772MPD2    H311452   4.475   0.256  13.783  2.7557  0.7293 -0.4817
  772MPD2     N11453   4.400   4.592  13.945  0.3740  0.2689  0.3588
  772MPD2    H511454   4.304   4.603  13.916 -0.0135  1.8539  2.2963
  772MPD2    N111455   0.116   0.029  13.927  0.9579  0.2825 -0.4481
  772MPD2    H711456   0.135   4.685  13.983  0.1457 -0.4621 -1.2483
  773MPD2     C11457   4.373   0.958   0.111  0.3479  0.7032 -0.5328
  773MPD2    C111458   4.310   0.901   0.005  0.0642 -0.1409  0.1231
  773MPD2    C211459   4.269   0.767   0.008 -1.3523  0.4200 -0.4267
  773MPD2    C311460   4.294   0.695   0.126 -0.4932  0.2666  0.1435
  773MPD2    C411461   4.356   0.751   0.233  0.0730 -0.4158  0.4528
  773MPD2    C511462   4.398   0.878   0.218  0.5971 -0.2539 -0.2422
  773MPD2     H11463   4.218   0.724  17.674 -0.3515 -0.1135 -0.7610
  773MPD2    H111464   4.375   0.701   0.327  0.6232 -1.8535 -0.4173
  773MPD2    H211465   4.412   1.059   0.117 -0.1013  0.9592 -2.0305
  773MPD2    H311466   4.453   0.925   0.299  0.7937 -1.8905  0.5839
  773MPD2     N11467   4.270   0.554   0.126  0.2277 -0.0711 -0.5516
  773MPD2    H511468   4.244   0.517   0.035  1.8512 -0.0013 -1.0524
  773MPD2    N111469   4.280   0.973  17.641  0.3559 -0.2733 -0.6922
  773MPD2    H711470   4.237   0.927  17.561  0.0772 -1.7289  0.2953
  774MPD2     C11471   3.095   4.288  13.521 -0.2865 -0.0037 -0.4309
  774MPD2    C111472   3.223   4.259  13.564 -0.5783  0.7946 -0.2566
  774MPD2    C211473   3.309   4.364  13.594  0.4043 -0.2318 -0.4890
  774MPD2    C311474   3.273   4.493  13.562  0.0175  0.2714 -0.3328
  774MPD2    C411475   3.146   4.522  13.523 -0.0634 -0.2328 -0.5594
  774MPD2    C511476   3.059   4.422  13.506  0.0620  0.3824  0.0581
  774MPD2     H11477   3.403   4.340  13.641  1.1498  1.8393 -0.9157
  774MPD2    H111478   3.112   4.620  13.493 -0.0178 -0.3674 -1.0424
  774MPD2    H211479   3.022   4.211  13.502 -0.3684  0.6557 -2.7823
  774MPD2    H311480   2.960   4.447  13.470 -0.3634 -1.9995 -0.4561
  774MPD2     N11481   3.368   4.594  13.564  0.2600  0.1501  0.6351
  774MPD2    H511482   3.332   4.688  13.546 -1.6355 -0.8550 -0.8525
  774MPD2    N111483   3.275   4.127  13.595 -1.0681 -0.2657  0.2557
  774MPD2    H711484   3.373   4.128  13.622 -1.3239  0.7775  1.1582
  775MPD2     C11485   0.272   1.270  15.793 -1.0276 -0.2601 -0.4489
  775MPD2    C111486   0.289   1.384  15.872 -1.0887 -0.6745 -0.0757
  775MPD2    C211487   0.373   1.479  15.816  0.3991 -0.4804  0.4005
  775MPD2    C311488   0.437   1.459  15.694  0.0317  0.2115  0.3750
  775MPD2    C411489   0.416   1.347  15.615 -0.3215 -0.5612  0.0518
  775MPD2    C511490   0.340   1.250  15.673 -0.1231 -0.7059  0.2548
  775MPD2     H11491   0.397   1.568  15.873  1.3864 -1.1604  1.0578
  775MPD2    H111492   0.473   1.320  15.527  0.3756  3.2440 -0.7030
  775MPD2    H211493   0.192   1.202  15.819  1.1182 -1.6601  2.3173
  775MPD2    H311494   0.314   1.163  15.614 -1.0716  0.0206 -0.3932
  775MPD2     N11495   0.525   1.552  15.633  0.0056  0.3801 -0.0407
  775MPD2    H511496   0.533   1.543  15.532 -1.7375 -1.9507  0.0289
  775MPD2    N111497   0.228   1.398  15.994  0.2988  0.4389 -0.2600
  775MPD2    H711498   0.146   1.339  15.998  0.5999 -0.0281 -1.0140
  776MPD2     C11499   2.731   1.608  11.729  0.2820  0.3538  0.0566
  776MPD2    C111500   2.867   1.614  11.741 -0.5331  0.0863  0.8300
  776MPD2    C211501   2.931   1.736  11.729  0.6384 -0.0863 -0.2597
  776MPD2    C311502   2.863   1.853  11.701  0.2170 -0.6897 -0.0879
  776MPD2    C411503   2.732   1.839  11.684  0.0570  0.7747  0.5072
  776MPD2    C511504   2.664   1.723  11.704  0.2041 -0.0624  0.4068
  776MPD2     H11505   3.039   1.735  11.739  0.5166 -0.1843  1.0665
  776MPD2    H111506   2.675   1.929  11.660  1.1506  1.7758  1.6680
  776MPD2    H211507   2.675   1.516  11.728 -3.0570  2.3615  1.3330
  776MPD2    H311508   2.556   1.733  11.695  0.0036 -0.9924  1.6976
  776MPD2     N11509   2.922   1.978  11.666 -0.2770 -0.3030 -0.1284
  776MPD2    H511510   2.855   2.046  11.634 -2.8260 -1.7823  2.1325
  776MPD2    N111511   2.936   1.497  11.771  0.3690 -0.1819 -0.4102
  776MPD2    H711512   2.878   1.418  11.799 -0.5198  0.4027 -0.5914
  777MPD2     C11513   4.144   4.332   0.493  0.2214  0.2109  0.5896
  777MPD2    C111514   4.015   4.328   0.543 -0.0013  0.4803 -0.3369
  777MPD2    C211515   3.930   4.220   0.505 -0.0938  0.0883  0.7748
  777MPD2    C311516   3.977   4.119   0.423 -0.0610  0.5620  0.0354
  777MPD2    C411517   4.106   4.134   0.366 -0.8043 -0.6546 -0.4380
  777MPD2    C511518   4.189   4.237   0.409 -0.6701 -0.2462 -0.2664
  777MPD2     H11519   3.835   4.212   0.556 -0.9809 -1.0332 -1.0580
  777MPD2    H111520   4.147   4.057   0.303  0.3949 -0.1502 -0.2683
  777MPD2    H211521   4.218   4.403   0.528  0.8631 -0.5380  0.7498
  777MPD2    H311522   4.295   4.242   0.388 -0.7650  0.3034 -0.6094
  777MPD2     N11523   3.894   4.007   0.394  0.1600  0.0666 -0.1457
  777MPD2    H511524   3.798   4.015   0.428  0.4351  2.2875  0.0984
  777MPD2    N111525   3.978   4.435   0.628  0.4214 -0.6926  0.4348
  777MPD2    H711526   4.050   4.501   0.655  0.3250  0.1840 -1.4603
  778MPD2     C11527   0.806   4.428  14.906  0.3019 -0.0955  0.1869
  778MPD2    C111528   0.811   4.304  14.852 -0.0527 -0.5778 -0.2752
  778MPD2    C211529   0.917   4.285  14.760 -0.2567  0.8211 -0.4934
  778MPD2    C311530   1.013   4.392  14.730 -0.0429 -0.0374 -0.9834
  778MPD2    C411531   0.999   4.506  14.791 -0.0826  0.2504 -0.6288
  778MPD2    C511532   0.897   4.527  14.882 -0.1059 -0.2558  0.0716
  778MPD2     H11533   0.907   4.197  14.698  1.7300  0.3148 -0.0657
  778MPD2    H111534   1.069   4.587  14.773 -1.0028  1.2155  0.1262
  778MPD2    H211535   0.729   4.454  14.978  0.6558  0.7134  0.2675
  778MPD2    H311536   0.887   4.620  14.937 -3.2129  0.2406 -1.3597
  778MPD2     N11537   1.117   4.364  14.642 -0.4783  0.5650 -0.0588
  778MPD2    H511538   1.111   4.273  14.596  2.2056  0.7797 -0.8547
  778MPD2    N111539   0.710   4.200  14.872  0.6276  0.2044 -0.3016
  778MPD2    H711540   0.690   4.137  14.794 -2.5952  1.9253 -0.8838
  779MPD2     C11541   0.042   2.805  13.670 -0.1775 -0.1356 -0.6677
  779MPD2    C111542   0.148   2.796  13.765 -0.8166 -0.3403  0.0529
  779MPD2    C211543   0.211   2.911  13.804  0.0858  0.2241 -0.2280
  779MPD2    C311544   0.178   3.035  13.745 -0.1642  0.2629  0.3022
  779MPD2    C411545   0.073   3.038  13.649  0.1706  0.5122 -0.6770
  779MPD2    C511546   0.005   2.923  13.614  0.1612 -0.2519 -0.9277
  779MPD2     H11547   0.281   2.914  13.888 -0.6497  0.4401  0.3795
  779MPD2    H111548   0.045   3.129  13.596  0.1021 -0.4724 -2.3412
  779MPD2    H211549   4.726   2.713  13.651  1.3004 -0.9953 -0.7006
  779MPD2    H311550   4.657   2.935  13.549 -1.5613  2.2471  1.8378
  779MPD2     N11551   0.246   3.148  13.789 -0.2259 -0.2715 -0.0932
  779MPD2    H511552   0.325   3.133  13.851  1.4874  0.2078 -2.1577
  779MPD2    N111553   0.165   2.672  13.829  0.0006 -0.5091 -0.0095
  779MPD2    H711554   0.106   2.596  13.798 -0.7925  0.0843  0.0247
  780MPD2     C11555   0.520   3.195   1.194  0.0566 -0.2280 -0.0200
  780MPD2    C111556   0.397   3.192   1.130 -0.0493  0.5382  0.0334
  780MPD2    C211557   0.388   3.259   1.011 -0.1735  0.1219 -0.0161
  780MPD2    C311558   0.499   3.311   0.943  0.6267 -0.0689 -0.4154
  780MPD2    C411559   0.621   3.310   1.006 -0.1098  0.0763 -0.0098
  780MPD2    C511560   0.624   3.245   1.127 -0.1410 -0.4477  0.7668
  780MPD2     H11561   0.292   3.254   0.960 -0.7085  3.1251  0.7086
  780MPD2    H111562   0.714   3.340   0.958  0.5512 -2.8057 -0.5131
  780MPD2    H211563   0.543   3.147   1.288  2.4613  2.4804  0.7636
  780MPD2    H311564   0.715   3.248   1.186 -0.6232  1.3902  1.4049
  780MPD2     N11565   0.482   3.355   0.811 -0.2738  0.0814 -0.1231
  780MPD2    H511566   0.389   3.356   0.771 -0.0843 -3.1047 -0.6522
  780MPD2    N111567   0.290   3.121   1.188 -0.0720 -0.4347  0.5432
  780MPD2    H711568   0.302   3.074   1.277  3.0105 -3.7284 -1.5817
  781MPD2     C11569   2.291   4.273  12.466  0.2930 -0.3353  0.2652
  781MPD2    C111570   2.179   4.349  12.437  0.2054 -0.0019  0.6103
  781MPD2    C211571   2.172   4.404  12.311 -0.2481 -0.2057 -0.0786
  781MPD2    C311572   2.278   4.398  12.220 -0.8789  0.5526  0.0035
  781MPD2    C411573   2.379   4.313  12.254 -0.3076 -0.6989 -0.1773
  781MPD2    C511574   2.389   4.251  12.378 -0.2177 -0.0219  0.0567
  781MPD2     H11575   2.086   4.467  12.294  0.4198  1.2954  2.0315
  781MPD2    H111576   2.462   4.280  12.192 -1.4823 -0.1125 -2.0291
  781MPD2    H211577   2.307   4.238  12.568  1.5510  1.6558  0.7553
  781MPD2    H311578   2.478   4.200  12.414  1.5874  1.2792 -2.5125
  781MPD2     N11579   2.278   4.459  12.092 -0.2487  0.2827 -0.1297
  781MPD2    H511580   2.361   4.451  12.034  1.0531  1.2457  1.6068
  781MPD2    N111581   2.076   4.373  12.528  0.5816  0.7976  0.2483
  781MPD2    H711582   1.991   4.412  12.489  1.5805  1.2712 -1.4636
  782MPD2     C11583   3.856   0.901  10.201  0.3096 -0.4063 -0.1227
  782MPD2    C111584   3.992   0.905  10.207 -0.0126  0.1214  0.0462
  782MPD2    C211585   4.057   1.021  10.254  0.3358 -0.5558  0.5747
  782MPD2    C311586   3.983   1.133  10.289 -0.0512 -0.2075  0.0132
  782MPD2    C411587   3.848   1.130  10.275  0.9767 -0.8691 -0.4710
  782MPD2    C511588   3.785   1.018  10.238  0.5368  0.4434  0.3719
  782MPD2     H11589   4.166   1.026  10.255  0.2158  1.4964  2.1803
  782MPD2    H111590   3.793   1.224  10.274  0.1881 -1.2977  1.8153
  782MPD2    H211591   3.799   0.813  10.170 -1.7846  1.0498 -0.4370
  782MPD2    H311592   3.677   1.006  10.235  0.6088 -0.5506  1.4362
  782MPD2     N11593   4.048   1.243  10.351 -0.5385  0.4192  0.0837
  782MPD2    H511594   4.150   1.245  10.351 -0.5245 -0.0995  0.1706
  782MPD2    N111595   4.053   0.783  10.172 -0.2190  0.1555 -0.2688
  782MPD2    H711596   3.989   0.713  10.136  0.5374 -1.1047  0.7959
  783MPD2     C11597   3.615   0.383  10.675 -0.6860  0.2578  0.4743
  783MPD2    C111598   3.661   0.513  10.675 -0.1250  0.1280 -0.3786
  783MPD2    C211599   3.775   0.545  10.611  0.2395  0.0453  0.6416
  783MPD2    C311600   3.852   0.445  10.551  0.5142  1.4185 -0.1994
  783MPD2    C411601   3.802   0.313  10.555 -0.7824 -0.1334  0.9137
  783MPD2    C511602   3.685   0.286  10.624 -0.6074  0.0110  0.4884
  783MPD2     H11603   3.822   0.643  10.613 -1.7425  0.9928  0.6109
  783MPD2    H111604   3.846   0.231  10.500  1.4094  0.7653  1.3051
  783MPD2    H211605   3.517   0.358  10.713 -0.5288 -1.4925 -0.2787
  783MPD2    H311606   3.643   0.186  10.624  0.1103 -0.2957 -0.3143
  783MPD2     N11607   3.981   0.481  10.499 -0.5316  0.1806  0.9871
  783MPD2    H511608   4.001   0.580  10.507  0.2570 -0.1043  2.4966
  783MPD2    N111609   3.586   0.608  10.751 -0.5192  0.3096  0.5301
  783MPD2    H711610   3.494   0.573  10.776 -0.3800  0.0429  0.6634
  784MPD2     C11611   1.774   0.873   1.498 -0.3474  0.0717 -0.3393
  784MPD2    C111612   1.835   0.953   1.409 -0.1013  0.2126  0.1321
  784MPD2    C211613   1.752   1.008   1.318  0.1012  0.5766  0.8097
  784MPD2    C311614   1.612   0.981   1.304  0.1557  0.1367 -0.5208
  784MPD2    C411615   1.553   0.896   1.393  0.2523  0.2221 -0.0145
  784MPD2    C511616   1.632   0.848   1.491  0.1351  0.3426  0.3692
  784MPD2     H11617   1.798   1.072   1.244  0.3092 -1.3023 -0.6851
  784MPD2    H111618   1.450   0.866   1.405  0.9617 -1.5221  1.5277
  784MPD2    H211619   1.823   0.835   1.586 -1.1987 -1.5592 -0.5766
  784MPD2    H311620   1.589   0.798   1.577  1.5428 -1.5181  0.0092
  784MPD2     N11621   1.537   1.047   1.207 -0.2574 -0.1078  0.0615
  784MPD2    H511622   1.581   1.111   1.142  1.4781 -1.1992  0.1682
  784MPD2    N111623   1.971   0.998   1.420  0.5464 -0.3617 -0.3265
  784MPD2    H711624   1.996   1.066   1.349  0.7342  1.0966  1.1609
  785MPD2     C11625   2.424   4.212  10.897 -0.3872  0.4841  0.4519
  785MPD2    C111626   2.329   4.286  10.959 -0.1116  0.1707  0.7209
  785MPD2    C211627   2.200   4.281  10.903  0.0794  0.0398 -0.0793
  785MPD2    C311628   2.173   4.213  10.790  0.5641 -0.1746 -0.2602
  785MPD2    C411629   2.277   4.151  10.727  0.2951 -0.4188  0.1494
  785MPD2    C511630   2.397   4.135  10.787 -0.0622  0.2742 -0.1521
  785MPD2     H11631   2.121   4.349  10.935 -1.1252 -1.7912  0.7940
  785MPD2    H111632   2.254   4.098  10.636  0.4209 -0.0691 -0.0853
  785MPD2    H211633   2.523   4.204  10.939  0.2216  1.4599 -0.8340
  785MPD2    H311634   2.479   4.081  10.740 -0.8371  0.6069 -1.8815
  785MPD2     N11635   2.042   4.231  10.741  0.1194 -0.1080  0.2266
  785MPD2    H511636   1.972   4.273  10.801 -1.5256  0.9894 -2.4814
  785MPD2    N111637   2.366   4.364  11.078 -0.5850  0.2633  0.4546
  785MPD2    H711638   2.456   4.341  11.119  0.3176 -1.9811 -2.8664
  786MPD2     C11639   0.788   2.133  14.612 -0.1773  0.5849  0.0681
  786MPD2    C111640   0.923   2.093  14.618  0.5394 -0.4018  0.3987
  786MPD2    C211641   0.994   2.116  14.736 -0.0007 -0.6192  0.5376
  786MPD2    C311642   0.953   2.210  14.829  0.6731 -0.0844 -0.2470
  786MPD2    C411643   0.832   2.271  14.804  0.6104  0.7263 -0.2678
  786MPD2    C511644   0.748   2.217  14.709 -0.2628 -1.0712 -0.1180
  786MPD2     H11645   1.091   2.073  14.759 -0.4398 -1.6193  0.5242
  786MPD2    H111646   0.809   2.361  14.860  0.7958  0.3432  0.4255
  786MPD2    H211647   0.713   2.118  14.536  0.0042 -0.3174  0.0661
  786MPD2    H311648   0.649   2.261  14.703 -0.5866 -1.6205  1.3252
  786MPD2     N11649   1.029   2.260  14.936  0.7888  0.1520  0.2400
  786MPD2    H511650   0.982   2.339  14.978  1.4944  1.1154 -0.7997
  786MPD2    N111651   0.980   1.998  14.527  0.1971 -0.3184 -0.4821
  786MPD2    H711652   1.073   1.970  14.557  0.4945  1.0541 -0.1245
  787MPD2     C11653   1.554   1.799  14.546  0.2410  0.1192 -0.1223
  787MPD2    C111654   1.477   1.713  14.480  0.2606  0.3574  0.1569
  787MPD2    C211655   1.492   1.577  14.500 -0.2283 -0.1814 -0.6290
  787MPD2    C311656   1.587   1.526  14.593 -0.2424 -0.7682  0.2189
  787MPD2    C411657   1.674   1.622  14.657 -0.4488  0.0268 -0.0657
  787MPD2    C511658   1.655   1.757  14.631 -0.3123  0.6383 -0.3260
  787MPD2     H11659   1.437   1.504  14.443 -0.0281 -0.6855 -0.1792
  787MPD2    H111660   1.758   1.591  14.718 -0.1875  1.2135  0.1608
  787MPD2    H211661   1.562   1.904  14.518 -2.6238 -0.0553 -1.5889
  787MPD2    H311662   1.726   1.825  14.676 -1.1911  2.7713 -2.2214
  787MPD2     N11663   1.595   1.386  14.612 -0.6593 -0.5440  0.1802
  787MPD2    H511664   1.537   1.326  14.554 -1.6024  1.9617 -1.5020
  787MPD2    N111665   1.382   1.760  14.386 -0.4565 -0.2277 -0.3757
  787MPD2    H711666   1.381   1.861  14.377 -1.3395 -0.0761  1.4125
  788MPD2     C11667   2.862   0.496   0.668  0.1164  0.5171 -0.7283
  788MPD2    C111668   2.941   0.580   0.592 -0.9612  0.0832 -0.8504
  788MPD2    C211669   2.909   0.713   0.574 -0.4921  0.2699  0.3820
  788MPD2    C311670   2.791   0.764   0.638 -0.2852  0.8789 -0.3907
  788MPD2    C411671   2.714   0.679   0.716 -0.5759  0.2045  0.0534
  788MPD2    C511672   2.751   0.549   0.730 -0.0533 -0.8539 -0.3460
  788MPD2     H11673   2.964   0.767   0.498 -3.0736  0.7959 -1.1280
  788MPD2    H111674   2.624   0.709   0.769  0.2619  2.2696  0.3100
  788MPD2    H211675   2.895   0.398   0.699  1.8941  1.1276 -0.7055
  788MPD2    H311676   2.700   0.492   0.807 -2.3383  0.1306 -1.1358
  788MPD2     N11677   2.745   0.899   0.608  0.8029  0.3315 -0.6439
  788MPD2    H511678   2.654   0.930   0.640 -0.3601 -0.6170 -3.0768
  788MPD2    N111679   3.053   0.533   0.518  0.5455  0.7063 -0.1499
  788MPD2    H711680   3.105   0.612   0.481  3.2009 -0.4273  1.1318
  789MPD2     C11681   3.420   0.260  16.532  0.3867  0.5032 -0.0781
  789MPD2    C111682   3.290   0.212  16.532  0.7368 -0.4960  0.1210
  789MPD2    C211683   3.185   0.299  16.505 -0.1508 -0.5894  0.2722
  789MPD2    C311684   3.203   0.431  16.469  0.1808 -0.3141 -0.1504
  789MPD2    C411685   3.332   0.483  16.491 -0.2431 -0.3359 -0.2342
  789MPD2    C511686   3.428   0.394  16.524 -0.6150 -0.4051 -0.3490
  789MPD2     H11687   3.088   0.251  16.512 -1.4589  2.2932  1.9843
  789MPD2    H111688   3.351   0.588  16.477  0.8735 -0.4873  0.1217
  789MPD2    H211689   3.506   0.197  16.551  0.2324  0.0748 -0.8227
  789MPD2    H311690   3.529   0.429  16.533 -2.0095  2.9070  2.1685
  789MPD2     N11691   3.095   0.519  16.436 -0.2531  0.3309  0.2448
  789MPD2    H511692   3.115   0.618  16.441  2.2157 -0.1965  1.3170
  789MPD2    N111693   3.254   0.081  16.573  0.0937 -0.4911 -0.1376
  789MPD2    H711694   3.154   0.068  16.557 -0.2421 -0.1163  1.6995
  790MPD2     C11695   4.215   1.916  13.551 -0.3013 -0.0654 -0.8706
  790MPD2    C111696   4.169   1.785  13.533  0.3336  0.2798 -0.3671
  790MPD2    C211697   4.143   1.747  13.402 -0.1750 -0.0379  0.0987
  790MPD2    C311698   4.151   1.831  13.293 -0.1292  0.1229 -0.0296
  790MPD2    C411699   4.195   1.959  13.316 -0.2773  0.1977 -0.2677
  790MPD2    C511700   4.226   2.001  13.441  1.1684 -0.7034  0.2566
  790MPD2     H11701   4.119   1.643  13.382  2.5502 -0.0162 -3.2843
  790MPD2    H111702   4.202   2.035  13.239  3.1815  1.7323  1.5640
  790MPD2    H211703   4.259   1.959  13.640 -2.6439  0.9542 -0.1994
  790MPD2    H311704   4.261   2.104  13.447  0.5170 -0.7053  4.3455
  790MPD2     N11705   4.124   1.779  13.164  0.5146 -0.0389  0.4733
  790MPD2    H511706   4.088   1.685  13.161  0.8476 -0.1983  1.2952
  790MPD2    N111707   4.156   1.700  13.646  0.4542  0.2584  0.3281
  790MPD2    H711708   4.187   1.730  13.737  0.9385  0.3382  0.1400
  791MPD2     C11709   3.447   1.658  12.666  0.1520 -0.1820  0.3441
  791MPD2    C111710   3.527   1.608  12.762 -0.2335 -0.1234  0.2137
  791MPD2    C211711   3.476   1.518  12.849 -0.1298 -0.0105 -0.7326
  791MPD2    C311712   3.344   1.465  12.833  0.4899 -0.2516 -0.3839
  791MPD2    C411713   3.273   1.511  12.724  0.0168 -0.2657 -0.5954
  791MPD2    C511714   3.325   1.605  12.639  0.5912 -0.0217  0.2343
  791MPD2     H11715   3.538   1.470  12.924  0.2128 -1.5816 -2.0196
  791MPD2    H111716   3.176   1.471  12.696 -0.7069  0.2468  1.1621
  791MPD2    H211717   3.484   1.749  12.619 -1.7979  0.7257  0.5292
  791MPD2    H311718   3.260   1.666  12.577  0.0781  1.9427  2.6817
  791MPD2     N11719   3.295   1.372  12.926  0.1967 -0.4721  0.1207
  791MPD2    H511720   3.354   1.341  13.002 -0.8610 -0.1137  1.0835
  791MPD2    N111721   3.656   1.665  12.776 -0.5696  0.4483 -0.4554
  791MPD2    H711722   3.681   1.732  12.704  0.2085  0.0924 -0.5087
  792MPD2     C11723   4.175   1.732  11.202 -0.3683  0.8968  0.5674
  792MPD2    C111724   4.103   1.807  11.111 -0.4908  0.0693  0.0103
  792MPD2    C211725   3.967   1.812  11.139  0.6287 -0.4481 -0.3902
  792MPD2    C311726   3.906   1.720  11.228 -0.3488  0.1545  0.2882
  792MPD2    C411727   3.978   1.642  11.305  0.6810 -0.4848 -0.1993
  792MPD2    C511728   4.117   1.648  11.294  0.2822  0.0909 -0.3693
  792MPD2     H11729   3.900   1.889  11.105  0.9730  0.9155  2.0273
  792MPD2    H111730   3.927   1.581  11.379 -1.4050  1.5708  0.0532
  792MPD2    H211731   4.283   1.736  11.206 -0.3122  0.3100 -0.3535
  792MPD2    H311732   4.176   1.602  11.373  1.1625 -0.6390 -1.4462
  792MPD2     N11733   3.765   1.716  11.249  0.1720 -0.2269  0.1880
  792MPD2    H511734   3.727   1.666  11.329 -1.0069  1.8571  0.9237
  792MPD2    N111735   4.164   1.908  11.032  1.1313 -0.1028 -0.2566
  792MPD2    H711736   4.266   1.905  11.031  1.1846  1.1286  2.7528
  793MPD2     C11737   3.242   1.743  10.455  0.2805 -0.7409  0.3546
  793MPD2    C111738   3.369   1.761  10.500  0.0165  0.0696  0.6762
  793MPD2    C211739   3.390   1.756  10.638  0.6047  0.1173  0.1023
  793MPD2    C311740   3.284   1.747  10.725  0.0474  0.0373 -0.0846
  793MPD2    C411741   3.156   1.728  10.680 -0.1071  0.3340  0.1859
  793MPD2    C511742   3.136   1.719  10.540  0.9314 -0.2112 -0.2778
  793MPD2     H11743   3.488   1.760  10.685  0.9680  0.7798 -0.7036
  793MPD2    H111744   3.070   1.720  10.744  1.1116 -0.6346  1.7144
  793MPD2    H211745   3.208   1.740  10.352 -1.3758  0.5296  0.8641
  793MPD2    H311746   3.040   1.725  10.489 -0.0786  0.3802  1.6731
  793MPD2     N11747   3.321   1.754  10.855 -0.0657 -0.3922  0.3087
  793MPD2    H511748   3.419   1.747  10.880  0.1125 -3.2635 -1.2811
  793MPD2    N111749   3.474   1.797  10.417 -0.0112 -0.4508  0.5905
  793MPD2    H711750   3.565   1.813  10.459 -0.7930  0.0457  2.1173
  794MPD2     C11751   4.194   1.393  16.944  0.2129 -1.2244 -0.2159
  794MPD2    C111752   4.070   1.403  17.007 -0.0526  0.2321  0.0216
  794MPD2    C211753   3.953   1.425  16.930 -0.5545 -0.1534  0.1642
  794MPD2    C311754   3.964   1.438  16.791 -0.1375  0.1274  0.8887
  794MPD2    C411755   4.091   1.437  16.739  0.0227  0.1501  0.8467
  794MPD2    C511756   4.198   1.420  16.813  0.0765  0.1803  0.6787
  794MPD2     H11757   3.858   1.443  16.978 -0.9603 -0.4516 -0.5245
  794MPD2    H111758   4.115   1.448  16.634  0.1002  2.0060  1.0504
  794MPD2    H211759   4.281   1.356  16.997 -0.6981 -0.2852  1.9428
  794MPD2    H311760   4.296   1.428  16.767  0.2469  0.4112  1.0811
  794MPD2     N11761   3.851   1.475  16.712  0.5169  0.7194 -0.0853
  794MPD2    H511762   3.882   1.510  16.622 -1.2930 -1.5355 -1.6008
  794MPD2    N111763   4.054   1.396  17.147 -0.3767 -0.1362  0.3693
  794MPD2    H711764   3.958   1.392  17.180 -0.6745 -1.6780 -0.6850
  795MPD2     C11765   1.540   2.947  13.233  0.3232  0.2703  0.4558
  795MPD2    C111766   1.454   2.913  13.337  0.5229 -0.3899  0.6757
  795MPD2    C211767   1.499   2.837  13.444 -0.5906 -0.0385 -0.1168
  795MPD2    C311768   1.622   2.780  13.438  0.3428 -0.1415 -0.3222
  795MPD2    C411769   1.699   2.802  13.332  0.0768 -0.2628  0.4976
  795MPD2    C511770   1.662   2.882  13.229  0.3501  0.3614  0.0973
  795MPD2     H11771   1.433   2.819  13.528 -0.0147  2.7162  0.9016
  795MPD2    H111772   1.797   2.755  13.335 -0.3819 -1.3593 -1.5109
  795MPD2    H211773   1.515   3.015  13.153  0.1618 -1.0371 -0.6153
  795MPD2    H311774   1.734   2.895  13.149 -2.3005  1.9851 -2.0171
  795MPD2     N11775   1.677   2.697  13.537  0.1144  0.4806  0.0347
  795MPD2    H511776   1.770   2.661  13.520 -0.4918 -1.7566  1.4449
  795MPD2    N111777   1.324   2.966  13.339  0.1611 -0.4354 -0.5661
  795MPD2    H711778   1.268   2.938  13.420  1.6042 -1.1383  0.1807
  796MPD2     C11779   0.929   4.429  16.135  0.7126 -0.2591 -0.0984
  796MPD2    C111780   0.982   4.429  16.009  0.6834 -0.1131 -0.0651
  796MPD2    C211781   0.985   4.551  15.942  0.5705  0.3268 -0.1933
  796MPD2    C311782   0.948   4.670  16.006 -0.6219  0.2491 -0.6379
  796MPD2    C411783   0.881   4.666  16.124  0.6575  0.8085  0.4657
  796MPD2    C511784   0.880   4.549  16.195  0.3224 -0.9558 -0.6243
  796MPD2     H11785   1.028   4.552  15.843  2.8116  2.9405  0.7940
  796MPD2    H111786   0.839   0.012  16.178 -0.5179 -0.5057  1.6266
  796MPD2    H211787   0.932   4.339  16.195  2.3561 -0.1519 -0.0186
  796MPD2    H311788   0.845   4.543  16.297 -1.5349  0.0545 -1.1984
  796MPD2     N11789   0.960   0.055  15.939  0.3516  0.8525 -0.3802
  796MPD2    H511790   0.969   0.056  15.838  1.5206  0.6450 -0.2763
  796MPD2    N111791   1.059   4.314  15.982  0.0096  0.0096  0.4081
  796MPD2    H711792   1.050   4.236  16.046 -0.6325  0.2512  0.6074
  797MPD2     C11793   1.824   4.273  16.901 -0.3317 -0.2188  0.5773
  797MPD2    C111794   1.893   4.385  16.936 -0.3995  0.0295 -0.7083
  797MPD2    C211795   1.889   4.498  16.858  0.2328  0.2147  0.8515
  797MPD2    C311796   1.793   4.513  16.758 -0.3433  0.2360  0.0020
  797MPD2    C411797   1.707   4.409  16.733 -0.4032  0.1823  0.2427
  797MPD2    C511798   1.726   4.297  16.810  0.4353 -0.0430  0.2184
  797MPD2     H11799   1.957   4.580  16.878 -0.6340  1.6815 -2.3454
  797MPD2    H111800   1.627   4.417  16.661  0.1285  1.2515 -0.2269
  797MPD2    H211801   1.830   4.176  16.949  0.3589 -1.6054 -2.3396
  797MPD2    H311802   1.646   4.225  16.804  0.1926  0.3072 -0.8851
  797MPD2     N11803   1.786   4.631  16.688  0.0320  0.5131 -0.7573
  797MPD2    H511804   1.710   4.632  16.621  0.0882 -0.0106 -0.8320
  797MPD2    N111805   1.986   4.390  17.035  0.3796  0.5482 -0.6090
  797MPD2    H711806   2.035   4.478  17.049  0.8930 -0.0235  1.2397
  798MPD2     C11807   2.364   0.295  16.812  0.3363 -0.2741 -0.1428
  798MPD2    C111808   2.258   0.211  16.803 -0.3387 -0.2866  0.3063
  798MPD2    C211809   2.251   0.109  16.893 -0.3779 -0.2189 -0.6917
  798MPD2    C311810   2.344   0.086  16.983  0.4501  1.0690  0.4840
  798MPD2    C411811   2.444   0.172  17.004 -0.5275 -0.3235 -0.5030
  798MPD2    C511812   2.451   0.277  16.920  0.1866 -0.2069 -0.3524
  798MPD2     H11813   2.166   0.042  16.898  0.8686 -1.6245  1.7117
  798MPD2    H111814   2.520   0.152  17.079 -1.3840 -0.6377  0.2748
  798MPD2    H211815   2.381   0.379  16.746 -0.7616  1.4326  1.7674
  798MPD2    H311816   2.531   0.348  16.937  0.0327 -0.0846 -0.1470
  798MPD2     N11817   2.320   4.713  17.064 -0.0759 -0.2541 -0.2134
  798MPD2    H511818   2.230   4.668  17.055 -0.7622  1.2221 -0.8041
  798MPD2    N111819   2.151   0.223  16.716 -0.0808  0.0356 -0.4451
  798MPD2    H711820   2.072   0.161  16.733 -0.3258  0.2576 -0.7689
  799MPD2     C11821   1.097   1.156  14.258  0.2839  0.5747  0.2083
  799MPD2    C111822   1.010   1.068  14.201 -0.4633 -0.2571 -0.6097
  799MPD2    C211823   0.984   1.091  14.068 -0.1698 -0.8633  0.6097
  799MPD2    C311824   1.047   1.199  13.999  0.0356  0.6114  0.2830
  799MPD2    C411825   1.132   1.287  14.059  0.2635 -0.2783 -0.1865
  799MPD2    C511826   1.161   1.256  14.186 -0.4417 -0.4193  0.1001
  799MPD2     H11827   0.924   1.016  14.018  0.2689 -1.7575  1.4256
  799MPD2    H111828   1.179   1.374  14.014  1.7299 -1.8510 -1.7039
  799MPD2    H211829   1.132   1.136  14.359 -0.7476  3.5941  1.1559
  799MPD2    H311830   1.238   1.323  14.223 -1.7455  1.4880 -0.5997
  799MPD2     N11831   1.032   1.216  13.859  0.7350  0.0531 -0.2783
  799MPD2    H511832   1.082   1.298  13.826 -1.3789  2.1958  1.8437
  799MPD2    N111833   0.965   0.949  14.264 -0.2315  0.3177 -0.2342
  799MPD2    H711834   0.899   0.891  14.213 -0.9276 -0.1474  1.1980
  800MPD2     C11835   0.963   2.181  14.101  0.6146  0.2494  0.1102
  800MPD2    C111836   1.084   2.120  14.110 -0.2578 -0.1379 -0.6999
  800MPD2    C211837   1.117   2.008  14.034  0.1745 -0.9220  0.1049
  800MPD2    C311838   1.019   1.962  13.949  0.2653 -0.4668 -0.0507
  800MPD2    C411839   0.894   2.026  13.940  0.4237  0.1458 -0.2548
  800MPD2    C511840   0.863   2.131  14.021 -0.2962  0.3328 -0.1866
  800MPD2     H11841   1.223   1.985  14.024  0.5240 -0.4217  2.7705
  800MPD2    H111842   0.813   2.004  13.872  0.8765 -0.8137 -0.4842
  800MPD2    H211843   0.945   2.280  14.139  2.9482  1.7360 -2.6759
  800MPD2    H311844   0.774   2.191  14.005 -0.1258  0.0631 -2.2054
  800MPD2     N11845   1.062   1.861  13.863  0.0350  0.3237  0.0945
  800MPD2    H511846   1.155   1.822  13.872 -0.6415 -1.1958  0.4366
  800MPD2    N111847   1.180   2.193  14.188  0.2747 -0.2136  0.1079
  800MPD2    H711848   1.153   2.286  14.217 -1.2917 -0.6277 -0.0215
  801MPD2     C11849   1.330   2.875  14.238  0.2282  0.4655 -0.1336
  801MPD2    C111850   1.281   2.753  14.289 -0.3368 -0.1188  0.3376
  801MPD2    C211851   1.174   2.755  14.374  0.5576 -0.6962  0.0381
  801MPD2    C311852   1.109   2.873  14.409 -0.2071  0.5405  0.2648
  801MPD2    C411853   1.148   2.990  14.353  0.3975  0.6788  0.3133
  801MPD2    C511854   1.258   2.991  14.266  0.6677 -0.1402  0.3620
  801MPD2     H11855   1.138   2.657  14.403 -1.4912  0.6106  1.9319
  801MPD2    H111856   1.093   3.082  14.364  1.5948  1.0935  2.8002
  801MPD2    H211857   1.418   2.878  14.175  0.5731  0.4489  0.3457
  801MPD2    H311858   1.296   3.082  14.222 -0.5590  0.3673  0.3443
  801MPD2     N11859   1.010   2.872  14.506 -0.0513  0.0514 -0.4956
  801MPD2    H511860   1.000   2.786  14.558 -2.0329 -0.0149 -0.9668
  801MPD2    N111861   1.344   2.630  14.257  0.6637 -0.2791  0.6624
  801MPD2    H711862   1.295   2.544  14.280  0.2925 -0.1198  0.4616
  802MPD2     C11863   0.960   4.354  17.687 -0.3367 -0.3020 -0.8009
  802MPD2    C111864   0.916   4.261   0.028 -0.1270  0.7456 -0.0331
  802MPD2    C211865   0.987   4.144   0.045 -1.0621 -0.0015  0.6260
  802MPD2    C311866   1.076   4.105  17.698  0.0099  0.8685  0.9749
  802MPD2    C411867   1.090   4.187  17.581 -0.5162  0.1379 -0.0785
  802MPD2    C511868   1.038   4.308  17.579  0.7876 -0.8443 -1.1219
  802MPD2     H11869   0.966   4.080   0.130 -1.0325  0.2682  0.8348
  802MPD2    H111870   1.137   4.158  17.488 -1.3967 -5.8083  1.3155
  802MPD2    H211871   0.904   4.445  17.671  1.6108  1.3661  1.8161
  802MPD2    H311872   1.049   4.365  17.487  3.6312 -0.5135 -0.5815
  802MPD2     N11873   1.133   3.977  17.706 -0.0037  0.1413  0.5689
  802MPD2    H511874   1.104   3.921   0.035  1.6340  0.9738  1.7508
  802MPD2    N111875   0.820   4.282   0.133  0.1052  0.3831  0.7474
  802MPD2    H711876   0.805   4.211   0.204 -0.1186 -1.5075 -1.1941
  803MPD2     C11877   1.919   0.381  12.369  0.5521  0.3787 -0.0458
  803MPD2    C111878   1.888   0.518  12.359  0.0796  0.0735  0.2297
  803MPD2    C211879   1.909   0.601  12.474 -0.6621 -0.5823 -0.1373
  803MPD2    C311880   1.960   0.542  12.590 -0.1589 -0.5506  1.1160
  803MPD2    C411881   1.982   0.408  12.596  0.3819  0.1019 -0.3060
  803MPD2    C511882   1.956   0.329  12.491  0.2087 -0.0597 -0.0171
  803MPD2     H11883   1.908   0.708  12.455 -2.1036 -0.6075 -0.2119
  803MPD2    H111884   2.004   0.361  12.691 -0.9587  1.5868  0.7484
  803MPD2    H211885   1.900   0.314  12.286 -1.6268  1.1212 -0.1264
  803MPD2    H311886   1.975   0.223  12.509  0.7808  0.0421 -0.0108
  803MPD2     N11887   2.009   0.619  12.705  0.4852  0.8845  0.0452
  803MPD2    H511888   2.058   0.572  12.779 -0.0627 -0.2054 -0.2893
  803MPD2    N111889   1.851   0.589  12.232 -0.5826 -0.0269 -0.3984
  803MPD2    H711890   1.808   0.680  12.242 -0.4847 -0.1760  1.3868
  804MPD2     C11891   1.550   2.746  16.886  0.2746 -0.1031  0.2206
  804MPD2    C111892   1.503   2.753  17.018 -1.0557  0.7922 -0.2091
  804MPD2    C211893   1.559   2.855  17.100  0.1370 -0.5309 -0.5128
  804MPD2    C311894   1.658   2.943  17.049  0.2375  0.5227  0.5920
  804MPD2    C411895   1.682   2.944  16.912  0.1592 -0.0937 -0.0898
  804MPD2    C511896   1.628   2.841  16.834 -0.2346 -0.3762 -0.0825
  804MPD2     H11897   1.520   2.856  17.201  1.3544  3.3009 -0.0728
  804MPD2    H111898   1.753   3.015  16.872  1.5152 -0.3846  1.8241
  804MPD2    H211899   1.527   2.666  16.816 -0.5430 -0.1850  0.5871
  804MPD2    H311900   1.660   2.833  16.731 -2.0077 -1.5997 -0.5274
  804MPD2     N11901   1.717   3.045  17.134 -0.3016 -0.4526  0.6501
  804MPD2    H511902   1.679   3.063  17.226 -1.7421  2.1982 -0.4561
  804MPD2    N111903   1.423   2.648  17.067 -0.0245  0.0924  0.2009
  804MPD2    H711904   1.414   2.629  17.167 -1.3340  1.9333  0.4243
  805MPD2     C11905   0.603   1.252  15.165  0.2834 -0.7359  0.3968
  805MPD2    C111906   0.660   1.372  15.108  0.4472 -0.4517 -0.0358
  805MPD2    C211907   0.762   1.429  15.176  0.6764  0.2757 -0.2574
  805MPD2    C311908   0.803   1.383  15.300  0.5767 -0.1983 -0.5766
  805MPD2    C411909   0.739   1.265  15.352 -0.4180 -0.0579 -0.2130
  805MPD2    C511910   0.639   1.205  15.286  0.3308 -0.1122 -0.5060
  805MPD2     H11911   0.820   1.513  15.139 -0.5362  1.0851 -0.2949
  805MPD2    H111912   0.780   1.208  15.434  1.7165 -0.8742 -1.8587
  805MPD2    H211913   0.536   1.196  15.100 -0.8668  0.7817  0.2880
  805MPD2    H311914   0.603   1.108  15.320 -0.3244 -0.5547 -2.4667
  805MPD2     N11915   0.905   1.451  15.372  0.6456 -0.2713 -0.1808
  805MPD2    H511916   0.956   1.524  15.324  3.0433 -2.5930 -1.1630
  805MPD2    N111917   0.631   1.430  14.980  0.5752  0.3291  0.0510
  805MPD2    H711918   0.692   1.501  14.940  1.6167  0.1385  1.3205
  806MPD2     C11919   1.376   0.489   0.553  0.0006  0.1938 -0.5188
  806MPD2    C111920   1.423   0.614   0.589 -0.1184  0.0956 -0.2884
  806MPD2    C211921   1.499   0.677   0.491  0.0112  0.0638 -0.2475
  806MPD2    C311922   1.531   0.620   0.369 -0.2903 -0.5629  0.3906
  806MPD2    C411923   1.488   0.501   0.329 -0.0765 -0.0309 -0.5406
  806MPD2    C511924   1.408   0.440   0.422  0.1467  0.2194  0.3282
  806MPD2     H11925   1.543   0.775   0.508  1.0569 -0.3511 -0.5567
  806MPD2    H111926   1.493   0.454   0.231  0.7195  1.3080 -1.1384
  806MPD2    H211927   1.321   0.429   0.624 -1.1633  0.1567 -1.4428
  806MPD2    H311928   1.357   0.347   0.399  0.8993  0.7249 -3.2726
  806MPD2     N11929   1.633   0.677   0.293 -0.3357  0.4278  0.3929
  806MPD2    H511930   1.656   0.770   0.327  3.1905  0.1620 -1.1911
  806MPD2    N111931   1.408   0.654   0.726 -0.3054 -0.2172 -0.1656
  806MPD2    H711932   1.376   0.589   0.797 -2.1141 -0.6795 -1.4086
  807MPD2     C11933   1.339   0.528   1.442  0.5721  0.8878 -0.3116
  807MPD2    C111934   1.296   0.596   1.338 -0.5694  0.0804  0.1574
  807MPD2    C211935   1.163   0.633   1.339  0.7873 -0.0070  0.6445
  807MPD2    C311936   1.077   0.590   1.435 -0.3077  0.2715  0.3637
  807MPD2    C411937   1.121   0.510   1.542  0.2971 -0.7096 -0.1979
  807MPD2    C511938   1.254   0.484   1.548  1.2589 -0.1227  0.5150
  807MPD2     H11939   1.123   0.690   1.256  0.4901 -2.0373 -0.6075
  807MPD2    H111940   1.052   0.474   1.617 -0.4280 -0.1385 -0.5967
  807MPD2    H211941   1.446   0.516   1.451  0.2156 -0.3150  2.3226
  807MPD2    H311942   1.305   0.436   1.631  0.2068  1.3121  1.9898
  807MPD2     N11943   0.936   0.619   1.417 -0.6046  0.0173 -0.1550
  807MPD2    H511944   0.900   0.641   1.325  0.9368 -2.2611 -1.3020
  807MPD2    N111945   1.383   0.634   1.231 -0.6168 -0.0198 -0.1976
  807MPD2    H711946   1.347   0.694   1.157 -0.9961 -0.3175 -0.2533
  808MPD2     C11947   1.903   2.456   9.829 -0.0842  0.7257  0.0467
  808MPD2    C111948   1.822   2.526   9.918 -0.0818  0.4305  0.4933
  808MPD2    C211949   1.806   2.660   9.896  0.1370  0.3470  0.0068
  808MPD2    C311950   1.874   2.727   9.794 -0.3213 -0.6804  0.9693
  808MPD2    C411951   1.948   2.656   9.706  0.1636  0.3478 -0.2560
  808MPD2    C511952   1.959   2.518   9.724  0.1857 -0.0338 -0.0244
  808MPD2     H11953   1.750   2.713   9.972  0.7318  1.1471 -0.1123
  808MPD2    H111954   1.983   2.697   9.612  2.8245 -0.1955  0.5208
  808MPD2    H211955   1.932   2.352   9.838  2.0050  1.1252 -2.2335
  808MPD2    H311956   2.020   2.461   9.655 -3.1600 -2.1379 -1.1929
  808MPD2     N11957   1.855   2.864   9.756  0.1200 -0.3392  0.0523
  808MPD2    H511958   1.888   2.908   9.671 -1.5008  1.5707  0.4162
  808MPD2    N111959   1.767   2.469  10.032  0.2834 -1.0413 -0.3441
  808MPD2    H711960   1.728   2.532  10.102 -0.2405 -1.0676 -0.6129
  809MPD2     C11961   1.983   2.931   8.993 -0.0110  0.7218 -0.1589
  809MPD2    C111962   2.050   2.884   9.103 -0.3568  0.1772  0.6178
  809MPD2    C211963   2.004   2.930   9.228 -0.5911 -0.2862 -0.0135
  809MPD2    C311964   1.906   3.028   9.242  0.1156 -1.1649  0.0853
  809MPD2    C411965   1.859   3.080   9.123  0.4918  0.0963  0.6886
  809MPD2    C511966   1.891   3.029   9.005  0.4553 -0.3381 -0.7153
  809MPD2     H11967   2.042   2.870   9.310  0.7857  0.2407 -0.2522
  809MPD2    H111968   1.780   3.155   9.130 -2.1904 -2.6503 -0.2910
  809MPD2    H211969   1.998   2.896   8.891  0.8575 -1.7261  0.8058
  809MPD2    H311970   1.831   3.062   8.921  0.1185  1.8033  0.3693
  809MPD2     N11971   1.869   3.073   9.370 -0.2075 -0.2494 -0.1665
  809MPD2    H511972   1.921   3.033   9.446  0.5701 -0.2288 -0.6931
  809MPD2    N111973   2.137   2.776   9.096 -0.0720 -0.0216 -0.7746
  809MPD2    H711974   2.166   2.732   9.183  1.2721  0.9549 -0.7252
  810MPD2     C11975   1.218   2.084  10.651 -0.3019  0.1048  0.2869
  810MPD2    C111976   1.136   2.125  10.549 -0.2716 -0.5446  0.6132
  810MPD2    C211977   1.113   2.257  10.529  0.1313 -0.0024 -0.8598
  810MPD2    C311978   1.152   2.355  10.616  0.2019 -0.5716  0.1822
  810MPD2    C411979   1.221   2.314  10.730  0.5834 -0.0806  0.1661
  810MPD2    C511980   1.261   2.180  10.736  0.1202 -0.7167 -0.0372
  810MPD2     H11981   1.030   2.272  10.461 -0.5354 -2.5186 -0.5773
  810MPD2    H111982   1.249   2.391  10.801  0.1485  1.4963 -1.3783
  810MPD2    H211983   1.239   1.981  10.676  0.7168  0.3241  0.3401
  810MPD2    H311984   1.327   2.153  10.818 -2.6076 -0.2065  2.3282
  810MPD2     N11985   1.106   2.489  10.599  0.4880 -0.1744 -0.8666
  810MPD2    H511986   1.126   2.553  10.675  2.6184  0.1743 -1.7072
  810MPD2    N111987   1.096   2.044  10.436 -0.0370  0.3594  0.1870
  810MPD2    H711988   1.060   2.087  10.352  0.0001 -0.2102 -0.1242
  811MPD2     C11989   0.502   2.014   9.917  0.0612 -0.7166 -0.1934
  811MPD2    C111990   0.634   2.055   9.943  0.7204 -0.7775 -0.1475
  811MPD2    C211991   0.678   2.180   9.899 -0.1361  0.6207 -0.4309
  811MPD2    C311992   0.595   2.261   9.829 -0.0697 -0.0242 -0.3369
  811MPD2    C411993   0.458   2.227   9.812  0.7582 -0.7930 -0.1085
  811MPD2    C511994   0.423   2.099   9.843  0.5355  0.3969  0.3636
  811MPD2     H11995   0.775   2.218   9.926  0.6192 -3.6644  2.7822
  811MPD2    H111996   0.381   2.289   9.767  2.0112  2.1938  1.8852
  811MPD2    H211997   0.465   1.916   9.946 -1.2435 -0.1784 -0.0295
  811MPD2    H311998   0.317   2.080   9.837  0.1814  1.9644  1.5068
  811MPD2     N11999   0.641   2.394   9.799  0.3993  0.0465 -0.1147
  811MPD2    H512000   0.731   2.428   9.830  0.4306  1.8513 -2.1810
  811MPD2    N112001   0.716   1.971  10.013  0.8490  0.2572 -0.5140
  811MPD2    H712002   0.669   1.890  10.053  1.9615  2.3779  5.0999
  812MPD2     C12003   4.128   1.549  12.162  1.1168 -0.2515  0.0739
  812MPD2    C112004   4.212   1.645  12.107  0.1081  0.2634  0.0876
  812MPD2    C212005   4.327   1.685  12.174 -0.1503  0.2416  0.6234
  812MPD2    C312006   4.352   1.643  12.302  0.3720  0.2307 -0.2430
  812MPD2    C412007   4.263   1.555  12.354 -0.3456  0.0012  0.4963
  812MPD2    C512008   4.153   1.508  12.293 -0.9187  0.2667  0.0003
  812MPD2     H12009   4.402   1.753  12.136 -2.4190  2.4365  0.0571
  812MPD2    H112010   4.285   1.513  12.452 -1.2351  0.1859  0.7722
  812MPD2    H212011   4.037   1.506  12.123  1.2984 -0.4734 -0.1067
  812MPD2    H312012   4.085   1.437  12.339  0.2503 -0.6328  0.3265
  812MPD2     N12013   4.469   1.688  12.371 -0.4189  0.0771 -0.2848
  812MPD2    H512014   4.538   1.742  12.320 -1.6690  0.5040 -1.5334
  812MPD2    N112015   4.182   1.690  11.971  0.2193 -0.2218 -0.0716
  812MPD2    H712016   4.091   1.657  11.940 -0.0902 -0.0170  0.6226
  813MPD2     C12017   3.990   3.523  12.705 -0.3130 -0.3203  0.0282
  813MPD2    C112018   4.025   3.504  12.839 -0.0446 -0.0417 -0.0443
  813MPD2    C212019   3.925   3.463  12.924 -0.0758  1.2404  0.3113
  813MPD2    C312020   3.788   3.462  12.891  0.5807 -0.5368 -0.0792
  813MPD2    C412021   3.756   3.500  12.761  0.1200 -0.5055  0.5915
  813MPD2    C512022   3.861   3.527  12.673 -0.0127 -0.2850 -0.8009
  813MPD2     H12023   3.952   3.414  13.017  1.7768  4.2901  1.3749
  813MPD2    H112024   3.655   3.516  12.724  0.1188 -0.6916  0.5163
  813MPD2    H212025   4.061   3.551  12.627 -1.3783 -1.9163 -1.5084
  813MPD2    H312026   3.836   3.567  12.575 -3.3193  2.3756  1.1102
  813MPD2     N12027   3.690   3.426  12.985  0.3802  0.0684  0.7632
  813MPD2    H512028   3.594   3.441  12.955  0.4186  0.5528  0.8789
  813MPD2    N112029   4.152   3.527  12.895 -0.2816 -0.0746  0.1366
  813MPD2    H712030   4.162   3.514  12.995  0.9102  0.1469  0.0418
  814MPD2     C12031   4.006   0.257  12.231 -0.2354 -0.3368 -0.1315
  814MPD2    C112032   3.977   0.355  12.137 -1.1450 -0.1967 -0.0048
  814MPD2    C212033   4.025   0.488  12.164 -0.2912 -0.6748 -0.3746
  814MPD2    C312034   4.108   0.516  12.271  0.7560  0.0147 -0.7443
  814MPD2    C412035   4.131   0.419  12.364 -0.6831 -0.1209  0.0046
  814MPD2    C512036   4.073   0.294  12.347  0.3036  0.5964 -0.2269
  814MPD2     H12037   3.991   0.573  12.106 -0.4569 -1.5528 -1.5433
  814MPD2    H112038   4.186   0.439  12.455 -0.8784  1.8709 -0.3144
  814MPD2    H212039   3.967   0.156  12.220 -2.7653  0.3843  2.1321
  814MPD2    H312040   4.092   0.220  12.423 -0.2171 -0.4559 -1.1214
  814MPD2     N12041   4.178   0.640  12.283 -0.3771  0.2514 -0.3067
  814MPD2    H512042   4.236   0.651  12.366  1.9642  1.8855 -2.1534
  814MPD2    N112043   3.918   0.328  12.008 -0.0693 -0.2724 -0.2596
  814MPD2    H712044   3.923   0.405  11.942  0.4684 -1.2146 -1.3252
  815MPD2     C12045   4.339   2.770  11.812  0.1275  0.1456 -0.0171
  815MPD2    C112046   4.344   2.886  11.737 -0.1152 -0.3621 -0.5134
  815MPD2    C212047   4.274   2.995  11.776  0.0317  0.3330 -0.1847
  815MPD2    C312048   4.189   2.994  11.887 -0.0296  0.2736 -0.1707
  815MPD2    C412049   4.189   2.877  11.962  0.5013 -0.1489 -0.1101
  815MPD2    C512050   4.260   2.766  11.922 -0.2144  0.3032  0.4068
  815MPD2     H12051   4.281   3.090  11.725  2.3069  0.2004 -0.1253
  815MPD2    H112052   4.129   2.872  12.052  0.4768 -0.1593 -0.1268
  815MPD2    H212053   4.393   2.682  11.779 -1.3000 -0.3483 -1.0576
  815MPD2    H312054   4.261   2.674  11.979  0.4989  1.1328  1.7462
  815MPD2     N12055   4.115   3.117  11.910 -0.1990  0.4018  0.3237
  815MPD2    H512056   4.114   3.183  11.833  0.1267  0.1049  0.0655
  815MPD2    N112057   4.424   2.886  11.614 -0.1231 -0.2711 -0.4126
  815MPD2    H712058   4.478   2.802  11.595  1.8702  1.1806 -1.1494
  816MPD2     C12059   0.182   2.382  17.516 -0.0755 -0.3889 -0.2998
  816MPD2    C112060   0.237   2.491  17.468  0.8259 -0.0520 -0.0328
  816MPD2    C212061   0.333   2.487  17.370  0.0594  0.0917  0.2484
  816MPD2    C312062   0.367   2.362  17.330  0.0857 -1.2139  0.1031
  816MPD2    C412063   0.314   2.250  17.387  0.5374 -0.6606 -0.3710
  816MPD2    C512064   0.221   2.257  17.480  1.0449 -0.9387 -0.0718
  816MPD2     H12065   0.385   2.574  17.332  0.4671 -1.0250 -1.7540
  816MPD2    H112066   0.341   2.149  17.357  0.2829 -0.4598 -1.2722
  816MPD2    H212067   0.109   2.393  17.596  0.6527  1.5319  0.0982
  816MPD2    H312068   0.183   2.167  17.527  0.9666 -0.6769  0.3675
  816MPD2     N12069   0.468   2.353  17.227  0.1700 -0.0723 -0.0361
  816MPD2    H512070   0.502   2.444  17.200  0.4574 -1.0706 -2.9774
  816MPD2    N112071   0.180   2.616  17.496 -0.2481  0.3417 -0.3311
  816MPD2    H712072   0.083   2.623  17.524  0.6224  1.6790  2.3221
  817MPD2     C12073   4.318   0.008   9.792 -0.3832  0.0026  0.1816
  817MPD2    C112074   4.424   0.057   9.725  0.3461  0.6939  0.1904
  817MPD2    C212075   4.412   0.187   9.670  0.3720 -0.9138  0.2261
  817MPD2    C312076   4.287   0.256   9.673 -0.0776  0.2845  1.0913
  817MPD2    C412077   4.186   0.197   9.744 -0.0334  0.0067 -0.5255
  817MPD2    C512078   4.198   0.073   9.794 -0.0324 -0.1172  0.3675
  817MPD2     H12079   4.495   0.235   9.619  0.8082 -1.1025  0.7581
  817MPD2    H112080   4.091   0.247   9.732  0.3441  0.9536  0.5260
  817MPD2    H212081   4.316   4.647   9.834 -0.6880 -0.3111 -0.5773
  817MPD2    H312082   4.114   0.022   9.841 -0.6436  0.6945  0.1577
  817MPD2     N12083   4.271   0.385   9.613  0.6520  0.2419 -0.6971
  817MPD2    H512084   4.345   0.423   9.555  0.3750  0.7144 -0.7466
  817MPD2    N112085   4.550   4.733   9.721 -0.2862  0.4573  0.6265
  817MPD2    H712086   4.610   0.043   9.654 -2.2243  1.9738 -0.0273
  818MPD2     C12087   3.558   4.317   9.811 -0.4378  0.4827  0.0223
  818MPD2    C112088   3.461   4.220   9.846  0.1961  0.5286 -0.7544
  818MPD2    C212089   3.478   4.089   9.817 -0.7627  0.3453 -0.1819
  818MPD2    C312090   3.587   4.044   9.747  0.4613  0.4700  0.1878
  818MPD2    C412091   3.686   4.135   9.707  0.3994 -0.6258 -0.4512
  818MPD2    C512092   3.668   4.268   9.739  0.3317  0.6574  0.2863
  818MPD2     H12093   3.400   4.023   9.853  2.2142 -1.3405  3.2606
  818MPD2    H112094   3.778   4.105   9.659  0.4010 -1.2429 -0.0670
  818MPD2    H212095   3.564   4.419   9.846  0.0236 -0.0135  1.3639
  818MPD2    H312096   3.741   4.340   9.703  0.4631 -0.0253 -0.8058
  818MPD2     N12097   3.587   3.906   9.728  0.2518 -0.2851 -0.4126
  818MPD2    H512098   3.512   3.852   9.769  2.3444 -3.3260 -0.6023
  818MPD2    N112099   3.348   4.253   9.922 -0.5617 -0.5455 -0.0503
  818MPD2    H712100   3.292   4.178   9.958 -0.5759  1.3095  3.7548
  819MPD2     C12101   1.506   1.252  15.369 -0.4493 -0.1992  0.0861
  819MPD2    C112102   1.423   1.168  15.443  0.1175 -0.5911  0.1733
  819MPD2    C212103   1.484   1.103  15.547  0.0799  0.9198  0.5204
  819MPD2    C312104   1.618   1.110  15.579  0.4331  0.1880  0.2725
  819MPD2    C412105   1.699   1.184  15.494  0.4163 -0.4297 -0.1222
  819MPD2    C512106   1.642   1.252  15.393  0.0358 -0.3767  0.0360
  819MPD2     H12107   1.432   1.036  15.615  0.1304  1.5923  1.2255
  819MPD2    H112108   1.803   1.209  15.512 -0.1506  0.7575  1.4858
  819MPD2    H212109   1.469   1.316  15.289 -0.2623 -0.2426 -0.0369
  819MPD2    H312110   1.696   1.330  15.340  0.1121  0.6897  1.6687
  819MPD2     N12111   1.661   1.026  15.686 -0.4616 -0.0964 -0.2484
  819MPD2    H512112   1.590   0.984  15.746 -1.0478 -1.2227 -1.7390
  819MPD2    N112113   1.281   1.172  15.415 -0.7517 -0.2430 -0.0988
  819MPD2    H712114   1.252   1.207  15.324  1.2364  2.3212  0.2707
  820MPD2     C12115   0.723   0.929  14.642 -0.2096  0.2696  0.4563
  820MPD2    C112116   0.767   1.056  14.681 -1.0165 -0.1446 -0.1328
  820MPD2    C212117   0.830   1.058  14.806 -0.2187  0.2946  0.7435
  820MPD2    C312118   0.848   0.945  14.884  0.6377  0.7146  0.2940
  820MPD2    C412119   0.799   0.828  14.838 -0.1023 -0.6042  0.1336
  820MPD2    C512120   0.727   0.820  14.725  1.2037  0.2310  0.1097
  820MPD2     H12121   0.874   1.149  14.847  2.1951 -0.0636 -1.1097
  820MPD2    H112122   0.820   0.739  14.896  1.8131  0.5375  1.1857
  820MPD2    H212123   0.672   0.922  14.547  2.1069  1.5896 -0.8806
  820MPD2    H312124   0.683   0.726  14.692  1.0670  0.3840 -0.1508
  820MPD2     N12125   0.898   0.938  15.019  0.4648  0.0816  0.5636
  820MPD2    H512126   0.883   0.847  15.063 -1.0735 -0.2865 -0.7046
  820MPD2    N112127   0.745   1.167  14.591 -0.5708 -0.0671 -0.5431
  820MPD2    H712128   0.686   1.154  14.509 -0.5569 -0.5115 -0.4830
  821MPD2     C12129   1.424   2.070  13.359  0.0842  0.9705 -0.0204
  821MPD2    C112130   1.475   1.949  13.391 -0.7484 -0.3129 -0.6260
  821MPD2    C212131   1.616   1.922  13.382 -0.8139 -0.2631 -0.4449
  821MPD2    C312132   1.703   2.020  13.350  0.1240  0.3431 -0.7672
  821MPD2    C412133   1.646   2.147  13.317  0.3684 -0.2010 -0.7069
  821MPD2    C512134   1.511   2.168  13.323 -0.2849 -0.0113  0.6465
  821MPD2     H12135   1.645   1.819  13.400  0.2543  0.1893  0.4339
  821MPD2    H112136   1.712   2.231  13.295 -3.0483  2.3661 -1.2151
  821MPD2    H212137   1.318   2.092  13.361 -0.3742 -1.1023 -1.6133
  821MPD2    H312138   1.477   2.267  13.293  0.9859  0.4278  0.6808
  821MPD2     N12139   1.841   2.007  13.324  0.5115  0.7860  0.1779
  821MPD2    H512140   1.883   2.072  13.259  0.9605  0.5936  0.2728
  821MPD2    N112141   1.396   1.843  13.438  0.0276  0.1486  0.1140
  821MPD2    H712142   1.449   1.757  13.450  1.3165  0.9752  0.1909
  822MPD2     C12143   2.502   2.293  15.734 -0.1128 -0.8673  0.4474
  822MPD2    C112144   2.570   2.327  15.852  0.1266  0.1299  0.1770
  822MPD2    C212145   2.517   2.441  15.927  0.3786 -0.0051  0.4203
  822MPD2    C312146   2.399   2.501  15.892  0.6938  0.7487 -0.3378
  822MPD2    C412147   2.326   2.447  15.791 -0.4464 -0.6133  0.7566
  822MPD2    C512148   2.377   2.344  15.712 -0.3763  0.0684 -0.1373
  822MPD2     H12149   2.574   2.468  16.015  2.1153 -0.2841 -0.6194
  822MPD2    H112150   2.227   2.477  15.760 -0.0743 -0.0141  0.1721
  822MPD2    H212151   2.524   2.198  15.687 -0.2212 -0.6253 -0.0911
  822MPD2    H312152   2.320   2.312  15.625 -1.8412  1.1904  0.4169
  822MPD2     N12153   2.341   2.603  15.975  0.4498 -0.1495 -0.1019
  822MPD2    H512154   2.242   2.624  15.967 -0.0807 -2.3859  0.5762
  822MPD2    N112155   2.664   2.239  15.909  0.1687  0.3394 -0.1967
  822MPD2    H712156   2.702   2.261  16.000 -1.2649  1.9114  0.0225
  823MPD2     C12157   1.991   2.688  16.761 -0.7773 -0.1021 -0.0462
  823MPD2    C112158   2.056   2.624  16.660  0.0134  0.0993 -0.0343
  823MPD2    C212159   2.086   2.486  16.668 -0.5073 -0.2123  0.5453
  823MPD2    C312160   2.058   2.417  16.784 -0.9448  0.1217 -0.9340
  823MPD2    C412161   1.990   2.482  16.883  0.2206 -0.1181  0.2079
  823MPD2    C512162   1.951   2.617  16.871  0.5005 -0.4206  0.0932
  823MPD2     H12163   2.117   2.428  16.582  1.5348  1.0264  0.4483
  823MPD2    H112164   1.987   2.433  16.980  0.6528 -1.0207 -0.2294
  823MPD2    H212165   1.953   2.788  16.745 -1.4967 -0.3171  0.3161
  823MPD2    H312166   1.897   2.661  16.954  0.3068 -2.0532  0.8446
  823MPD2     N12167   2.084   2.280  16.797 -0.2428 -0.2484 -0.0846
  823MPD2    H512168   2.025   2.228  16.861  0.5599 -1.8145 -0.6105
  823MPD2    N112169   2.092   2.707  16.548  0.2417 -0.1758  0.1906
  823MPD2    H712170   2.076   2.806  16.562 -0.4494  0.0966 -2.5001
  824MPD2     C12171   3.189   1.606  16.054 -0.2949 -0.0106 -0.3148
  824MPD2    C112172   3.093   1.612  15.958  0.2498 -0.4310  0.3098
  824MPD2    C212173   3.104   1.526  15.844  0.2705 -0.1604  0.1394
  824MPD2    C312174   3.208   1.432  15.837  0.5835  0.1656  0.2184
  824MPD2    C412175   3.308   1.438  15.931  0.4370  0.2577 -0.5890
  824MPD2    C512176   3.296   1.523  16.037 -0.6018 -0.2051 -0.4897
  824MPD2     H12177   3.029   1.514  15.767  1.9675 -0.6486 -1.4371
  824MPD2    H112178   3.401   1.383  15.926  0.0075 -0.4444 -0.8525
  824MPD2    H212179   3.187   1.673  16.139 -1.0562 -0.8588  0.3326
  824MPD2    H312180   3.371   1.525  16.115  0.3326  1.2913 -1.4195
  824MPD2     N12181   3.211   1.340  15.732  0.1404 -0.4543 -0.1953
  824MPD2    H512182   3.143   1.356  15.658 -1.3647 -2.0497  0.8402
  824MPD2    N112183   2.977   1.688  15.966  0.1314  0.0910  0.6291
  824MPD2    H712184   2.914   1.682  15.887  1.4043 -0.4817 -0.3448
  825MPD2     C12185   3.773   1.242  15.140  0.3949  0.4436  0.1129
  825MPD2    C112186   3.665   1.310  15.183 -0.3970 -0.2906  0.0900
  825MPD2    C212187   3.654   1.448  15.154 -0.1190 -0.6680 -0.0464
  825MPD2    C312188   3.733   1.498  15.057  0.4435  0.7247  0.1772
  825MPD2    C412189   3.843   1.431  15.018  0.1156  0.4341  1.3492
  825MPD2    C512190   3.860   1.300  15.051  0.3997  0.1235 -0.0762
  825MPD2     H12191   3.566   1.502  15.188  1.0330  3.2462 -3.2313
  825MPD2    H112192   3.912   1.472  14.945  0.4745 -1.3993  0.6546
  825MPD2    H212193   3.788   1.139  15.172  3.2630  1.1919  1.1866
  825MPD2    H312194   3.949   1.251  15.013  0.3056 -0.2521  0.1862
  825MPD2     N12195   3.718   1.628  15.006  0.2339  0.5451 -0.0368
  825MPD2    H512196   3.783   1.666  14.937 -0.0261 -0.2862 -0.7444
  825MPD2    N112197   3.579   1.237  15.262 -0.2297  0.0499 -0.0675
  825MPD2    H712198   3.613   1.147  15.295  2.7154  1.6558  1.2723
  826MPD2     C12199   2.886   1.144  13.931  0.5116  1.0853 -0.0883
  826MPD2    C112200   2.955   1.213  13.838 -1.0753  0.0082 -0.3215
  826MPD2    C212201   2.908   1.331  13.794 -0.8954  0.5071 -0.7170
  826MPD2    C312202   2.787   1.389  13.840 -0.1911  0.6883  0.6307
  826MPD2    C412203   2.712   1.309  13.927  0.2797 -0.3440 -0.5342
  826MPD2    C512204   2.762   1.188  13.963  0.4661 -0.5481  0.3028
  826MPD2     H12205   2.966   1.382  13.718  0.7054  0.0382  0.1977
  826MPD2    H112206   2.611   1.334  13.958  0.7059 -0.4522  0.9142
  826MPD2    H212207   2.929   1.053  13.971 -2.9090 -0.9509 -1.0059
  826MPD2    H312208   2.703   1.126  14.030  0.4739 -0.4650  0.3869
  826MPD2     N12209   2.747   1.518  13.813  0.6777  0.1277 -0.1538
  826MPD2    H512210   2.668   1.548  13.869 -0.2577 -0.0376 -1.3934
  826MPD2    N112211   3.085   1.167  13.793  0.7527 -0.2054  0.0551
  826MPD2    H712212   3.105   1.081  13.844 -3.1210 -0.0440  1.8807
  827MPD2     C12213   4.039   3.146   9.653  0.0738 -0.1595  0.5938
  827MPD2    C112214   3.958   3.040   9.678 -0.0484 -0.2245 -0.7150
  827MPD2    C212215   3.841   3.025   9.614 -0.0060 -0.2110 -0.2835
  827MPD2    C312216   3.797   3.119   9.524 -0.2620 -0.1287 -0.2115
  827MPD2    C412217   3.873   3.233   9.507  0.1063 -0.2343  0.1265
  827MPD2    C512218   3.994   3.245   9.569  0.0369 -0.1239  0.6780
  827MPD2     H12219   3.774   2.946   9.647 -1.0764  0.6120 -0.4663
  827MPD2    H112220   3.843   3.318   9.447  0.5488  0.0953  0.3714
  827MPD2    H212221   4.128   3.168   9.710 -0.2679  0.5789  0.8360
  827MPD2    H312222   4.051   3.337   9.566  0.3403 -0.2494  2.9058
  827MPD2     N12223   3.675   3.100   9.455 -0.1152 -0.4534  0.2829
  827MPD2    H512224   3.632   3.009   9.470  1.3296 -1.3685 -0.9968
  827MPD2    N112225   3.997   2.963   9.790  0.1285 -0.0452 -0.6686
  827MPD2    H712226   4.082   2.996   9.835  0.1415 -0.8396 -0.1226
  828MPD2     C12227   2.302   2.637  12.234  0.4343 -0.8157 -0.4113
  828MPD2    C112228   2.234   2.717  12.141 -0.0864 -0.2215 -0.4035
  828MPD2    C212229   2.297   2.754  12.017  0.4629 -0.2199 -0.2467
  828MPD2    C312230   2.419   2.695  11.987 -0.2619 -0.5012  0.5472
  828MPD2    C412231   2.480   2.606  12.073 -0.0030  0.6589  0.1752
  828MPD2    C512232   2.422   2.576  12.190  0.4270  0.6451 -0.0274
  828MPD2     H12233   2.245   2.821  11.949  0.8674  1.0639  0.7190
  828MPD2    H112234   2.575   2.558  12.055 -0.5008 -0.6339  0.9484
  828MPD2    H212235   2.271   2.614  12.336 -0.4788  0.5295 -0.3923
  828MPD2    H312236   2.473   2.509  12.258 -0.5310  1.8739  1.8931
  828MPD2     N12237   2.487   2.712  11.866 -0.1765  0.0017  0.3282
  828MPD2    H512238   2.580   2.673  11.863 -0.2578 -0.1392 -0.3246
  828MPD2    N112239   2.109   2.772  12.167 -0.3262  0.1064 -0.3898
  828MPD2    H712240   2.070   2.832  12.095 -1.4914 -0.9230 -0.6163
  829MPD2     C12241   1.477   3.020  11.639 -0.0440  0.0550  0.1749
  829MPD2    C112242   1.428   2.950  11.750  0.7279  0.5407 -0.1682
  829MPD2    C212243   1.514   2.937  11.861  1.3453 -0.3183 -0.0192
  829MPD2    C312244   1.643   2.997  11.866  0.6477 -0.3133  0.8128
  829MPD2    C412245   1.687   3.061  11.751 -0.4965  0.2637  0.4151
  829MPD2    C512246   1.604   3.073  11.644  0.8113 -0.1157 -0.6346
  829MPD2     H12247   1.477   2.885  11.949 -1.0490 -0.8306 -1.3375
  829MPD2    H112248   1.784   3.108  11.746  0.8829 -2.4570  1.7997
  829MPD2    H212249   1.420   3.046  11.551 -1.0286 -0.8253  0.5577
  829MPD2    H312250   1.636   3.139  11.565 -0.1998  2.0258  0.7681
  829MPD2     N12251   1.725   3.013  11.978 -0.2174  0.5035 -0.7503
  829MPD2    H512252   1.818   3.052  11.964  0.2423 -0.5402 -0.6508
  829MPD2    N112253   1.292   2.923  11.747 -0.2682  0.2891 -0.2730
  829MPD2    H712254   1.242   2.958  11.665 -0.3301  1.8721  0.4401
  830MPD2     C12255   1.964   0.295  15.420 -0.0541 -0.4898 -0.1121
  830MPD2    C112256   1.875   0.398  15.434  0.0914 -0.9361  0.7691
  830MPD2    C212257   1.807   0.441  15.319  0.5555  0.4414 -0.1466
  830MPD2    C312258   1.841   0.388  15.201 -0.4500  0.2162  0.3341
  830MPD2    C412259   1.938   0.286  15.187  0.7739 -0.1417  0.1660
  830MPD2    C512260   1.998   0.241  15.299 -0.2503 -0.0921  0.6208
  830MPD2     H12261   1.730   0.517  15.322  2.8609  2.8170 -1.4320
  830MPD2    H112262   1.975   0.256  15.090  1.2174  0.9877 -0.0089
  830MPD2    H212263   2.013   0.262  15.511  0.6433  0.8275  0.0049
  830MPD2    H312264   2.080   0.171  15.281 -0.3232  0.0818 -0.4144
  830MPD2     N12265   1.784   0.424  15.077  0.6236 -0.2414 -0.0390
  830MPD2    H512266   1.801   0.353  15.006 -0.9727 -0.5694 -0.0967
  830MPD2    N112267   1.866   0.460  15.559  0.2633 -0.4074  0.1563
  830MPD2    H712268   1.940   0.436  15.624 -1.2409 -2.6530  1.0374
  831MPD2     C12269   2.626   2.657  16.399  0.6430 -0.0933  0.0819
  831MPD2    C112270   2.659   2.551  16.309 -0.2450 -0.4149 -0.3439
  831MPD2    C212271   2.552   2.460  16.296 -0.3674  0.1402  0.8214
  831MPD2    C312272   2.444   2.460  16.379 -0.2939  0.6030 -0.2571
  831MPD2    C412273   2.449   2.545  16.489  0.2107  0.5680 -0.6943
  831MPD2    C512274   2.529   2.658  16.487 -0.1758  0.1157 -0.1637
  831MPD2     H12275   2.564   2.376  16.228 -0.4195  2.1568 -1.6686
  831MPD2    H112276   2.366   2.549  16.558 -0.2123  1.2609 -1.2420
  831MPD2    H212277   2.695   2.738  16.418 -0.3205  0.6152  0.5805
  831MPD2    H312278   2.521   2.738  16.559  0.4459 -0.0706  0.1102
  831MPD2     N12279   2.338   2.364  16.370 -0.0095  0.3104 -0.2447
  831MPD2    H512280   2.270   2.357  16.445 -0.3897 -0.2590 -0.6406
  831MPD2    N112281   2.775   2.556  16.230  0.3230 -0.2085  0.1516
  831MPD2    H712282   2.824   2.644  16.226  0.4106 -0.2918 -0.6110
  832MPD2     C12283   1.016   3.775  17.352  0.4127  0.4848  0.3198
  832MPD2    C112284   0.985   3.877  17.267 -0.1752  0.0174 -0.2310
  832MPD2    C212285   0.859   3.891  17.204  0.6000 -0.2304 -0.4141
  832MPD2    C312286   0.760   3.801  17.236 -0.3935  0.0205  0.0596
  832MPD2    C412287   0.783   3.701  17.331  0.8393 -0.0009 -0.5245
  832MPD2    C512288   0.910   3.684  17.374 -0.5134 -0.0755  0.7771
  832MPD2     H12289   0.837   3.972  17.135  0.9192  0.3167  0.1298
  832MPD2    H112290   0.705   3.637  17.369 -0.3786  1.7210 -0.1700
  832MPD2    H212291   1.117   3.760  17.390  0.2865 -1.0036  0.0703
  832MPD2    H312292   0.928   3.608  17.449  1.5871  0.3146  0.6719
  832MPD2     N12293   0.632   3.790  17.169 -0.1023 -0.1219 -0.2073
  832MPD2    H512294   0.566   3.720  17.203 -0.9026  0.8023  0.1437
  832MPD2    N112295   1.090   3.959  17.233 -0.4867  0.0627  0.3526
  832MPD2    H712296   1.173   3.962  17.291 -0.3181 -2.6303  0.2336
  833MPD2     C12297   3.147   0.475  12.661 -0.3918 -0.1356 -0.1045
  833MPD2    C112298   3.068   0.546  12.580 -0.2869  0.3524 -0.7482
  833MPD2    C212299   3.104   0.546  12.445  0.2918  0.6542 -0.7913
  833MPD2    C312300   3.223   0.510  12.395  0.0153  0.1379  0.4354
  833MPD2    C412301   3.308   0.444  12.477 -0.3188  0.4339  0.2365
  833MPD2    C512302   3.266   0.428  12.607  0.2565  0.6430 -0.3568
  833MPD2     H12303   3.035   0.590  12.374 -1.6050 -1.4646 -0.2547
  833MPD2    H112304   3.401   0.393  12.455  0.0212  1.2268 -0.1661
  833MPD2    H212305   3.123   0.445  12.762  1.4347  0.3627  0.4857
  833MPD2    H312306   3.323   0.367  12.676 -0.7736  0.1980  0.1027
  833MPD2     N12307   3.252   0.524  12.263 -0.1244  0.8035  0.1599
  833MPD2    H512308   3.339   0.482  12.231  0.6345  0.6958  2.3429
  833MPD2    N112309   2.948   0.606  12.625 -0.3537  0.2030  0.4013
  833MPD2    H712310   2.928   0.595  12.724  1.6759 -1.4059  0.6513
  834MPD2     C12311   2.876   4.566  11.736  0.3621  0.5328 -0.2592
  834MPD2    C112312   2.866   4.661  11.637  0.5567 -0.5474 -0.2913
  834MPD2    C212313   2.912   0.054  11.657  0.7122 -0.6514  0.3938
  834MPD2    C312314   2.971   0.089  11.778  0.2901  0.1319  0.0925
  834MPD2    C412315   2.984   4.731  11.875 -0.2979 -0.4220  0.4542
  834MPD2    C512316   2.936   4.602  11.852  0.5590  0.6589 -0.3925
  834MPD2     H12317   2.912   0.130  11.580  0.9486 -0.4916  0.5533
  834MPD2    H112318   3.033   0.010  11.970 -0.1069  0.4914  0.1893
  834MPD2    H212319   2.843   4.464  11.719  0.6245  0.1564  1.4421
  834MPD2    H312320   2.936   4.529  11.932 -2.3383  1.2061  0.0960
  834MPD2     N12321   3.022   0.225  11.791 -0.2970  0.9175 -0.4081
  834MPD2    H512322   3.021   0.286  11.710 -2.6138  3.5289  1.6117
  834MPD2    N112323   2.823   4.608  11.516  0.5884 -0.7956 -0.1875
  834MPD2    H712324   2.814   4.507  11.511 -2.4675 -0.4406 -1.3032
  835MPD2     C12325   2.539   3.387  11.234  0.9203 -0.3198  0.5013
  835MPD2    C112326   2.579   3.256  11.238 -0.8399  0.3255  0.3920
  835MPD2    C212327   2.645   3.207  11.347  0.4217  0.4706 -0.4056
  835MPD2    C312328   2.670   3.288  11.455 -0.1919 -0.6880 -0.3805
  835MPD2    C412329   2.629   3.421  11.452  0.7589  0.4672  1.1567
  835MPD2    C512330   2.566   3.472  11.342 -0.1253  0.2341 -0.7100
  835MPD2     H12331   2.675   3.103  11.348 -0.6137  0.2090  4.5442
  835MPD2    H112332   2.659   3.489  11.531  1.4750  2.1961 -0.6036
  835MPD2    H212333   2.477   3.431  11.156  1.0526 -0.4367  0.3291
  835MPD2    H312334   2.534   3.575  11.336  0.6158  0.5517  0.7837
  835MPD2     N12335   2.730   3.237  11.574  0.3287  0.2008 -0.1339
  835MPD2    H512336   2.711   3.292  11.658  2.9852 -2.1940  2.0252
  835MPD2    N112337   2.556   3.165  11.130  0.4340  0.5159 -0.2332
  835MPD2    H712338   2.600   3.075  11.142  1.6414  1.0691 -0.4234
  836MPD2     C12339   2.360   3.185  12.076  0.4534 -0.1847  0.1480
  836MPD2    C112340   2.449   3.085  12.111 -0.0623  0.1717 -0.9116
  836MPD2    C212341   2.428   3.004  12.218 -0.3485 -0.0841  0.0057
  836MPD2    C312342   2.319   3.043  12.300 -0.0831 -0.2328 -0.2674
  836MPD2    C412343   2.232   3.153  12.270  0.3708 -0.4514  0.1818
  836MPD2    C512344   2.256   3.227  12.160  0.1646 -0.4749 -0.8833
  836MPD2     H12345   2.490   2.919  12.242 -0.6886 -0.0315  1.0696
  836MPD2    H112346   2.142   3.182  12.322 -0.4896 -1.3798 -0.8030
  836MPD2    H212347   2.383   3.249  11.991  1.9788 -0.4435  0.3590
  836MPD2    H312348   2.190   3.309  12.134 -1.0311 -0.7626  1.2732
  836MPD2     N12349   2.281   2.983  12.427 -0.0906  0.0984 -0.0315
  836MPD2    H512350   2.198   3.017  12.475  0.4904  0.7156  0.5381
  836MPD2    N112351   2.561   3.076  12.025  0.2374  0.0728  0.2519
  836MPD2    H712352   2.556   3.142  11.948  1.1157  0.1633  0.2732
  837MPD2     C12353   1.113   2.884  10.142 -0.8243 -0.1905 -0.2111
  837MPD2    C112354   0.998   2.950  10.103 -0.3844  0.2258 -0.6327
  837MPD2    C212355   0.996   3.082  10.122  0.0641 -0.3788 -0.5221
  837MPD2    C312356   1.099   3.159  10.154  0.2008  0.0730 -0.5456
  837MPD2    C412357   1.221   3.098  10.185  0.8624 -0.6616  0.1311
  837MPD2    C512358   1.225   2.964  10.179  0.3314  0.4128  0.3457
  837MPD2     H12359   0.904   3.131  10.092 -0.8020 -1.4205  0.4331
  837MPD2    H112360   1.314   3.152  10.199  1.2949 -1.3235 -0.2037
  837MPD2    H212361   1.136   2.778  10.138 -0.6090 -0.2065  1.4522
  837MPD2    H312362   1.319   2.912  10.196  0.9587  1.1989 -0.7173
  837MPD2     N12363   1.083   3.296  10.125 -0.2982 -0.2468 -0.1614
  837MPD2    H512364   0.987   3.320  10.106 -0.6193 -1.0255  0.4849
  837MPD2    N112365   0.885   2.894  10.038 -0.1568 -0.5085 -0.3405
  837MPD2    H712366   0.807   2.957  10.021  1.0019  0.6426 -1.3873
  838MPD2     C12367   4.089   1.165  12.076 -0.0160  0.3007  0.4698
  838MPD2    C112368   3.966   1.113  12.063 -0.2364  0.0394 -0.1753
  838MPD2    C212369   3.895   1.059  12.165 -0.1388 -0.5326 -0.8440
  838MPD2    C312370   3.955   1.042  12.281  0.0718 -0.3184 -0.5212
  838MPD2    C412371   4.076   1.097  12.301  0.7230  0.2770 -0.1300
  838MPD2    C512372   4.152   1.157  12.200 -0.4699 -0.3451 -0.5480
  838MPD2     H12373   3.793   1.023  12.160 -0.4979  0.4528 -0.5424
  838MPD2    H112374   4.123   1.093  12.399  2.8839  1.1175 -1.1411
  838MPD2    H212375   4.146   1.202  11.992  0.8194 -1.2376  0.3752
  838MPD2    H312376   4.247   1.206  12.214 -1.1652  0.6782  0.6055
  838MPD2     N12377   3.888   0.973  12.378  0.5127 -0.8681  0.3130
  838MPD2    H512378   3.789   0.961  12.361  0.3333  2.1236 -0.7409
  838MPD2    N112379   3.905   1.117  11.938  0.6626 -0.4555  0.1046
  838MPD2    H712380   3.818   1.065  11.935  1.0938 -1.1438 -0.1948
  839MPD2     C12381   3.570   0.420  11.841 -0.8488  0.0497 -0.8164
  839MPD2    C112382   3.570   0.454  11.713  0.0409  0.0030 -0.0735
  839MPD2    C212383   3.641   0.561  11.667  0.2122  0.0174 -0.7274
  839MPD2    C312384   3.713   0.641  11.753 -0.3662  0.0203  0.4902
  839MPD2    C412385   3.720   0.603  11.887 -0.0202 -0.1231  0.3944
  839MPD2    C512386   3.652   0.491  11.930  0.4652 -0.4318 -0.0186
  839MPD2     H12387   3.636   0.574  11.559 -2.4200  0.3384 -0.5512
  839MPD2    H112388   3.787   0.647  11.960  1.1716 -1.8622  0.3605
  839MPD2    H212389   3.509   0.339  11.878 -0.1356  0.0926  0.4359
  839MPD2    H312390   3.659   0.451  12.031  2.7947  1.0344  0.4042
  839MPD2     N12391   3.783   0.753  11.714 -0.1257  0.6029 -0.4988
  839MPD2    H512392   3.832   0.808  11.784 -1.6172 -0.4098  1.3591
  839MPD2    N112393   3.510   0.374  11.615 -0.0513  0.8060 -0.3126
  839MPD2    H712394   3.527   0.410  11.521 -0.9494  1.0929 -0.3740
  840MPD2     C12395   4.586   2.986   9.978 -0.0902  0.2110 -0.1742
  840MPD2    C112396   4.499   2.974  10.089  0.2591  0.1620 -0.4605
  840MPD2    C212397   4.528   3.064  10.192  0.1891 -0.3377 -0.1907
  840MPD2    C312398   4.626   3.158  10.183 -0.0350 -1.0382  0.1174
  840MPD2    C412399   4.708   3.160  10.072  0.2077  0.2052  0.0191
  840MPD2    C512400   4.692   3.068   9.973  0.2914 -0.1274  0.4437
  840MPD2     H12401   4.483   3.048  10.290  3.1320  1.5351  1.4762
  840MPD2    H112402   0.056   3.224  10.072  0.1427  0.2966  0.7836
  840MPD2    H212403   4.576   2.918   9.894 -1.0044  0.2379 -0.0940
  840MPD2    H312404   0.019   3.075   9.887  1.3832 -1.0473  1.1943
  840MPD2     N12405   4.635   3.263  10.275  0.3160  0.1990 -0.1289
  840MPD2    H512406   4.695   3.341  10.248  0.3105  0.2412 -0.0194
  840MPD2    N112407   4.377   2.902  10.079  0.5771  0.3058 -0.5632
  840MPD2    H712408   4.357   2.848   9.996  0.8343  2.7750 -2.2197
  841MPD2     C12409   3.764   3.054  14.693  0.0104 -0.0371  0.1153
  841MPD2    C112410   3.860   2.954  14.667 -0.0826  0.5351  0.1498
  841MPD2    C212411   3.993   2.978  14.711 -0.2257 -0.0385 -0.0987
  841MPD2    C312412   4.022   3.086  14.789 -0.0611  0.1339 -0.7664
  841MPD2    C412413   3.915   3.171  14.830  0.1918 -0.7520 -0.1756
  841MPD2    C512414   3.792   3.156  14.775 -0.4563 -0.1249 -0.4785
  841MPD2     H12415   4.069   2.902  14.694 -0.8117 -0.5099 -0.5906
  841MPD2    H112416   3.934   3.239  14.912  1.9867 -2.6540  0.9668
  841MPD2    H212417   3.660   3.040  14.663 -0.3650 -0.9613  1.8580
  841MPD2    H312418   3.719   3.235  14.788 -0.3242 -0.3163  1.5541
  841MPD2     N12419   4.153   3.105  14.829  0.2844  0.0858 -0.1058
  841MPD2    H512420   4.218   3.042  14.782 -0.0347 -0.8490  0.7064
  841MPD2    N112421   3.834   2.837  14.591 -0.3650  0.7320 -0.3018
  841MPD2    H712422   3.914   2.778  14.569 -1.3676 -0.3217 -1.0998
  842MPD2     C12423   0.062   4.026  16.930 -0.0028 -0.1836 -0.3997
  842MPD2    C112424   4.699   3.934  16.901 -1.1540 -0.6351  0.5838
  842MPD2    C212425   4.683   3.826  16.979  0.2077 -0.6463  0.7495
  842MPD2    C312426   0.015   3.819  17.103  0.2178  0.0486 -0.3387
  842MPD2    C412427   0.117   3.912  17.129 -0.1714  0.7140 -0.0689
  842MPD2    C512428   0.137   4.018  17.050  0.3851  0.1997 -0.6448
  842MPD2     H12429   4.599   3.761  16.956  0.3258 -0.8883  1.0066
  842MPD2    H112430   0.171   3.895  17.222 -2.1323  1.2956  1.1812
  842MPD2    H212431   0.076   4.117  16.872  1.5110 -1.4347 -2.0117
  842MPD2    H312432   0.209   4.089  17.089 -0.2981  1.9807 -2.6290
  842MPD2     N12433   0.006   3.715  17.197  0.2353 -0.5323 -0.1644
  842MPD2    H512434   0.063   3.706  17.280 -0.9194 -0.1569  0.6806
  842MPD2    N112435   4.620   3.959  16.785  0.3514  0.2140  0.0856
  842MPD2    H712436   4.661   4.033  16.728 -0.3357 -0.7210 -1.6030
  843MPD2     C12437   1.850   4.608  17.241 -0.2317  0.1140 -0.5006
  843MPD2    C112438   1.905   4.559  17.357 -0.8293 -0.0429 -0.0504
  843MPD2    C212439   2.014   4.628  17.409 -0.4173 -0.1252 -0.8810
  843MPD2    C312440   2.057   0.010  17.352  0.1625  0.0453 -0.3670
  843MPD2    C412441   2.009   0.052  17.226  0.3581 -0.1467  0.0440
  843MPD2    C512442   1.899   4.724  17.177 -0.8564  0.3204  0.0529
  843MPD2     H12443   2.058   4.609  17.507 -0.0637 -0.0283 -1.0212
  843MPD2    H112444   2.046   0.142  17.179 -0.2983 -0.0832 -0.3572
  843MPD2    H212445   1.767   4.556  17.195 -1.1923  0.4424  0.8803
  843MPD2    H312446   1.853   0.023  17.086 -1.5392  0.2524  0.3709
  843MPD2     N12447   2.159   0.092  17.405  0.1594 -0.2939  0.0881
  843MPD2    H512448   2.191   0.173  17.353  0.1701 -0.9286 -0.9005
  843MPD2    N112449   1.860   4.433  17.405 -0.3475 -0.0992 -0.2811
  843MPD2    H712450   1.796   4.375  17.351  1.6687 -0.7587 -1.9566
  844MPD2     C12451   0.316   3.141  16.866 -0.2570  0.3488 -0.0742
  844MPD2    C112452   0.331   3.217  16.750 -0.1123 -0.7749 -0.4198
  844MPD2    C212453   0.412   3.327  16.743 -0.2983  0.5920 -0.5658
  844MPD2    C312454   0.481   3.378  16.860 -0.7147 -0.5525  0.5145
  844MPD2    C412455   0.467   3.296  16.974 -0.7074 -0.5603 -0.1516
  844MPD2    C512456   0.389   3.182  16.974 -0.2173 -0.0667 -0.0052
  844MPD2     H12457   0.428   3.377  16.648 -0.0787  1.6066  0.0018
  844MPD2    H112458   0.516   3.324  17.066 -0.4521  1.0590 -0.7740
  844MPD2    H212459   0.244   3.064  16.889  1.0151 -1.1544 -1.1577
  844MPD2    H312460   0.376   3.127  17.066 -2.4365 -0.5201 -0.5986
  844MPD2     N12461   0.580   3.478  16.856  0.4861  0.0417 -0.0630
  844MPD2    H512462   0.627   3.494  16.945  0.0539  1.7771 -0.1469
  844MPD2    N112463   0.262   3.178  16.636 -0.0650  0.5658  0.7504
  844MPD2    H712464   0.279   3.236  16.554  1.1043  0.4412  0.9043
  845MPD2     C12465   0.885   4.512  16.726 -0.3005  0.4129 -0.3608
  845MPD2    C112466   0.926   4.454  16.844 -0.0144  0.3749 -0.5335
  845MPD2    C212467   0.912   4.315  16.855 -0.1296  0.1776 -0.2526
  845MPD2    C312468   0.860   4.236  16.754 -0.0260  0.1235 -0.0022
  845MPD2    C412469   0.819   4.298  16.640  0.5740  0.9747  0.5088
  845MPD2    C512470   0.833   4.434  16.628 -0.2559  0.1499 -0.3110
  845MPD2     H12471   0.951   4.270  16.946  0.1138 -1.4638 -1.1737
  845MPD2    H112472   0.774   4.246  16.557 -1.3479 -0.6982  2.5874
  845MPD2    H212473   0.912   4.615  16.706  0.1320  0.1809 -0.9729
  845MPD2    H312474   0.801   4.478  16.534 -1.0494 -0.7489 -0.4572
  845MPD2     N12475   0.838   4.100  16.771 -0.3092  0.1831  0.1635
  845MPD2    H512476   0.889   4.067  16.852  0.4786 -0.5467 -0.6317
  845MPD2    N112477   0.977   4.539  16.943 -0.2283 -0.0146 -0.3759
  845MPD2    H712478   0.983   4.638  16.921  0.5538 -0.2016 -1.0310
  846MPD2     C12479   2.645   4.050  14.133 -0.3006  0.2267  0.3197
  846MPD2    C112480   2.519   4.091  14.109  0.9625 -0.0320 -0.2450
  846MPD2    C212481   2.420   4.075  14.207  0.1945 -0.4968  0.1931
  846MPD2    C312482   2.450   4.041  14.338 -0.2408  0.3664  0.3897
  846MPD2    C412483   2.580   4.010  14.364  0.1339  0.0548 -0.3748
  846MPD2    C512484   2.677   4.015  14.265 -0.2491  0.6660 -0.6033
  846MPD2     H12485   2.319   4.104  14.181  0.5556  0.7142  0.1500
  846MPD2    H112486   2.617   3.990  14.464 -2.8404  0.8499  0.8857
  846MPD2    H212487   2.718   4.044  14.053  1.3577  1.6927  1.7361
  846MPD2    H312488   2.782   3.996  14.286 -0.3330  1.7596  0.7839
  846MPD2     N12489   2.353   4.050  14.442  0.7228  0.1945  0.3940
  846MPD2    H512490   2.259   4.073  14.412  0.8564 -1.9806 -1.6965
  846MPD2    N112491   2.471   4.145  13.987 -0.4754  0.0426 -0.1886
  846MPD2    H712492   2.374   4.175  13.981 -0.5116 -0.3374 -1.6057
  847MPD2     C12493   2.221   0.996  15.143  0.4338  0.2536  1.2783
  847MPD2    C112494   2.300   1.107  15.170 -0.0016  0.1419  0.5528
  847MPD2    C212495   2.415   1.092  15.247 -0.2825  0.0882 -0.2270
  847MPD2    C312496   2.476   0.969  15.265 -0.2287  0.3789 -0.0763
  847MPD2    C412497   2.400   0.856  15.241  0.2342  0.2251 -0.9468
  847MPD2    C512498   2.278   0.877  15.180 -0.3684  0.1145  0.0504
  847MPD2     H12499   2.474   1.170  15.293  0.0870 -0.8243  0.8416
  847MPD2    H112500   2.429   0.755  15.265  1.5267  1.3226  2.1308
  847MPD2    H212501   2.124   0.991  15.095  0.6750  1.2712  0.6822
  847MPD2    H312502   2.209   0.794  15.162 -1.7844  0.4151  4.0923
  847MPD2     N12503   2.610   0.976  15.299 -0.6628 -0.3294 -0.3851
  847MPD2    H512504   2.643   1.065  15.336  0.6363 -0.6493 -0.7558
  847MPD2    N112505   2.267   1.233  15.123 -0.3998  0.6135 -0.0452
  847MPD2    H712506   2.322   1.312  15.154  1.4659  0.0745 -1.9040
  848MPD2     C12507   0.319   3.935  16.400 -0.6791  0.2397  0.0534
  848MPD2    C112508   0.377   4.008  16.496  0.3001  0.2936 -0.8248
  848MPD2    C212509   0.435   4.133  16.459  0.3777  0.5342 -0.4784
  848MPD2    C312510   0.431   4.178  16.327 -1.0075 -0.1534  0.1193
  848MPD2    C412511   0.380   4.095  16.237  0.0020 -0.9920 -0.1701
  848MPD2    C512512   0.326   3.975  16.270  0.6297 -0.4800 -0.6515
  848MPD2     H12513   0.471   4.198  16.538 -2.4856  0.3104  1.0252
  848MPD2    H112514   0.387   4.126  16.133  1.7685  0.4745  0.3859
  848MPD2    H212515   0.277   3.836  16.409 -0.9636  0.5526  2.2093
  848MPD2    H312516   0.275   3.923  16.190 -1.9756  0.2730  0.5157
  848MPD2     N12517   0.477   4.308  16.289 -0.8832 -0.3048  0.2690
  848MPD2    H512518   0.466   4.343  16.194  1.0318  1.2714  0.6177
  848MPD2    N112519   0.370   3.975  16.640 -0.9248  0.1167  0.2783
  848MPD2    H712520   0.427   4.026  16.707  0.5451  0.0131 -0.9040
  849MPD2     C12521   4.092   3.460  14.067 -0.1051 -0.3113  0.3725
  849MPD2    C112522   4.185   3.494  14.157 -0.0977 -0.2800  0.0480
  849MPD2    C212523   4.147   3.556  14.277 -1.0732 -0.1027 -0.6497
  849MPD2    C312524   4.010   3.582  14.302  0.3145 -0.4032  0.2330
  849MPD2    C412525   3.915   3.543  14.213  0.2024  0.5807  0.4990
  849MPD2    C512526   3.962   3.481  14.097  0.5534  0.4032  0.2781
  849MPD2     H12527   4.226   3.577  14.348 -2.6378  2.0097  0.4506
  849MPD2    H112528   3.808   3.554  14.222 -0.1216 -1.4123 -1.1507
  849MPD2    H212529   4.127   3.402  13.982  2.2505  1.8258 -0.1016
  849MPD2    H312530   3.891   3.442  14.025  0.8022  3.0880 -1.4055
  849MPD2     N12531   3.962   3.659  14.409 -0.4102 -0.2328 -0.6191
  849MPD2    H512532   3.868   3.694  14.392  0.0797  0.7143 -1.3361
  849MPD2    N112533   4.320   3.454  14.123  0.1650  0.1886  0.4348
  849MPD2    H712534   4.329   3.408  14.033  0.1825  1.0469 -0.0116
  850MPD2     C12535   2.242   2.043  15.002 -0.2811 -0.1359 -0.6816
  850MPD2    C112536   2.300   1.953  15.092  0.0513 -0.6493  0.1277
  850MPD2    C212537   2.437   1.941  15.094 -0.0042 -0.3153 -0.3868
  850MPD2    C312538   2.516   1.995  14.990  0.0437 -0.3339  0.0457
  850MPD2    C412539   2.457   2.075  14.898  0.3796  0.1221 -0.4146
  850MPD2    C512540   2.319   2.095  14.901 -0.3171  0.2171 -0.5767
  850MPD2     H12541   2.485   1.890  15.176  1.1383 -0.6346 -1.2486
  850MPD2    H112542   2.517   2.127  14.824  0.1293 -2.1092 -2.1876
  850MPD2    H212543   2.142   2.084  15.010  0.1182  1.1192 -2.1001
  850MPD2    H312544   2.272   2.167  14.835 -0.6894 -1.5419 -2.2509
  850MPD2     N12545   2.658   1.975  14.989  0.8429 -0.3859 -0.0865
  850MPD2    H512546   2.709   2.008  14.908 -0.7994 -0.9638 -1.3398
  850MPD2    N112547   2.205   1.903  15.186 -0.1814  0.1571  0.6650
  850MPD2    H712548   2.112   1.944  15.186 -0.3850 -0.2995 -0.3489
  851MPD2     C12549   2.260   1.184  15.566  0.3130 -0.0342 -0.1861
  851MPD2    C112550   2.160   1.254  15.515 -0.5082 -0.7965  0.4449
  851MPD2    C212551   2.063   1.189  15.440  0.4308 -0.0283  0.4919
  851MPD2    C312552   2.063   1.045  15.444 -0.3976 -0.5487 -0.5767
  851MPD2    C412553   2.158   0.975  15.516  0.1924  0.0198  0.5837
  851MPD2    C512554   2.259   1.049  15.571 -0.7076 -0.8549 -0.6951
  851MPD2     H12555   1.990   1.237  15.375  1.6940 -0.1231 -1.0060
  851MPD2    H112556   2.167   0.867  15.522 -0.4767 -0.1334 -1.2124
  851MPD2    H212557   2.343   1.229  15.619  1.7204  0.1916 -2.6189
  851MPD2    H312558   2.335   0.998  15.629 -1.7725 -1.7384 -0.0824
  851MPD2     N12559   1.965   0.973  15.373  0.1573  0.6286  0.0815
  851MPD2    H512560   1.890   1.014  15.318 -0.8875 -2.5303 -0.8860
  851MPD2    N112561   2.168   1.393  15.530 -0.2045  1.2720 -0.4611
  851MPD2    H712562   2.257   1.438  15.545  0.9193 -0.7456 -1.0552
  852MPD2     C12563   1.883   4.736  10.170  0.1518 -0.4317 -0.7220
  852MPD2    C112564   1.933   0.013  10.302  0.2709 -0.0732 -0.3385
  852MPD2    C212565   2.026   0.106  10.337 -0.7930  0.0111 -0.0291
  852MPD2    C312566   2.085   0.188  10.244  0.0108 -0.0139 -0.5144
  852MPD2    C412567   2.046   0.175  10.110 -0.1448  0.5998  0.6090
  852MPD2    C512568   1.948   0.081  10.081 -0.2712  0.4078 -0.4953
  852MPD2     H12569   2.049   0.115  10.443 -0.0139 -0.1708 -0.1796
  852MPD2    H112570   2.105   0.222  10.032  1.4013  0.4320  1.6837
  852MPD2    H212571   1.813   4.659  10.139 -0.1580 -0.3277 -0.2879
  852MPD2    H312572   1.917   0.068   9.978  1.4145 -1.2995 -0.7827
  852MPD2     N12573   2.189   0.273  10.295 -0.1007 -0.4521  0.5120
  852MPD2    H512574   2.204   0.266  10.395 -1.0719 -0.2692  0.6759
  852MPD2    N112575   1.892   4.659  10.400  0.2302  0.5100 -0.1177
  852MPD2    H712576   1.934   4.669  10.492  0.3741  0.6237 -0.1958
  853MPD2     C12577   3.737   4.104  12.241  0.1101 -0.0683  0.0137
  853MPD2    C112578   3.611   4.127  12.192 -0.9845 -0.7037 -0.4899
  853MPD2    C212579   3.596   4.156  12.059  0.3867  0.1431 -0.6891
  853MPD2    C312580   3.701   4.132  11.973 -1.0090 -0.3883 -0.9528
  853MPD2    C412581   3.828   4.104  12.018  0.1018  0.1774 -0.5151
  853MPD2    C512582   3.848   4.089  12.158 -0.2820 -0.1560  0.3369
  853MPD2     H12583   3.505   4.198  12.017  1.1231  1.2450 -1.1787
  853MPD2    H112584   3.914   4.095  11.954  0.4292  2.5329 -0.4213
  853MPD2    H212585   3.757   4.108  12.348  2.1979  1.0957 -0.4173
  853MPD2    H312586   3.950   4.082  12.194  0.3097 -0.9142 -1.4977
  853MPD2     N12587   3.682   4.124  11.831  0.0210  0.2028 -0.1636
  853MPD2    H512588   3.759   4.117  11.766  1.5779 -2.4425  1.9658
  853MPD2    N112589   3.511   4.129  12.283 -0.6703 -0.1085  0.7547
  853MPD2    H712590   3.543   4.098  12.374 -0.1235 -0.2541  0.5146
  854MPD2     C12591   0.094   4.675  13.557  0.3518 -0.1305 -0.1161
  854MPD2    C112592   0.175   4.730  13.464  0.4313  0.5360  0.0993
  854MPD2    C212593   0.269   4.648  13.401  0.2757  0.4885  0.1196
  854MPD2    C312594   0.279   4.510  13.425 -0.2930 -0.2852  0.4447
  854MPD2    C412595   0.183   4.456  13.505 -0.3483  0.0553  0.7449
  854MPD2    C512596   0.098   4.538  13.576 -0.2063 -0.3065  0.4081
  854MPD2     H12597   0.342   4.692  13.334 -1.7926  0.9870 -1.8143
  854MPD2    H112598   0.169   4.350  13.523 -0.3090  0.1217  1.1627
  854MPD2    H212599   0.015   4.733  13.602  2.0475  0.0919  2.5626
  854MPD2    H312600   0.025   4.489  13.640  0.4788 -1.3856  0.3747
  854MPD2     N12601   0.361   4.418  13.349 -0.2716  0.3748 -0.1291
  854MPD2    H512602   0.362   4.321  13.380  2.2741  0.9967  1.6806
  854MPD2    N112603   0.156   0.133  13.443  0.1319  0.3713 -0.3557
  854MPD2    H712604   0.074   0.175  13.485 -0.1750 -0.7428  0.1478
  855MPD2     C12605   1.008   4.062  13.799 -0.6593 -0.1220  0.2192
  855MPD2    C112606   1.006   3.975  13.688 -0.2315 -0.5034  0.5549
  855MPD2    C212607   0.910   4.002  13.585 -0.2457  0.2084 -0.4018
  855MPD2    C312608   0.829   4.112  13.589  0.1886  0.1409  0.1215
  855MPD2    C412609   0.843   4.201  13.684 -0.0537 -0.2330  0.1751
  855MPD2    C512610   0.930   4.176  13.787  0.5574 -0.6688 -0.0129
  855MPD2     H12611   0.890   3.937  13.501 -0.3062  1.0021 -1.0048
  855MPD2    H112612   0.775   4.284  13.696  0.4948  0.3845 -1.0513
  855MPD2    H212613   1.072   4.049  13.885  0.1120  2.1823 -0.0092
  855MPD2    H312614   0.953   4.257  13.855  1.8770 -1.4104  0.4393
  855MPD2     N12615   0.731   4.140  13.484 -0.0536 -0.0277 -0.1086
  855MPD2    H512616   0.677   4.226  13.485  0.9777  0.6136  2.1849
  855MPD2    N112617   1.065   3.846  13.693 -0.5836  0.9327  0.1753
  855MPD2    H712618   1.036   3.780  13.621 -2.0552  2.5019 -0.6670
  856MPD2     C12619   3.033   4.516  13.823 -0.0532  0.5076  0.3753
  856MPD2    C112620   3.102   4.623  13.867 -0.1403 -0.2709 -0.1787
  856MPD2    C212621   3.041   0.012  13.880  0.5631  0.0600 -0.2211
  856MPD2    C312622   2.909   0.036  13.841  0.1386 -0.6127 -0.0544
  856MPD2    C412623   2.844   4.662  13.786  0.8069  0.3779  0.5253
  856MPD2    C512624   2.904   4.539  13.787 -0.0925 -0.2520 -0.3853
  856MPD2     H12625   3.108   0.086  13.922  1.3934 -0.1431 -1.1761
  856MPD2    H112626   2.745   4.661  13.741  1.0101 -0.5250  0.1038
  856MPD2    H212627   3.070   4.416  13.805 -1.6882  0.2542 -1.6334
  856MPD2    H312628   2.845   4.460  13.740 -1.0463 -0.3760  1.0287
  856MPD2     N12629   2.843   0.159  13.839  0.3890 -0.0041  0.4307
  856MPD2    H512630   2.749   0.156  13.801  0.8080  2.5588 -0.8558
  856MPD2    N112631   3.239   4.621  13.912  0.1549  0.2594 -0.2181
  856MPD2    H712632   3.289   4.708  13.929  0.1326  0.2179  0.0581
  857MPD2     C12633   4.387   2.762  12.495  0.0724 -0.3109  0.2700
  857MPD2    C112634   4.514   2.715  12.535 -0.6678  0.3724  0.3650
  857MPD2    C212635   4.562   2.742  12.663 -0.3378  0.4915 -0.0001
  857MPD2    C312636   4.479   2.810  12.749 -0.6096  0.2826  0.0382
  857MPD2    C412637   4.360   2.859  12.707  0.5915  0.3019 -1.2166
  857MPD2    C512638   4.318   2.842  12.584 -0.3072  0.9587  0.1442
  857MPD2     H12639   4.654   2.700  12.703  0.6207  0.6946 -1.9996
  857MPD2    H112640   4.296   2.905  12.782 -0.2383  1.1615 -2.4556
  857MPD2    H212641   4.355   2.759  12.391  2.6454  0.4241 -0.5496
  857MPD2    H312642   4.225   2.883  12.545 -0.9915 -1.4717 -0.8027
  857MPD2     N12643   4.528   2.815  12.880  0.3312  0.1754  0.0143
  857MPD2    H512644   4.622   2.779  12.893  0.1358 -1.2054 -2.3909
  857MPD2    N112645   4.589   2.650  12.437 -0.1949  0.2170  0.2627
  857MPD2    H712646   4.538   2.641  12.350  0.3410  1.2916 -0.1485
  858MPD2     C12647   0.823   1.544  16.449 -0.4413  0.1400  0.9274
  858MPD2    C112648   0.910   1.453  16.494 -0.2390  0.5450 -0.0419
  858MPD2    C212649   0.962   1.467  16.621 -0.5229  0.1852 -0.4331
  858MPD2    C312650   0.936   1.577  16.698  0.3415 -0.0561  0.0894
  858MPD2    C412651   0.849   1.666  16.647 -0.8685  0.5523 -0.4142
  858MPD2    C512652   0.778   1.650  16.531 -0.0947  0.3678  0.7167
  858MPD2     H12653   1.020   1.383  16.657 -1.5349 -0.1530  0.4099
  858MPD2    H112654   0.815   1.750  16.708 -2.4773 -0.5546  0.2116
  858MPD2    H212655   0.768   1.535  16.356  0.8663  1.1776  0.0599
  858MPD2    H312656   0.707   1.726  16.498 -1.1240 -1.5322 -1.4667
  858MPD2     N12657   0.986   1.596  16.829 -0.0866  0.3127 -0.0111
  858MPD2    H512658   0.958   1.687  16.865 -0.1247  1.0244 -1.8457
  858MPD2    N112659   0.921   1.330  16.422  0.2361  0.1772  0.2452
  858MPD2    H712660   0.865   1.319  16.339  0.1588 -0.1580  0.3417
  859MPD2     C12661   3.546   2.537  14.875 -0.3630 -0.5916 -0.8161
  859MPD2    C112662   3.674   2.601  14.877 -0.0297  0.4958 -0.1959
  859MPD2    C212663   3.772   2.532  14.815  0.5138 -0.2258 -0.0273
  859MPD2    C312664   3.756   2.401  14.764 -0.9118 -1.1412 -0.8374
  859MPD2    C412665   3.634   2.336  14.781  0.2544  0.6655  0.0308
  859MPD2    C512666   3.536   2.407  14.843  0.1437  1.1354 -0.6684
  859MPD2     H12667   3.864   2.587  14.799  0.4935 -0.6201 -1.4515
  859MPD2    H112668   3.618   2.237  14.739 -1.8544  1.0042  0.0119
  859MPD2    H212669   3.452   2.582  14.905 -0.0816 -1.1257  0.8983
  859MPD2    H312670   3.435   2.370  14.859 -0.3063  2.4029 -0.5876
  859MPD2     N12671   3.864   2.328  14.713  0.6707 -0.2201  0.2216
  859MPD2    H512672   3.850   2.227  14.711  0.2680 -0.1603  0.0270
  859MPD2    N112673   3.696   2.732  14.936 -0.0728 -0.2611 -0.6765
  859MPD2    H712674   3.616   2.785  14.972 -1.0354 -2.7483  0.8456
  860MPD2     C12675   1.597   4.582  11.742 -0.5424  0.6524 -0.4875
  860MPD2    C112676   1.621   4.534  11.865 -0.0016  0.0235  0.0406
  860MPD2    C212677   1.517   4.541  11.957  0.1674 -0.7301 -0.4560
  860MPD2    C312678   1.397   4.602  11.931 -0.2738  0.2298 -0.0063
  860MPD2    C412679   1.378   4.653  11.807 -0.5313 -0.3478 -0.6919
  860MPD2    C512680   1.473   4.641  11.710  0.6269 -0.4275 -0.4084
  860MPD2     H12681   1.539   4.505  12.057 -2.8915  0.1164  0.5189
  860MPD2    H112682   1.286   4.696  11.769  0.5728  1.6340 -1.1376
  860MPD2    H212683   1.673   4.585  11.665  0.0290  0.6616  0.0759
  860MPD2    H312684   1.461   4.692  11.616  0.5227  0.1313 -0.0896
  860MPD2     N12685   1.314   4.621  12.044  0.0939  0.4328  0.1096
  860MPD2    H512686   1.354   4.586  12.131 -2.2110  0.1665  1.0510
  860MPD2    N112687   1.741   4.461  11.899  0.3555 -0.0603  0.1565
  860MPD2    H712688   1.726   4.393  11.973 -1.0604 -1.0803 -1.0645
  861MPD2     C12689   0.742   2.350  10.703  0.8182  0.1439  0.0212
  861MPD2    C112690   0.688   2.451  10.776 -0.1768 -0.4117  0.2853
  861MPD2    C212691   0.602   2.542  10.721 -0.2016  0.0294  0.3098
  861MPD2    C312692   0.573   2.534  10.578  0.3707  0.2013  0.3438
  861MPD2    C412693   0.634   2.437  10.507 -0.6104  0.3794  0.3005
  861MPD2    C512694   0.715   2.340  10.565  1.1030  0.3593 -0.3340
  861MPD2     H12695   0.556   2.617  10.785 -0.3401 -0.8925  1.2827
  861MPD2    H112696   0.614   2.422  10.402 -0.7597  2.1848  0.0772
  861MPD2    H212697   0.804   2.278  10.756 -0.6643  0.3846  2.0811
  861MPD2    H312698   0.741   2.252  10.507  0.9875  0.1140 -0.0165
  861MPD2     N12699   0.493   2.623  10.514 -0.4249 -0.1510  0.0356
  861MPD2    H512700   0.469   2.602  10.418  0.7790 -1.4140  0.0191
  861MPD2    N112701   0.700   2.451  10.921 -0.0628 -0.0805  0.0180
  861MPD2    H712702   0.627   2.497  10.974  1.2088  3.5117 -1.3985
  862MPD2     C12703   4.623   2.548  10.191  0.5589 -0.6781  0.4857
  862MPD2    C112704   4.715   2.532  10.290 -0.3234  0.3737  0.7368
  862MPD2    C212705   4.695   2.434  10.386 -0.2455 -0.4262  0.6709
  862MPD2    C312706   4.611   2.324  10.366 -0.1720 -0.4907  0.3457
  862MPD2    C412707   4.526   2.336  10.265 -0.6631  0.0269  0.5935
  862MPD2    C512708   4.527   2.449  10.184 -0.6604 -0.3330  0.5081
  862MPD2     H12709   0.033   2.442  10.463  0.3215 -1.5863  0.2380
  862MPD2    H112710   4.451   2.259  10.250 -1.5291  1.3218 -1.7271
  862MPD2    H212711   4.634   2.619  10.110  0.9937  1.3217  2.2913
  862MPD2    H312712   4.449   2.450  10.109 -0.8628 -1.5409  0.7115
  862MPD2     N12713   4.626   2.204  10.437  0.0689 -0.3390  0.1759
  862MPD2    H512714   4.565   2.129  10.404  1.1729 -0.9473 -0.4625
  862MPD2    N112715   0.084   2.629  10.314  0.1729 -0.6299 -0.7757
  862MPD2    H712716   0.139   2.600  10.394  3.1454  0.2137 -2.5091
  863MPD2     C12717   3.812   0.731  16.976  0.2015 -0.0668 -0.0676
  863MPD2    C112718   3.939   0.765  16.927  0.1113  0.0585 -0.1006
  863MPD2    C212719   4.050   0.686  16.964  0.2418 -0.0740 -0.4392
  863MPD2    C312720   4.044   0.603  17.072 -0.3804  0.0935  0.1596
  863MPD2    C412721   3.917   0.563  17.114 -0.2825  0.5973 -0.0535
  863MPD2    C512722   3.810   0.635  17.070 -0.3539 -0.4688 -0.0049
  863MPD2     H12723   4.147   0.714  16.924 -0.6943  0.8856 -2.0534
  863MPD2    H112724   3.897   0.505  17.203 -0.8376  1.0836  0.1466
  863MPD2    H212725   3.718   0.781  16.954  0.6104  0.9929  0.5874
  863MPD2    H312726   3.715   0.615  17.118  1.4411 -1.6287  3.0781
  863MPD2     N12727   4.155   0.549  17.131  0.2364  0.1481  0.8345
  863MPD2    H512728   4.139   0.481  17.206  1.7831 -0.6760  0.4198
  863MPD2    N112729   3.954   0.861  16.828  0.2081 -0.0567  0.4069
  863MPD2    H712730   4.050   0.878  16.799  0.3042  2.6506  2.3769
  864MPD2     C12731   4.558   1.388  17.492 -0.0035 -0.6021  0.2373
  864MPD2    C112732   4.606   1.344  17.368 -0.7403 -0.3643  0.3802
  864MPD2    C212733   4.682   1.432  17.299 -0.2411  0.8842 -0.0011
  864MPD2    C312734   4.726   1.555  17.348 -0.5228  0.2189  0.3152
  864MPD2    C412735   4.669   1.595  17.465 -0.4163  0.1856 -0.2544
  864MPD2    C512736   4.585   1.515  17.535  0.8595 -0.5409  0.6920
  864MPD2     H12737   4.700   1.404  17.196 -2.5417 -1.7667  0.3143
  864MPD2    H112738   4.687   1.691  17.512 -0.7836  0.1053  0.0512
  864MPD2    H212739   4.486   1.326  17.544 -1.5231  1.3944  0.5199
  864MPD2    H312740   4.540   1.554  17.626 -0.4648 -0.6498  0.0787
  864MPD2     N12741   0.076   1.634  17.267  0.0051  0.1206 -0.0631
  864MPD2    H512742   0.099   1.726  17.302  2.1951 -0.9953  1.4267
  864MPD2    N112743   4.554   1.227  17.315 -0.1486 -0.0175  0.7101
  864MPD2    H712744   4.482   1.188  17.375 -0.2456 -0.2565  0.4373
  865MPD2     C12745   4.605   2.015  16.603 -0.4817 -0.1920  0.2082
  865MPD2    C112746   4.713   1.923  16.599  0.5589 -0.0140 -0.5896
  865MPD2    C212747   0.067   1.923  16.701  0.8342  0.7922 -0.1758
  865MPD2    C312748   0.039   1.990  16.814  0.1885 -0.0651 -0.6560
  865MPD2    C412749   4.660   2.065  16.822 -0.2606  0.4736  0.3316
  865MPD2    C512750   4.581   2.083  16.711 -0.1529  0.4959  0.2168
  865MPD2     H12751   0.146   1.849  16.699 -0.9288 -1.0757 -1.1247
  865MPD2    H112752   4.627   2.112  16.914 -2.3368 -0.3516 -0.0100
  865MPD2    H212753   4.534   2.022  16.521 -2.5674  0.2277  2.0690
  865MPD2    H312754   4.495   2.147  16.724  0.2912  1.2024 -0.2497
  865MPD2     N12755   0.120   1.987  16.932  0.3391  0.6711  0.6008
  865MPD2    H512756   0.071   1.991  17.021 -1.7519 -0.1136 -0.5137
  865MPD2    N112757   4.717   1.833  16.489 -0.2298 -0.3568 -0.2803
  865MPD2    H712758   4.645   1.844  16.418  0.7520 -0.6711 -1.3068
  866MPD2     C12759   0.962   2.642  11.550 -0.1951 -0.4842  0.6534
  866MPD2    C112760   0.992   2.733  11.450  0.5223 -0.2177 -0.1081
  866MPD2    C212761   0.886   2.770  11.375 -0.3249 -0.0759  0.0352
  866MPD2    C312762   0.753   2.734  11.405 -0.2408  0.4129  0.3863
  866MPD2    C412763   0.724   2.649  11.511  0.2840 -0.1448 -0.1660
  866MPD2    C512764   0.835   2.603  11.583  0.1270 -0.4325 -0.5724
  866MPD2     H12765   0.902   2.839  11.293  2.0416 -0.8673 -0.1957
  866MPD2    H112766   0.626   2.619  11.546 -1.1775  2.0299 -2.4203
  866MPD2    H212767   1.040   2.616  11.622  1.7054 -2.0995 -2.0077
  866MPD2    H312768   0.830   2.546  11.676 -2.6881  0.9168  0.0973
  866MPD2     N12769   0.639   2.782  11.330 -0.0167  0.0877 -0.4580
  866MPD2    H512770   0.549   2.769  11.374  0.0011  0.7347 -0.2314
  866MPD2    N112771   1.121   2.768  11.431  0.0631 -0.1820 -0.0223
  866MPD2    H712772   1.191   2.700  11.459 -2.6941 -2.2586  1.8150
  867MPD2     C12773   3.081   1.934  16.499  1.0627 -0.6217  0.4926
  867MPD2    C112774   3.154   1.885  16.607  0.7650 -0.2903  0.7168
  867MPD2    C212775   3.124   1.939  16.732  0.4876 -0.7038 -1.0441
  867MPD2    C312776   3.039   2.051  16.741 -0.2834 -0.3505  0.0205
  867MPD2    C412777   2.991   2.107  16.623  0.7785  0.7595  0.6906
  867MPD2    C512778   2.996   2.046  16.509 -0.9260 -0.2367  0.0799
  867MPD2     H12779   3.171   1.896  16.820 -3.0964  2.2116  2.2859
  867MPD2    H112780   2.944   2.205  16.629 -0.2930  0.2037  1.3121
  867MPD2    H212781   3.073   1.891  16.400 -0.5080  0.0534  0.3233
  867MPD2    H312782   2.947   2.091  16.423 -0.4374 -0.1428 -0.1523
  867MPD2     N12783   3.005   2.119  16.861 -0.3781  0.4698  0.2863
  867MPD2    H512784   2.947   2.200  16.847 -1.0518  0.0851  0.8452
  867MPD2    N112785   3.241   1.774  16.590 -0.0530  0.3617  0.3269
  867MPD2    H712786   3.234   1.726  16.502  0.1679 -1.3320  1.2327
  868MPD2     C12787   0.177   1.316  13.583 -0.1060 -0.7667  0.7182
  868MPD2    C112788   0.226   1.193  13.629  0.2123 -0.6787  0.4098
  868MPD2    C212789   0.141   1.114  13.709  0.7063 -0.6200  0.2871
  868MPD2    C312790   0.013   1.157  13.742 -0.4070 -0.2539 -0.3991
  868MPD2    C412791   4.705   1.276  13.690  0.5553 -0.4633  0.0069
  868MPD2    C512792   0.051   1.353  13.611 -0.3027  0.3356  0.2525
  868MPD2     H12793   0.172   1.015  13.741  0.4856 -0.3109  1.4520
  868MPD2    H112794   4.604   1.313  13.699  0.7049 -0.2568  0.7957
  868MPD2    H212795   0.240   1.381  13.523 -1.3785 -0.9180 -0.7620
  868MPD2    H312796   0.005   1.442  13.571  0.2732 -0.6551 -2.5972
  868MPD2     N12797   4.680   1.072  13.827  0.3148 -0.1011 -0.1855
  868MPD2    H512798   4.733   0.992  13.859  1.2232 -0.2972 -2.1638
  868MPD2    N112799   0.361   1.146  13.616 -0.7429 -0.6740 -0.3278
  868MPD2    H712800   0.384   1.061  13.667  1.7515  1.8376  2.8087
  869MPD2     C12801   0.491   4.507   0.894  0.3472  0.0012 -0.2979
  869MPD2    C112802   0.574   4.445   0.983 -0.6474 -0.0769 -0.8063
  869MPD2    C212803   0.670   4.355   0.935 -0.1780 -0.4157 -0.7780
  869MPD2    C312804   0.682   4.332   0.794  0.9726 -0.1191  0.2750
  869MPD2    C412805   0.593   4.397   0.708 -0.3775 -0.0428  0.5580
  869MPD2    C512806   0.503   4.484   0.758  0.1864 -0.1171 -0.7532
  869MPD2     H12807   0.728   4.295   1.004  0.4914  2.3371  1.0583
  869MPD2    H112808   0.604   4.387   0.601 -1.5892 -0.8445  0.5082
  869MPD2    H212809   0.412   4.572   0.931  2.2783  1.9290  0.4236
  869MPD2    H312810   0.432   4.537   0.694 -0.8106 -0.1149  0.3523
  869MPD2     N12811   0.769   4.235   0.741 -0.0299  0.7474  1.1128
  869MPD2    H512812   0.816   4.182   0.814 -1.4950  0.1653  1.6323
  869MPD2    N112813   0.548   4.464   1.121 -0.4077 -0.5884 -0.2311
  869MPD2    H712814   0.459   4.503   1.149  0.2910  1.6216 -1.0796
  870MPD2     C12815   1.110   1.943   1.685  0.4714 -0.1114 -0.1162
  870MPD2    C112816   1.204   2.025   1.620  0.1779  0.4503  0.1890
  870MPD2    C212817   1.158   2.141   1.561 -0.0907  0.4751 -0.7257
  870MPD2    C312818   1.026   2.169   1.581 -0.3232  1.0537  0.8597
  870MPD2    C412819   0.940   2.092   1.647 -0.2468  0.1021 -0.1482
  870MPD2    C512820   0.979   1.976   1.706 -0.0824 -0.1406  0.1987
  870MPD2     H12821   1.227   2.218   1.531  0.1781  1.3948  2.2063
  870MPD2    H112822   0.839   2.126   1.668 -1.5977 -3.1724 -1.2879
  870MPD2    H212823   1.134   1.847   1.730 -0.2379 -0.1026  0.2946
  870MPD2    H312824   0.914   1.909   1.760  0.7237 -1.8780 -0.9733
  870MPD2     N12825   0.989   2.294   1.522  0.1684 -0.1963 -0.2387
  870MPD2    H512826   1.055   2.333   1.455 -1.2301  1.2728 -0.7615
  870MPD2    N112827   1.335   1.967   1.617 -0.5470  0.7887 -1.2005
  870MPD2    H712828   1.358   1.875   1.654 -2.8005  0.4443 -0.6463
  871MPD2     C12829   2.261   1.832  16.273 -0.3906  0.2055 -0.3185
  871MPD2    C112830   2.323   1.782  16.385  0.5213 -0.5576  0.3022
  871MPD2    C212831   2.444   1.709  16.369 -0.2471 -0.7781  0.1286
  871MPD2    C312832   2.473   1.670  16.243 -0.0130 -0.2552  0.5750
  871MPD2    C412833   2.409   1.711  16.138 -0.1407  0.5618 -0.5152
  871MPD2    C512834   2.297   1.792  16.150 -0.0341  0.1726 -0.5158
  871MPD2     H12835   2.504   1.668  16.449 -0.6514  0.3952  1.0287
  871MPD2    H112836   2.431   1.680  16.037  1.3766 -1.1526  0.3325
  871MPD2    H212837   2.173   1.895  16.274  0.9664  2.1010 -1.3721
  871MPD2    H312838   2.242   1.813  16.059  0.7891 -1.0919 -1.3124
  871MPD2     N12839   2.581   1.583  16.228  0.2671  0.1506 -0.8398
  871MPD2    H512840   2.628   1.558  16.315 -1.1921  1.4376  0.3285
  871MPD2    N112841   2.281   1.821  16.511  0.2460 -0.1052  0.4220
  871MPD2    H712842   2.207   1.889  16.521 -0.0048 -0.1198 -1.3571
  872MPD2     C12843   3.095   3.389  13.958  0.0696 -0.4639  0.2210
  872MPD2    C112844   3.047   3.516  13.928 -0.0659 -1.3106  0.0360
  872MPD2    C212845   2.926   3.558  13.979  0.5527 -0.1157 -0.2700
  872MPD2    C312846   2.862   3.473  14.065  0.7484 -0.1070  0.0185
  872MPD2    C412847   2.901   3.347  14.093  0.7409  0.2925  0.1383
  872MPD2    C512848   3.023   3.300  14.030 -0.8554  0.2670 -0.1101
  872MPD2     H12849   2.892   3.660  13.966 -0.9018 -0.5305  0.2792
  872MPD2    H112850   2.844   3.281  14.158 -0.4626  0.7275 -0.4850
  872MPD2    H212851   3.196   3.357  13.931  1.1121  2.4001  0.7410
  872MPD2    H312852   3.056   3.200  14.054  1.1320  1.2666  1.3611
  872MPD2     N12853   2.750   3.515  14.137 -0.0519  0.2362 -0.6236
  872MPD2    H512854   2.730   3.459  14.219  1.1022 -0.4939 -0.8452
  872MPD2    N112855   3.126   3.606  13.854  0.1573  0.1551  0.4329
  872MPD2    H712856   3.098   3.704  13.854  1.0679  0.3986 -1.2683
  873MPD2     C12857   0.142   4.335   0.880 -0.4923 -0.5137  0.2127
  873MPD2    C112858   0.021   4.401   0.873 -0.2551  0.0453 -0.0398
  873MPD2    C212859   4.656   4.331   0.811 -0.6269 -1.2780  0.5512
  873MPD2    C312860   4.672   4.209   0.758  0.4967 -0.2420 -0.0243
  873MPD2    C412861   0.061   4.157   0.749  0.4678 -0.2932  0.4377
  873MPD2    C512862   0.163   4.213   0.821  0.2895 -0.1055 -0.3083
  873MPD2     H12863   4.558   4.375   0.817 -0.8643 -1.7617  0.2400
  873MPD2    H112864   0.081   4.063   0.699 -1.6832  0.3009 -1.5527
  873MPD2    H212865   0.226   4.376   0.936 -1.8801  1.9552  0.4952
  873MPD2    H312866   0.263   4.169   0.815  0.1629 -0.2511 -1.4530
  873MPD2     N12867   4.562   4.122   0.723  0.4210 -0.0793  0.4965
  873MPD2    H512868   4.590   4.032   0.685 -0.2445  0.4505 -1.2474
  873MPD2    N112869   0.009   4.526   0.942 -0.8111 -0.3959 -0.6715
  873MPD2    H712870   0.091   4.566   0.987  1.1915 -4.1011 -0.9974
  874MPD2     C12871   4.465   4.489  16.250 -0.2049  0.6453  0.2265
  874MPD2    C112872   4.558   4.392  16.277 -0.6512 -0.1630  0.2265
  874MPD2    C212873   4.690   4.416  16.267 -0.6069 -0.3399 -0.3568
  874MPD2    C312874   0.002   4.547  16.240 -0.1907 -0.1525  0.0848
  874MPD2    C412875   4.645   4.639  16.197  0.6898  0.3615  0.0929
  874MPD2    C512876   4.512   4.612  16.201  0.4646  0.2069  0.1658
  874MPD2     H12877   0.025   4.348  16.308 -0.6201 -1.0422 -1.5028
  874MPD2    H112878   4.679   4.738  16.167  1.0170  0.1607 -0.1993
  874MPD2    H212879   4.358   4.472  16.258 -0.0293  0.6930  2.6142
  874MPD2    H312880   4.447   4.687  16.158 -0.1772 -0.3405  0.1708
  874MPD2     N12881   0.140   4.566  16.243 -0.0569  0.5559  0.6318
  874MPD2    H512882   0.204   4.497  16.280  1.0676  0.7148 -0.9842
  874MPD2    N112883   4.502   4.273  16.328  0.5710 -0.2603 -0.6060
  874MPD2    H712884   4.402   4.268  16.311  0.2564  0.2275  1.1317
  875MPD2     C12885   0.268   2.243  14.568  0.6439  0.0746  0.1284
  875MPD2    C112886   0.255   2.370  14.519  0.0111 -0.3824  0.0667
  875MPD2    C212887   0.283   2.477  14.604 -0.2643 -0.0425 -0.1887
  875MPD2    C312888   0.329   2.455  14.734 -0.1831  0.5057  0.4330
  875MPD2    C412889   0.351   2.326  14.782  0.6793 -0.9177 -0.5392
  875MPD2    C512890   0.317   2.229  14.697 -0.3460 -0.0059  1.0760
  875MPD2     H12891   0.274   2.579  14.568  1.0429 -0.2891 -1.2186
  875MPD2    H112892   0.358   2.310  14.889 -0.2554  0.4451 -0.2783
  875MPD2    H212893   0.245   2.148  14.520  1.4708 -0.1185  0.1204
  875MPD2    H312894   0.336   2.125  14.724 -0.5515 -0.7360 -1.6061
  875MPD2     N12895   0.364   2.556  14.830 -0.1729 -0.1616 -0.0058
  875MPD2    H512896   0.372   2.532  14.928 -0.0670  0.7418  0.2152
  875MPD2    N112897   0.217   2.394  14.388  0.9304  0.1124 -0.6842
  875MPD2    H712898   0.204   2.493  14.373 -1.4670 -0.2680 -1.1965
  876MPD2     C12899   4.527   3.381  16.327 -0.0013 -0.1744  0.3788
  876MPD2    C112900   4.505   3.348  16.189 -0.4636 -0.5204  0.0737
  876MPD2    C212901   4.488   3.214  16.154 -0.7145 -0.3962 -0.4701
  876MPD2    C312902   4.470   3.119  16.253  0.1283  0.3103  0.4657
  876MPD2    C412903   4.475   3.160  16.382 -0.2743 -0.1918 -0.3357
  876MPD2    C512904   4.512   3.287  16.424 -0.0257 -0.4482 -0.1128
  876MPD2     H12905   4.489   3.186  16.049 -2.2679  1.4624 -0.9935
  876MPD2    H112906   4.450   3.082  16.454  2.1673 -1.0312 -0.4040
  876MPD2    H212907   4.539   3.483  16.362  2.3601 -0.7496  1.2538
  876MPD2    H312908   4.508   3.313  16.529 -2.2980 -0.4466 -0.1989
  876MPD2     N12909   4.458   2.986  16.214 -0.4451  0.0990 -0.6447
  876MPD2    H512910   4.471   2.959  16.117  0.7641 -0.0777 -0.4294
  876MPD2    N112911   4.482   3.460  16.104 -0.0879  0.1218 -0.1564
  876MPD2    H712912   4.486   3.551  16.148 -3.2530 -0.3152  0.9723
  877MPD2     C12913   0.085   3.933  15.568  0.1264 -0.1603  0.7282
  877MPD2    C112914   4.697   3.907  15.509  0.2549  0.7851 -0.4366
  877MPD2    C212915   4.673   3.954  15.378 -0.0862  0.0921  0.3776
  877MPD2    C312916   0.039   4.017  15.306  0.2984 -1.0733 -0.2754
  877MPD2    C412917   0.162   4.026  15.364  0.0018  0.2777  0.2957
  877MPD2    C512918   0.178   3.995  15.494  0.1701  0.1009  0.1402
  877MPD2     H12919   4.574   3.937  15.340  0.5649 -0.4493 -1.0494
  877MPD2    H112920   0.245   4.069  15.308  0.9973  3.7983  4.4433
  877MPD2    H212921   0.113   3.907  15.670  1.2162  0.1119  0.4943
  877MPD2    H312922   0.276   4.014  15.538 -0.1609  0.3245  0.7871
  877MPD2     N12923   0.028   4.074  15.174 -0.0383 -0.4457  0.3466
  877MPD2    H512924   0.118   4.107  15.141  0.2442 -1.5310  0.0634
  877MPD2    N112925   4.595   3.837  15.579 -0.4987 -0.1904 -0.2727
  877MPD2    H712926   4.508   3.825  15.529 -1.2809  1.9430  0.5738
  878MPD2     C12927   4.377   3.201  13.342  1.2736  0.2821 -0.6109
  878MPD2    C112928   4.411   3.332  13.363 -0.0802  0.1568  0.4337
  878MPD2    C212929   4.462   3.360  13.490  0.7909  1.0592 -0.1878
  878MPD2    C312930   4.496   3.263  13.579  0.0947  0.1472 -0.2275
  878MPD2    C412931   4.460   3.133  13.546  0.6451 -0.5928 -0.7765
  878MPD2    C512932   4.384   3.105  13.436 -0.4144  0.3631 -0.0184
  878MPD2     H12933   4.492   3.461  13.516  1.3233  0.9868 -0.5215
  878MPD2    H112934   4.479   3.045  13.606  0.1261  0.0080  0.2647
  878MPD2    H212935   4.316   3.163  13.261  0.6508 -0.8839  0.4095
  878MPD2    H312936   4.352   3.002  13.424  1.2817  0.1145 -2.4980
  878MPD2     N12937   4.551   3.294  13.703 -0.1482  0.2562 -0.7182
  878MPD2    H512938   4.586   3.388  13.718 -0.5704 -0.0084  1.9628
  878MPD2    N112939   4.383   3.427  13.262  0.6179  0.5497  0.1173
  878MPD2    H712940   4.342   3.389  13.177  2.7258  1.3209 -1.2369
  879MPD2     C12941   0.249   4.592  16.790  0.3964 -0.6883  0.0177
  879MPD2    C112942   0.229   4.518  16.903  0.6344  0.4511  0.0086
  879MPD2    C212943   0.122   4.427  16.901 -0.2651  0.1797 -0.9556
  879MPD2    C312944   0.038   4.424  16.788  0.5353  0.3177  0.1293
  879MPD2    C412945   0.065   4.498  16.674 -0.5729 -0.0357 -0.3113
  879MPD2    C512946   0.176   4.574  16.676 -0.8089 -0.7351  0.0164
  879MPD2     H12947   0.099   4.363  16.985  0.2219  0.8499 -0.3232
  879MPD2    H112948   4.732   4.505  16.592 -0.7620 -0.5301 -0.1915
  879MPD2    H212949   0.325   4.669  16.788  0.7150 -1.0020  0.1213
  879MPD2    H312950   0.190   4.629  16.583  1.7859 -0.5972  0.4850
  879MPD2     N12951   4.652   4.359  16.788 -0.1566  0.7768 -0.2222
  879MPD2    H512952   4.606   4.358  16.697 -1.0960  1.4040  0.2462
  879MPD2    N112953   0.303   4.541  17.022  0.4293 -0.7018  0.4427
  879MPD2    H712954   0.369   4.619  17.017  1.5968 -1.6811  0.7145
  880MPD2     C12955   1.510   1.698   0.438 -0.0288 -0.0890 -0.2217
  880MPD2    C112956   1.422   1.757   0.525 -0.3170  0.1514  0.5452
  880MPD2    C212957   1.377   1.693   0.639 -0.4637  0.2739  0.0978
  880MPD2    C312958   1.425   1.560   0.664  0.6420  0.5407 -0.5421
  880MPD2    C412959   1.502   1.498   0.562 -1.4674  0.4780  0.1728
  880MPD2    C512960   1.548   1.564   0.453  0.4309  0.2962  0.0792
  880MPD2     H12961   1.321   1.742   0.718 -0.8811  0.2889 -0.2064
  880MPD2    H112962   1.522   1.392   0.566 -0.9962  0.5863  0.7120
  880MPD2    H212963   1.549   1.758   0.357  1.7238  0.1934  0.8495
  880MPD2    H312964   1.618   1.514   0.387  0.5205  0.6460 -0.0903
  880MPD2     N12965   1.392   1.505   0.787  0.6411 -0.2644 -0.0720
  880MPD2    H512966   1.334   1.555   0.853  0.4072  0.7562 -1.0605
  880MPD2    N112967   1.394   1.890   0.506 -0.1567 -0.0081 -0.1260
  880MPD2    H712968   1.451   1.934   0.435 -1.0735  0.0381 -0.8269
  881MPD2     C12969   1.029   2.559  17.584 -0.4987  0.3518 -0.6902
  881MPD2    C112970   1.107   2.447  17.569 -0.6409  0.0214  0.0200
  881MPD2    C212971   1.150   2.376  17.689 -0.4720 -0.1334 -0.2771
  881MPD2    C312972   1.109   2.413   0.061  0.4760  0.1607  0.2847
  881MPD2    C412973   1.020   2.517   0.071 -0.2196 -0.4271 -0.0290
  881MPD2    C512974   0.973   2.579  17.709  0.3018 -0.5085 -0.3382
  881MPD2     H12975   1.214   2.288  17.684 -1.2829 -0.8190  1.4102
  881MPD2    H112976   0.987   2.547   0.169 -2.0238 -2.7717  0.0797
  881MPD2    H212977   0.984   2.606  17.498  1.4374  1.5412 -1.0658
  881MPD2    H312978   0.897   2.653  17.732  1.3385 -0.0719  1.6920
  881MPD2     N12979   1.140   2.346   0.186 -0.1685 -0.0624  0.2234
  881MPD2    H512980   1.093   2.381   0.269  2.4960  0.4227  1.5575
  881MPD2    N112981   1.168   2.440  17.439 -0.4212 -0.2743  0.1938
  881MPD2    H712982   1.138   2.507  17.369  1.1779 -1.2634 -1.4568
  882MPD2     C12983   4.421   3.974  14.360  0.5938  0.8450  0.2990
  882MPD2    C112984   4.377   4.059  14.460  0.0341  0.0717 -0.0273
  882MPD2    C212985   4.246   4.097  14.463 -0.0315  0.2286  0.4319
  882MPD2    C312986   4.160   4.045  14.372 -0.1850  0.2084 -0.1017
  882MPD2    C412987   4.206   3.965  14.270 -0.2988  1.2039  0.5244
  882MPD2    C512988   4.335   3.929  14.261 -0.7693 -0.1407  0.1514
  882MPD2     H12989   4.217   4.165  14.542 -1.5218 -0.1091  0.1863
  882MPD2    H112990   4.142   3.926  14.191 -1.3211  0.7464  1.5629
  882MPD2    H212991   4.517   3.924  14.354  1.5944  2.6330  1.3741
  882MPD2    H312992   4.367   3.874  14.173 -1.3220 -1.7205  0.9485
  882MPD2     N12993   4.019   4.057  14.382  0.0396 -0.0733  0.3066
  882MPD2    H512994   3.966   3.989  14.329  0.1058  0.6026 -0.6233
  882MPD2    N112995   4.478   4.092  14.558 -0.0609  0.3908 -0.0935
  882MPD2    H712996   4.566   4.041  14.558 -0.5646 -0.4671  1.0336
  883MPD2     C12997   1.604   3.834  15.965 -0.2560  0.3290 -0.0284
  883MPD2    C112998   1.640   3.940  15.881  0.9933  0.4337 -0.1224
  883MPD2    C212999   1.738   4.032  15.922  0.4459 -0.1837  0.2908
  883MPD2    C313000   1.792   4.017  16.044 -0.2644 -0.0146 -0.3721
  883MPD2    C413001   1.754   3.912  16.127  0.6114 -0.4935 -0.0724
  883MPD2    C513002   1.665   3.818  16.082 -0.0215  0.3785 -0.1306
  883MPD2     H13003   1.762   4.123  15.868 -0.3408  1.1089  2.1410
  883MPD2    H113004   1.802   3.910  16.225 -0.8187 -1.9653  0.6001
  883MPD2    H213005   1.523   3.764  15.945 -0.0130 -0.0015  0.1426
  883MPD2    H313006   1.642   3.740  16.154  1.5463  0.4158  0.3972
  883MPD2     N13007   1.889   4.116  16.078  0.7287 -0.2701  0.0767
  883MPD2    H513008   1.926   4.178  16.006  0.8995 -0.7922 -0.2847
  883MPD2    N113009   1.584   3.961  15.751  0.5953  0.7133  0.7931
  883MPD2    H713010   1.621   4.036  15.693 -0.5466  1.6185  1.2394
  884MPD2     C13011   3.759   4.705  15.603 -0.1390 -0.1325 -0.1493
  884MPD2    C113012   3.714   0.031  15.493 -0.1023 -0.1913 -0.1969
  884MPD2    C213013   3.597   0.099  15.506  0.6507 -0.0561  0.0500
  884MPD2    C313014   3.521   0.102  15.625  0.7550  0.2973  0.5057
  884MPD2    C413015   3.574   0.049  15.740  0.6815 -0.8710 -0.3263
  884MPD2    C513016   3.690   4.717  15.723  0.2991 -0.1442 -0.4049
  884MPD2     H13017   3.553   0.157  15.426 -0.6701 -0.0999  0.7316
  884MPD2    H113018   3.534   0.054  15.841  1.6092  1.2334 -0.0581
  884MPD2    H213019   3.847   4.642  15.612  0.0019 -0.0713 -1.1570
  884MPD2    H313020   3.711   4.659  15.812 -3.0038 -0.0748  0.4448
  884MPD2     N13021   3.402   0.175  15.627 -0.8071 -0.5128  0.3895
  884MPD2    H513022   3.373   0.220  15.540  0.4835  0.5373  0.5089
  884MPD2    N113023   3.782   0.033  15.369 -0.0813 -0.8248  0.0210
  884MPD2    H713024   3.741   0.083  15.290 -0.9950 -0.7440  0.5458
  885MPD2     C13025   1.886   0.096  17.656  0.1555 -0.1694  0.9149
  885MPD2    C113026   1.945   0.204  17.717 -0.3984  0.0435  0.7092
  885MPD2    C213027   1.936   0.328  17.662 -0.0877  0.1094 -0.3082
  885MPD2    C313028   1.874   0.344  17.536  0.0687  0.7263 -0.1279
  885MPD2    C413029   1.796   0.239  17.483 -0.1800  0.1973 -0.4188
  885MPD2    C513030   1.807   0.117  17.547  0.5042 -0.0133 -0.0227
  885MPD2     H13031   1.981   0.415  17.709  1.0202  0.1361 -1.4192
  885MPD2    H113032   1.740   0.240  17.390 -2.2272 -0.5669  0.7973
  885MPD2    H213033   1.908   4.736  17.695 -1.7192 -1.3667 -1.0422
  885MPD2    H313034   1.738   0.043  17.508  2.3325 -0.0050 -3.2343
  885MPD2     N13035   1.890   0.461  17.462  0.3451 -0.5108 -0.5804
  885MPD2    H513036   1.941   0.536  17.507  0.7586 -1.4590  0.5190
  885MPD2    N113037   2.017   0.179   0.091 -0.5239  0.4393  0.0866
  885MPD2    H713038   2.013   0.086   0.133  2.2329  0.5070  0.4820
  886MPD2     C13039   3.477   3.835  16.160 -0.5351 -0.0843 -0.0246
  886MPD2    C113040   3.497   3.744  16.066 -0.5973  0.2577  0.1753
  886MPD2    C213041   3.458   3.765  15.939 -0.8950 -0.5331 -0.2902
  886MPD2    C313042   3.394   3.884  15.901 -0.3394 -0.2566  0.2720
  886MPD2    C413043   3.382   3.978  15.998  0.3370  0.1714 -0.4385
  886MPD2    C513044   3.413   3.949  16.125  0.2406  0.4701  0.2008
  886MPD2     H13045   3.485   3.695  15.860 -1.3257 -0.7826 -0.2129
  886MPD2    H113046   3.319   4.065  15.982  0.6947  0.3257 -1.0287
  886MPD2    H213047   3.476   3.825  16.267  2.0489 -0.4051 -0.0365
  886MPD2    H313048   3.397   4.025  16.201  0.2309  0.8661 -0.1993
  886MPD2     N13049   3.370   3.904  15.764  0.1212 -0.2408  0.0820
  886MPD2    H513050   3.389   3.832  15.695 -4.8651 -0.5823 -0.9257
  886MPD2    N113051   3.547   3.617  16.102  0.1420  0.1728  0.7176
  886MPD2    H713052   3.545   3.544  16.031 -0.7662  0.4000  0.5081
  887MPD2     C13053   4.278   3.614  16.339 -1.1511 -0.0949  0.3597
  887MPD2    C113054   4.188   3.610  16.235 -0.1318 -0.7321 -0.3346
  887MPD2    C213055   4.183   3.712  16.143  0.3386  0.7070 -0.4136
  887MPD2    C313056   4.293   3.806  16.137  0.0054 -0.3604 -0.6045
  887MPD2    C413057   4.397   3.793  16.226 -0.2802 -0.1926 -0.2994
  887MPD2    C513058   4.386   3.700  16.329 -0.1230 -0.1272 -0.5508
  887MPD2     H13059   4.095   3.712  16.079 -0.4517 -1.1537  0.6589
  887MPD2    H113060   4.480   3.862  16.230 -0.7028  0.3677 -1.2176
  887MPD2    H213061   4.273   3.537  16.414  0.7444 -1.2599 -0.7135
  887MPD2    H313062   4.462   3.702  16.406 -2.3361 -0.3331  1.6744
  887MPD2     N13063   4.279   3.911  16.045  0.0299  0.5508  0.1773
  887MPD2    H513064   4.197   3.904  15.986 -0.7679  2.3968  1.0428
  887MPD2    N113065   4.085   3.522  16.241 -0.4969  0.2812 -0.3606
  887MPD2    H713066   4.060   3.486  16.333  1.1619  0.3710  0.1218
  888MPD2     C13067   0.715   3.628  14.949 -0.4880  0.0677 -0.1295
  888MPD2    C113068   0.714   3.677  15.073 -0.8103 -0.3114  0.0112
  888MPD2    C213069   0.779   3.795  15.097  0.0358 -0.4833  0.6726
  888MPD2    C313070   0.853   3.862  14.995 -0.3358  0.4423  0.1529
  888MPD2    C413071   0.850   3.812  14.864 -0.7785 -1.7368  0.4131
  888MPD2    C513072   0.782   3.695  14.846 -0.0796  0.9830 -0.3510
  888MPD2     H13073   0.779   3.837  15.197 -0.1612  0.9005  0.0889
  888MPD2    H113074   0.903   3.859  14.782  0.5601  0.0733  2.3573
  888MPD2    H213075   0.673   3.529  14.939  0.2578 -0.0843 -1.8582
  888MPD2    H313076   0.772   3.657  14.745 -0.3739  0.4405 -0.1191
  888MPD2     N13077   0.919   3.971  15.042 -0.6343  0.5936 -0.6018
  888MPD2    H513078   0.904   3.991  15.140  2.1246 -1.1648  0.1894
  888MPD2    N113079   0.651   3.615  15.181 -0.6275  0.2833 -0.1901
  888MPD2    H713080   0.669   3.655  15.273  2.4102  1.1643 -1.1581
  889MPD2     C13081   4.738   3.485  12.998  0.0620 -0.3122 -0.1495
  889MPD2    C113082   4.717   3.430  13.124  0.4337  0.7349  0.7731
  889MPD2    C213083   0.011   3.515  13.230 -0.1205 -0.7869 -0.2845
  889MPD2    C313084   0.028   3.648  13.214 -0.6445  0.2685  0.4290
  889MPD2    C413085   0.031   3.703  13.085  0.4351  0.5785  0.0062
  889MPD2    C513086   0.008   3.620  12.983 -0.1302  0.1173 -0.4261
  889MPD2     H13087   4.733   3.482  13.332  0.2281  0.1126  0.0552
  889MPD2    H113088   0.035   3.811  13.079 -3.3219  0.9510  3.6071
  889MPD2    H213089   4.709   3.432  12.908  2.9712 -0.5596 -0.9519
  889MPD2    H313090   0.001   3.671  12.888  0.9518  0.2217 -0.4494
  889MPD2     N13091   0.025   3.728  13.330 -0.8496  0.4969  0.0539
  889MPD2    H513092   0.027   3.669  13.412  1.3276 -0.8410 -0.9657
  889MPD2    N113093   4.706   3.288  13.133  0.4057 -0.0445 -0.3358
  889MPD2    H713094   4.709   3.237  13.045 -0.3046 -0.7254  0.0395
  890MPD2     C13095   4.623   4.666  14.817  0.1987  0.5513 -0.0761
  890MPD2    C113096   0.009   4.726  14.797  0.7006 -1.0056  0.1243
  890MPD2    C213097   0.110   4.678  14.872 -0.4470 -0.5102  0.0635
  890MPD2    C313098   0.091   4.567  14.961 -0.0882 -0.5186  0.5442
  890MPD2    C413099   4.700   4.517  14.983 -0.2851 -0.8421 -0.1496
  890MPD2    C513100   4.596   4.565  14.912 -0.2214  0.2660  0.1220
  890MPD2     H13101   0.212   4.702  14.847 -0.8708  0.7873 -0.3839
  890MPD2    H113102   4.677   4.450  15.065 -1.5409  1.0736  1.0492
  890MPD2    H213103   4.539   4.714  14.768  0.3753 -0.4476 -1.3493
  890MPD2    H313104   4.491   4.539  14.924 -0.0991  0.1207  0.9097
  890MPD2     N13105   0.206   4.519  15.032  0.1826  0.2757  0.3760
  890MPD2    H513106   0.289   4.571  15.008 -0.1558 -0.1472 -1.7182
  890MPD2    N113107   0.027   0.093  14.707 -0.5069  0.2003 -0.0666
  890MPD2    H713108   4.686   0.102  14.643 -1.9446  2.3359  2.0427
  891MPD2     C13109   2.959   3.495  16.758  0.3125  0.1323 -0.5169
  891MPD2    C113110   2.849   3.488  16.842  0.1417 -0.2633 -0.9755
  891MPD2    C213111   2.857   3.390  16.937 -0.0569 -0.4887  0.1601
  891MPD2    C313112   2.957   3.302  16.955 -0.2187 -0.0909  0.0740
  891MPD2    C413113   3.064   3.314  16.866 -0.5319 -0.3586  0.2721
  891MPD2    C513114   3.065   3.410  16.773  0.1681 -0.3002 -0.0050
  891MPD2     H13115   2.772   3.394  17.004  0.2557 -0.0859  0.5304
  891MPD2    H113116   3.143   3.243  16.841 -0.4875 -0.7047  1.3860
  891MPD2    H213117   2.966   3.562  16.673  1.6015  2.5974  1.5528
  891MPD2    H313118   3.151   3.413  16.709  0.9846  1.4715  1.1848
  891MPD2     N13119   2.933   3.205  17.053 -0.1135  0.5576  0.3596
  891MPD2    H513120   2.841   3.200  17.095 -0.3169 -1.6252 -0.3559
  891MPD2    N113121   2.743   3.576  16.812  0.2974  0.0565  0.1093
  891MPD2    H713122   2.764   3.641  16.737  0.3581  0.9652  0.9160
  892MPD2     C13123   3.774   3.956  15.340  0.4038 -0.6427  0.4194
  892MPD2    C113124   3.709   4.057  15.274  0.3279 -0.1361 -0.6118
  892MPD2    C213125   3.682   4.042  15.136  0.5997 -0.1630  0.2795
  892MPD2    C313126   3.739   3.938  15.063 -0.6050 -0.2579 -0.7740
  892MPD2    C413127   3.807   3.839  15.134  0.5091 -0.4054  0.1194
  892MPD2    C513128   3.820   3.849  15.274  0.6319 -0.2971  0.3038
  892MPD2     H13129   3.622   4.119  15.090  0.3140  0.2120  1.2780
  892MPD2    H113130   3.844   3.753  15.079 -0.6772  0.5425 -2.1513
  892MPD2    H213131   3.788   3.960  15.448  0.3426  2.0032  0.3219
  892MPD2    H313132   3.878   3.768  15.317  0.9350  0.2710  0.9608
  892MPD2     N13133   3.725   3.941  14.921 -0.5475  0.2123 -0.1595
  892MPD2    H513134   3.753   3.855  14.874 -0.8516  1.2251 -2.1978
  892MPD2    N113135   3.665   4.176  15.337 -0.0712 -0.0450 -0.0613
  892MPD2    H713136   3.636   4.254  15.278 -2.9798  1.2854  3.0804
  893MPD2     C13137   0.009   3.207   1.571  0.9545  0.5213  0.4057
  893MPD2    C113138   0.041   3.316   1.488  1.0174 -0.1478 -0.3224
  893MPD2    C213139   4.690   3.365   1.395  0.2674 -0.2217  0.1454
  893MPD2    C313140   4.567   3.300   1.383 -0.2516  0.2640 -0.0864
  893MPD2    C413141   4.536   3.194   1.463 -1.0128 -0.8218 -0.3243
  893MPD2    C513142   4.630   3.145   1.552  0.2194 -0.1152 -0.1056
  893MPD2     H13143   4.712   3.456   1.339 -1.5653  0.0490 -0.1168
  893MPD2    H113144   4.445   3.136   1.446 -1.3309 -0.2652 -0.5206
  893MPD2    H213145   0.076   3.176   1.650  1.4259  0.9646  0.1807
  893MPD2    H313146   4.611   3.058   1.614 -1.2446 -0.2819 -0.7989
  893MPD2     N13147   4.456   3.352   1.310  0.8821  0.2888  0.1374
  893MPD2    H513148   4.374   3.293   1.304  0.6958  0.4338  1.2430
  893MPD2    N113149   0.179   3.355   1.501  1.0119  0.1097 -0.0272
  893MPD2    H713150   0.241   3.303   1.563 -0.4526  0.1919  1.5276
  894MPD2     C13151   3.266   0.458   1.332 -0.1789 -0.1934  0.0706
  894MPD2    C113152   3.235   0.566   1.412 -0.2096 -0.4178  0.0453
  894MPD2    C213153   3.247   0.695   1.372  0.2673  0.7032  0.2114
  894MPD2    C313154   3.289   0.724   1.246  0.2847  0.3777  0.0330
  894MPD2    C413155   3.335   0.618   1.168  0.6519  0.5550 -0.6332
  894MPD2    C513156   3.316   0.487   1.207  0.3335  0.3831 -0.8038
  894MPD2     H13157   3.209   0.777   1.432  1.7463  0.8400  0.9431
  894MPD2    H113158   3.371   0.637   1.068 -0.9169  1.7382 -0.9664
  894MPD2    H213159   3.250   0.355   1.360  0.1190 -0.6172 -1.3506
  894MPD2    H313160   3.348   0.413   1.134 -0.2192 -1.5455  0.8930
  894MPD2     N13161   3.312   0.859   1.211 -0.0150  0.6214 -0.4772
  894MPD2    H513162   3.271   0.930   1.271 -0.4183 -0.6438  0.7679
  894MPD2    N113163   3.185   0.541   1.541  0.7058 -0.4119  0.5706
  894MPD2    H713164   3.149   0.627   1.582  1.1143 -0.3017  0.6986
  895MPD2     C13165   2.900   3.324  13.636  0.5800 -0.2459 -0.6452
  895MPD2    C113166   2.927   3.304  13.501  0.3343 -0.4724 -1.0759
  895MPD2    C213167   2.891   3.179  13.451  0.1300 -0.3580 -0.0550
  895MPD2    C313168   2.804   3.097  13.518  0.4644 -0.2959  0.0319
  895MPD2    C413169   2.762   3.125  13.649  0.0386  0.0495 -0.7571
  895MPD2    C513170   2.816   3.235  13.707  0.3839  0.2319  0.2727
  895MPD2     H13171   2.906   3.164  13.345  0.3668  0.5659 -0.1502
  895MPD2    H113172   2.688   3.064  13.700  0.0644  0.7563  0.1293
  895MPD2    H213173   2.931   3.420  13.676 -3.0102  0.5355  0.2702
  895MPD2    H313174   2.796   3.251  13.812  0.0258  0.8149  0.1137
  895MPD2     N13175   2.737   2.982  13.460  0.0077 -0.0351  0.0715
  895MPD2    H513176   2.648   2.955  13.501 -1.0963  2.4649 -0.6758
  895MPD2    N113177   2.989   3.391  13.414  0.3726 -0.5252  0.0463
  895MPD2    H713178   2.991   3.353  13.320 -3.1159 -1.5491  0.4076
  896MPD2     C13179   0.486   1.550   1.895 -0.2142  0.1247  0.1338
  896MPD2    C113180   0.476   1.513   1.765  0.4912  0.4317 -0.7549
  896MPD2    C213181   0.350   1.525   1.706 -0.3908 -0.0179  0.2597
  896MPD2    C313182   0.241   1.567   1.786 -0.5121  0.0733  0.1905
  896MPD2    C413183   0.252   1.595   1.922  0.6020  0.1495 -0.2170
  896MPD2    C513184   0.377   1.590   1.972 -0.0347  0.1864  0.2753
  896MPD2     H13185   0.336   1.507   1.600  1.2912 -1.2147  0.2441
  896MPD2    H113186   0.174   1.632   1.987 -1.2056 -1.9710 -1.1801
  896MPD2    H213187   0.586   1.562   1.934  0.2880  0.6998 -1.3669
  896MPD2    H313188   0.390   1.622   2.074  3.5944  0.3924 -0.2435
  896MPD2     N13189   0.114   1.579   1.719  0.3552  0.3171  0.3318
  896MPD2    H513190   0.128   1.566   1.619 -0.9019 -3.2680  0.6055
  896MPD2    N113191   0.591   1.471   1.695  0.0980  0.1307 -0.1460
  896MPD2    H713192   0.675   1.451   1.749 -0.6466 -0.4634  0.7851
  897MPD2     C13193   1.440   3.835  10.854 -0.6283 -0.0434  0.4913
  897MPD2    C113194   1.388   3.767  10.745 -0.0941  0.9544  1.3049
  897MPD2    C213195   1.276   3.688  10.754  0.4530 -0.4414 -0.0415
  897MPD2    C313196   1.211   3.684  10.878  0.2857 -0.1184 -0.0421
  897MPD2    C413197   1.270   3.733  10.990 -0.5294  0.3562  0.6160
  897MPD2    C513198   1.389   3.808  10.978  0.2127 -0.8954  0.2768
  897MPD2     H13199   1.231   3.635  10.671  0.4297 -0.3478 -0.0893
  897MPD2    H113200   1.224   3.716  11.087 -1.1008 -1.1162  0.0890
  897MPD2    H213201   1.535   3.885  10.839 -0.5394 -0.0604  1.0173
  897MPD2    H313202   1.446   3.849  11.061  3.8190 -3.1751 -1.1096
  897MPD2     N13203   1.079   3.626  10.865 -0.2256 -0.5214 -0.0983
  897MPD2    H513204   1.042   3.605  10.773  2.0128 -0.1366 -1.0766
  897MPD2    N113205   1.443   3.792  10.619 -0.6368 -0.1013  0.5812
  897MPD2    H713206   1.502   3.874  10.613 -0.9074  0.2482  2.9558
  898MPD2     C13207   2.642   4.012  17.619  0.1996 -0.3787  0.1423
  898MPD2    C113208   2.777   4.040  17.643 -0.0049 -0.4207 -0.4204
  898MPD2    C213209   2.837   4.146  17.578  0.5824 -0.1483  0.5632
  898MPD2    C313210   2.772   4.221  17.483  0.4007  0.1796 -0.2500
  898MPD2    C413211   2.647   4.186  17.450 -0.1097  0.3273  0.0504
  898MPD2    C513212   2.584   4.087  17.521 -0.6314  0.3998 -0.0923
  898MPD2     H13213   2.935   4.178  17.610  0.5181  1.7096 -1.0642
  898MPD2    H113214   2.589   4.235  17.373 -1.0248 -3.1107 -1.4385
  898MPD2    H213215   2.588   3.932  17.669  1.0829  0.3308  2.1953
  898MPD2    H313216   2.482   4.060  17.497 -1.2209  1.4403  1.1846
  898MPD2     N13217   2.846   4.332  17.434 -0.7339  0.4270  0.1170
  898MPD2    H513218   2.941   4.351  17.463 -1.0147  0.6682  0.8616
  898MPD2    N113219   2.857   3.974  17.738 -0.4299  0.7110  0.6527
  898MPD2    H713220   2.952   4.002   0.009 -0.8554  1.7505  1.1606
  899MPD2     C13221   4.075   0.046  17.516 -0.6541  0.2145 -0.1267
  899MPD2    C113222   4.093   0.177  17.552 -0.2261  0.5571 -0.3497
  899MPD2    C213223   4.003   0.238  17.646 -0.1987 -0.4325 -0.3358
  899MPD2    C313224   3.893   0.162  17.682  0.2805 -0.2241  0.2989
  899MPD2    C413225   3.872   0.040  17.629 -0.3680  0.1989  0.1134
  899MPD2    C513226   3.965   4.723  17.549 -0.4993 -0.0279 -0.3706
  899MPD2     H13227   4.010   0.340  17.683  0.7859 -0.5827 -0.1215
  899MPD2    H113228   3.781   4.728  17.662 -0.0710 -0.0143  0.6083
  899MPD2    H213229   4.152   4.738  17.457 -1.4965 -1.4595  0.0873
  899MPD2    H313230   3.953   4.615  17.539  1.5599 -0.4014  1.0703
  899MPD2     N13231   3.798   0.209   0.028  0.3560  0.2094 -0.0287
  899MPD2    H513232   3.730   0.144   0.065  1.2421 -0.7958 -0.1555
  899MPD2    N113233   4.195   0.249  17.489  0.2971 -0.2794 -0.5214
  899MPD2    H713234   4.242   0.202  17.412  0.5558 -3.1434  1.3997
  900MPD2     C13235   3.855   1.286  12.692  0.5685 -0.7822  0.6139
  900MPD2    C113236   3.733   1.258  12.755  0.2386  0.7523 -0.4459
  900MPD2    C213237   3.617   1.273  12.681  0.3181  0.3105 -0.3303
  900MPD2    C313238   3.626   1.308  12.544  0.5773  0.1490 -0.4807
  900MPD2    C413239   3.751   1.338  12.488 -0.1946  0.2316 -0.2342
  900MPD2    C513240   3.862   1.334  12.566  0.1449 -0.3897 -0.5840
  900MPD2     H13241   3.520   1.274  12.729  0.0173  0.3393 -0.9402
  900MPD2    H113242   3.758   1.365  12.383  1.7756  0.3900 -0.0557
  900MPD2    H213243   3.946   1.287  12.751  1.1507  3.2576 -0.4183
  900MPD2    H313244   3.960   1.353  12.525  0.3442 -1.5791 -0.6606
  900MPD2     N13245   3.503   1.308  12.476  0.4151 -0.3212  0.3228
  900MPD2    H513246   3.418   1.287  12.526 -1.1310  2.2003 -1.2063
  900MPD2    N113247   3.734   1.212  12.883 -0.3197  0.0295  0.5428
  900MPD2    H713248   3.828   1.208  12.922 -0.0719  2.2618  0.1750
  901MPD2     C13249   3.513   0.226  13.048  0.7879  0.9064  0.3312
  901MPD2    C113250   3.624   0.262  13.129  0.5914 -0.6391  0.2668
  901MPD2    C213251   3.671   0.392  13.130  0.5568 -0.0531  1.0787
  901MPD2    C313252   3.609   0.495  13.070 -0.1513  0.7200 -0.1814
  901MPD2    C413253   3.495   0.465  13.000  0.3075 -0.7832 -0.2917
  901MPD2    C513254   3.459   0.334  12.972 -0.4117  0.2203 -0.1835
  901MPD2     H13255   3.755   0.417  13.195  0.3505 -0.3978  1.4790
  901MPD2    H113256   3.445   0.545  12.946  0.1528  0.3837  1.5976
  901MPD2    H213257   3.480   0.124  13.033 -1.9424  1.7053  0.9222
  901MPD2    H313258   3.373   0.303  12.913  0.0800 -0.9841 -0.2619
  901MPD2     N13259   3.661   0.624  13.093  0.2075  0.0692 -0.1418
  901MPD2    H513260   3.741   0.634  13.154  0.8592 -0.6672 -0.8854
  901MPD2    N113261   3.693   0.155  13.192  0.1586 -0.6586  0.0380
  901MPD2    H713262   3.642   0.067  13.188  0.0730 -0.6869  1.8218
  902MPD2     C13263   2.923   4.020  12.745  0.0539  0.5569 -0.0447
  902MPD2    C113264   2.871   4.089  12.642 -0.6318  0.8663 -0.1512
  902MPD2    C213265   2.898   4.055  12.511  0.6392 -0.3314 -0.3936
  902MPD2    C313266   2.976   3.949  12.476 -0.3902  0.5226 -0.5116
  902MPD2    C413267   3.023   3.869  12.583  0.3850  0.1059  0.3692
  902MPD2    C513268   2.992   3.901  12.716  0.2662  0.1211  0.8988
  902MPD2     H13269   2.868   4.118  12.429  1.5167  0.1637 -0.3366
  902MPD2    H113270   3.082   3.780  12.563  0.2172 -0.1401  0.9345
  902MPD2    H213271   2.909   4.054  12.847 -1.7377 -0.6699  0.1274
  902MPD2    H313272   3.039   3.842  12.794  1.1868  1.4201  1.3318
  902MPD2     N13273   3.009   3.920  12.343 -0.2543 -0.0185  0.0851
  902MPD2    H513274   3.068   3.839  12.324 -0.0255  0.0083  0.6770
  902MPD2    N113275   2.809   4.213  12.676  0.1472  0.4642  0.1660
  902MPD2    H713276   2.802   4.230  12.775 -0.1758  1.1587  0.0184
  903MPD2     C13277   2.563   3.819  11.527 -0.1756 -0.0004 -0.2889
  903MPD2    C113278   2.583   3.874  11.655  0.5965 -1.0494 -0.9451
  903MPD2    C213279   2.483   3.937  11.725  0.3228  0.4515 -0.7049
  903MPD2    C313280   2.359   3.949  11.660 -0.2330 -0.0781  1.0885
  903MPD2    C413281   2.337   3.899  11.536  0.6933 -0.3287  0.7907
  903MPD2    C513282   2.440   3.831  11.468 -0.6646  0.4271 -0.5041
  903MPD2     H13283   2.487   3.976  11.826  1.0585 -0.3967 -0.4100
  903MPD2    H113284   2.238   3.904  11.492  0.5057  0.7504  1.3483
  903MPD2    H213285   2.638   3.759  11.476 -0.3575 -0.8312  0.4260
  903MPD2    H313286   2.420   3.783  11.372  0.2541 -1.9696  0.5121
  903MPD2     N13287   2.259   4.019  11.740 -0.0434 -0.2535 -0.1757
  903MPD2    H513288   2.297   4.057  11.826  0.5889 -1.8574  0.2611
  903MPD2    N113289   2.712   3.847  11.714  0.0166 -0.3051  0.2833
  903MPD2    H713290   2.774   3.780  11.671 -2.0543 -1.0023 -1.6049
  904MPD2     C13291   2.834   2.460  14.445 -0.2327  0.0353 -0.4258
  904MPD2    C113292   2.809   2.533  14.330 -0.5686 -0.0021 -0.4635
  904MPD2    C213293   2.915   2.544  14.235 -0.5578  0.3472  0.0373
  904MPD2    C313294   3.050   2.507  14.272 -0.4067 -0.2749 -0.0400
  904MPD2    C413295   3.067   2.440  14.396  0.2935  0.8141  0.5833
  904MPD2    C513296   2.958   2.422  14.475 -1.0079  0.5361  0.3808
  904MPD2     H13297   2.901   2.589  14.137 -0.0371  1.3136  0.4079
  904MPD2    H113298   3.160   2.414  14.445 -0.2237 -0.4933  0.8731
  904MPD2    H213299   2.762   2.439  14.524 -0.2599  2.4409  0.1799
  904MPD2    H313300   2.977   2.378  14.572 -0.9805 -2.6616 -1.0637
  904MPD2     N13301   3.152   2.529  14.183  0.1129  0.1115  0.2868
  904MPD2    H513302   3.127   2.566  14.092  2.3026 -1.8472 -1.0987
  904MPD2    N113303   2.680   2.584  14.294  0.3056  0.2598 -0.3188
  904MPD2    H713304   2.676   2.633  14.205 -1.8886  0.6700 -0.0024
  905MPD2     C13305   2.059   2.867  13.785  0.1103  0.6458  0.2337
  905MPD2    C113306   2.175   2.814  13.804 -0.7497  0.0451  0.5301
  905MPD2    C213307   2.252   2.778  13.696 -0.2601  0.1002  0.0768
  905MPD2    C313308   2.219   2.835  13.574 -0.1591  0.7663 -0.0185
  905MPD2    C413309   2.107   2.907  13.558 -0.1351 -0.6314 -0.7033
  905MPD2    C513310   2.021   2.912  13.664  0.2105  0.0031 -0.6071
  905MPD2     H13311   2.337   2.713  13.713 -1.2245 -1.4761 -1.0760
  905MPD2    H113312   2.057   2.948  13.471  0.5084  0.8256 -0.3825
  905MPD2    H213313   2.002   2.890  13.874  0.1883  1.3329  0.1098
  905MPD2    H313314   1.935   2.978  13.662  0.7521  0.6923 -1.2117
  905MPD2     N13315   2.316   2.814  13.472 -0.2940  0.0121 -0.7505
  905MPD2    H513316   2.395   2.765  13.512 -0.1048  0.8447 -0.1027
  905MPD2    N113317   2.198   2.786  13.944 -0.2339 -0.4423  0.3604
  905MPD2    H713318   2.114   2.798  14.000  0.4039  2.4580  0.7353
  906MPD2     C13319   4.339   3.535  11.039 -0.8535  0.7280  0.0064
  906MPD2    C113320   4.350   3.429  10.951 -0.5529  0.5907  0.1351
  906MPD2    C213321   4.311   3.300  10.990 -0.2124 -0.4605  0.2259
  906MPD2    C313322   4.265   3.276  11.118 -0.0857 -0.2161 -0.2431
  906MPD2    C413323   4.264   3.374  11.211 -0.1168  0.2145 -0.0155
  906MPD2    C513324   4.303   3.502  11.169 -0.5702 -0.3848  0.0994
  906MPD2     H13325   4.315   3.218  10.919 -1.8921  0.9040 -1.4247
  906MPD2    H113326   4.229   3.358  11.313 -0.6701  3.5693  0.3434
  906MPD2    H213327   4.380   3.635  11.032 -1.2276  1.0385  2.0020
  906MPD2    H313328   4.308   3.582  11.243  1.5774 -0.1960 -0.2319
  906MPD2     N13329   4.221   3.149  11.163  0.5431  1.2975  0.0194
  906MPD2    H513330   4.159   3.138  11.243 -1.0559 -0.8046 -1.5129
  906MPD2    N113331   4.390   3.444  10.816 -0.8953 -0.2303  0.1560
  906MPD2    H713332   4.419   3.367  10.756 -3.1801 -0.0743 -1.1232
  907MPD2     C13333   3.434   2.397  15.202  0.0372 -0.1023 -0.4142
  907MPD2    C113334   3.541   2.325  15.144 -0.0891  0.1875 -0.7170
  907MPD2    C213335   3.671   2.371  15.158 -0.2474 -0.4044  0.4940
  907MPD2    C313336   3.694   2.476  15.247  0.2282 -0.2091 -0.3215
  907MPD2    C413337   3.591   2.552  15.293 -0.7156  0.1790  0.1924
  907MPD2    C513338   3.462   2.516  15.269 -0.3093  0.4890 -0.4487
  907MPD2     H13339   3.757   2.318  15.117 -0.4016  0.5573 -1.0753
  907MPD2    H113340   3.611   2.629  15.366  0.9755  2.5501 -2.7626
  907MPD2    H213341   3.329   2.372  15.193 -0.3989  1.9578 -0.9295
  907MPD2    H313342   3.377   2.569  15.311 -0.0740  0.0068  0.6413
  907MPD2     N13343   3.833   2.499  15.269  0.0341  0.2806  0.2468
  907MPD2    H513344   3.901   2.454  15.209  0.6484  0.2806  0.9494
  907MPD2    N113345   3.537   2.196  15.085  0.2375  0.0259  0.5377
  907MPD2    H713346   3.630   2.162  15.061 -0.4629 -1.8327  0.4543
  908MPD2     C13347   1.437   3.412   9.676 -0.1260  0.0795 -0.1508
  908MPD2    C113348   1.449   3.347   9.797 -0.2114  0.2482  0.3941
  908MPD2    C213349   1.481   3.428   9.909  0.5589  0.4175  0.6157
  908MPD2    C313350   1.478   3.561   9.895  0.3636  0.1493 -0.5597
  908MPD2    C413351   1.461   3.624   9.772  0.0043  0.5105 -0.6265
  908MPD2    C513352   1.426   3.553   9.662 -0.2113 -0.1315  0.7442
  908MPD2     H13353   1.493   3.383  10.006  3.2430  1.8714  0.9812
  908MPD2    H113354   1.455   3.731   9.759  0.2226  0.4860 -0.9354
  908MPD2    H213355   1.400   3.352   9.594  0.9748  0.7541 -1.1262
  908MPD2    H313356   1.423   3.616   9.574  0.5969  0.9021  1.4537
  908MPD2     N13357   1.491   3.626  10.015 -0.0506  0.3705  0.5407
  908MPD2    H513358   1.525   3.567  10.091 -2.2955 -1.0464  0.4417
  908MPD2    N113359   1.428   3.204   9.800  0.1373 -0.4263  0.0128
  908MPD2    H713360   1.382   3.167   9.717  1.8762  1.1232 -1.6456
  909MPD2     C13361   1.345   1.360  12.043 -0.7674  0.0466 -0.3918
  909MPD2    C113362   1.425   1.448  11.972 -1.0614  0.7858  0.6163
  909MPD2    C213363   1.450   1.576  12.019  0.1028  0.1338  0.4281
  909MPD2    C313364   1.381   1.629  12.127 -0.7142 -0.8141 -0.7399
  909MPD2    C413365   1.286   1.546  12.189 -0.5254 -0.4073  0.4637
  909MPD2    C513366   1.278   1.412  12.153  0.3897  0.2305  0.6407
  909MPD2     H13367   1.517   1.640  11.962  1.3933 -1.8737 -0.2832
  909MPD2    H113368   1.216   1.573  12.268 -0.0842 -0.4101  0.8531
  909MPD2    H213369   1.326   1.255  12.023 -0.2120  0.3616 -2.5041
  909MPD2    H313370   1.210   1.343  12.201  0.6132 -2.9819 -3.6471
  909MPD2     N13371   1.378   1.768  12.145  0.1268 -0.0183  0.9628
  909MPD2    H513372   1.419   1.826  12.072 -3.3281  0.4378 -0.6000
  909MPD2    N113373   1.500   1.414  11.863  0.2937  0.1459  0.6466
  909MPD2    H713374   1.576   1.480  11.852  0.6326 -0.2645  0.5187
  910MPD2     C13375   3.061   2.575  16.462  0.5007  0.2319 -0.1919
  910MPD2    C113376   3.124   2.538  16.344  0.4775 -0.0394 -0.1502
  910MPD2    C213377   3.130   2.635  16.246 -0.1316  0.3448 -0.2211
  910MPD2    C313378   3.065   2.760  16.260 -0.1299 -0.6425 -0.0541
  910MPD2    C413379   3.015   2.793  16.382 -0.4002  0.1820  0.4188
  910MPD2    C513380   3.012   2.701  16.483 -0.1793  0.1701 -0.2262
  910MPD2     H13381   3.187   2.614  16.157 -0.5503  0.4501 -0.5139
  910MPD2    H113382   2.975   2.892  16.401 -0.5135  0.4477 -1.2077
  910MPD2    H213383   3.059   2.520  16.556  1.2520  3.4941  1.7703
  910MPD2    H313384   2.971   2.723  16.581 -1.3293 -0.4415 -0.5623
  910MPD2     N13385   3.047   2.856  16.157  0.0015 -0.2771  0.3689
  910MPD2    H513386   2.997   2.939  16.188 -0.0835 -0.4218  0.6216
  910MPD2    N113387   3.180   2.410  16.327  0.1728  0.1254 -0.1879
  910MPD2    H713388   3.210   2.389  16.232  0.7686 -0.5512  0.1453
  911MPD2     C13389   0.924   3.312  16.586  0.1659 -0.0203 -0.1937
  911MPD2    C113390   1.021   3.410  16.563  0.1464  0.1821  0.1221
  911MPD2    C213391   0.983   3.535  16.514 -0.6796 -0.4920  0.0875
  911MPD2    C313392   0.860   3.548  16.464  0.0097  0.6765  0.2707
  911MPD2    C413393   0.767   3.450  16.475 -0.2122 -0.0741  0.1248
  911MPD2    C513394   0.800   3.333  16.543  0.1804  0.6345 -0.0864
  911MPD2     H13395   1.055   3.610  16.484 -0.9914 -0.4425 -0.5263
  911MPD2    H113396   0.680   3.463  16.412 -0.3889  1.7374  0.7569
  911MPD2    H213397   0.961   3.216  16.622  1.1045  0.4188  0.0253
  911MPD2    H313398   0.730   3.250  16.531  1.8165 -1.1726  2.9927
  911MPD2     N13399   0.818   3.656  16.386 -0.5110 -0.7216  0.5848
  911MPD2    H513400   0.735   3.641  16.330 -0.2395 -1.6566  0.4279
  911MPD2    N113401   1.151   3.376  16.603  0.7048 -0.4409 -0.3619
  911MPD2    H713402   1.166   3.287  16.649 -2.7154 -0.6145  0.4483
  912MPD2     C13403   0.232   3.630  15.917 -0.1349  0.8277  0.4797
  912MPD2    C113404   0.316   3.609  16.029  0.1538  0.6618  0.8209
  912MPD2    C213405   0.295   3.503  16.110  0.1557 -0.5121 -0.3684
  912MPD2    C313406   0.197   3.411  16.082  0.4445 -0.7109  0.9399
  912MPD2    C413407   0.113   3.429  15.977  0.0332 -0.1082 -0.0295
  912MPD2    C513408   0.132   3.539  15.894 -0.8026 -0.5843 -0.5705
  912MPD2     H13409   0.365   3.472  16.187 -0.3008 -2.6413 -0.8108
  912MPD2    H113410   0.028   3.367  15.952  1.0354 -0.6868 -2.0145
  912MPD2    H213411   0.244   3.715  15.850 -2.9046 -0.3569 -1.5265
  912MPD2    H313412   0.071   3.550  15.805 -0.9467 -1.6401 -0.5999
  912MPD2     N13413   0.191   3.296  16.163  0.0753  0.4496 -0.0975
  912MPD2    H513414   0.256   3.299  16.241  0.5937 -2.8899 -0.4012
  912MPD2    N113415   0.420   3.705  16.042  0.9064 -0.6109 -0.0341
  912MPD2    H713416   0.416   3.792  15.990 -0.8707 -1.6804 -1.6746
  913MPD2     C13417   1.175   0.022  10.448 -0.0429 -0.2500 -0.7881
  913MPD2    C113418   1.171   0.114  10.551 -0.2325 -0.3072  0.5017
  913MPD2    C213419   1.157   0.248  10.517 -0.1459  0.0194 -0.1041
  913MPD2    C313420   1.123   0.294  10.387 -0.0694  0.0409 -0.3181
  913MPD2    C413421   1.113   0.198  10.293  0.1282 -0.4893 -0.2693
  913MPD2    C513422   1.148   0.065  10.320  0.4813  0.4884 -0.6844
  913MPD2     H13423   1.162   0.323  10.595  0.0984 -1.5640  1.4137
  913MPD2    H113424   1.116   0.227  10.188  0.7407 -1.5088 -0.5316
  913MPD2    H213425   1.190   4.655  10.470 -3.4660 -0.3412  1.1060
  913MPD2    H313426   1.151   4.733  10.237 -1.7454 -0.9161  0.4128
  913MPD2     N13427   1.105   0.424  10.348  0.1983  0.5102 -0.1001
  913MPD2    H513428   1.100   0.446  10.249 -1.1731  0.0195 -0.1483
  913MPD2    N113429   1.175   0.067  10.683  0.5514 -0.1660  0.1086
  913MPD2    H713430   1.173   4.705  10.699  0.5162 -0.3183 -0.8891
  914MPD2     C13431   3.787   0.209  12.520 -0.2813  0.6413  0.6970
  914MPD2    C113432   3.829   0.280  12.632 -0.2409 -0.2473  0.6330
  914MPD2    C213433   3.875   0.211  12.745  0.6367 -0.1134 -0.3020
  914MPD2    C313434   3.871   0.076  12.753 -0.2035 -0.1706  0.3797
  914MPD2    C413435   3.829   0.001  12.647  0.2888 -0.1475  0.0552
  914MPD2    C513436   3.786   0.067  12.533  0.3004 -0.1054  0.1921
  914MPD2     H13437   3.897   0.270  12.833 -2.0289 -2.2135  1.7890
  914MPD2    H113438   3.831   4.631  12.648  0.8236 -0.1475 -1.1431
  914MPD2    H213439   3.759   0.253  12.425  0.7488 -1.1733 -0.4634
  914MPD2    H313440   3.754   0.009  12.447 -1.6968 -0.2327  1.0294
  914MPD2     N13441   3.904   0.019  12.875  0.2599  0.5730 -0.0757
  914MPD2    H513442   3.891   0.092  12.944  0.8303 -0.8426  1.5222
  914MPD2    N113443   3.826   0.427  12.635  0.4390 -0.9411  0.0663
  914MPD2    H713444   3.866   0.472  12.716  0.8046 -0.3438 -0.4432
  915MPD2     C13445   1.622   0.079  15.569  0.3491  0.1614 -1.1543
  915MPD2    C113446   1.503   0.149  15.573 -0.1338 -0.6531 -0.5067
  915MPD2    C213447   1.500   0.254  15.658 -0.3043 -0.0386  0.0563
  915MPD2    C313448   1.600   0.285  15.743 -0.6520 -0.7951  0.1629
  915MPD2    C413449   1.710   0.209  15.734  0.6851 -0.2113 -0.5950
  915MPD2    C513450   1.733   0.112  15.640  0.7386  0.0366 -0.0522
  915MPD2     H13451   1.404   0.304  15.657 -0.5710 -0.5610 -1.7193
  915MPD2    H113452   1.796   0.227  15.796  0.7239 -0.0867 -0.6845
  915MPD2    H213453   1.635   4.735  15.499 -0.1117 -0.0947 -0.9312
  915MPD2    H313454   1.827   0.059  15.634  1.3821  1.2152 -0.4935
  915MPD2     N13455   1.575   0.385  15.840 -0.3079 -0.6533  0.3595
  915MPD2    H513456   1.484   0.428  15.833 -0.9392 -1.4242  3.4504
  915MPD2    N113457   1.376   0.121  15.508 -0.3966 -0.0337  0.0075
  915MPD2    H713458   1.297   0.181  15.529 -0.5089  0.2008 -1.0792
  916MPD2     C13459   0.060   2.841  15.761  0.0326  0.1016  0.0927
  916MPD2    C113460   0.060   2.735  15.852 -0.4374  0.5617 -0.8898
  916MPD2    C213461   0.181   2.672  15.868  0.5603  0.1165  0.5820
  916MPD2    C313462   0.294   2.711  15.810 -0.5224  0.7991 -0.7111
  916MPD2    C413463   0.294   2.819  15.724 -0.9422 -0.0356  0.3967
  916MPD2    C513464   0.174   2.883  15.696  0.3526 -0.0793  0.8228
  916MPD2     H13465   0.197   2.593  15.941 -0.2722 -1.7694 -1.3168
  916MPD2    H113466   0.386   2.852  15.678  0.1368 -1.9575  1.2173
  916MPD2    H213467   4.710   2.899  15.736 -0.1912  0.5246  1.8892
  916MPD2    H313468   0.172   2.971  15.633  0.4996  0.0708  1.0295
  916MPD2     N13469   0.412   2.648  15.850 -0.5780 -0.1404  0.4155
  916MPD2    H513470   0.407   2.575  15.920  1.4802  0.9717  1.7149
  916MPD2    N113471   4.689   2.711  15.937  0.6519 -0.0001 -0.5923
  916MPD2    H713472   4.609   2.773  15.940  0.9169  0.3113  0.0533
  917MPD2     C13473   4.706   1.006  11.108  0.2470 -0.5166  0.3444
  917MPD2    C113474   0.025   1.055  11.223  0.4694  0.2017  0.4858
  917MPD2    C213475   0.160   1.076  11.220  0.2308  0.0201 -0.4284
  917MPD2    C313476   0.238   1.076  11.104 -0.7784  0.2855 -0.3204
  917MPD2    C413477   0.181   1.031  10.988  0.0719 -0.2216 -0.0314
  917MPD2    C513478   0.049   0.985  10.993  0.6783  0.0296  0.7775
  917MPD2     H13479   0.214   1.096  11.312 -0.2544  0.6177 -0.2703
  917MPD2    H113480   0.228   1.035  10.890  0.3382  2.8329  0.2092
  917MPD2    H213481   4.601   0.982  11.098 -0.1995  0.9939  1.3732
  917MPD2    H313482   4.735   0.953  10.904  0.5278 -1.6407  1.4796
  917MPD2     N13483   0.375   1.104  11.103 -0.3400 -0.5327 -0.1241
  917MPD2    H513484   0.424   1.075  11.019  1.9684 -2.3343  1.8199
  917MPD2    N113485   4.672   1.070  11.335 -0.2079  0.0524 -0.0459
  917MPD2    H713486   4.575   1.061  11.309 -0.4752 -0.5472  1.1742
  918MPD2     C13487   4.717   1.364  12.337  0.0924  0.0496  0.3623
  918MPD2    C113488   0.084   1.324  12.247  0.1871  0.0291  0.7746
  918MPD2    C213489   0.045   1.304  12.123 -0.9080  0.3824  0.4015
  918MPD2    C313490   4.651   1.297  12.084 -0.5488  0.0007  0.1817
  918MPD2    C413491   4.549   1.336  12.173 -0.2840  0.1263 -0.2647
  918MPD2    C513492   4.584   1.368  12.293  0.0063  0.9043  0.4342
  918MPD2     H13493   0.122   1.273  12.053 -0.1192  3.4790 -0.1126
  918MPD2    H113494   4.446   1.337  12.140 -0.2204 -1.0001 -0.5087
  918MPD2    H213495   0.005   1.384  12.440 -2.2712 -2.2522  1.3888
  918MPD2    H313496   4.505   1.386  12.365 -0.8112 -1.4024  0.1193
  918MPD2     N13497   4.625   1.254  11.953 -0.9382  0.3421  0.2231
  918MPD2    H513498   4.709   1.246  11.896  0.2265  0.2503  1.9484
  918MPD2    N113499   0.218   1.306  12.289 -0.2596 -0.8140 -0.1904
  918MPD2    H713500   0.291   1.304  12.217 -0.2219 -3.0733 -0.0740
  919MPD2     C13501   0.851   0.319  11.511  0.2186 -0.3104  0.2301
  919MPD2    C113502   0.796   0.206  11.448 -0.3465  0.1645  0.3734
  919MPD2    C213503   0.805   0.207  11.308 -0.4713 -0.7677 -0.4614
  919MPD2    C313504   0.874   0.307  11.233 -0.3124 -0.0811  0.5703
  919MPD2    C413505   0.937   0.401  11.310  0.2122 -0.1060 -0.3263
  919MPD2    C513506   0.918   0.412  11.439 -0.2375  0.3809 -0.5210
  919MPD2     H13507   0.744   0.131  11.260 -2.1739  0.6964 -0.6147
  919MPD2    H113508   1.002   0.478  11.268 -0.1087  0.8799  1.0060
  919MPD2    H213509   0.845   0.320  11.619 -0.0349 -0.0359  0.2130
  919MPD2    H313510   0.974   0.481  11.501 -0.6542  0.7063 -0.5141
  919MPD2     N13511   0.885   0.310  11.091  0.0503  0.7828 -0.0286
  919MPD2    H513512   0.935   0.387  11.048 -0.5405  1.2539  0.1318
  919MPD2    N113513   0.737   0.094  11.511 -0.8418  0.3690 -1.0316
  919MPD2    H713514   0.708   0.013  11.458  0.4927 -1.5928  1.2544
  920MPD2     C13515   0.660   0.793  10.233 -0.0372  0.0791 -0.0598
  920MPD2    C113516   0.624   0.664  10.200  0.2651  0.2141 -0.5172
  920MPD2    C213517   0.659   0.562  10.288 -0.1936  0.2882  0.0701
  920MPD2    C313518   0.725   0.592  10.403 -0.4345 -0.2231  0.7196
  920MPD2    C413519   0.767   0.716  10.431  0.5818  0.3878  0.1371
  920MPD2    C513520   0.730   0.816  10.347 -0.6035  0.7273  0.0395
  920MPD2     H13521   0.616   0.467  10.258  1.2215 -0.8167  1.5991
  920MPD2    H113522   0.812   0.762  10.519 -0.7758 -0.9630  1.5147
  920MPD2    H213523   0.633   0.875  10.168  0.0339 -0.7688 -1.1428
  920MPD2    H313524   0.749   0.920  10.373  0.3986  0.9104 -1.4823
  920MPD2     N13525   0.749   0.483  10.486 -0.5791  0.5279 -0.3811
  920MPD2    H513526   0.713   0.390  10.467 -0.4605  0.9552 -2.7079
  920MPD2    N113527   0.544   0.633  10.084 -0.7745  0.2752  0.1510
  920MPD2    H713528   0.528   0.535  10.061  0.6415  0.3013 -0.9469
  921MPD2     C13529   2.017   3.625  17.191  0.1834 -0.2335 -0.0355
  921MPD2    C113530   2.022   3.613  17.055  0.3194  0.1649 -0.6684
  921MPD2    C213531   1.906   3.582  16.984 -0.3148 -0.3269 -0.9935
  921MPD2    C313532   1.783   3.567  17.049 -0.1646 -0.3017  0.5917
  921MPD2    C413533   1.776   3.588  17.180  0.9188  0.1663  0.4026
  921MPD2    C513534   1.890   3.615  17.253  0.0786 -0.5923  0.3193
  921MPD2     H13535   1.902   3.580  16.875 -1.8780  0.3881 -0.9573
  921MPD2    H113536   1.687   3.569  17.239  1.5956  0.4120  1.5196
  921MPD2    H213537   2.098   3.637  17.263 -0.3235  0.0884  0.4856
  921MPD2    H313538   1.874   3.630  17.359 -2.3506 -0.6847 -0.0533
  921MPD2     N13539   1.674   3.500  16.997  0.1689  0.3455 -0.2990
  921MPD2    H513540   1.599   3.489  17.066 -0.2180  0.2457 -0.7375
  921MPD2    N113541   2.151   3.640  16.994 -0.3883 -0.2310  0.2117
  921MPD2    H713542   2.220   3.670  17.061 -0.4140  0.9709 -0.3023
  922MPD2     C13543   2.187   1.627  17.479  1.2763 -0.4991 -0.8051
  922MPD2    C113544   2.141   1.525  17.559  0.1162  0.0964 -0.5671
  922MPD2    C213545   2.146   1.399  17.506 -0.2245  0.2132 -0.5599
  922MPD2    C313546   2.192   1.375  17.378  1.3314 -0.7235 -0.3030
  922MPD2    C413547   2.230   1.480  17.295  0.1696  0.4126  0.6921
  922MPD2    C513548   2.230   1.608  17.352 -0.0167 -0.4883 -0.5458
  922MPD2     H13549   2.122   1.311  17.565 -2.4338  1.6323  0.6481
  922MPD2    H113550   2.262   1.466  17.192 -0.9568  0.6204  0.3207
  922MPD2    H213551   2.183   1.730  17.514  0.0713 -0.6666 -0.4524
  922MPD2    H313552   2.244   1.692  17.285 -0.5464  1.2211  1.5028
  922MPD2     N13553   2.199   1.238  17.332  0.9590 -0.6262 -0.2256
  922MPD2    H513554   2.146   1.170  17.384 -0.9485  0.6861 -0.4634
  922MPD2    N113555   2.104   1.547  17.690  0.4913 -0.4574 -0.4812
  922MPD2    H713556   2.095   1.467   0.001  0.7368  0.5114  0.8246
  923MPD2     C13557   4.219   3.332   8.833  0.3192 -0.0013 -0.5606
  923MPD2    C113558   4.197   3.452   8.899  0.0992  0.1351  0.3918
  923MPD2    C213559   4.285   3.484   8.994  0.0300  1.1051 -0.3651
  923MPD2    C313560   4.396   3.415   9.025 -0.6824  0.4109  0.5732
  923MPD2    C413561   4.418   3.298   8.965 -0.1353 -0.4760  0.7651
  923MPD2    C513562   4.332   3.257   8.862  0.1459 -0.4284 -0.2581
  923MPD2     H13563   4.275   3.588   9.023 -1.7273  1.0573 -0.8323
  923MPD2    H113564   4.515   3.251   8.972  0.6276  1.3041  2.3212
  923MPD2    H213565   4.151   3.297   8.757  0.9829 -0.2305 -1.0490
  923MPD2    H313566   4.362   3.179   8.794  1.1867 -0.4170  0.1959
  923MPD2     N13567   4.486   3.456   9.128 -0.4492  0.1030 -0.2278
  923MPD2    H513568   4.565   3.392   9.135 -1.0971 -0.4476  1.9679
  923MPD2    N113569   4.081   3.523   8.866 -0.2690  0.1580 -0.8524
  923MPD2    H713570   4.027   3.487   8.787 -0.9033 -2.1926  0.6604
  924MPD2     C13571   4.284   1.896  14.973 -0.1170  0.4487 -0.3101
  924MPD2    C113572   4.177   1.937  15.043 -0.3686 -0.3487  0.1591
  924MPD2    C213573   4.160   2.070  15.072  0.1330 -0.4279  0.1022
  924MPD2    C313574   4.251   2.164  15.022 -0.3458  0.4588  1.1341
  924MPD2    C413575   4.367   2.129  14.946  0.1488  0.5387 -0.5855
  924MPD2    C513576   4.372   1.992  14.916 -0.8389 -0.6803  0.3643
  924MPD2     H13577   4.085   2.102  15.144 -0.6009  0.1798 -0.9339
  924MPD2    H113578   4.435   2.202  14.903  2.2529 -0.2106  1.4136
  924MPD2    H213579   4.304   1.792  14.949 -2.3765 -0.0882  0.1377
  924MPD2    H313580   4.440   1.964  14.836  0.3567  1.3288  0.6537
  924MPD2     N13581   4.239   2.299  15.055 -0.0113 -0.1340  0.1197
  924MPD2    H513582   4.317   2.363  15.041  1.8811 -2.2273  1.0515
  924MPD2    N113583   4.113   1.833  15.122 -0.6914  0.0193 -0.0689
  924MPD2    H713584   4.144   1.737  15.112 -1.8813 -0.3932  0.2109
  925MPD2     C13585   2.760   3.652  14.865 -0.4809 -0.0346  0.4830
  925MPD2    C113586   2.684   3.751  14.807  0.0775 -0.0542  0.1878
  925MPD2    C213587   2.642   3.849  14.884 -0.2704 -0.3337 -0.7284
  925MPD2    C313588   2.668   3.857  15.022  0.1256  0.2770 -0.1378
  925MPD2    C413589   2.741   3.759  15.080  0.9716 -0.1809  0.3757
  925MPD2    C513590   2.784   3.655  15.003  0.7400  0.4973  0.4464
  925MPD2     H13591   2.584   3.927  14.837 -0.6058  0.7639  1.5132
  925MPD2    H113592   2.763   3.753  15.186 -0.7404 -0.1106  0.7323
  925MPD2    H213593   2.794   3.563  14.812  0.0365 -0.7913  2.0768
  925MPD2    H313594   2.838   3.571  15.046 -0.1526 -1.1488 -1.6321
  925MPD2     N13595   2.615   3.964  15.104 -0.0113  0.2142 -0.7610
  925MPD2    H513596   2.630   3.956  15.204  0.4580 -1.9615 -1.0093
  925MPD2    N113597   2.640   3.741  14.672  1.2992  0.0036  0.1887
  925MPD2    H713598   2.572   3.814  14.655  1.1465 -0.1309  0.2258
  926MPD2     C13599   1.235   2.483  13.602  0.4953 -0.4641 -0.0128
  926MPD2    C113600   1.144   2.541  13.509 -0.0707  0.3640  0.2601
  926MPD2    C213601   1.198   2.596  13.398 -0.1008 -0.6248 -0.3008
  926MPD2    C313602   1.329   2.563  13.355  0.7074  0.1401 -0.4765
  926MPD2    C413603   1.408   2.494  13.443 -0.1437 -0.0611  0.9899
  926MPD2    C513604   1.365   2.463  13.564 -0.2088  0.6807 -0.1147
  926MPD2     H13605   1.131   2.648  13.331 -0.2432 -2.2966 -1.4467
  926MPD2    H113606   1.507   2.461  13.416 -0.4620  0.4126 -0.6990
  926MPD2    H213607   1.202   2.431  13.691  0.5606 -1.9395 -0.8508
  926MPD2    H313608   1.438   2.415  13.628  0.9348  2.0302 -0.4147
  926MPD2     N13609   1.374   2.587  13.226 -0.0908  0.4175  0.0926
  926MPD2    H513610   1.461   2.538  13.212 -0.1547 -0.1049  1.5473
  926MPD2    N113611   1.004   2.555  13.535 -0.1536  0.3521  0.0712
  926MPD2    H713612   0.954   2.612  13.468 -0.5990  0.4961  0.5178
  927MPD2     C13613   1.163   4.681  17.522  0.2663  0.0519  0.1929
  927MPD2    C113614   1.096   0.065  17.535 -0.0955 -0.5136  0.2042
  927MPD2    C213615   1.108   0.160  17.435 -0.5871 -0.0240  0.3832
  927MPD2    C313616   1.193   0.135  17.328 -0.6754  0.2265  0.0841
  927MPD2    C413617   1.259   0.014  17.311  0.0102 -0.2409 -0.1657
  927MPD2    C513618   1.245   4.655  17.416 -0.1554 -0.2013 -0.3687
  927MPD2     H13619   1.079   0.263  17.450  0.1255  0.2388 -0.0269
  927MPD2    H113620   1.324   4.728  17.228  0.6696 -0.2556  0.3583
  927MPD2    H213621   1.161   4.614  17.607  1.6104 -0.0283  0.1665
  927MPD2    H313622   1.313   4.572  17.400  1.1047  0.7047  0.3433
  927MPD2     N13623   1.194   0.233  17.226 -0.2884 -0.5754  0.2101
  927MPD2    H513624   1.149   0.322  17.248  0.8103  0.0316  0.0226
  927MPD2    N113625   1.015   0.084  17.647  1.3371  0.2940 -0.0575
  927MPD2    H713626   1.016   0.012  17.719 -3.7544 -1.0463 -1.3070
  928MPD2     C13627   2.961   3.603   0.406 -1.0195  0.2779  0.3421
  928MPD2    C113628   3.043   3.681   0.486  0.2316 -0.9136 -0.6473
  928MPD2    C213629   3.178   3.696   0.457  0.0718 -0.6564  0.0319
  928MPD2    C313630   3.236   3.633   0.344 -0.1387 -0.4268 -0.2652
  928MPD2    C413631   3.158   3.544   0.282 -0.0816 -0.2961  0.4266
  928MPD2    C513632   3.023   3.533   0.304  0.2517 -0.0422 -0.7995
  928MPD2     H13633   3.245   3.753   0.520  0.1585  1.4599 -1.9718
  928MPD2    H113634   3.202   3.489   0.199 -1.6828 -0.8093 -0.0729
  928MPD2    H213635   2.857   3.583   0.431 -1.2835  0.7277 -0.3954
  928MPD2    H313636   2.961   3.485   0.229 -4.2303  2.2415  1.4300
  928MPD2     N13637   3.380   3.635   0.318  0.8115  0.4503 -0.3196
  928MPD2    H513638   3.415   3.568   0.251 -0.0980  1.5146 -1.8503
  928MPD2    N113639   2.968   3.763   0.587  0.7879 -0.0800 -0.1849
  928MPD2    H713640   2.867   3.753   0.590  0.5959  1.6649 -1.1001
  929MPD2     C13641   4.231   3.287  10.104 -0.5946 -0.3081  0.2231
  929MPD2    C113642   4.104   3.231  10.108  0.4526 -0.1809 -0.2222
  929MPD2    C213643   4.005   3.270  10.012 -0.0519 -0.0147  0.7428
  929MPD2    C313644   4.035   3.360   9.912  0.5867  0.3131 -0.1265
  929MPD2    C413645   4.162   3.406   9.910  0.7119 -0.0821  0.2697
  929MPD2    C513646   4.260   3.358   9.990  0.0332 -0.2132  0.3660
  929MPD2     H13647   3.901   3.246  10.028 -0.7840  0.6572 -3.0673
  929MPD2    H113648   4.188   3.482   9.837  2.3887 -0.8720  0.0270
  929MPD2    H213649   4.309   3.266  10.175  0.3625  1.8419 -0.1909
  929MPD2    H313650   4.359   3.400   9.973 -1.3474  2.4711 -1.1071
  929MPD2     N13651   3.943   3.421   9.827 -0.1693 -0.7346  0.2893
  929MPD2    H513652   3.978   3.499   9.774 -0.1516  0.5219  2.1414
  929MPD2    N113653   4.072   3.160  10.233  0.3679  0.0464 -0.7904
  929MPD2    H713654   4.136   3.160  10.311 -0.3537  0.9500 -0.1982
  930MPD2     C13655   1.103   0.370  13.962  0.8234 -0.1133 -0.1470
  930MPD2    C113656   1.157   0.470  13.880  0.0713  0.2496  0.0901
  930MPD2    C213657   1.224   0.435  13.766 -0.4078 -0.1046  0.2695
  930MPD2    C313658   1.255   0.297  13.745 -0.4933 -0.5492 -0.7060
  930MPD2    C413659   1.207   0.200  13.829 -0.2380  0.1577  0.1138
  930MPD2    C513660   1.127   0.235  13.934  0.7641  0.1186 -0.0985
  930MPD2     H13661   1.262   0.510  13.697  0.3772  0.2605  1.1072
  930MPD2    H113662   1.231   0.097  13.808  1.4565  0.1193  2.2497
  930MPD2    H213663   1.047   0.394  14.052  2.3994  2.1399  0.2253
  930MPD2    H313664   1.105   0.162  14.012  1.8625  0.3273  0.4070
  930MPD2     N13665   1.342   0.252  13.647  0.0342 -0.6859 -0.8127
  930MPD2    H513666   1.387   0.160  13.651  0.7223 -0.4206 -2.3371
  930MPD2    N113667   1.157   0.603  13.908  0.0265  0.0205  0.2671
  930MPD2    H713668   1.191   0.667  13.837 -1.4013 -1.0985 -1.4503
  931MPD2     C13669   1.350   0.097   0.382 -0.6685  0.4848  0.4485
  931MPD2    C113670   1.223   0.112   0.427 -0.0317 -0.4117  0.5788
  931MPD2    C213671   1.181   0.053   0.545 -0.1009  0.3490 -0.1379
  931MPD2    C313672   1.283   4.734   0.625 -0.4161 -0.7389 -0.0078
  931MPD2    C413673   1.418   4.733   0.590  0.6473  0.1806  0.0988
  931MPD2    C513674   1.447   0.041   0.464  0.1278 -0.1647  0.6643
  931MPD2     H13675   1.080   0.070   0.579 -0.4202  3.2894 -2.5575
  931MPD2    H113676   1.503   4.713   0.655  0.4226 -1.5137 -0.1339
  931MPD2    H213677   1.368   0.135   0.282 -1.5348  0.4926  0.2957
  931MPD2    H313678   1.548   0.028   0.427  0.2855  2.1104  0.3126
  931MPD2     N13679   1.254   4.694   0.760  0.1790 -0.8343 -0.5262
  931MPD2    H513680   1.321   4.633   0.805  0.2111  0.8308  1.6880
  931MPD2    N113681   1.135   0.180   0.340 -0.8826  0.4879  0.1515
  931MPD2    H713682   1.168   0.205   0.248 -1.3783 -1.2095 -0.4821
  932MPD2     C13683   2.552   3.968  11.162  0.1070  0.0957 -0.3207
  932MPD2    C113684   2.684   3.991  11.148 -0.5659 -0.0433  1.0127
  932MPD2    C213685   2.770   3.891  11.112  0.0103  0.1396 -0.1520
  932MPD2    C313686   2.713   3.767  11.069 -0.0901  0.1773 -0.3385
  932MPD2    C413687   2.584   3.746  11.083  0.8455 -0.9928 -0.8893
  932MPD2    C513688   2.494   3.843  11.125  0.4597 -0.1284 -0.2902
  932MPD2     H13689   2.877   3.904  11.120 -0.4622  2.5189  2.5054
  932MPD2    H113690   2.539   3.649  11.065  1.1336 -1.9099  3.1669
  932MPD2    H213691   2.488   4.054  11.180 -1.5655 -1.0742 -0.6884
  932MPD2    H313692   2.388   3.821  11.129  0.3726  0.2417 -0.6112
  932MPD2     N13693   2.813   3.667  11.032  0.0930 -0.2527 -0.2680
  932MPD2    H513694   2.908   3.686  11.063  0.3594  2.2991 -2.6381
  932MPD2    N113695   2.744   4.112  11.190 -0.9003 -0.4927 -0.5963
  932MPD2    H713696   2.843   4.118  11.172 -0.3832  1.3071  2.8050
  933MPD2     C13697   2.397   3.653   0.815 -0.7332 -0.1244 -0.0840
  933MPD2    C113698   2.411   3.794   0.822  0.3963 -0.5785  0.5569
  933MPD2    C213699   2.296   3.876   0.825  0.3575  0.5385  0.3871
  933MPD2    C313700   2.174   3.815   0.824  0.0653 -0.1587  0.3102
  933MPD2    C413701   2.160   3.678   0.819  0.4500 -1.1682 -0.0096
  933MPD2    C513702   2.269   3.600   0.814 -0.3800 -0.4688 -0.1901
  933MPD2     H13703   2.300   3.984   0.828 -0.8368  0.6003 -0.2379
  933MPD2    H113704   2.062   3.633   0.815 -0.0856 -0.0513  0.4351
  933MPD2    H213705   2.491   3.601   0.828  0.1882  1.5064 -0.1429
  933MPD2    H313706   2.258   3.492   0.815 -1.1027 -0.4056 -1.2084
  933MPD2     N13707   2.072   3.908   0.843 -0.3776  0.5990  0.1047
  933MPD2    H513708   2.099   4.006   0.850  1.8140 -0.0187  0.2884
  933MPD2    N113709   2.541   3.849   0.820  0.3803 -0.2868 -0.6834
  933MPD2    H713710   2.613   3.786   0.787  1.3172  0.4161 -0.0017
  934MPD2     C13711   4.507   1.281   1.786  0.3858 -0.6642 -0.3997
  934MPD2    C113712   4.616   1.223   1.720 -0.1686  0.3396  0.8776
  934MPD2    C213713   4.598   1.177   1.592 -0.3488 -0.2496  0.0898
  934MPD2    C313714   4.469   1.172   1.535  1.1720  0.0635 -0.0990
  934MPD2    C413715   4.364   1.227   1.608  0.2411  0.0884  0.1593
  934MPD2    C513716   4.386   1.281   1.731  0.3609 -0.4930  0.1283
  934MPD2     H13717   4.681   1.127   1.543  0.9052  1.0568  0.8665
  934MPD2    H113718   4.262   1.217   1.571 -0.8617  0.9201  2.9599
  934MPD2    H213719   4.524   1.328   1.883  0.1820  0.0602 -0.7173
  934MPD2    H313720   4.303   1.324   1.785 -0.3208 -2.0658  0.3414
  934MPD2     N13721   4.440   1.133   1.401  0.3252 -0.3549  0.0213
  934MPD2    H513722   4.343   1.147   1.374  0.1155  0.7273  1.3410
  934MPD2    N113723   0.006   1.228   1.769 -0.5811  0.5076  0.0179
  934MPD2    H713724   0.079   1.193   1.709 -0.6180 -0.2908  0.4367
  935MPD2     C13725   0.118   0.392   0.831 -0.6449 -0.0604 -0.3084
  935MPD2    C113726   4.729   0.405   0.787 -0.1457  0.3894  0.4100
  935MPD2    C213727   4.650   0.505   0.840  0.3648 -0.8316  0.4448
  935MPD2    C313728   4.697   0.588   0.946 -0.7753  0.0876  0.0763
  935MPD2    C413729   0.086   0.562   0.999 -0.4437  0.3026  0.3613
  935MPD2    C513730   0.162   0.459   0.940  0.2207 -0.0397  0.3433
  935MPD2     H13731   4.554   0.525   0.794  0.0333  0.9896  1.9123
  935MPD2    H113732   0.121   0.608   1.091  0.9359  0.0544 -0.0400
  935MPD2    H213733   0.177   0.306   0.801  1.4681  2.1400 -2.4084
  935MPD2    H313734   0.261   0.431   0.975  0.9284  0.8827 -0.9277
  935MPD2     N13735   4.626   0.699   1.003 -0.2570 -0.4210  0.5750
  935MPD2    H513736   4.651   0.735   1.095 -3.4863  1.9628  0.5267
  935MPD2    N113737   4.659   0.312   0.705 -0.4384 -0.6680  0.4011
  935MPD2    H713738   4.562   0.340   0.691  0.6056  2.0139 -1.3303
  936MPD2     C13739   2.881   2.143  12.423 -0.0296 -0.0901 -0.3701
  936MPD2    C113740   3.009   2.100  12.444  0.0534  0.3488 -0.1896
  936MPD2    C213741   3.111   2.166  12.376  0.9054 -0.0370  0.0398
  936MPD2    C313742   3.092   2.276  12.299 -0.1635  0.2457  0.4287
  936MPD2    C413743   2.966   2.329  12.295 -0.4122 -0.5480 -0.5809
  936MPD2    C513744   2.858   2.255  12.346 -0.0305 -0.1232  0.2737
  936MPD2     H13745   3.210   2.127  12.396  1.7537  1.2885 -1.5455
  936MPD2    H113746   2.946   2.419  12.237  0.6073  0.7039  1.0161
  936MPD2    H213747   2.795   2.088  12.457  1.1216 -0.3365  2.1802
  936MPD2    H313748   2.759   2.297  12.340 -0.1097 -0.2639  0.5820
  936MPD2     N13749   3.203   2.347  12.243 -0.6406 -0.1558  0.1934
  936MPD2    H513750   3.187   2.444  12.219  1.4187  0.1772  0.1979
  936MPD2    N113751   3.051   1.987  12.514  0.9978  0.2059  0.0178
  936MPD2    H713752   3.151   1.969  12.514  0.6214 -1.8941  0.2695
  937MPD2     C13753   0.814   4.130  11.483  0.4386  0.3320  0.1633
  937MPD2    C113754   0.830   4.268  11.473  0.0736  0.4345 -0.6494
  937MPD2    C213755   0.964   4.311  11.451 -0.2287 -0.6105  0.0393
  937MPD2    C313756   1.049   4.235  11.374 -0.5186 -0.6509 -0.3214
  937MPD2    C413757   1.010   4.107  11.353 -0.0743  0.1098  0.7187
  937MPD2    C513758   0.906   4.057  11.424 -0.1445  0.4667  0.1946
  937MPD2     H13759   0.982   4.417  11.465  2.9065 -0.7652 -2.8798
  937MPD2    H113760   1.072   4.033  11.304 -1.2780  0.1804 -0.8890
  937MPD2    H213761   0.723   4.083  11.517  0.9287 -0.7537 -0.0393
  937MPD2    H313762   0.882   3.951  11.421 -0.7181  0.5451  1.7671
  937MPD2     N13763   1.169   4.302  11.342 -0.1298 -0.0877 -0.1051
  937MPD2    H513764   1.180   4.395  11.381  1.3283  0.4281 -1.7442
  937MPD2    N113765   0.744   4.367  11.533  0.2219  0.5086  0.2348
  937MPD2    H713766   0.758   4.464  11.509 -0.2361  0.7770  1.0537
  938MPD2     C13767   3.822   1.092   0.449  0.1463 -0.3799 -0.1899
  938MPD2    C113768   3.761   1.179   0.533 -0.1588 -0.2671  0.4941
  938MPD2    C213769   3.650   1.141   0.597  0.0332  0.8104 -0.1605
  938MPD2    C313770   3.594   1.016   0.577 -0.4834  0.0101 -0.1541
  938MPD2    C413771   3.663   0.926   0.493  0.1976 -0.4246  0.0098
  938MPD2    C513772   3.778   0.966   0.429  0.1683 -0.2705  0.2876
  938MPD2     H13773   3.601   1.200   0.674 -0.2343  1.5390 -0.8833
  938MPD2    H113774   3.616   0.833   0.465  1.1922 -1.3504  1.3876
  938MPD2    H213775   3.913   1.116   0.396  1.5035  1.2438  2.8759
  938MPD2    H313776   3.820   0.890   0.365  0.4034 -1.4665  1.8613
  938MPD2     N13777   3.476   0.973   0.636  0.3726  0.0300 -0.1950
  938MPD2    H513778   3.453   0.875   0.641 -0.0400  0.2731  2.3530
  938MPD2    N113779   3.824   1.296   0.576 -0.0451 -0.4493  0.1916
  938MPD2    H713780   3.764   1.360   0.628 -0.9027 -1.2884  0.2380
  939MPD2     C13781   0.495   1.418   1.145  0.0879 -0.3310  0.3337
  939MPD2    C113782   0.487   1.548   1.110  0.6828 -0.1495  0.2635
  939MPD2    C213783   0.518   1.576   0.981  0.0811 -0.0702 -0.4460
  939MPD2    C313784   0.565   1.481   0.885  0.0612  0.3912 -0.1709
  939MPD2    C413785   0.575   1.355   0.927  0.0881  0.2417  0.7126
  939MPD2    C513786   0.536   1.325   1.054  0.1827  0.7551  0.4591
  939MPD2     H13787   0.520   1.679   0.948 -1.0645  0.3333  0.7654
  939MPD2    H113788   0.612   1.275   0.864 -2.9541 -0.5243 -0.0486
  939MPD2    H213789   0.482   1.381   1.246 -1.6306 -1.0822 -0.1608
  939MPD2    H313790   0.547   1.220   1.076  2.6511  0.7969 -0.5802
  939MPD2     N13791   0.591   1.523   0.757 -0.6998 -0.3737  0.2189
  939MPD2    H513792   0.575   1.622   0.741  0.6371 -0.3289 -0.8010
  939MPD2    N113793   0.476   1.640   1.214 -0.0861 -0.1764  0.0546
  939MPD2    H713794   0.464   1.610   1.311  1.2187  0.8086  0.5301
  940MPD2     C13795   3.916   2.140  13.175  0.3205  0.1071  0.1976
  940MPD2    C113796   3.987   2.251  13.138  0.5005  0.6450 -0.6013
  940MPD2    C213797   4.016   2.271  12.999 -0.5985 -0.5597 -0.3334
  940MPD2    C313798   3.963   2.178  12.911 -0.5330  0.2612 -0.2633
  940MPD2    C413799   3.898   2.067  12.953  0.1894 -0.6371 -0.2800
  940MPD2    C513800   3.870   2.054  13.087 -0.7502 -0.4481 -0.1181
  940MPD2     H13801   4.063   2.362  12.964  1.2788 -1.1075  0.7612
  940MPD2    H113802   3.871   1.988  12.884  2.5619 -0.6504 -1.1960
  940MPD2    H213803   3.910   2.102  13.277  2.7554 -2.4267 -0.6010
  940MPD2    H313804   3.821   1.967  13.127 -0.5354 -0.1990  0.6873
  940MPD2     N13805   3.981   2.185  12.776 -0.3102  0.4815 -0.5857
  940MPD2    H513806   3.957   2.096  12.732 -0.4347 -0.8665  2.1799
  940MPD2    N113807   4.045   2.340  13.234  0.3899 -0.5812  0.5825
  940MPD2    H713808   4.116   2.406  13.205  1.0809 -1.7890 -0.4693
  941MPD2     C13809   3.003   2.279   9.245 -0.1610 -0.0929  0.0129
  941MPD2    C113810   3.051   2.214   9.355 -0.3806  0.1326 -0.0742
  941MPD2    C213811   2.966   2.141   9.434 -0.1658 -0.5780  0.0096
  941MPD2    C313812   2.835   2.126   9.398 -0.0382  0.1358  0.3681
  941MPD2    C413813   2.787   2.191   9.286  0.2165  0.3621 -0.0561
  941MPD2    C513814   2.870   2.273   9.213  0.4150  0.5280 -0.7142
  941MPD2     H13815   3.009   2.088   9.518  0.3119  2.7761  1.8820
  941MPD2    H113816   2.689   2.176   9.241  0.0851  0.5246  0.1711
  941MPD2    H213817   3.065   2.339   9.181 -1.4559 -0.5005 -1.6207
  941MPD2    H313818   2.837   2.325   9.124  1.0775  0.7943 -0.8009
  941MPD2     N13819   2.752   2.042   9.474 -0.3922  0.2273 -0.8128
  941MPD2    H513820   2.663   2.033   9.425 -2.2551 -0.1103  2.6677
  941MPD2    N113821   3.185   2.242   9.398 -0.4209  0.2691 -0.0447
  941MPD2    H713822   3.211   2.220   9.494 -1.6795  0.0898  0.2446
  942MPD2     C13823   2.518   4.256   9.711  0.5935  0.5663 -0.5994
  942MPD2    C113824   2.625   4.318   9.642  0.0573  0.1843 -0.0515
  942MPD2    C213825   2.724   4.246   9.571 -0.1315 -0.3117  0.4457
  942MPD2    C313826   2.720   4.106   9.570  0.1149 -0.4809 -0.6560
  942MPD2    C413827   2.621   4.050   9.641  0.1353  0.3303 -0.0196
  942MPD2    C513828   2.524   4.117   9.710  0.4586 -0.7071 -0.2418
  942MPD2     H13829   2.800   4.307   9.523 -0.0814 -0.7401 -0.0190
  942MPD2    H113830   2.616   3.943   9.654  1.6670  0.0172 -2.0236
  942MPD2    H213831   2.431   4.295   9.763  1.8600 -0.5100  2.3254
  942MPD2    H313832   2.458   4.056   9.771 -2.1357  2.2234 -0.1082
  942MPD2     N13833   2.790   4.014   9.490 -0.2013  0.4041 -0.0618
  942MPD2    H513834   2.768   3.915   9.494 -0.1221  0.4334  1.0613
  942MPD2    N113835   2.622   4.459   9.630 -0.0600  0.0450  0.1645
  942MPD2    H713836   2.712   4.495   9.599 -0.1377  0.7047  0.7059
  943MPD2     C13837   2.027   2.102  10.215 -0.1407 -0.1372  0.3352
  943MPD2    C113838   1.944   2.034  10.308  0.4518  0.2212  0.1660
  943MPD2    C213839   1.905   2.094  10.423 -0.1819 -0.2907  0.1160
  943MPD2    C313840   1.931   2.228  10.443  0.0202  0.6290 -0.4051
  943MPD2    C413841   2.009   2.295  10.353  0.4180 -0.5193  0.1827
  943MPD2    C513842   2.051   2.228  10.242 -0.2844 -0.5282  0.1462
  943MPD2     H13843   1.849   2.038  10.496  1.4379  1.2852  2.5690
  943MPD2    H113844   2.033   2.400  10.360 -0.2103 -0.3087 -0.8013
  943MPD2    H213845   2.062   2.048  10.128  0.5159 -1.0323  1.1556
  943MPD2    H313846   2.099   2.292  10.168 -2.4387  0.5201 -0.3273
  943MPD2     N13847   1.882   2.308  10.545 -0.2341 -0.8352 -0.0530
  943MPD2    H513848   1.901   2.408  10.541  0.8069 -0.9773  1.3612
  943MPD2    N113849   1.896   1.910  10.270  0.4403  0.3955  0.8165
  943MPD2    H713850   1.922   1.874  10.178 -2.8963  1.1156 -0.4255
  944MPD2     C13851   1.565   1.266  11.157 -0.3237 -0.1690 -0.3407
  944MPD2    C113852   1.577   1.401  11.157  0.0289 -0.4264 -0.2073
  944MPD2    C213853   1.494   1.477  11.243  0.1793 -0.2202  0.7539
  944MPD2    C313854   1.397   1.418  11.321 -0.0286  0.7488  0.1702
  944MPD2    C413855   1.371   1.282  11.307  0.1101  0.3423 -0.0178
  944MPD2    C513856   1.454   1.211  11.226 -0.6507  0.8692  0.0670
  944MPD2     H13857   1.513   1.581  11.263 -0.1954  0.1152 -0.6546
  944MPD2    H113858   1.304   1.224  11.369 -0.6670  0.9334 -0.3045
  944MPD2    H213859   1.629   1.197  11.103 -0.5246  0.4175 -1.3243
  944MPD2    H313860   1.437   1.104  11.222  0.4926  0.7444 -1.5852
  944MPD2     N13861   1.349   1.496  11.423  0.5822 -0.2385 -0.1614
  944MPD2    H513862   1.383   1.592  11.433 -0.5015  0.2247 -0.8899
  944MPD2    N113863   1.676   1.466  11.079  0.0358  0.3065 -0.3846
  944MPD2    H713864   1.693   1.564  11.097 -1.3573  0.4243  0.2857
    1TMC1    C113865   0.135   1.474  14.976  0.3743 -0.2122  0.1336
    1TMC1    C213866   0.085   1.396  14.880 -0.4024 -0.2708 -0.6340
    1TMC1    C313867   0.096   1.261  14.899 -0.4991 -0.4970  0.3077
    1TMC1    C413868   0.179   1.420  15.088 -0.5686  0.1698  0.6033
    1TMC1    C513869   0.179   1.286  15.108 -0.2482 -0.5716 -0.3242
    1TMC1    C613870   0.144   1.201  15.011  0.0212  0.7519 -0.2303
    1TMC1     C13871   0.163   1.609  14.940 -0.6833 -0.2897 -0.3837
    1TMC1     O13872   0.250   1.668  15.006 -0.0336 -0.0034  0.2967
    1TMC1     H13873   0.062   1.434  14.781  3.2060  2.2040 -0.5177
    1TMC1    H113874   0.212   1.480  15.172  1.8868  0.0962 -0.3042
    1TMC1    H213875   0.148   1.094  15.026  0.6369  0.5951 -1.5950
    1TMC1    C713876   0.239   1.240  15.238 -1.1583  0.4054 -0.5759
    1TMC1    C813877   0.009   1.174  14.822  0.4201  0.5762  0.2003
    1TMC1    O113878   0.290   1.322  15.315 -0.7114 -0.3058  0.2862
    1TMC1    O213879   0.020   1.052  14.838 -0.1858  0.2834  0.4035
    1TMC1    O313880   0.245   1.108  15.249 -0.0638  0.3376  0.3372
    1TMC1    H313881   0.196   1.066  15.175 -0.6380  0.0701  0.8687
    1TMC1    O513882   4.636   1.235  14.792  0.5885 -0.6067  0.2990
    1TMC1    H513883   4.647   1.332  14.781 -0.2457 -0.9871 -3.9538
    2MPD2     C13884   0.013   2.066  14.768 -0.4457 -0.4458 -0.1057
    2MPD2    C113885   4.722   1.970  14.676 -0.0283 -0.0144 -0.7141
    2MPD2    C213886   0.001   1.839  14.709 -0.3361  0.3198 -0.2617
    2MPD2    C313887   0.068   1.809  14.820 -0.4572  0.6640  0.2024
    2MPD2    C413888   0.110   1.908  14.911  0.2075  0.3067  0.4122
    2MPD2    C513889   0.081   2.036  14.882  0.3297 -0.5198 -0.1096
    2MPD2     H13890   4.708   1.759  14.643 -1.0046 -0.3991  0.9246
    2MPD2    H113891   0.139   1.888  15.013  0.8197 -0.2463  0.1274
    2MPD2    H213892   4.726   2.171  14.756  0.5053 -0.0417  1.3728
    2MPD2    H313893   0.101   2.119  14.949 -0.0692 -0.7386  0.2836
    2MPD2     N13894   0.071   1.667  14.848 -0.5257  0.8247  0.1866
    2MPD2    H513895   0.005   1.615  14.792  0.1929  0.1867 -0.0726
    2MPD2    N113896   4.668   2.010  14.553  0.1948  0.1344 -0.3490
    2MPD2    H713897   4.649   2.109  14.549  0.6014  0.2255 -0.1058
    3TMC2    C113898   4.594   2.017  14.331 -1.0194 -0.0557 -0.2187
    3TMC2    C213899   4.594   1.945  14.217 -0.8828 -0.3137 -0.1223
    3TMC2    C313900   4.591   2.012  14.099  0.0374 -0.3148  0.4670
    3TMC2    C413901   4.591   2.151  14.331  0.2860 -0.6756 -0.4856
    3TMC2    C513902   4.563   2.215  14.214  0.3532  0.0887  0.1652
    3TMC2    C613903   4.556   2.142  14.099  0.0103  0.1720  0.7327
    3TMC2     C13904   4.654   1.939  14.442 -0.1749 -0.3004  0.4372
    3TMC2     O13905   4.655   1.818  14.424 -0.1563 -0.0645 -0.1158
    3TMC2     H13906   4.598   1.837  14.207 -2.0483 -0.5915  2.5114
    3TMC2    H113907   4.614   2.213  14.417 -0.3664 -1.3610  0.1785
    3TMC2    H213908   4.529   2.190  14.006 -2.3801 -1.1867  0.7170
    3TMC2    C713909   4.572   2.363  14.207  0.3631 -0.2005  0.1140
    3TMC2    C813910   4.590   1.942  13.966 -0.2162 -0.9433 -0.0629
    3TMC2    O113911   4.611   2.419  14.308 -0.0794 -0.2025 -0.2566
    3TMC2    O213912   4.514   1.967  13.878  0.1207  0.1406  0.6315
    3TMC2    O513913   4.654   1.821  13.987  0.2952  0.1906  0.1245
    3TMC2    H513914   4.732   1.825  14.046 -0.1761  0.1237  0.7468
    4TMC2    C113915   3.978   2.887  13.617 -0.6926 -0.2907  0.1749
    4TMC2    C213916   3.990   3.023  13.628  0.2058 -0.3579 -0.2334
    4TMC2    C313917   4.099   3.067  13.695  0.6213  0.1521 -0.2870
    4TMC2    C413918   4.062   2.797  13.678  0.5222 -0.1195 -0.3813
    4TMC2    C513919   4.175   2.856  13.734 -0.1112 -0.2606 -0.0346
    4TMC2    C613920   4.196   2.990  13.743  0.4740 -0.2642  0.0614
    4TMC2     C13921   3.850   2.830  13.581 -0.2511  0.3287 -0.2636
    4TMC2     O13922   3.793   2.758  13.661 -0.5308 -0.0899 -0.3862
    4TMC2     H13923   3.906   3.087  13.603  1.6250  1.0080 -1.5224
    4TMC2    H113924   4.033   2.693  13.677  0.3209 -0.0653 -0.0454
    4TMC2    H213925   4.284   3.031  13.792 -2.2113  2.6899  2.4434
    4TMC2    C713926   4.270   2.763  13.794  0.3210 -0.1312 -0.8568
    4TMC2    C813927   4.115   3.209  13.720 -0.2534 -0.4805 -0.1774
    4TMC2    O113928   4.218   2.652  13.816  0.0200  0.2409 -0.3572
    4TMC2    O213929   4.203   3.244  13.796 -0.3194  0.3590  0.3272
    4TMC2    O513930   4.050   3.287  13.631 -0.0450  0.7432  0.2807
    4TMC2    H513931   4.004   3.242  13.558 -2.2901  1.6160  1.1445
    5MPD2     C13932   3.446   2.862  13.256 -0.8668 -0.2576 -0.2554
    5MPD2    C113933   3.553   2.936  13.199 -0.0720 -0.3206 -0.3826
    5MPD2    C213934   3.662   2.944  13.281  0.2689  0.1857 -0.3111
    5MPD2    C313935   3.674   2.883  13.402  0.1726 -0.5143 -0.7800
    5MPD2    C413936   3.568   2.800  13.448 -0.9876 -0.9174  0.2273
    5MPD2    C513937   3.453   2.798  13.376 -0.6236  0.2707 -0.6585
    5MPD2     H13938   3.748   2.999  13.245 -1.4781  1.3456 -2.7500
    5MPD2    H113939   3.585   2.757  13.546 -0.8563 -0.7100  0.2955
    5MPD2    H213940   3.351   2.843  13.206  0.3880  0.4469 -2.8787
    5MPD2    H313941   3.370   2.736  13.408 -0.3125  0.1056 -0.1678
    5MPD2     N13942   3.796   2.903  13.470  0.7571  0.2547  0.4333
    5MPD2    H513943   3.865   2.967  13.433  0.0695  0.9407  0.3181
    5MPD2    N113944   3.542   2.998  13.074  0.9278  0.3821  0.0973
    5MPD2    H713945   3.459   2.977  13.018  0.1460  0.5949  1.1710
    6MPD1     C13946   3.584   3.521  11.380 -0.0928  0.5256 -0.0941
    6MPD1    C113947   3.485   3.494  11.478  0.0317  0.1234 -0.1031
    6MPD1    C213948   3.485   3.578  11.584  0.0785 -0.3140  0.2950
    6MPD1    C313949   3.592   3.659  11.612  0.0888  0.2674  0.1449
    6MPD1    C413950   3.693   3.668  11.527 -0.1625  0.2170 -0.0413
    6MPD1    C513951   3.696   3.598  11.410  0.4368 -0.6096 -0.9565
    6MPD1     H13952   3.412   3.552  11.659  0.0122 -0.2245  0.2606
    6MPD1    H113953   3.780   3.722  11.562 -0.3943  1.1391 -0.8874
    6MPD1    H213954   3.580   3.471  11.284  0.9983 -0.5857  0.4353
    6MPD1    H313955   3.773   3.614  11.335 -1.0850  1.6409 -2.0409
    6MPD1     N13956   3.606   3.723  11.737  0.2988 -0.4376  1.1480
    6MPD1    H513957   3.699   3.755  11.761  0.1725  1.3480 -0.7212
    6MPD1    N113958   3.368   3.437  11.434 -0.1118  0.0981 -0.6323
    6MPD1    H613959   3.315   3.410  11.517  0.3091 -0.4573 -0.5467
    6MPD1    H713960   3.383   3.357  11.373  2.5912  1.7879 -2.1586
    7MPD2     C13961   3.199   3.574  12.455 -0.5056 -0.2654 -0.0150
    7MPD2    C113962   3.311   3.524  12.393  0.2685 -0.0847  0.2077
    7MPD2    C213963   3.354   3.398  12.443  0.6279  0.5105  0.2260
    7MPD2    C313964   3.300   3.344  12.553 -0.7045  0.3991 -0.0347
    7MPD2    C413965   3.191   3.402  12.614 -0.5770 -0.6040  0.4723
    7MPD2    C513966   3.139   3.519  12.558 -0.2022  0.1078 -0.3781
    7MPD2     H13967   3.444   3.353  12.403  1.0277  1.5138 -0.0049
    7MPD2    H113968   3.142   3.355  12.698 -1.7024 -1.8617 -0.9047
    7MPD2    H213969   3.152   3.663  12.416 -0.6672  0.8475  2.7708
    7MPD2    H313970   3.048   3.560  12.599 -1.1460 -1.1957 -1.1781
    7MPD2     N13971   3.351   3.217  12.589 -0.3770  0.1600 -0.2798
    7MPD2    H513972   3.438   3.194  12.543 -0.2576  0.5702 -0.2647
    7MPD2    N113973   3.383   3.591  12.295 -0.3667  0.1634  0.0960
    7MPD2    H713974   3.450   3.534  12.245 -0.1758 -1.2345  1.9523
    8TMC3    C113975   3.425   3.047  12.729 -0.6481  0.5204 -0.5639
    8TMC3    C213976   3.472   3.081  12.847  0.1390 -0.5281  0.3628
    8TMC3    C313977   3.605   3.079  12.873  0.2016 -0.3826 -0.5172
    8TMC3    C413978   3.512   3.021  12.628 -0.1832  0.1484  0.5406
    8TMC3    C513979   3.646   3.043  12.643  0.1697  0.4843  0.3527
    8TMC3    C613980   3.696   3.070  12.768 -0.2584  0.3030  0.0197
    8TMC3     C13981   3.315   3.139  12.696 -0.6217 -0.0378  0.2508
    8TMC3     O13982   3.238   3.163  12.790  0.4464  0.6168 -0.5302
    8TMC3     H13983   3.403   3.097  12.929  1.2655 -0.3652  1.2956
    8TMC3    H113984   3.476   3.011  12.526  2.2370  0.4217 -0.3420
    8TMC3    H213985   3.798   3.086  12.799  0.0772 -1.6979 -0.0542
    8TMC3    C713986   3.690   3.141  12.543 -1.4442  0.2575  0.1254
    8TMC3    C813987   3.647   3.049  13.004  0.1816  0.2157 -0.0507
    8TMC3    O113988   3.602   3.202  12.485  0.0545 -0.0507 -0.5685
    8TMC3    O213989   3.765   3.043  13.030 -0.1890  0.6015 -0.4937
    9TMC3    C113990   3.556   3.773  11.955  0.0676  0.1681 -0.0634
    9TMC3    C213991   3.683   3.736  11.995 -0.1095 -0.3234  0.1945
    9TMC3    C313992   3.702   3.724  12.129  1.1820  0.4992  0.0873
    9TMC3    C413993   3.452   3.787  12.051  0.5423  0.2958 -0.0360
    9TMC3    C513994   3.478   3.764  12.181 -0.1407  0.2994 -0.4355
    9TMC3    C613995   3.607   3.729  12.226 -0.0926 -0.7991  0.1042
    9TMC3     C13996   3.508   3.746  11.825  0.8778  0.4401 -0.9269
    9TMC3     O13997   3.387   3.733  11.813  0.2325  0.0051  0.6263
    9TMC3     H13998   3.759   3.723  11.920  0.3500 -0.0285  0.6075
    9TMC3    H113999   3.353   3.815  12.018  1.6382  2.9080 -1.1332
    9TMC3    H214000   3.622   3.717  12.333 -2.6143 -1.3292  0.3761
    9TMC3    C714001   3.369   3.719  12.261 -0.1925  0.4847 -0.2308
    9TMC3    C814002   3.815   3.642  12.158 -0.0756  0.6322  0.5417
    9TMC3    O114003   3.280   3.792  12.296  0.1735  0.2078  0.0041
    9TMC3    O214004   3.912   3.653  12.088 -0.5124 -0.6117  0.2533
   10MPD2     C14005   4.024   3.253  12.424  0.0665 -0.3441 -0.2967
   10MPD2    C114006   3.888   3.257  12.445 -0.6438  1.0302  0.1938
   10MPD2    C214007   3.819   3.374  12.399 -0.0825 -0.2645 -0.0043
   10MPD2    C314008   3.883   3.460  12.316  0.3849 -0.4044 -0.0137
   10MPD2    C414009   4.012   3.447  12.277 -1.1749 -0.0072  0.1724
   10MPD2    C514010   4.084   3.348  12.343 -0.2544  1.0184 -0.1827
   10MPD2     H14011   3.717   3.390  12.431  0.1915  0.3091  0.5821
   10MPD2    H114012   4.057   3.524  12.215 -1.7271 -0.6429 -1.0138
   10MPD2    H214013   4.083   3.174  12.469 -1.6420 -1.2226  0.3871
   10MPD2    H314014   4.191   3.341  12.333 -0.3087  1.6872 -1.2553
   10MPD2     N14015   3.804   3.563  12.270  0.0691 -0.2581  0.5598
   10MPD2    H514016   3.711   3.564  12.310  0.6734  0.8107  1.9456
   10MPD2    N114017   3.829   3.161  12.530  0.9141  0.5657 -0.6992
   10MPD2    H714018   3.887   3.092  12.578 -1.3778 -1.5345 -0.9841
   11MPD2     C14019   4.648   2.626  14.098 -0.0466  0.8024  0.3690
   11MPD2    C114020   4.552   2.551  14.043 -0.2834 -0.8298  0.5112
   11MPD2    C214021   4.471   2.607  13.943  0.3381 -0.4192 -0.4382
   11MPD2    C314022   4.495   2.739  13.896  0.0141  0.3377 -0.3668
   11MPD2    C414023   4.611   2.804  13.934 -0.5394 -0.0897  0.3374
   11MPD2    C514024   4.673   2.744  14.045  0.8787  0.5899  0.7971
   11MPD2     H14025   4.388   2.547  13.909 -0.0827  1.3042 -2.4842
   11MPD2    H114026   4.634   2.905  13.902  0.0810 -0.7144 -1.1917
   11MPD2    H214027   4.716   2.590  14.175  2.6794  0.5785 -2.1477
   11MPD2    H314028   0.017   2.801  14.087  1.0851 -0.5379  1.9340
   11MPD2     N14029   4.397   2.811  13.821 -0.4162 -0.3471 -0.2384
   11MPD2    H514030   4.421   2.905  13.789 -1.7882  0.6728  1.7326
   11MPD2    N114031   4.524   2.420  14.086 -0.0323  0.5540  0.1514
   11MPD2    H714032   4.461   2.364  14.029 -0.2193 -0.4686  1.3819
    1MPD1     C14033   2.821   0.506  16.766  0.2667  0.2607  0.3757
    1MPD1    C114034   2.897   0.438  16.858  0.4304  0.1782 -0.4028
    1MPD1    C214035   2.900   0.298  16.846  0.2163 -0.2846 -0.2162
    1MPD1    C314036   2.828   0.230  16.751 -0.1343  0.4890  0.0381
    1MPD1    C414037   2.758   0.302  16.655  0.2556 -0.8791  0.1089
    1MPD1    C514038   2.751   0.442  16.667 -0.0343 -0.6220 -0.2880
    1MPD1     H14039   2.961   0.246  16.918  1.8172 -1.4467 -2.4183
    1MPD1    H114040   2.688   0.261  16.584  2.1240 -0.6195 -1.8952
    1MPD1    H214041   2.808   0.613  16.781 -3.0738 -0.0938  0.0888
    1MPD1    H314042   2.688   0.499  16.600  0.5825  0.2663 -0.1006
    1MPD1     N14043   2.814   0.091  16.738 -0.1552  0.4824  0.0302
    1MPD1    H514044   2.750   0.052  16.670  1.7738  0.8523 -1.9903
    1MPD1    N114045   2.994   0.509  16.929  0.1940 -0.6350 -0.0900
    1MPD1    H614046   2.961   0.602  16.951  0.9499 -0.2732 -0.4842
    1MPD1    H714047   3.002   0.468  17.022  1.0946  1.0119  0.5537
    2MPD1     C14048   2.104   4.606  16.441 -0.0830 -0.5152 -0.1105
    2MPD1    C114049   2.221   4.666  16.409  0.3520 -0.1200 -0.0985
    2MPD1    C214050   2.328   4.648  16.497  0.1727  0.7997 -0.2006
    2MPD1    C314051   2.318   4.572  16.612  0.5684  0.0382 -0.2338
    2MPD1    C414052   2.189   4.521  16.642  0.2378  0.3242  0.2483
    2MPD1    C514053   2.087   4.545  16.557  0.8437  0.1234  0.1100
    2MPD1     H14054   2.425   4.689  16.472  1.0640 -0.9967  0.3251
    2MPD1    H114055   2.164   4.469  16.735  2.9982  1.2867  1.5143
    2MPD1    H214056   2.015   4.618  16.380 -0.8752 -1.2700  0.8976
    2MPD1    H314057   1.988   4.508  16.577  0.8752 -0.4208 -0.7321
    2MPD1     N14058   2.432   4.568  16.694 -0.0287 -0.1622  0.2951
    2MPD1    H514059   2.518   4.609  16.657  1.1937 -1.3687  1.8238
    2MPD1    N114060   2.241   4.722  16.280  0.8697 -0.7274 -0.2869
    2MPD1    H614061   2.151   0.020  16.250  0.2476 -0.7797  1.5042
    2MPD1    H714062   2.296   0.068  16.297 -2.6643  2.1307 -2.9682
    3TMC3    C114063   2.578   4.509  16.868  0.2883 -0.3502  0.0381
    3TMC3    C214064   2.627   4.407  16.949  0.1314 -0.4959  0.2068
    3TMC3    C314065   2.760   4.416  16.973 -0.1269  0.4480  0.1063
    3TMC3    C414066   2.643   4.627  16.836 -0.0933  0.3885 -0.3002
    3TMC3    C514067   2.779   4.628  16.854 -0.4576 -0.4396  0.4889
    3TMC3    C614068   2.833   4.525  16.927  0.1931 -0.2037  0.4533
    3TMC3     C14069   2.438   4.494  16.812  0.5914  0.2766  0.0967
    3TMC3     O14070   2.363   4.420  16.870  0.6901 -0.0369 -0.3032
    3TMC3     H14071   2.567   4.317  16.952 -0.3916 -0.0560  2.8637
    3TMC3    H114072   2.592   4.706  16.782 -0.7448 -0.3915 -0.8310
    3TMC3    H214073   2.938   4.510  16.949  0.3699 -0.3860 -0.5048
    3TMC3    C714074   2.861   0.010  16.838 -0.7744  0.9757 -0.0261
    3TMC3    C814075   2.827   4.297  17.012 -0.1772 -0.3353 -0.4081
    3TMC3    O114076   2.959   0.027  16.909 -0.1088  0.3602 -0.6285
    3TMC3    O214077   2.932   4.275  16.956  0.3167  0.1723 -0.0373
    4MPD1     C14078   2.827   3.797  17.138 -0.0657  0.3110 -0.4608
    4MPD1    C114079   2.733   3.855  17.220  0.6072 -0.4450  0.6410
    4MPD1    C214080   2.711   3.986  17.194 -0.0418 -0.4279 -0.4766
    4MPD1    C314081   2.787   4.067  17.107 -0.2343  0.0438  0.1380
    4MPD1    C414082   2.894   4.006  17.046  0.4810 -0.1875  0.0494
    4MPD1    C514083   2.914   3.870  17.056  0.1996 -0.4949 -0.5219
    4MPD1     H14084   2.629   4.041  17.239  0.9243 -0.4327  1.3182
    4MPD1    H114085   2.948   4.056  16.967 -0.0906 -1.4931 -1.1606
    4MPD1    H214086   2.845   3.690  17.135  0.6177  0.4425 -1.3779
    4MPD1    H314087   2.981   3.819  16.988 -0.9278 -0.3537 -1.7292
    4MPD1     N14088   2.752   4.204  17.085 -0.0739 -0.0283  0.5345
    4MPD1    H514089   2.664   4.235  17.124 -0.2268  0.2534 -0.0201
    4MPD1    N114090   2.643   3.775  17.292 -0.2782 -0.6178 -0.2847
    4MPD1    H614091   2.586   3.816  17.366  0.2895 -0.8006  0.2483
    4MPD1    H714092   2.698   3.698  17.331 -0.4984 -0.7483 -0.2317
    1TCq1    O114093   0.266   3.514  11.755  0.0925  0.0014 -0.1462
    1TCq1    C114094   0.326   3.395  11.776 -0.4723 -0.1712 -0.2572
    1TCq1    O214095   0.282   3.312  11.859 -0.0675 -0.0653 -0.2424
    1TCq1    C214096   0.472   3.428  11.756 -0.1384  0.2683  0.5295
    1TCq1    C314097   0.526   3.515  11.656 -0.0198 -0.7085  0.2280
    1TCq1    C414098   0.660   3.552  11.657 -0.5044 -0.1332 -0.5743
    1TCq1    C514099   0.741   3.481  11.741  0.2356 -0.2994  0.9761
    1TCq1    C614100   0.696   3.399  11.838 -0.1979  0.1112  0.1613
    1TCq1    C714101   0.557   3.381  11.857 -0.9472  0.1401  0.0046
    1TCq1    C814102   0.786   3.310  11.914  0.0759 -0.5621  0.2820
    1TCq1    O414103   0.733   3.230  11.991 -0.2277  0.6024  0.3381
    1TCq1    C914104   0.726   3.603  11.539 -0.1954  0.0881 -1.3676
    1TCq1    O514105   0.649   3.659  11.465  0.1213  0.1214 -0.7994
    1TCq1    O614106   0.843   3.558  11.521 -0.0411 -0.1610 -0.0563
    1TCq1    H114107   0.318   3.578  11.701 -1.1235  1.1561  0.0479
    1TCq1    H214108   0.469   3.530  11.565  2.2124 -0.0856 -1.0601
    1TCq1    H314109   0.847   3.503  11.740  0.3157 -0.7270 -0.1802
    1TCq1    H414110   0.522   3.325  11.943 -0.0406  1.1789  1.0578
    2MPD1     C14111   1.255   3.156  12.059 -0.5101 -0.4470  0.3217
    2MPD1    C114112   1.266   3.229  11.943 -0.3763 -0.5904 -0.2984
    2MPD1    C214113   1.154   3.284  11.894 -0.2482 -0.1074  0.1675
    2MPD1    C314114   1.034   3.276  11.963 -0.7002  0.1191 -0.1448
    2MPD1    C414115   1.021   3.206  12.078 -0.1835 -0.2979  0.8457
    2MPD1    C514116   1.139   3.157  12.130  0.9296 -0.4628 -0.7918
    2MPD1     H14117   1.163   3.324  11.793  1.5200 -0.8147  0.0441
    2MPD1    H114118   0.939   3.210  12.149 -1.0775  2.0268 -0.3170
    2MPD1    H214119   1.340   3.100  12.096 -0.1975  0.0570  0.3751
    2MPD1    H314120   1.136   3.098  12.221  0.4351  0.8783  0.0745
    2MPD1     N14121   0.923   3.327  11.893  0.3055 -0.0232 -0.2295
    2MPD1    H514122   0.950   3.385  11.815 -1.1627 -0.7598 -1.2803
    2MPD1    N114123   1.392   3.247  11.884 -0.0571 -0.8157 -0.6610
    2MPD1    H614124   1.388   3.297  11.796  0.5462 -0.0651 -0.2579
    2MPD1    H714125   1.445   3.161  11.873 -0.6665 -1.2564 -0.1947
    1TMC1    C114126   0.890   0.641   0.442 -0.5171  0.3820  0.0856
    1TMC1    C214127   0.845   0.603   0.564  0.6891  0.3560 -0.5637
    1TMC1    C314128   0.915   0.646   0.670 -0.3116  0.1182 -0.3193
    1TMC1    C414129   0.991   0.728   0.423 -0.3785  0.1663  0.1956
    1TMC1    C514130   1.043   0.782   0.537 -0.0336  0.7701  0.5596
    1TMC1    C614131   1.020   0.730   0.657  1.1614  0.8059  0.4384
    1TMC1     C14132   0.810   0.592   0.337 -0.8393 -0.0857  0.3271
    1TMC1     O14133   0.710   0.526   0.362  0.2483 -0.4570 -0.0031
    1TMC1     H14134   0.775   0.521   0.575 -0.2051  0.8349 -2.6292
    1TMC1    H114135   0.996   0.780   0.329  2.9769  0.3822  0.4742
    1TMC1    H214136   1.075   0.758   0.746  0.3098  1.1661  0.8539
    1TMC1    C714137   1.156   0.866   0.524  0.3028  0.1253  0.0570
    1TMC1    C814138   0.890   0.600   0.807 -0.6938 -0.6927  0.2482
    1TMC1    O114139   1.204   0.929   0.614 -0.0613 -0.3723 -0.2141
    1TMC1    O214140   0.969   0.628   0.899 -0.0638  0.0682 -0.1426
    1TMC1    O314141   1.210   0.835   0.405  0.3180 -0.5788 -0.2859
    1TMC1    H314142   1.170   0.753   0.369 -0.5489 -0.2201 -0.1568
    1TMC1    O514143   0.755   0.591   0.826  0.0786 -0.3353 -0.2755
    1TMC1    H514144   0.702   0.581   0.744  0.0150 -0.1129 -0.2619
    2MPD1     C14145   0.649   0.604  17.598 -1.0010  0.5375  0.2433
    2MPD1    C114146   0.786   0.622  17.592 -0.4093 -0.0958 -0.2562
    2MPD1    C214147   0.856   0.626  17.714  0.7532 -0.3252 -0.5819
    2MPD1    C314148   0.791   0.596   0.088  0.8207  0.4375  0.5722
    2MPD1    C414149   0.655   0.564   0.088  0.2946  0.0183  0.9083
    2MPD1    C514150   0.586   0.576  17.722 -0.6744  0.7171  0.1480
    2MPD1     H14151   0.962   0.648  17.720  0.7265 -0.1763 -0.6677
    2MPD1    H114152   0.601   0.545   0.180 -0.5827 -0.3643  0.3158
    2MPD1    H214153   0.588   0.594  17.509  0.6122 -1.3925 -0.6452
    2MPD1    H314154   0.483   0.541  17.715 -0.6380  0.9123 -1.4652
    2MPD1     N14155   0.865   0.614   0.211  0.4554 -0.1412  0.9878
    2MPD1    H514156   0.963   0.642   0.206  0.1185  0.7300 -0.6786
    2MPD1    N114157   0.849   0.647  17.470  0.3721 -1.1081 -0.1223
    2MPD1    H614158   0.806   0.728  17.425 -0.4361 -1.2821  0.3350
    2MPD1    H714159   0.950   0.650  17.480  0.0053  1.0567  2.8143
    1MPD1     C14160   4.373   0.517  10.827  1.5628 -0.0003 -0.9904
    1MPD1    C114161   4.384   0.459  10.956 -0.3242  0.5397 -0.4079
    1MPD1    C214162   4.510   0.442  11.008  0.0267 -0.5145  0.1250
    1MPD1    C314163   4.616   0.503  10.942  0.1773  0.2463  0.1913
    1MPD1    C414164   4.605   0.566  10.823 -0.7154  0.4892  0.5090
    1MPD1    C514165   4.482   0.565  10.759 -0.0674 -0.7828 -0.1156
    1MPD1     H14166   4.513   0.385  11.100  1.7532 -1.2276 -0.3684
    1MPD1    H114167   4.692   0.589  10.762 -0.8200  2.7563  1.2349
    1MPD1    H214168   4.277   0.535  10.781  0.3485 -1.4799  0.9686
    1MPD1    H314169   4.475   0.606  10.659  1.3211 -1.6110 -0.5411
    1MPD1     N14170   0.011   0.491  10.986  0.4564 -0.3149 -0.6423
    1MPD1    H514171   0.080   0.529  10.922  1.1030 -0.0082  0.2501
    1MPD1    N114172   4.278   0.388  11.011  0.2482 -0.3742 -0.0556
    1MPD1    H614173   4.292   0.382  11.112 -1.5913  0.9515  0.2803
    1MPD1    H714174   4.186   0.423  10.984 -0.4190 -1.3158  0.9925
    2MPD1     C14175   4.572   0.142  10.846 -0.4402  0.1373  0.0360
    2MPD1    C114176   4.450   0.109  10.803  0.4242 -0.2873 -0.4481
    2MPD1    C214177   4.415   4.713  10.790 -0.0085 -0.5402 -1.1789
    2MPD1    C314178   4.496   4.612  10.840  0.1923  0.1894 -0.5354
    2MPD1    C414179   4.615   4.655  10.890  0.4827  0.2702 -0.2939
    2MPD1    C514180   4.656   0.043  10.891  0.0824  0.3699  0.3234
    2MPD1     H14181   4.314   4.691  10.755 -1.2170  0.9818  1.3201
    2MPD1    H114182   4.690   4.591  10.936  1.9424 -0.1418 -3.3029
    2MPD1    H214183   4.604   0.245  10.841 -0.0579  0.1618  3.0569
    2MPD1    H314184   0.017   0.070  10.927  0.8784 -0.4822 -1.2378
    2MPD1     N14185   4.463   4.474  10.829 -0.1420 -0.0764  0.1515
    2MPD1    H514186   4.531   4.408  10.866 -0.8714  0.1533  1.9013
    2MPD1    N114187   4.365   0.205  10.749 -0.1864  0.7542  0.1277
    2MPD1    H614188   4.266   0.180  10.756 -0.4968  2.4611  1.8738
    2MPD1    H714189   4.365   0.290  10.805  1.5690  0.0945  1.1279
    3MPD1     C14190   4.184   3.590  10.253  0.2506  0.1762 -0.2465
    3MPD1    C114191   4.189   3.541  10.387 -0.2632 -0.4881 -0.1487
    3MPD1    C214192   4.208   3.637  10.482 -1.0726  0.5172 -0.0371
    3MPD1    C314193   4.238   3.767  10.443  0.3075 -0.3448  0.4542
    3MPD1    C414194   4.260   3.803  10.310 -0.6385  0.7239  0.4357
    3MPD1    C514195   4.223   3.716  10.216  0.4426  0.1947 -0.5144
    3MPD1     H14196   4.204   3.608  10.586  1.4606  3.5441  0.9074
    3MPD1    H114197   4.278   3.905  10.277 -0.2622 -0.0045 -1.6432
    3MPD1    H214198   4.129   3.531  10.181  0.3292  1.5711 -1.4329
    3MPD1    H314199   4.208   3.748  10.114 -0.5325  0.8515 -0.1609
    3MPD1     N14200   4.256   3.863  10.547  0.4392  0.0891  0.0147
    3MPD1    H514201   4.225   3.829  10.637 -1.8111 -1.7564 -1.4587
    3MPD1    N114202   4.125   3.425  10.412 -0.1417  0.3403 -0.2676
    3MPD1    H614203   4.124   3.372  10.325 -0.5804 -0.6343  0.3290
    3MPD1    H714204   4.158   3.375  10.494 -0.4290  0.6662  0.0456
    4MPD2     C14205   0.504   0.151  10.702  0.8743  0.2918 -0.0138
    4MPD2    C114206   0.512   0.138  10.841  0.1763  0.1033 -0.3052
    4MPD2    C214207   0.524   0.013  10.900 -0.3967  0.6101 -0.1536
    4MPD2    C314208   0.536   4.637  10.827  0.2972 -0.2674  0.3197
    4MPD2    C414209   0.533   4.652  10.690  0.1989 -0.1111 -0.5376
    4MPD2    C514210   0.522   0.037  10.634 -0.0513  0.1492  0.1134
    4MPD2     H14211   0.533   0.013  11.009  3.0043  0.9549 -0.4403
    4MPD2    H114212   0.534   4.563  10.627 -1.2026 -0.7338  0.3157
    4MPD2    H214213   0.494   0.241  10.642  0.5517 -0.9152 -1.7539
    4MPD2    H314214   0.521   0.045  10.526 -3.6987 -0.5323  0.0912
    4MPD2     N14215   0.545   4.511  10.884 -0.2368 -0.6495 -0.1750
    4MPD2    H514216   0.555   4.434  10.819 -1.9079 -2.1289  1.3120
    4MPD2    N114217   0.498   0.250  10.922 -0.3658  0.2007  0.6470
    4MPD2    H714218   0.512   0.223  11.019 -0.0246  0.5468  0.6962
    5TMC3    C114219   0.423   0.436  11.005 -0.8061  0.1888  0.2853
    5TMC3    C214220   0.294   0.458  10.989 -0.0382  0.4663 -0.2480
    5TMC3    C314221   0.207   0.429  11.098 -0.6266 -0.0878 -0.0958
    5TMC3    C414222   0.476   0.390  11.121 -0.2390  0.5861 -0.5519
    5TMC3    C514223   0.394   0.354  11.228  0.4668  0.4997  0.0417
    5TMC3    C614224   0.262   0.380  11.221  0.0784 -0.7963  0.2752
    5TMC3     C14225   0.482   0.381  10.891  0.0348  0.1384  0.6270
    5TMC3     O14226   0.464   0.429  10.782 -0.9030  0.0082  0.5132
    5TMC3     H14227   0.257   0.480  10.889  0.7571  2.8156 -0.0111
    5TMC3    H114228   0.581   0.365  11.132  0.0012  2.1511  0.7483
    5TMC3    H214229   0.202   0.353  11.307 -1.9254 -0.3897 -0.9837
    5TMC3    C714230   0.417   0.215  11.269  0.7936 -0.6643 -0.0296
    5TMC3    C814231   0.060   0.424  11.096  0.3995  0.0554  0.7211
    5TMC3    O114232   0.489   0.154  11.192 -0.0266  0.3026 -0.2560
    5TMC3    O214233   0.009   0.356  11.185  0.2464 -0.4500 -0.0311
    6TMC3    C114234   4.357   4.276  10.764 -0.9291  0.4607 -0.6462
    6TMC3    C214235   4.317   4.215  10.653  0.9818  0.2243  0.2121
    6TMC3    C314236   4.304   4.077  10.659 -0.8977 -0.9764  0.5757
    6TMC3    C414237   4.384   4.214  10.885 -0.2140  0.1898  0.9469
    6TMC3    C514238   4.381   4.078  10.889  0.0189 -0.4165  0.4201
    6TMC3    C614239   4.336   4.007  10.771 -0.2901  0.0478 -0.1590
    6TMC3     C14240   4.355   4.415  10.771  0.5513  0.2896 -0.2177
    6TMC3     O14241   4.260   4.462  10.703  0.1625  0.0890 -0.1030
    6TMC3     H14242   4.293   4.271  10.564  0.0802  0.1558  0.4171
    6TMC3    H114243   4.425   4.270  10.969 -0.6528  0.6499  0.8528
    6TMC3    H214244   4.319   3.900  10.781 -0.8790  0.3096  1.6278
    6TMC3    C714245   4.495   4.012  10.956 -0.3031 -0.1219 -0.1733
    6TMC3    C814246   4.302   3.995  10.531  0.1756 -0.5715 -0.1421
    6TMC3    O114247   4.549   4.091  11.030  0.5572  0.8759 -0.8109
    6TMC3    O214248   4.342   4.048  10.430 -0.4812  0.1964  0.1089
    7MPD2     C14249   0.274   4.537  11.528 -0.5958  0.0571 -0.4032
    7MPD2    C114250   0.361   4.549  11.419  0.8746 -0.9976 -0.1911
    7MPD2    C214251   0.388   4.675  11.370  0.5010  0.0264  0.2040
    7MPD2    C314252   0.331   0.052  11.424 -0.0409  0.6751  0.4778
    7MPD2    C414253   0.253   0.042  11.538  0.0147  0.1445  1.0848
    7MPD2    C514254   0.220   4.653  11.585  0.4274  0.2842  0.1861
    7MPD2     H14255   0.434   4.680  11.272  3.0395  1.7540  1.4737
    7MPD2    H114256   0.197   0.126  11.574  0.9317  0.9215  0.7094
    7MPD2    H214257   0.252   4.439  11.570 -2.0623  0.3018 -0.6253
    7MPD2    H314258   0.148   4.643  11.665  0.0046  1.4928 -0.0417
    7MPD2     N14259   0.362   0.185  11.393  0.5083 -0.0998 -0.4196
    7MPD2    H514260   0.321   0.259  11.450 -0.5070 -0.1812 -1.0422
    7MPD2    N114261   0.413   4.444  11.347  0.3427 -0.5369  0.4350
    7MPD2    H714262   0.462   4.475  11.264 -0.4252 -2.0850 -0.5850
    8TMC3    C114263   0.477   4.242  11.260 -0.1042  0.1621 -0.1630
    8TMC3    C214264   0.415   4.144  11.190 -0.1352 -0.2130  0.1477
    8TMC3    C314265   0.419   4.161  11.050 -0.3395  0.1210  1.6479
    8TMC3    C414266   0.561   4.331  11.193  0.8648  0.2532 -0.0118
    8TMC3    C514267   0.557   4.343  11.056 -0.6166  0.3999  0.9412
    8TMC3    C614268   0.476   4.260  10.980 -0.1131 -0.2495  0.6845
    8TMC3     C14269   0.404   4.310  11.371  0.3763 -0.3324  0.8441
    8TMC3     O14270   0.329   4.244  11.446 -0.2027 -0.3625  0.3681
    8TMC3     H14271   0.337   4.086  11.237  1.4253 -0.6604  2.1808
    8TMC3    H114272   0.632   4.386  11.253  2.2317 -2.8421  1.1868
    8TMC3    H214273   0.429   4.285  10.885 -1.7147  0.3662  1.6461
    8TMC3    C714274   0.564   4.486  11.023  0.1245 -0.0691  0.2066
    8TMC3    C814275   0.304   4.102  10.983 -0.0534  0.4564  0.2377
    8TMC3    O114276   0.591   4.557  11.120  0.3171  0.2517  0.6920
    8TMC3    O214277   0.242   4.171  10.903 -0.3947  0.1862  0.2455
    9MPD2     C14278   0.190   3.763  11.018  0.0756 -0.4363 -0.1462
    9MPD2    C114279   0.174   3.903  11.000  0.3897 -0.2567  0.3983
    9MPD2    C214280   0.048   3.951  10.966  0.7067 -0.8419  0.0999
    9MPD2    C314281   4.678   3.855  10.953 -0.0221 -0.4262  0.1743
    9MPD2    C414282   4.711   3.720  10.957 -0.3624  0.9553  0.6439
    9MPD2    C514283   0.097   3.672  10.984 -0.5367  0.0810 -0.1980
    9MPD2     H14284   0.040   4.057  10.940 -1.3451 -0.9171  0.4063
    9MPD2    H114285   4.628   3.650  10.959 -1.1403  1.8900  1.2493
    9MPD2    H214286   0.280   3.716  11.056  0.1436 -0.9283 -0.9132
    9MPD2    H314287   0.109   3.565  10.995  1.6487  0.5109  1.5715
    9MPD2     N14288   4.549   3.895  10.911 -0.5706 -0.4267  0.6055
    9MPD2    H514289   4.490   3.826  10.866 -1.4000  1.4042 -1.0857
    9MPD2    N114290   0.288   3.978  11.026 -0.6482  0.5329 -0.2957
    9MPD2    H714291   0.373   3.935  11.062 -0.0922  2.8984  1.2069
    1MPD1     C14292   0.017   2.546  17.109 -0.0429  0.2547 -0.7688
    1MPD1    C114293   4.721   2.588  16.981  0.1716 -0.4769 -0.1944
    1MPD1    C214294   0.010   2.511  16.871  0.2262  0.2609  0.0899
    1MPD1    C314295   0.076   2.396  16.884 -0.2468 -0.3017 -0.9929
    1MPD1    C414296   0.118   2.356  17.006  0.0416  0.1494  0.4206
    1MPD1    C514297   0.078   2.421  17.123 -0.3136  0.1213 -0.4206
    1MPD1     H14298   4.704   2.551  16.780  0.8271 -2.0353 -1.2167
    1MPD1    H114299   0.181   2.269  17.022  1.3606  1.0663  0.1538
    1MPD1    H214300   4.730   2.608  17.194 -1.6790 -2.1086  0.4895
    1MPD1    H314301   0.115   2.393  17.220  2.0351  1.1623 -1.0312
    1MPD1     N14302   0.117   2.318  16.781  0.5262 -0.6035 -0.0498
    1MPD1    H514303   0.148   2.226  16.810  2.1082  0.3821  1.3556
    1MPD1    N114304   4.651   2.707  16.979 -0.1352 -0.1451 -0.1785
    1MPD1    H614305   4.660   2.763  17.063 -0.2361  1.6676 -1.3708
    1MPD1    H714306   4.646   2.772  16.901 -2.6218  1.7478  1.5430
    2TMC2    C114307   0.168   2.142  16.369 -0.4714  0.2997 -0.4892
    2TMC2    C214308   0.270   2.064  16.406 -0.7439 -1.0976  0.1321
    2TMC2    C314309   0.333   2.085  16.527 -0.0240 -0.2782  0.2426
    2TMC2    C414310   0.109   2.235  16.450 -0.5670  0.7974 -0.5709
    2TMC2    C514311   0.174   2.252  16.570 -0.9199  0.0682  0.5706
    2TMC2    C614312   0.286   2.177  16.616 -0.0555  0.1814  0.1362
    2TMC2     C14313   0.139   2.128  16.231 -0.1467 -0.1639  0.3425
    2TMC2     O14314   0.226   2.095  16.148  0.4733  0.1069 -0.4766
    2TMC2     H14315   0.311   1.991  16.337  0.6726 -1.1543  1.0286
    2TMC2    H114316   0.029   2.297  16.410 -0.2020  1.2794 -0.5588
    2TMC2    H214317   0.342   2.202  16.705  1.0919  0.0199 -0.5345
    2TMC2    C714318   0.111   2.354  16.649  0.5924  0.5522  0.0711
    2TMC2    C814319   0.465   2.027  16.547 -0.2873 -0.4966 -0.5700
    2TMC2    O114320   0.077   2.453  16.587  0.1222 -0.6376  0.4825
    2TMC2    O214321   0.564   2.092  16.561 -0.6348 -0.3730 -0.1624
    2TMC2    O514322   0.453   1.897  16.521 -0.3412  0.0350  0.6594
    2TMC2    H514323   0.363   1.861  16.535 -0.0663 -1.1085 -0.5001
    3MPD1     C14324   4.586   2.094  15.808  0.1780  0.3073 -0.0735
    3MPD1    C114325   4.502   2.106  15.915 -0.0371 -0.1699 -0.5722
    3MPD1    C214326   4.557   2.143  16.040 -0.8167 -0.2709  0.5413
    3MPD1    C314327   4.694   2.141  16.063  0.6761 -0.4741 -0.2084
    3MPD1    C414328   0.035   2.124  15.950 -0.2286 -0.5762 -0.5225
    3MPD1    C514329   4.719   2.089  15.829 -1.0028  0.4833 -0.6855
    3MPD1     H14330   4.485   2.155  16.120  0.1789  0.4517  1.3196
    3MPD1    H114331   0.140   2.147  15.947 -0.3843 -0.0359 -1.7825
    3MPD1    H214332   4.541   2.067  15.713 -0.4445  0.5026  0.1648
    3MPD1    H314333   0.039   2.083  15.738  0.0904  0.6824  0.0006
    3MPD1     N14334   0.008   2.151  16.200 -0.1386  0.2273 -0.1652
    3MPD1    H514335   4.680   2.172  16.274 -2.2697 -0.3005 -1.9250
    3MPD1    N114336   4.364   2.102  15.904 -0.1120  0.3811  0.5596
    3MPD1    H614337   4.339   2.049  15.821 -1.5299  0.5360  0.8804
    3MPD1    H714338   4.322   2.060  15.987 -1.7479  0.2739 -0.3232
    1TMC1    C114339   2.926   1.431  13.346  0.2827 -0.4125  0.0719
    1TMC1    C214340   2.825   1.516  13.358  0.8419 -0.5721 -0.4497
    1TMC1    C314341   2.719   1.475  13.435  0.3692 -0.0729  0.8691
    1TMC1    C414342   2.938   1.311  13.409  0.7995  0.1151 -0.5293
    1TMC1    C514343   2.836   1.267  13.484 -0.3732  0.4065  0.0027
    1TMC1    C614344   2.724   1.349  13.494 -0.4733 -0.3649  0.3000
    1TMC1     C14345   3.048   1.489  13.287  0.1837  0.3525  0.3298
    1TMC1     O14346   3.041   1.555  13.183 -0.2005  0.1792 -0.4808
    1TMC1     H14347   2.832   1.611  13.306  0.1015  0.8205  1.9829
    1TMC1    H114348   3.028   1.252  13.402  0.1573 -1.0017  0.6236
    1TMC1    H214349   2.634   1.316  13.545  0.2275  1.2943  2.6023
    1TMC1    C714350   2.835   1.123  13.517 -0.0326  0.3418  0.1822
    1TMC1    C814351   2.617   1.559  13.485  0.0567 -0.2619  0.2521
    1TMC1    O114352   2.933   1.056  13.519 -0.4442  0.1498 -0.3351
    1TMC1    O214353   2.522   1.519  13.554  0.5409  0.2492 -0.2685
    1TMC1    O314354   2.711   1.078  13.485  0.6931 -0.0931 -0.4396
    1TMC1    H314355   2.641   1.147  13.472 -0.5740 -1.2739  0.1422
    1TMC1    O514356   2.660   1.695  13.459  0.6573  0.3307 -0.2677
    1TMC1    H514357   2.742   1.704  13.406  0.2057  3.3667 -0.4902
    2MPD2     C14358   3.329   1.572  13.241  0.2826 -0.3560 -0.0554
    2MPD2    C114359   3.273   1.543  13.362  0.5392  0.5168 -0.1559
    2MPD2    C214360   3.339   1.568  13.481 -0.0796 -0.1305  0.5670
    2MPD2    C314361   3.468   1.635  13.475 -0.7572  0.0916 -0.0646
    2MPD2    C414362   3.519   1.661  13.351 -0.3069 -0.1640  0.0221
    2MPD2    C514363   3.452   1.632  13.232  0.0779  0.0848 -0.9445
    2MPD2     H14364   3.302   1.542  13.579  0.3649  1.0449  1.0475
    2MPD2    H114365   3.613   1.713  13.336 -0.6245 -0.2217 -2.1693
    2MPD2    H214366   3.273   1.563  13.149  3.3467 -0.9607 -1.8834
    2MPD2    H314367   3.488   1.657  13.133 -0.8954 -0.1685 -1.3618
    2MPD2     N14368   3.539   1.656  13.592  0.2908  0.5162  0.4668
    2MPD2    H514369   3.519   1.607  13.679  0.8335 -4.4028 -2.1871
    2MPD2    N114370   3.149   1.481  13.377 -0.3848  0.2972  0.3367
    2MPD2    H714371   3.134   1.440  13.469 -2.2944 -1.6070 -0.8189
    3TCq1    O114372   3.986   2.004  13.777  0.5130 -0.2772  0.4559
    3TCq1    C114373   3.953   1.953  13.896 -0.7305  1.0017 -0.2378
    3TCq1    O214374   4.022   1.954  13.998  0.2378 -0.0345  0.3923
    3TCq1    C214375   3.855   1.852  13.873  0.3433  0.6665  0.9497
    3TCq1    C314376   3.855   1.750  13.959 -0.5054 -0.5920  0.2575
    3TCq1    C414377   3.799   1.630  13.920  0.3457  0.3017  0.1504
    3TCq1    C514378   3.740   1.623  13.801 -0.2009  0.1724 -0.2761
    3TCq1    C614379   3.732   1.734  13.722 -0.3536 -0.0261  0.7594
    3TCq1    C714380   3.787   1.855  13.757  0.8743 -0.1419 -0.5202
    3TCq1    C814381   3.651   1.742  13.596  0.3577  0.5475  0.5832
    3TCq1    O414382   3.671   1.826  13.509  0.2144  0.8953  0.0115
    3TCq1    C914383   3.833   1.511  13.996  0.0086 -0.4279  0.2759
    3TCq1    O514384   3.779   1.410  13.949 -0.0961 -0.0700 -0.7869
    3TCq1    O614385   3.930   1.515  14.075  0.8473 -0.1419 -0.2261
    3TCq1    H114386   3.929   1.975  13.703 -1.2205 -2.6113  2.7476
    3TCq1    H214387   3.914   1.750  14.049  0.7516  1.1442 -0.5760
    3TCq1    H314388   3.696   1.529  13.767 -0.2113  0.1851 -0.2982
    3TCq1    H414389   3.791   1.936  13.685  0.4558  1.2412  1.0287
    1MPD2     C14390   2.603   3.048  15.140 -0.0057 -0.5431  0.1514
    1MPD2    C114391   2.504   2.956  15.106  0.9603  0.9339  0.4591
    1MPD2    C214392   2.535   2.824  15.113 -0.2672  0.0462  0.2919
    1MPD2    C314393   2.650   2.779  15.160 -1.1679 -0.3223 -0.6745
    1MPD2    C414394   2.753   2.868  15.184  0.6860  0.2356 -0.8795
    1MPD2    C514395   2.725   3.004  15.189  0.3806  0.5769 -0.6479
    1MPD2     H14396   2.451   2.763  15.081 -0.0468  0.4242 -1.0133
    1MPD2    H114397   2.852   2.841  15.218 -0.3337 -0.2824  1.6874
    1MPD2    H214398   2.584   3.154  15.135 -1.7379 -0.7782  1.4329
    1MPD2    H314399   2.801   3.072  15.223 -0.9353  1.0537  1.3163
    1MPD2     N14400   2.676   2.638  15.163  0.2526 -0.2320 -0.3721
    1MPD2    H514401   2.775   2.625  15.181  0.5096  0.6545 -1.1137
    1MPD2    N114402   2.366   2.995  15.079  0.3807 -0.5074 -0.3407
    1MPD2    H714403   2.338   3.087  15.111  1.4086 -1.2099  2.5807
    2TMC3    C114404   2.134   2.975  15.045 -0.3961  0.1664  0.2486
    2TMC3    C214405   2.100   2.947  15.179  0.7813  0.4265  0.2239
    2TMC3    C314406   1.965   2.916  15.192 -0.4758  0.1189 -0.2539
    2TMC3    C414407   2.045   2.964  14.942 -0.1728  0.2036  0.4075
    2TMC3    C514408   1.914   2.946  14.961 -0.5399 -0.5447 -0.8961
    2TMC3    C614409   1.873   2.931  15.092  1.0770  0.6075  0.3827
    2TMC3     C14410   2.268   2.930  15.010 -0.8079 -0.2151  0.4735
    2TMC3     O14411   2.267   2.828  14.946 -0.4601  0.1131 -0.3249
    2TMC3     H14412   2.169   2.937  15.262  1.2769 -0.0581 -0.2451
    2TMC3    H114413   2.087   2.980  14.843  2.9591 -3.1854  1.2164
    2TMC3    H214414   1.772   2.904  15.120  0.1218  1.4462 -2.3179
    2TMC3    C714415   1.835   2.898  14.852 -0.2941  1.0174  0.0456
    2TMC3    C814416   1.943   2.803  15.283  0.0325 -0.4654 -0.7661
    2TMC3    O114417   1.739   2.827  14.875  0.0444 -0.4200 -0.3897
    2TMC3    O214418   1.825   2.781  15.323  0.7142 -0.0746  0.3216
    3TCq1    O114419   1.781   3.251  13.661  1.0860 -0.2998  0.6892
    3TCq1    C114420   1.873   3.334  13.729  1.4730  0.3866 -0.1502
    3TCq1    O214421   1.940   3.418  13.664 -0.3549  0.2174  0.1781
    3TCq1    C214422   1.926   3.263  13.846  0.5657 -0.1896  0.1648
    3TCq1    C314423   2.057   3.237  13.854 -0.3249 -0.0281  0.0465
    3TCq1    C414424   2.106   3.167  13.962 -0.1462  0.1869  0.5157
    3TCq1    C514425   2.019   3.123  14.061 -0.0163  0.1424 -0.4905
    3TCq1    C614426   1.887   3.150  14.050  0.0041 -0.0209  0.6336
    3TCq1    C714427   1.841   3.218  13.942  0.6305  0.4925 -0.3214
    3TCq1    C814428   1.794   3.091  14.141  0.6937 -0.5413  0.6616
    3TCq1    O414429   1.681   3.087  14.100  0.4167  0.0041  0.4444
    3TCq1    C914430   2.250   3.155  13.961 -0.0160 -0.2347 -0.5105
    3TCq1    O514431   2.305   3.169  13.848 -0.0479 -0.5081 -0.1320
    3TCq1    O614432   2.308   3.130  14.071  0.0860  0.0915 -0.2661
    3TCq1    H114433   1.777   3.163  13.704  1.0015 -1.1507 -1.0895
    3TCq1    H214434   2.128   3.264  13.776  0.0227  0.5247  0.5568
    3TCq1    H314435   2.062   3.075  14.148  0.2705 -2.0159 -1.8455
    3TCq1    H414436   1.733   3.223  13.937  0.5755 -0.6384 -0.1561
    4MPD2     C14437   1.649   2.981  14.380  0.2325  0.3372  0.3292
    4MPD2    C114438   1.783   3.020  14.379  0.0820  0.4134 -0.5032
    4MPD2    C214439   1.855   3.007  14.498  0.3380  0.6792 -0.3777
    4MPD2    C314440   1.794   2.949  14.609 -0.6721  0.2785 -0.0700
    4MPD2    C414441   1.676   2.885  14.595  0.5822 -0.1274  0.2367
    4MPD2    C514442   1.598   2.907  14.484 -0.1714 -0.2687 -0.1356
    4MPD2     H14443   1.952   3.055  14.501 -0.1446  1.6357 -0.2491
    4MPD2    H114444   1.634   2.829  14.678 -2.1282 -0.2401 -1.1914
    4MPD2    H214445   1.588   2.998  14.291 -1.2816 -0.2799  1.2436
    4MPD2    H314446   1.496   2.872  14.481  0.0730 -1.1702  2.3422
    4MPD2     N14447   1.865   2.961  14.732  0.2693 -0.3631  0.3463
    4MPD2    H514448   1.961   2.995  14.729  0.8252 -1.9733 -0.0222
    4MPD2    N114449   1.849   3.068  14.262  0.6278 -0.3139  1.1622
    4MPD2    H714450   1.945   3.095  14.276  0.4764 -0.5870  2.6697
    5TMC2    C114451   2.533   2.233  15.304 -0.1094  0.5230 -0.0881
    5TMC2    C214452   2.630   2.219  15.395  0.4449 -0.8023 -0.5514
    5TMC2    C314453   2.730   2.308  15.387 -0.2382 -0.1846 -0.0416
    5TMC2    C414454   2.555   2.312  15.197  0.0388  0.2935 -0.1051
    5TMC2    C514455   2.651   2.410  15.198 -0.7874  0.2557  0.9144
    5TMC2    C614456   2.750   2.406  15.297  0.7797  0.3841  0.0158
    5TMC2     C14457   2.403   2.245  15.363  0.2294 -0.3801  0.2584
    5TMC2     O14458   2.369   2.149  15.432 -0.6670  0.0126 -0.5202
    5TMC2     H14459   2.618   2.146  15.475  2.0929 -1.0805 -0.5529
    5TMC2    H114460   2.472   2.324  15.128  0.0415 -1.7959 -0.4569
    5TMC2    H214461   2.832   2.477  15.297  0.6423  0.5369 -1.1817
    5TMC2    C714462   2.590   2.534  15.158  0.2914 -0.6071  0.1176
    5TMC2    C814463   2.813   2.330  15.517  0.5972  0.1029 -0.6778
    5TMC2    O114464   2.464   2.539  15.143 -0.2012  0.4365  0.1493
    5TMC2    O214465   2.903   2.415  15.512 -0.2586 -0.3992 -0.1035
    5TMC2    O514466   2.831   2.206  15.577  0.0513 -0.2765  0.4435
    5TMC2    H514467   2.788   2.131  15.533  2.4720 -2.2225  1.3828
    6MPD2     C14468   1.985   2.534  15.419 -0.0530 -0.0860  0.1734
    6MPD2    C114469   2.083   2.600  15.352 -0.1126  0.2113  0.0558
    6MPD2    C214470   2.203   2.542  15.335 -0.1373 -0.6170  0.4751
    6MPD2    C314471   2.225   2.414  15.368  0.0355 -0.0013 -0.6702
    6MPD2    C414472   2.133   2.341  15.429  0.7966 -0.8732  0.1079
    6MPD2    C514473   2.008   2.400  15.457  0.3304 -0.1747 -0.5579
    6MPD2     H14474   2.283   2.602  15.292 -0.9057  0.8185  1.0539
    6MPD2    H114475   2.146   2.239  15.464 -0.3556 -1.5553 -1.4072
    6MPD2    H214476   1.880   2.561  15.431  0.6034  0.7326  4.1959
    6MPD2    H314477   1.933   2.341  15.508  0.0940  0.8711  0.3072
    6MPD2     N14478   2.348   2.362  15.331 -0.0683  0.3045 -0.6799
    6MPD2    H514479   2.411   2.431  15.291 -0.5781  1.3847  0.3620
    6MPD2    N114480   2.062   2.727  15.296 -0.5974  0.0976  0.1014
    6MPD2    H714481   2.134   2.764  15.236 -1.3491  1.7798  0.2124
  945NH3     N114482   4.320   4.552   7.531  0.2364 -0.0495  0.0096
  945NH3     H214483   4.352   4.647   7.544 -1.5389  0.8329 -2.0902
  945NH3     H314484   4.282   4.538   7.624 -0.6257  3.1613  0.1202
  945NH3     H414485   4.405   4.500   7.549  0.0053  0.1796  1.7725
  946SOD     NA14486   4.638   0.731   3.336 -0.3269 -0.1411 -0.2425
  947SOD     NA14487   1.682   3.549  11.089 -0.2220  0.4236 -0.2300
  948SOD     NA14488   3.372   3.084  17.007 -0.0578 -0.4073  0.0409
  949SOD     NA14489   1.766   3.014   6.863 -0.0880 -0.4779 -0.0104
  950SOD     NA14490   1.388   0.554  11.629 -0.3697  0.4204  0.2699
  951SOD     NA14491   0.093   2.441  13.314 -0.1134  0.2767  0.4099
  952SOD     NA14492   2.070   1.298  15.995  0.9176  0.1621 -0.3643
  953SOD     NA14493   3.932   3.549  15.595  0.1503 -0.1446 -0.5629
  954SOL     OW14494   2.503   2.918   3.964  0.4426  0.5269 -0.6472
  954SOL    HW114495   2.509   2.867   4.045  0.2330 -0.0149 -0.9785
  954SOL    HW214496   2.549   2.990   4.008  1.8155 -0.8860  0.2474
  955SOL     OW14497   2.689   0.387  14.594  0.3639 -0.1814 -0.1142
  955SOL    HW114498   2.634   0.315  14.625 -0.7503 -0.0713 -1.8182
  955SOL    HW214499   2.745   0.389  14.672 -2.5154  0.9739  1.8948
  956SOL     OW14500   3.928   0.079   9.262  0.1090  0.3427  0.2772
  956SOL    HW114501   3.927   0.136   9.338  0.1885 -0.4961  0.9127
  956SOL    HW214502   3.836   0.069   9.236  0.4087 -1.5847 -0.0721
  957SOL     OW14503   3.715   4.734   2.689  0.3820  0.3048 -0.2361
  957SOL    HW114504   3.809   4.718   2.691  0.2834 -0.0506  1.1289
  957SOL    HW214505   3.706   0.049   2.768 -0.7348  2.1869 -1.6236
  958SOL     OW14506   2.742   1.400   0.746  0.5139 -0.1300  0.2673
  958SOL    HW114507   2.802   1.447   0.688  0.6657  1.2664  1.5295
  958SOL    HW214508   2.801   1.336   0.785 -0.4114  0.6543  3.0036
  959SOL     OW14509   2.902   1.462   3.803 -0.4048  0.0297 -0.2675
  959SOL    HW114510   2.836   1.518   3.761 -1.2783 -1.0439 -0.3169
  959SOL    HW214511   2.948   1.441   3.722  2.1396  1.0332  0.9187
  960SOL     OW14512   3.645   2.847   4.553 -0.4458 -0.3856  0.0070
  960SOL    HW114513   3.664   2.775   4.494 -4.8546 -2.3179  0.9522
  960SOL    HW214514   3.589   2.903   4.498 -2.7508 -0.1805  2.5447
  961SOL     OW14515   1.515   4.211   8.549 -0.2629  0.2490  0.0621
  961SOL    HW114516   1.449   4.177   8.488 -1.3227  1.4964  0.5336
  961SOL    HW214517   1.498   4.156   8.626 -0.4818  0.8513  0.4415
  962SOL     OW14518   4.357   1.744   7.884  0.0725  0.4505  0.1322
  962SOL    HW114519   4.361   1.803   7.808  1.6770  1.2023  0.7925
  962SOL    HW214520   4.269   1.708   7.879  0.4412 -0.3452 -0.5989
  963SOL     OW14521   3.620   3.896   8.612  0.3998  0.1443  0.4198
  963SOL    HW114522   3.661   3.953   8.547  1.2679 -0.2693  0.6044
  963SOL    HW214523   3.571   3.951   8.673  0.9133  0.0818  0.8982
  964SOL     OW14524   3.982   4.548   6.763 -0.3504  0.3261 -0.0761
  964SOL    HW114525   3.916   4.511   6.705 -0.9470  0.7598  0.3262
  964SOL    HW214526   3.938   4.619   6.810 -0.7926  0.7335 -1.1219
  965SOL     OW14527   0.763   2.957   1.071  0.0673  0.4349 -0.2972
  965SOL    HW114528   0.822   3.032   1.070  0.5825  0.0561  2.2810
  965SOL    HW214529   0.694   2.989   1.013 -0.6424  0.7948  0.7511
  966SOL     OW14530   0.746   1.324  15.779  0.3200 -0.1924 -0.0186
  966SOL    HW114531   0.676   1.263  15.755 -0.2104  0.9822 -1.4700
  966SOL    HW214532   0.802   1.316  15.702  0.1398  1.9148 -0.3692
  967SOL     OW14533   0.159   2.965   2.174 -0.1389  0.2710  0.3536
  967SOL    HW114534   0.141   3.053   2.207 -0.0582  1.4095 -2.6684
  967SOL    HW214535   0.248   2.943   2.201 -0.5694  0.4742  1.9764
  968SOL     OW14536   1.828   1.263  15.165  0.1087 -1.1594 -0.2211
  968SOL    HW114537   1.765   1.192  15.149  1.8173 -2.3820 -1.5922
  968SOL    HW214538   1.887   1.235  15.096  1.7765  1.7057  0.0830
  969SOL     OW14539   2.667   2.751   9.546  0.1890  0.2452 -0.1435
  969SOL    HW114540   2.593   2.809   9.563  0.2920  0.4341 -0.3425
  969SOL    HW214541   2.746   2.803   9.534  0.7456 -0.6280 -0.3214
  970SOL     OW14542   4.616   1.939   3.447 -0.4010 -0.2511  0.4985
  970SOL    HW114543   4.538   1.932   3.502 -0.7546  1.7668  0.2546
  970SOL    HW214544   4.602   1.868   3.384  2.0305 -0.6050  0.3635
  971SOL     OW14545   1.538   3.440   4.607 -0.0835 -0.4028 -0.1352
  971SOL    HW114546   1.522   3.384   4.531  0.3887 -0.3837 -0.2457
  971SOL    HW214547   1.526   3.526   4.566  1.2986 -0.2237 -0.1487
  972SOL     OW14548   1.792   1.200   2.271 -0.1293  0.3027  0.2381
  972SOL    HW114549   1.821   1.237   2.354 -1.1074  1.1415  0.2145
  972SOL    HW214550   1.699   1.225   2.272 -0.1410  0.1955  1.8627
  973SOL     OW14551   4.129   1.858   8.694  0.0155 -0.5546 -0.4812
  973SOL    HW114552   4.194   1.912   8.650 -0.8512  1.0260  0.1516
  973SOL    HW214553   4.051   1.893   8.650  0.9353  1.2628 -0.6844
  974SOL     OW14554   2.022   1.144   4.514  0.2500 -0.1288  0.3211
  974SOL    HW114555   2.081   1.077   4.481  1.1426  1.3257 -0.9937
  974SOL    HW214556   1.939   1.096   4.511 -0.2188  0.7375 -0.3105
  975SOL     OW14557   2.974   2.413   5.333 -0.4939 -0.1757 -0.6090
  975SOL    HW114558   2.927   2.417   5.417  0.3632  1.9692 -0.2139
  975SOL    HW214559   3.067   2.412   5.355 -1.1658 -0.4591  2.2267
  976SOL     OW14560   0.593   1.611   2.883 -0.1792  0.3452  0.0263
  976SOL    HW114561   0.642   1.685   2.846 -0.2718  0.9930  1.1771
  976SOL    HW214562   0.513   1.607   2.831  0.5776  0.9689 -1.2066
  977SOL     OW14563   4.152   1.586   8.438 -0.4987 -0.2845  0.3497
  977SOL    HW114564   4.104   1.654   8.486  0.2739  0.8074 -0.4096
  977SOL    HW214565   4.131   1.522   8.506  0.3362 -0.3448  0.5588
  978SOL     OW14566   3.715   0.098  14.480 -0.7356  0.2473  0.4073
  978SOL    HW114567   3.631   0.064  14.451 -1.0994  1.2692  0.2342
  978SOL    HW214568   3.770   0.020  14.478 -1.1746 -0.0748  0.8541
  979SOL     OW14569   1.090   2.228  15.829  0.5362 -0.2293 -0.1585
  979SOL    HW114570   1.015   2.189  15.874  0.1859  2.0224  1.2185
  979SOL    HW214571   1.160   2.165  15.848 -2.9659 -3.8695  0.7406
  980SOL     OW14572   0.902   0.689   4.612  0.1531  0.6868  0.0119
  980SOL    HW114573   0.884   0.631   4.538 -2.1698  0.1739  0.9797
  980SOL    HW214574   0.842   0.653   4.678  0.2018 -4.0435 -2.4939
  981SOL     OW14575   0.202   3.452   2.576 -0.2495  0.0865  0.2302
  981SOL    HW114576   0.125   3.397   2.585  0.4300 -0.7652  0.8054
  981SOL    HW214577   0.263   3.405   2.633 -0.4448  0.7060  0.9435
  982SOL     OW14578   3.596   4.579   2.370  0.1883  0.0794 -0.2235
  982SOL    HW114579   3.556   4.544   2.291  0.6219  1.3719 -1.0047
  982SOL    HW214580   3.602   4.673   2.355 -1.9615 -0.0351 -1.8930
  983SOL     OW14581   0.963   0.576   9.110  0.3139 -0.2498 -0.2197
  983SOL    HW114582   0.904   0.587   9.035 -3.3722  1.3398  2.9492
  983SOL    HW214583   0.921   0.497   9.144 -0.8154  0.0295 -0.9473
  984SOL     OW14584   4.159   1.004   1.421  0.1054  0.0383  0.8020
  984SOL    HW114585   4.087   0.959   1.467 -0.5070 -0.5348 -0.7221
  984SOL    HW214586   4.107   1.073   1.380 -0.2146 -1.1101 -0.7217
  985SOL     OW14587   3.599   3.808  10.020  0.1386 -0.9081  0.1353
  985SOL    HW114588   3.583   3.872  10.089 -1.5664 -1.2090  0.0164
  985SOL    HW214589   3.514   3.814   9.976 -0.9054 -2.7523  1.8681
  986SOL     OW14590   1.325   0.916   5.140 -0.0561  0.1477  0.1231
  986SOL    HW114591   1.244   0.965   5.157  1.0621  1.2689  2.2749
  986SOL    HW214592   1.383   0.987   5.112  1.0465 -0.7296  0.1869
  987SOL     OW14593   4.703   3.269   9.208  0.1991  0.0795  0.1230
  987SOL    HW114594   0.009   3.248   9.290 -2.6371 -1.8887  1.1255
  987SOL    HW214595   4.683   3.180   9.181  0.6382  0.1985 -0.6140
  988SOL     OW14596   4.366   0.990  10.857 -0.5311 -0.2410  0.1593
  988SOL    HW114597   4.383   0.930  10.930  0.2418 -1.5730 -1.1061
  988SOL    HW214598   4.425   1.064  10.873  0.2575 -0.7267 -0.5205
  989SOL     OW14599   3.148   0.207   6.637  0.2513  0.0370 -0.1507
  989SOL    HW114600   3.092   0.191   6.561  0.3906  0.1156 -0.2706
  989SOL    HW214601   3.217   0.262   6.599  1.8055 -3.1598 -1.9243
  990SOL     OW14602   3.290   3.984   1.794  0.3682 -1.0837 -0.0940
  990SOL    HW114603   3.239   3.992   1.875 -2.0200  2.4638 -1.9285
  990SOL    HW214604   3.283   4.073   1.759 -0.4528 -1.0993  0.0324
  991SOL     OW14605   4.093   2.929   5.212 -0.1570  0.0157 -0.2271
  991SOL    HW114606   4.064   2.892   5.128  2.8846 -0.2676 -1.1408
  991SOL    HW214607   4.033   2.879   5.267 -0.7397  1.1470  0.1479
  992SOL     OW14608   3.576   2.082  13.489  0.2305  0.2166  0.2666
  992SOL    HW114609   3.640   2.012  13.503 -0.8602 -0.2669  2.7770
  992SOL    HW214610   3.515   2.032  13.435  0.8335  0.9707 -1.1255
  993SOL     OW14611   1.311   3.330  10.833 -0.0880 -0.8581  0.1034
  993SOL    HW114612   1.247   3.271  10.874 -1.7333 -0.6820 -2.2412
  993SOL    HW214613   1.273   3.418  10.837  1.6225 -0.0276 -2.7239
  994SOL     OW14614   3.504   1.710   4.391  0.0476  0.2563  0.4420
  994SOL    HW114615   3.427   1.703   4.335 -0.7679 -2.4478  1.9495
  994SOL    HW214616   3.552   1.629   4.370  2.0777  1.1397  1.6894
  995SOL     OW14617   1.682   4.227  12.097  0.3186  0.4413  0.6751
  995SOL    HW114618   1.603   4.227  12.151  0.2919  0.5525  0.6362
  995SOL    HW214619   1.662   4.166  12.026 -2.2256  1.5823  0.4425
  996SOL     OW14620   2.850   4.470   2.757 -0.3504 -0.2466  0.3036
  996SOL    HW114621   2.759   4.497   2.770 -0.0422  0.9555 -0.0724
  996SOL    HW214622   2.866   4.552   2.711  1.5758 -0.6415  0.2868
  997SOL     OW14623   3.423   3.642   3.923 -0.2083 -0.3838  0.1949
  997SOL    HW114624   3.396   3.550   3.914  1.6432 -0.5692 -3.4246
  997SOL    HW214625   3.397   3.676   3.838 -0.5715 -0.8346  0.1268
  998SOL     OW14626   0.048   0.843   1.445 -0.4986  0.2536  0.1396
  998SOL    HW114627   4.736   0.913   1.402 -0.1147  0.1712 -0.4504
  998SOL    HW214628   4.735   0.772   1.406 -1.4032  1.4936 -0.9329
  999SOL     OW14629   1.702   0.545   0.787  0.5071  0.2528  0.4178
  999SOL    HW114630   1.709   0.463   0.739  1.9581 -0.2800  1.5394
  999SOL    HW214631   1.663   0.518   0.870  0.5801 -1.5628 -0.1479
 1000SOL     OW14632   0.033   4.526  11.266 -0.3624  0.1519  0.2772
 1000SOL    HW114633   0.121   4.489  11.260  0.2017  1.0521  3.0850
 1000SOL    HW214634   0.052   4.617  11.242  0.3864 -0.6181 -2.0604
 1001SOL     OW14635   2.184   1.429   3.302 -0.5711  0.2824 -0.2830
 1001SOL    HW114636   2.277   1.409   3.315 -1.1838 -2.1522  0.3776
 1001SOL    HW214637   2.169   1.479   3.382  1.9535  2.6423 -1.2883
 1002SOL     OW14638   2.298   4.365   6.053 -0.7012  0.7981  0.1944
 1002SOL    HW114639   2.268   4.401   6.136  1.6843 -0.5464  1.6208
 1002SOL    HW214640   2.344   4.286   6.080 -0.0372  0.5806 -1.5874
 1003SOL     OW14641   3.880   1.589   1.541 -0.1746 -0.1805  0.1670
 1003SOL    HW114642   3.806   1.535   1.512  0.5127 -0.8868 -0.2994
 1003SOL    HW214643   3.843   1.622   1.622 -1.0465 -1.0305  0.1100
 1004SOL     OW14644   4.190   4.373   4.568  0.7237 -0.1449 -0.0318
 1004SOL    HW114645   4.193   4.310   4.639 -2.5927  0.7007  0.8625
 1004SOL    HW214646   4.272   4.338   4.532  0.1761 -1.0157 -0.4286
 1005SOL     OW14647   3.384   1.779   3.154 -0.2343 -0.6824  0.5945
 1005SOL    HW114648   3.368   1.687   3.133  0.5286 -0.0426 -2.7724
 1005SOL    HW214649   3.306   1.800   3.206 -0.9229 -2.2999  0.2318
 1006SOL     OW14650   4.211   1.260   5.107 -0.6673 -0.0964 -0.0362
 1006SOL    HW114651   4.170   1.341   5.139 -1.4803 -0.7801  0.6681
 1006SOL    HW214652   4.276   1.297   5.048 -1.4050  2.2247  0.5656
 1007SOL     OW14653   2.978   0.554   5.565  0.0502  0.2055  0.5708
 1007SOL    HW114654   3.018   0.598   5.640  2.0625  2.2962 -1.7247
 1007SOL    HW214655   3.057   0.538   5.514 -1.2934  1.5524 -1.9049
 1008SOL     OW14656   2.330   1.807  10.091  0.3435  0.1872  0.1361
 1008SOL    HW114657   2.374   1.819  10.175  0.7574 -0.3762  0.0078
 1008SOL    HW214658   2.361   1.720  10.066  0.6929  0.8441 -1.7034
 1009SOL     OW14659   3.466   3.409   8.374 -0.2805  0.0585 -0.1117
 1009SOL    HW114660   3.533   3.476   8.380  0.6896 -0.8750 -0.6527
 1009SOL    HW214661   3.437   3.404   8.466 -1.1120  2.2963 -0.2586
 1010SOL     OW14662   1.918   2.593  14.338  0.0616 -0.2468  0.1520
 1010SOL    HW114663   1.862   2.582  14.414  0.0659 -1.6119 -0.0380
 1010SOL    HW214664   1.998   2.553  14.372  0.3716 -1.0733 -1.5070
 1011SOL     OW14665   1.357   3.482   7.162 -0.1391 -0.0923 -0.3493
 1011SOL    HW114666   1.301   3.476   7.240  0.0065  0.7906 -0.1799
 1011SOL    HW214667   1.297   3.537   7.112 -1.1909 -1.8217 -0.9960
 1012SOL     OW14668   4.214   1.354   0.330 -0.5486  0.5234 -0.3135
 1012SOL    HW114669   4.149   1.424   0.322  0.7480  1.7394 -0.0729
 1012SOL    HW214670   4.155   1.278   0.330  0.9215 -0.6270 -0.5446
 1013SOL     OW14671   1.945   0.223   1.442 -0.0775  0.1312 -0.0150
 1013SOL    HW114672   1.955   0.269   1.525 -0.2129 -2.0259  1.1860
 1013SOL    HW214673   1.850   0.235   1.441 -0.0067  0.7088  0.2488
 1014SOL     OW14674   1.285   3.368   1.821 -0.2599  0.3915 -0.2860
 1014SOL    HW114675   1.274   3.277   1.793  0.6340 -0.1553  1.1437
 1014SOL    HW214676   1.252   3.360   1.911  3.2569 -1.9964  0.8210
 1015SOL     OW14677   2.417   2.795   2.413 -0.0742  0.6048 -0.4379
 1015SOL    HW114678   2.324   2.792   2.389 -0.0359 -1.6854 -0.2638
 1015SOL    HW214679   2.414   2.751   2.497 -0.8446 -2.4246 -2.0644
 1016SOL     OW14680   4.040   2.662   2.538 -0.4387  0.0377 -0.0628
 1016SOL    HW114681   4.099   2.587   2.548  1.2696  1.3733 -0.0750
 1016SOL    HW214682   4.021   2.663   2.444 -1.6403 -2.8630  0.1518
 1017SOL     OW14683   3.672   3.068  10.004  0.8081  0.0437 -0.0100
 1017SOL    HW114684   3.710   3.129   9.940 -1.7218 -0.6639 -2.1854
 1017SOL    HW214685   3.744   3.071  10.066 -0.2544 -1.1502  1.2638
 1018SOL     OW14686   1.494   2.896  15.533  0.0798  0.4244  0.1814
 1018SOL    HW114687   1.431   2.892  15.462  0.3469  2.8061 -0.1906
 1018SOL    HW214688   1.457   2.970  15.582  0.4821  1.1003 -0.5348
 1019SOL     OW14689   2.587   2.650   7.938 -0.8275 -0.3949  0.0117
 1019SOL    HW114690   2.668   2.626   7.894  0.8195  1.4275  2.0290
 1019SOL    HW214691   2.574   2.581   8.003  0.7486 -0.2359  0.4938
 1020SOL     OW14692   4.123   4.662  13.877 -0.2769  0.4047  0.2373
 1020SOL    HW114693   4.045   4.624  13.918 -2.1116  3.9062 -0.0299
 1020SOL    HW214694   4.092   4.675  13.787 -0.2692  0.8219  0.2942
 1021SOL     OW14695   3.839   3.843   3.838  0.3618  0.1572  0.2708
 1021SOL    HW114696   3.911   3.870   3.895  0.5588 -0.8650  0.5144
 1021SOL    HW214697   3.828   3.920   3.783 -0.3265  0.6964  1.1669
 1022SOL     OW14698   1.798   0.545  16.649 -0.3717  0.3705  0.4998
 1022SOL    HW114699   1.753   0.526  16.567  1.4459  0.0523 -0.4067
 1022SOL    HW214700   1.752   0.616  16.694 -2.0908 -1.0163  0.9396
 1023SOL     OW14701   4.574   2.369   5.908 -0.0652  0.0814 -0.0780
 1023SOL    HW114702   4.556   2.443   5.850  0.7064  1.0600  0.9453
 1023SOL    HW214703   4.488   2.356   5.949 -0.4314 -0.1050 -0.8964
 1024SOL     OW14704   1.581   0.444  17.089 -0.2581  0.3419  0.0302
 1024SOL    HW114705   1.607   0.368  17.037  2.1428  1.1469  0.1010
 1024SOL    HW214706   1.651   0.435  17.154 -0.7603  0.2791  0.5683
 1025SOL     OW14707   4.011   1.445   3.337 -0.5171  0.1561 -0.2721
 1025SOL    HW114708   3.953   1.469   3.409  1.1272  0.2206  1.0447
 1025SOL    HW214709   4.099   1.465   3.369 -1.1124  2.3137 -0.0065
 1026SOL     OW14710   0.857   2.207   8.110 -0.0057  0.3005 -0.5320
 1026SOL    HW114711   0.906   2.274   8.063 -1.0152  0.9553 -0.6499
 1026SOL    HW214712   0.825   2.151   8.039 -2.0124  0.5743  0.1362
 1027SOL     OW14713   0.874   2.010   9.370  0.3145  0.1327  0.0285
 1027SOL    HW114714   0.831   2.050   9.447 -2.2120 -2.0133 -0.2677
 1027SOL    HW214715   0.808   1.951   9.333 -0.6216 -0.1156  2.0913
 1028SOL     OW14716   4.667   1.369   2.954  0.0925  0.7398  0.0731
 1028SOL    HW114717   4.710   1.397   2.874  1.0201 -0.7585  0.0531
 1028SOL    HW214718   4.573   1.386   2.942  0.4111  3.5624  1.5006
 1029SOL     OW14719   3.891   3.274   4.388 -0.2042  0.0881 -0.1655
 1029SOL    HW114720   3.955   3.220   4.341  0.2670  1.0565 -0.6436
 1029SOL    HW214721   3.858   3.205   4.445  0.9181 -0.8644 -0.6727
 1030SOL     OW14722   2.367   1.568   7.644  0.0488  0.7826 -0.0507
 1030SOL    HW114723   2.450   1.563   7.691 -0.3116 -3.0655  0.1011
 1030SOL    HW214724   2.401   1.537   7.560  1.7212 -0.1360  0.9778
 1031SOL     OW14725   4.467   0.634  11.259  0.3650 -0.3469 -0.2544
 1031SOL    HW114726   4.502   0.546  11.244 -0.4113 -0.8333  0.8042
 1031SOL    HW214727   4.526   0.678  11.320 -1.0767 -2.7117  2.8586
 1032SOL     OW14728   2.623   4.447   4.237 -0.2778  0.6291 -0.0925
 1032SOL    HW114729   2.570   4.367   4.240 -0.5302  0.8890  2.3523
 1032SOL    HW214730   2.681   4.428   4.311 -1.5542  0.2161  0.7907
 1033SOL     OW14731   4.285   1.804  17.750 -0.0304 -0.1381 -0.1555
 1033SOL    HW114732   4.342   1.738   0.037 -1.5799 -1.8189 -0.7928
 1033SOL    HW214733   4.199   1.761  17.744  0.0190 -0.2711  0.0699
 1034SOL     OW14734   1.921   0.938   6.066 -0.0815 -0.4870  0.7660
 1034SOL    HW114735   1.829   0.958   6.046  0.4096  1.2648  0.2386
 1034SOL    HW214736   1.911   0.896   6.151  3.9209  1.9342  2.3859
 1035SOL     OW14737   4.254   1.829   2.311  0.3252  0.6424  0.1024
 1035SOL    HW114738   4.241   1.786   2.395  0.0093  1.3651  0.4266
 1035SOL    HW214739   4.218   1.917   2.325 -0.0504  0.7145 -1.2962
 1036SOL     OW14740   3.122   3.209   6.169  0.0009  0.4429  0.4476
 1036SOL    HW114741   3.177   3.267   6.118  0.2505 -0.2622 -0.0891
 1036SOL    HW214742   3.143   3.117   6.155 -0.8633 -0.1074  2.6826
 1037SOL     OW14743   2.821   1.372   5.884  0.4974  0.2848 -0.1248
 1037SOL    HW114744   2.881   1.321   5.830  1.1729  0.6679  0.2445
 1037SOL    HW214745   2.734   1.347   5.854  0.7311 -0.2779 -0.3134
 1038SOL     OW14746   2.565   4.602  17.709  0.4303 -0.7046  0.0876
 1038SOL    HW114747   2.515   4.541  17.654  1.1160 -0.0687 -1.2385
 1038SOL    HW214748   2.553   4.570   0.047 -0.8036 -2.3141 -0.6752
 1039SOL     OW14749   2.491   2.362   2.273 -0.5395  0.3837  0.0586
 1039SOL    HW114750   2.427   2.414   2.321  0.1848  0.3542  1.0585
 1039SOL    HW214751   2.469   2.390   2.184 -0.1880  0.0777 -0.1225
 1040SOL     OW14752   3.532   3.452  17.263 -0.2912 -0.0197  0.6227
 1040SOL    HW114753   3.590   3.475  17.191  0.0900 -1.5518  0.4435
 1040SOL    HW214754   3.536   3.525  17.324 -0.9698  1.6533 -1.3456
 1041SOL     OW14755   4.026   1.904  14.281  0.0856  0.2466 -0.5973
 1041SOL    HW114756   4.015   1.915  14.186 -2.9809 -0.0617 -0.2905
 1041SOL    HW214757   3.974   1.824  14.283  1.1567 -0.4774 -2.1259
 1042SOL     OW14758   2.506   4.429   7.956 -0.0571 -0.0263  0.2132
 1042SOL    HW114759   2.530   4.407   8.046  1.7300  1.1758  0.0371
 1042SOL    HW214760   2.581   4.396   7.908  0.6987 -0.4005  1.6600
 1043SOL     OW14761   2.092   0.034  12.263  0.1644  0.6484  0.1398
 1043SOL    HW114762   2.105   4.706  12.196 -1.9922  1.7872 -1.4046
 1043SOL    HW214763   2.072   0.110  12.207 -1.3180  1.9267  2.4228
 1044SOL     OW14764   3.403   0.972   8.622  0.1737 -0.4603  0.0821
 1044SOL    HW114765   3.380   0.960   8.714  0.6820  2.2305  0.5455
 1044SOL    HW214766   3.468   0.904   8.603  1.0396  0.4637 -0.2442
 1045SOL     OW14767   4.504   3.860   8.337  0.6265  0.4682 -0.4023
 1045SOL    HW114768   4.549   3.872   8.254 -0.3383  0.1966 -0.9634
 1045SOL    HW214769   4.584   3.852   8.389  0.4182 -2.4267 -0.5240
 1046SOL     OW14770   0.208   0.359   5.980  0.2342  0.6301  0.4808
 1046SOL    HW114771   0.251   0.378   6.063  0.9321 -0.5391  0.3881
 1046SOL    HW214772   0.182   0.268   5.994 -0.6021  0.9185  0.7939
 1047SOL     OW14773   4.229   0.789   2.407 -0.2645 -0.3158 -0.1364
 1047SOL    HW114774   4.151   0.757   2.454  0.2779 -1.0231  0.2796
 1047SOL    HW214775   4.256   0.865   2.460  1.0694  0.7145 -2.2925
 1048SOL     OW14776   0.850   3.971   5.761 -0.1168 -0.0199 -0.5567
 1048SOL    HW114777   0.926   4.015   5.723  2.3194 -3.4374  0.3407
 1048SOL    HW214778   0.778   4.003   5.706 -0.7093  0.0886  0.2880
 1049SOL     OW14779   0.073   1.454   8.867 -0.2520 -0.7285 -0.8025
 1049SOL    HW114780   0.054   1.526   8.927  2.2080 -0.2641 -0.5825
 1049SOL    HW214781   4.723   1.418   8.858 -1.1610  1.0252  1.0207
 1050SOL     OW14782   1.356   1.347   8.685 -0.3974  0.3303  0.4705
 1050SOL    HW114783   1.351   1.268   8.739  2.1323 -1.9013 -2.5520
 1050SOL    HW214784   1.277   1.395   8.711  0.4770  2.3786 -0.6748
 1051SOL     OW14785   1.854   3.701   6.596  0.2349 -0.1585  0.2250
 1051SOL    HW114786   1.845   3.606   6.590  1.1413 -0.1574 -1.4009
 1051SOL    HW214787   1.774   3.726   6.549  1.4269  2.2515 -0.5144
 1052SOL     OW14788   1.469   2.927   5.343 -1.4133  0.0363  0.1979
 1052SOL    HW114789   1.494   2.842   5.307 -1.5885 -0.4390  1.1791
 1052SOL    HW214790   1.383   2.927   5.300 -0.8192  0.3440 -0.9938
 1053SOL     OW14791   0.131   4.287   1.604 -0.3727  0.1119  0.6270
 1053SOL    HW114792   0.040   4.266   1.624 -0.8117 -1.6014 -3.0126
 1053SOL    HW214793   0.153   4.359   1.662  0.2043  0.0578  0.4712
 1054SOL     OW14794   3.298   2.390   3.221 -0.1068 -0.3982 -0.1577
 1054SOL    HW114795   3.297   2.426   3.132 -0.4561  0.3808  0.1615
 1054SOL    HW214796   3.218   2.426   3.260 -1.2923 -1.8853 -1.1996
 1055SOL     OW14797   0.625   2.557   6.788  0.1233  0.0924 -0.6248
 1055SOL    HW114798   0.621   2.488   6.722  0.2334 -0.1892 -0.3320
 1055SOL    HW214799   0.564   2.619   6.746  0.4020  0.3283 -0.6817
 1056SOL     OW14800   1.200   2.260   8.703  0.3487 -0.4705  0.8007
 1056SOL    HW114801   1.158   2.346   8.712  0.5630 -0.1136 -1.6773
 1056SOL    HW214802   1.124   2.221   8.659  1.0891  1.0202 -1.8077
 1057SOL     OW14803   2.245   1.904   6.754 -0.2366 -0.0101 -0.0056
 1057SOL    HW114804   2.250   1.907   6.849  0.3476  0.9345 -0.0568
 1057SOL    HW214805   2.330   1.940   6.728 -0.0826 -0.1467  0.3168
 1058SOL     OW14806   3.820   2.368  10.974  0.0684 -0.4565  0.2151
 1058SOL    HW114807   3.791   2.410  11.056 -0.3964 -0.6651  0.1552
 1058SOL    HW214808   3.838   2.278  10.999 -0.1549 -0.2786  1.0289
 1059SOL     OW14809   2.615   1.521   2.450 -0.3182  0.2214 -0.3628
 1059SOL    HW114810   2.568   1.454   2.500  0.2030  1.1931  1.4131
 1059SOL    HW214811   2.558   1.548   2.379 -0.2545  1.7502  0.1599
 1060SOL     OW14812   4.634   0.556  16.346 -0.1855 -0.2821 -0.2457
 1060SOL    HW114813   4.624   0.643  16.384  0.5973 -0.6750  0.8604
 1060SOL    HW214814   4.574   0.509  16.404 -3.0191  1.4105 -1.8245
 1061SOL     OW14815   1.933   3.007   4.836  0.2253 -0.1116 -0.0573
 1061SOL    HW114816   1.973   2.998   4.750  2.7135  0.2479  1.0604
 1061SOL    HW214817   2.003   3.054   4.881 -0.1045  1.7878 -1.5551
 1062SOL     OW14818   1.665   1.286   4.514 -0.9740  0.2656  0.1503
 1062SOL    HW114819   1.676   1.191   4.516 -0.3270  0.3178 -0.7333
 1062SOL    HW214820   1.719   1.302   4.591  2.0536 -0.2020 -1.8463
 1063SOL     OW14821   1.232   4.331  13.412 -0.1185  0.1694  0.3127
 1063SOL    HW114822   1.226   4.324  13.316  0.2977 -0.1289  0.3063
 1063SOL    HW214823   1.271   4.245  13.429  0.8316  1.1501  3.0171
 1064SOL     OW14824   2.320   0.078  15.868  0.2475 -0.2800 -0.6328
 1064SOL    HW114825   2.406   0.057  15.830  0.8995  0.3372  0.5016
 1064SOL    HW214826   2.258   0.073  15.795 -0.9463  2.2629  0.2487
 1065SOL     OW14827   2.481   3.917  12.493  0.2464  0.0097 -0.4047
 1065SOL    HW114828   2.563   3.961  12.468  1.4143 -1.5723  0.6521
 1065SOL    HW214829   2.436   3.911  12.409 -2.3519 -0.5211  1.0323
 1066SOL     OW14830   0.339   2.215   7.643  0.4136 -0.0008  1.0664
 1066SOL    HW114831   0.281   2.265   7.585  0.3467 -1.1114  0.1671
 1066SOL    HW214832   0.412   2.196   7.583 -0.5965  2.5445 -0.9391
 1067SOL     OW14833   2.493   0.754  11.630 -0.1910 -0.1142  0.0203
 1067SOL    HW114834   2.546   0.812  11.575 -0.9246  0.2752 -0.2847
 1067SOL    HW214835   2.434   0.814  11.675  0.6819  0.9532 -0.2632
 1068SOL     OW14836   3.314   1.399   7.113 -0.7867 -0.1499  0.6463
 1068SOL    HW114837   3.222   1.424   7.117 -0.9562 -0.4862 -1.1336
 1068SOL    HW214838   3.299   1.312   7.076  1.2410  0.1169 -0.7951
 1069SOL     OW14839   1.979   3.556   8.469 -0.0006  0.3110  0.3158
 1069SOL    HW114840   1.889   3.550   8.437 -0.2805  4.4922  0.3720
 1069SOL    HW214841   1.977   3.516   8.556  0.4444  0.3209  0.3303
 1070SOL     OW14842   0.034   4.611   8.085  0.7659 -0.5397 -0.1660
 1070SOL    HW114843   0.053   4.701   8.058 -0.2715 -0.6017 -1.0867
 1070SOL    HW214844   0.018   4.612   8.179  0.8705 -0.8130 -0.1461
 1071SOL     OW14845   1.073   2.591   6.291 -0.2246  0.1347 -0.5193
 1071SOL    HW114846   1.092   2.682   6.271 -0.8457 -0.1282 -2.3780
 1071SOL    HW214847   1.014   2.573   6.218  0.2882 -0.7715 -0.7126
 1072SOL     OW14848   0.384   4.735   4.737  0.1737 -0.3485 -0.1306
 1072SOL    HW114849   0.403   4.644   4.715  2.8065 -0.2307  1.5834
 1072SOL    HW214850   0.403   4.733   4.830  0.4447 -0.8497 -0.1985
 1073SOL     OW14851   1.703   1.031   1.916  0.3254 -0.2412 -0.4928
 1073SOL    HW114852   1.746   0.946   1.909  0.4765 -0.3699  1.9665
 1073SOL    HW214853   1.755   1.088   1.859 -1.9608  0.6774 -1.6337
 1074SOL     OW14854   0.087   2.840   1.709  0.0627 -0.4570  0.5671
 1074SOL    HW114855   0.114   2.922   1.750 -1.6608  0.6879 -0.5630
 1074SOL    HW214856   0.155   2.817   1.645 -0.5544 -0.4912 -0.0876
 1075SOL     OW14857   4.222   1.869   8.947  0.0320  0.0667  0.0653
 1075SOL    HW114858   4.293   1.933   8.958  2.7737 -2.9460 -0.2346
 1075SOL    HW214859   4.209   1.870   8.852 -0.2865  0.2475  0.1135
 1076SOL     OW14860   1.390   1.062   5.930  0.4084  0.3085 -0.3432
 1076SOL    HW114861   1.300   1.053   5.900  0.5740  0.4868 -0.8927
 1076SOL    HW214862   1.400   1.157   5.938  2.4456 -0.1425  2.4419
 1077SOL     OW14863   1.997   0.785   9.253 -0.2275 -0.4117 -0.0218
 1077SOL    HW114864   2.028   0.811   9.167  1.4706 -0.7644  0.4778
 1077SOL    HW214865   2.016   0.691   9.247  1.7613 -0.0447  0.5270
 1078SOL     OW14866   3.578   2.880   9.829  0.3679 -0.4484  0.0344
 1078SOL    HW114867   3.598   2.956   9.884  1.0770 -1.5426  1.2850
 1078SOL    HW214868   3.668   2.867   9.799  0.6689  0.2131  0.6264
 1079SOL     OW14869   0.829   1.198   7.821  0.3141  0.0684 -0.2223
 1079SOL    HW114870   0.865   1.285   7.802  1.3903 -0.4458 -0.4968
 1079SOL    HW214871   0.902   1.140   7.803  0.2781  0.0916 -0.4426
 1080SOL     OW14872   1.254   2.672   6.554 -0.4049  0.2739 -0.3988
 1080SOL    HW114873   1.191   2.681   6.483 -3.4558 -0.7549  2.1601
 1080SOL    HW214874   1.229   2.743   6.614 -1.6645 -1.2949  0.9323
 1081SOL     OW14875   0.916   1.727   8.008 -0.2866 -0.2984 -0.1087
 1081SOL    HW114876   0.833   1.681   8.001 -1.2883  1.2979  1.2290
 1081SOL    HW214877   0.944   1.724   7.916  1.4758  0.2956  0.3963
 1082SOL     OW14878   3.266   3.715   8.489 -0.0854  0.6225 -0.7226
 1082SOL    HW114879   3.300   3.798   8.454 -0.2442  0.6114 -0.9015
 1082SOL    HW214880   3.172   3.726   8.478 -0.1172  1.6257  0.4498
 1083SOL     OW14881   3.423   1.135   2.192 -0.3075  0.3502 -0.1517
 1083SOL    HW114882   3.448   1.193   2.120 -1.4279  1.0545  0.0259
 1083SOL    HW214883   3.500   1.078   2.199 -1.1667 -0.9000 -0.7411
 1084SOL     OW14884   3.710   0.635   7.023 -0.4103  0.0204 -0.0122
 1084SOL    HW114885   3.647   0.568   6.997  0.3338 -0.2213 -1.1958
 1084SOL    HW214886   3.674   0.674   7.103 -1.7301 -0.8578 -0.1780
 1085SOL     OW14887   2.235   2.882   7.854  0.4663 -0.3245 -0.5605
 1085SOL    HW114888   2.178   2.857   7.781 -1.7294  0.1685  1.0013
 1085SOL    HW214889   2.308   2.823   7.832  0.8604 -0.0360 -0.0155
 1086SOL     OW14890   0.473   0.344   4.952  0.1655  0.0245  0.0177
 1086SOL    HW114891   0.520   0.357   4.869  0.5601 -0.3059  0.1856
 1086SOL    HW214892   0.510   0.412   5.008  2.8210 -1.4011  0.0135
 1087SOL     OW14893   3.675   0.030   4.221  0.8612 -0.4544 -0.2305
 1087SOL    HW114894   3.730   0.106   4.239  1.8034 -1.0931 -0.4454
 1087SOL    HW214895   3.631   0.016   4.305  2.6291  3.0835  1.2858
 1088SOL     OW14896   1.033   0.077   6.782  0.3282  0.1673 -0.0885
 1088SOL    HW114897   0.982   0.028   6.718  0.3299  0.9536 -0.6971
 1088SOL    HW214898   1.064   0.016   6.849  0.8539  0.0481 -0.4374
 1089SOL     OW14899   1.056   4.669   1.898 -0.0936 -0.0158  0.2606
 1089SOL    HW114900   1.019   4.581   1.896 -2.9351  1.2355 -2.1617
 1089SOL    HW214901   1.108   4.667   1.978 -0.1252  1.1089  0.3056
 1090SOL     OW14902   3.173   1.951   5.925 -1.0545  0.2453  0.2110
 1090SOL    HW114903   3.198   2.043   5.915 -1.0001  0.1638 -0.4021
 1090SOL    HW214904   3.087   1.946   5.884 -1.2860  2.4300  0.4281
 1091SOL     OW14905   4.258   4.423  17.471  0.4726 -0.3782  0.1953
 1091SOL    HW114906   4.214   4.383  17.546  0.5170  1.6650  1.3326
 1091SOL    HW214907   4.348   4.406  17.502  0.0157  0.5645  2.0400
 1092SOL     OW14908   3.941   2.271   6.100  0.2573 -0.3841 -0.0444
 1092SOL    HW114909   3.945   2.302   6.190  1.1105  0.0501 -0.2306
 1092SOL    HW214910   3.851   2.239   6.102  0.2941 -0.6061 -1.5412
 1093SOL     OW14911   2.736   0.411   9.016  0.3323 -0.1907  0.1256
 1093SOL    HW114912   2.734   0.501   8.984 -0.3770 -0.7384 -1.3828
 1093SOL    HW214913   2.655   0.397   9.066 -0.0491 -0.4812 -0.5679
 1094SOL     OW14914   2.354   4.198   9.402 -0.1320  0.1621  0.3379
 1094SOL    HW114915   2.277   4.247   9.433 -1.3212 -1.4226 -0.1235
 1094SOL    HW214916   2.421   4.246   9.450  0.5768 -0.0877 -0.4204
 1095SOL     OW14917   3.444   4.371   5.420 -0.6756 -0.2652  0.3850
 1095SOL    HW114918   3.371   4.310   5.416 -0.5422 -0.5499  2.1286
 1095SOL    HW214919   3.509   4.301   5.431  0.1129  0.2650 -0.8668
 1096SOL     OW14920   0.729   3.728   4.461 -0.1819  0.0836 -0.0401
 1096SOL    HW114921   0.715   3.673   4.384  1.8861 -2.3754  1.3256
 1096SOL    HW214922   0.745   3.812   4.418 -0.6211  0.0041 -0.3537
 1097SOL     OW14923   1.605   1.775   2.989 -0.2369  0.3878  1.2340
 1097SOL    HW114924   1.610   1.770   3.084 -0.5376 -2.5370  1.1065
 1097SOL    HW214925   1.604   1.682   2.968  2.7501  0.5968  0.1345
 1098SOL     OW14926   4.437   0.707   2.806  0.4656 -0.0512  0.3489
 1098SOL    HW114927   4.357   0.663   2.776  0.7031  0.0127 -0.3922
 1098SOL    HW214928   4.496   0.638   2.775 -0.7968  0.3000 -2.9029
 1099SOL     OW14929   2.260   1.314   2.335  0.1227  0.2574 -0.7123
 1099SOL    HW114930   2.242   1.375   2.407 -0.9911  0.1088 -0.8646
 1099SOL    HW214931   2.219   1.360   2.262  1.0096  0.8597 -0.8228
 1100SOL     OW14932   3.037   3.357  17.363  0.3878  0.3491 -0.1245
 1100SOL    HW114933   2.990   3.433  17.397  0.8890  0.0739  1.1736
 1100SOL    HW214934   3.053   3.384  17.273  0.3298 -0.5906 -0.4142
 1101SOL     OW14935   2.498   1.368   1.768 -0.0494 -0.0073  0.1113
 1101SOL    HW114936   2.468   1.459   1.773 -1.6852 -0.6609  2.2030
 1101SOL    HW214937   2.463   1.348   1.855 -0.9929  1.6359  0.1066
 1102SOL     OW14938   3.710   3.023   6.300 -0.3767  0.6817  0.6837
 1102SOL    HW114939   3.797   2.991   6.278 -0.4257 -0.8606  2.6845
 1102SOL    HW214940   3.721   3.116   6.283  1.1248  0.2628 -0.6533
 1103SOL     OW14941   2.553   3.274  13.889  0.6506 -0.1134  0.6793
 1103SOL    HW114942   2.480   3.218  13.863  0.7242  0.1115 -0.0063
 1103SOL    HW214943   2.553   3.344  13.824  2.3801 -1.3417 -0.6484
 1104SOL     OW14944   4.183   4.514   4.983 -0.1881  0.1735  0.1583
 1104SOL    HW114945   4.105   4.496   4.930  0.1567 -2.0554  0.4153
 1104SOL    HW214946   4.141   4.507   5.069  0.0189 -1.2792  0.1290
 1105SOL     OW14947   3.948   0.686   7.030 -0.1646 -0.0958 -0.0427
 1105SOL    HW114948   3.865   0.638   7.029  0.7078 -1.6217  2.2112
 1105SOL    HW214949   3.970   0.673   7.122 -0.6002 -3.0839 -0.3644
 1106SOL     OW14950   4.332   1.031   8.251 -0.1935 -0.6060  0.4285
 1106SOL    HW114951   4.283   0.956   8.283  1.3573 -1.8090 -0.0322
 1106SOL    HW214952   4.409   1.026   8.308 -0.9017 -0.5045  1.3946
 1107SOL     OW14953   2.991   1.383  14.648 -0.4226  0.0984 -0.2018
 1107SOL    HW114954   2.915   1.339  14.611  0.4264 -3.2796  2.1087
 1107SOL    HW214955   3.003   1.341  14.733 -2.4716  0.2266  0.1442
 1108SOL     OW14956   3.027   4.362   7.249 -0.0168 -0.4528  0.2519
 1108SOL    HW114957   2.970   4.435   7.227 -0.0545 -0.0263  1.7425
 1108SOL    HW214958   3.102   4.402   7.292  0.9940 -2.2753  0.1821
 1109SOL     OW14959   1.166   3.100   8.013  0.1120 -0.2535 -0.0084
 1109SOL    HW114960   1.141   3.177   8.064 -1.6488 -1.1725  0.5171
 1109SOL    HW214961   1.162   3.037   8.085 -3.8609 -0.6461 -0.5546
 1110SOL     OW14962   4.344   0.144   3.084  0.2171 -0.5217 -0.2753
 1110SOL    HW114963   4.280   0.076   3.104  1.6314 -1.3917  1.2252
 1110SOL    HW214964   4.335   0.146   2.988 -0.0003 -2.7246 -0.2980
 1111SOL     OW14965   0.331   1.246   5.828 -0.2007 -0.3570 -0.0836
 1111SOL    HW114966   0.394   1.301   5.874  0.6942 -1.7569  0.3692
 1111SOL    HW214967   0.375   1.162   5.842 -0.7959 -0.1292  3.0201
 1112SOL     OW14968   2.635   0.847   4.496 -0.0243 -0.2842  0.1520
 1112SOL    HW114969   2.708   0.900   4.530 -1.1308  1.8314 -0.7570
 1112SOL    HW214970   2.656   0.854   4.403 -0.3846  0.2220  0.1084
 1113SOL     OW14971   1.630   3.379  10.959 -0.2714 -0.6364 -0.7001
 1113SOL    HW114972   1.630   3.289  10.991  1.9870  0.5688  2.6296
 1113SOL    HW214973   1.579   3.370  10.878  0.3216  1.1882 -1.2641
 1114SOL     OW14974   4.172   3.083   5.665 -0.2059 -0.3555  0.2590
 1114SOL    HW114975   4.076   3.087   5.660 -0.2582 -0.9916  0.8531
 1114SOL    HW214976   4.203   3.133   5.589 -1.4243  2.9711  1.9395
 1115SOL     OW14977   3.108   4.346  17.522 -0.0926 -0.0986 -0.1239
 1115SOL    HW114978   3.085   4.403  17.596  1.2003  0.1299  0.1136
 1115SOL    HW214979   3.176   4.399  17.479 -1.1382  0.4591 -1.1085
 1116SOL     OW14980   3.748   4.379  11.234 -0.6885  0.0911  0.1711
 1116SOL    HW114981   3.719   4.338  11.153  1.6379  0.8707 -1.0653
 1116SOL    HW214982   3.670   4.435  11.238 -0.6836 -0.0779  2.4396
 1117SOL     OW14983   1.839   0.366   4.081  0.1665  0.2736 -0.5951
 1117SOL    HW114984   1.776   0.316   4.132  0.4508 -0.5680 -1.0749
 1117SOL    HW214985   1.921   0.345   4.124 -0.4695  0.2684  0.6057
 1118SOL     OW14986   3.919   0.532   8.869 -0.4523  0.4584 -0.8229
 1118SOL    HW114987   3.927   0.562   8.960  0.8343 -0.1350 -0.7348
 1118SOL    HW214988   3.894   0.615   8.830  0.5610  1.2717  0.2843
 1119SOL     OW14989   4.140   1.462   1.538  0.6430  0.5340  0.1035
 1119SOL    HW114990   4.075   1.528   1.514  1.4505  1.5136  0.6000
 1119SOL    HW214991   4.134   1.460   1.633 -4.4383  1.8346 -0.2210
 1120SOL     OW14992   2.255   2.940   0.808  0.3305 -0.0492 -0.0975
 1120SOL    HW114993   2.184   2.930   0.872 -0.8303  0.6102 -1.2813
 1120SOL    HW214994   2.312   3.010   0.838 -0.5512  0.2142  0.9244
 1121SOL     OW14995   0.551   3.541   2.718  0.2941 -0.3059  0.0832
 1121SOL    HW114996   0.566   3.615   2.660  1.1803 -1.2676 -0.8980
 1121SOL    HW214997   0.570   3.468   2.660 -0.2202 -1.0506  0.8361
 1122SOL     OW14998   3.853   1.882  12.038  0.1917  0.4382 -0.1762
 1122SOL    HW114999   3.835   1.887  12.132 -0.9521  1.3589 -0.4526
 1122SOL    HW215000   3.837   1.972  12.011  1.8478  0.5112 -0.9114
 1123SOL     OW15001   1.429   2.899   4.979 -0.3686  0.2395  0.2230
 1123SOL    HW115002   1.513   2.886   4.936  0.3575  0.0940  1.6725
 1123SOL    HW215003   1.431   2.993   4.959  0.0691  0.2997  0.5528
 1124SOL     OW15004   1.678   0.911   5.029 -0.2355 -0.0237  0.2382
 1124SOL    HW115005   1.676   0.839   5.092 -0.0549 -1.7917 -1.7746
 1124SOL    HW215006   1.768   0.914   4.996  0.3267  0.0622  1.8179
 1125SOL     OW15007   1.904   3.602   5.412  0.2064  0.4413  0.5450
 1125SOL    HW115008   1.994   3.627   5.431  0.1130  0.7970  0.5250
 1125SOL    HW215009   1.861   3.684   5.436  0.6416  0.4371  1.3210
 1126SOL     OW15010   3.963   1.808   6.449 -0.3295 -0.4291  0.5780
 1126SOL    HW115011   3.946   1.734   6.507  1.1545 -0.3837  1.0787
 1126SOL    HW215012   4.059   1.813   6.448 -0.4302  1.3502  0.4774
 1127SOL     OW15013   0.584   3.253  12.714  0.1229 -0.0391  0.2415
 1127SOL    HW115014   0.648   3.323  12.723  0.1958  0.1956 -2.0877
 1127SOL    HW215015   0.568   3.243  12.620  2.2398  0.2988 -0.1502
 1128SOL     OW15016   3.440   2.802  11.002  0.1135 -0.2176 -0.1125
 1128SOL    HW115017   3.524   2.757  10.999  1.6398  2.7656 -1.2801
 1128SOL    HW215018   3.388   2.724  11.024 -0.1940  0.1845  0.5733
 1129SOL     OW15019   3.782   0.537   6.436  0.2210 -0.1847  0.1129
 1129SOL    HW115020   3.789   0.442   6.440 -0.1638 -0.2717 -1.3419
 1129SOL    HW215021   3.868   0.561   6.470  0.6776 -1.8239  0.1052
 1130SOL     OW15022   0.782   1.913   7.140  0.7308  0.1618  0.0671
 1130SOL    HW115023   0.695   1.891   7.174  0.8825 -2.0039 -0.9585
 1130SOL    HW215024   0.801   1.832   7.092  1.3000 -0.9483  2.1916
 1131SOL     OW15025   4.703   3.042   8.979 -0.5620 -0.0057  0.0502
 1131SOL    HW115026   4.621   2.994   8.968 -0.1361 -1.0137  1.2020
 1131SOL    HW215027   0.025   2.970   8.997 -0.1595  0.2500 -0.2638
 1132SOL     OW15028   3.672   1.385   2.970 -0.7636  0.4764  0.5135
 1132SOL    HW115029   3.731   1.335   2.915 -0.4783  0.4797  0.8190
 1132SOL    HW215030   3.589   1.387   2.922 -0.7684 -3.3123  0.3801
 1133SOL     OW15031   0.564   0.584   2.635  0.2424 -0.2959  0.6476
 1133SOL    HW115032   0.575   0.578   2.730 -1.3470 -1.0353  0.7846
 1133SOL    HW215033   0.470   0.599   2.639  0.1169 -0.8244 -0.4851
 1134SOL     OW15034   2.697   3.282   9.577 -0.0210  0.0049  0.1399
 1134SOL    HW115035   2.752   3.280   9.655  0.2510 -0.3964 -0.0619
 1134SOL    HW215036   2.662   3.370   9.591  3.3195  1.7133 -2.2193
 1135SOL     OW15037   1.930   2.018  13.052  0.0727 -0.3660  0.0068
 1135SOL    HW115038   1.917   1.963  12.975 -0.6731 -1.8683  1.1898
 1135SOL    HW215039   1.854   2.074  13.043  0.2935 -0.0253  0.2612
 1136SOL     OW15040   3.538   4.090  17.377  0.1053  0.0902 -0.2391
 1136SOL    HW115041   3.512   4.102  17.468  2.1378 -1.1425  0.5160
 1136SOL    HW215042   3.452   4.098  17.338  0.4519 -2.4025 -1.4924
 1137SOL     OW15043   1.372   3.855   5.350  0.1886 -0.1200 -0.4399
 1137SOL    HW115044   1.452   3.887   5.306  0.8948 -0.4845  0.5858
 1137SOL    HW215045   1.388   3.761   5.350  0.4711 -0.0718  0.0415
 1138SOL     OW15046   2.022   0.534   2.815 -0.3490 -0.0054 -0.2007
 1138SOL    HW115047   2.054   0.576   2.734  1.2043 -1.8871 -0.5677
 1138SOL    HW215048   2.095   0.473   2.828 -0.2753 -0.2068 -1.5721
 1139SOL     OW15049   1.739   1.308   5.771  0.3214 -0.5402  0.5561
 1139SOL    HW115050   1.757   1.297   5.865 -0.0887 -1.6654  0.5013
 1139SOL    HW215051   1.825   1.341   5.743 -0.2689 -0.5898 -1.2709
 1140SOL     OW15052   4.240   1.696   4.048 -0.0688  0.1197  0.0952
 1140SOL    HW115053   4.194   1.635   4.106 -0.8914 -0.9538 -1.6786
 1140SOL    HW215054   4.172   1.760   4.032 -1.4989 -1.3630  0.2747
 1141SOL     OW15055   2.822   3.891   3.339  0.3680 -0.5577 -0.0656
 1141SOL    HW115056   2.745   3.836   3.355 -1.3722  1.3043 -1.9635
 1141SOL    HW215057   2.857   3.838   3.268  2.1575  3.0326 -1.8710
 1142SOL     OW15058   2.694   3.816   2.078 -0.1028  0.0101  0.3073
 1142SOL    HW115059   2.758   3.746   2.062 -1.4715 -1.4794  1.3306
 1142SOL    HW215060   2.695   3.853   1.989 -0.2800 -0.2332  0.2038
 1143SOL     OW15061   4.294   4.034  17.720  0.1755  0.3412 -0.8143
 1143SOL    HW115062   4.352   4.056  17.647  1.4088 -0.9869 -0.2018
 1143SOL    HW215063   4.354   4.049   0.042  0.7048  0.0540 -1.1941
 1144SOL     OW15064   4.424   3.618  15.244  0.0018  0.8864 -0.2840
 1144SOL    HW115065   4.371   3.697  15.234 -1.0970  0.4743  2.2791
 1144SOL    HW215066   4.360   3.552  15.217 -0.3226  1.6574 -1.3927
 1145SOL     OW15067   2.940   2.374   8.903  0.2921  0.4151  0.6622
 1145SOL    HW115068   2.904   2.368   8.815  0.9084  0.7150  0.3873
 1145SOL    HW215069   3.032   2.394   8.886  0.4685 -1.8968 -1.0416
 1146SOL     OW15070   4.175   0.305   5.529 -0.0405  0.5597  0.3540
 1146SOL    HW115071   4.084   0.310   5.555  0.1515  1.7407  0.7796
 1146SOL    HW215072   4.195   0.221   5.569  0.8615  0.8712  0.5663
 1147SOL     OW15073   3.256   0.006   2.136  0.3308 -0.3675 -0.1951
 1147SOL    HW115074   3.296   0.087   2.103  0.8775 -0.1518  1.0015
 1147SOL    HW215075   3.268   0.022   2.229  0.3291 -1.8955  0.0577
 1148SOL     OW15076   4.646   2.467  11.677  0.5697 -0.0077  0.1104
 1148SOL    HW115077   4.643   2.538  11.741  0.3835 -0.8750  1.0617
 1148SOL    HW215078   0.001   2.453  11.661  0.4608  1.5210 -1.8078
 1149SOL     OW15079   4.510   1.480   5.822  0.5515  0.1842  0.2901
 1149SOL    HW115080   4.594   1.518   5.849 -0.8377  2.6571  1.1588
 1149SOL    HW215081   4.488   1.531   5.744 -0.0108 -0.7244 -0.1463
 1150SOL     OW15082   4.226   0.246   8.471 -0.5586  0.1274  0.4521
 1150SOL    HW115083   4.219   0.300   8.393  1.0722 -0.9212 -0.4385
 1150SOL    HW215084   4.186   0.169   8.430 -1.8795  0.6380  0.7909
 1151SOL     OW15085   3.153   1.664   8.098 -0.1035 -0.0520  0.6116
 1151SOL    HW115086   3.137   1.613   8.019 -0.4444  0.7174  0.1820
 1151SOL    HW215087   3.161   1.587   8.154  0.5511  0.1693  0.8142
 1152SOL     OW15088   3.934   4.578  10.348  0.1914  0.2226  0.4800
 1152SOL    HW115089   3.969   4.638  10.415  1.3684  1.2433 -1.0509
 1152SOL    HW215090   3.855   4.552  10.396 -0.3249  0.4689 -0.2500
 1153SOL     OW15091   2.506   0.320   9.136 -0.3922 -0.2268  0.2185
 1153SOL    HW115092   2.424   0.312   9.087 -1.1192 -0.5045  1.4979
 1153SOL    HW215093   2.475   0.384   9.200 -0.5407  1.4302 -1.5007
 1154SOL     OW15094   4.146   2.793   0.038 -0.7082 -0.1373  0.3300
 1154SOL    HW115095   4.079   2.746   0.085  0.4732 -0.7412  1.4082
 1154SOL    HW215096   4.206   2.796   0.112 -0.4629 -0.8569  0.1581
 1155SOL     OW15097   4.583   1.182  10.638 -0.0528 -0.0187  0.1745
 1155SOL    HW115098   4.675   1.158  10.632 -0.4693 -1.9309  1.5577
 1155SOL    HW215099   4.546   1.102  10.673 -1.5612  0.2694 -0.7537
 1156SOL     OW15100   3.234   2.245   8.317  0.2697  0.6616  0.3719
 1156SOL    HW115101   3.300   2.175   8.316 -1.3140 -0.8226  0.2691
 1156SOL    HW215102   3.182   2.219   8.241 -0.3988  1.4478  0.5634
 1157SOL     OW15103   0.190   0.847   6.740 -0.4954  0.0750  0.0624
 1157SOL    HW115104   0.212   0.803   6.822 -0.0643  1.5910  0.7595
 1157SOL    HW215105   0.261   0.823   6.681  0.4139 -2.3639  2.1684
 1158SOL     OW15106   3.836   3.351  16.567  0.6937  0.0066  0.5153
 1158SOL    HW115107   3.916   3.366  16.516  0.1459  1.2639  0.0047
 1158SOL    HW215108   3.864   3.346  16.658 -1.9065 -1.8596  1.1964
 1159SOL     OW15109   0.219   0.721   9.168 -0.9212 -0.7240  0.3508
 1159SOL    HW115110   0.249   0.812   9.162  0.9179 -1.1634  2.8710
 1159SOL    HW215111   0.187   0.710   9.257 -0.7166 -2.5312  0.1957
 1160SOL     OW15112   0.650   4.387   9.479  0.6928 -0.3094 -0.1772
 1160SOL    HW115113   0.614   4.364   9.393  1.9755 -1.9904 -0.2589
 1160SOL    HW215114   0.589   4.344   9.540  0.7490  0.4118  0.3847
 1161SOL     OW15115   2.457   1.831  17.394 -0.2524 -0.3330 -0.2095
 1161SOL    HW115116   2.440   1.779  17.315  0.6462  1.0237 -1.2827
 1161SOL    HW215117   2.474   1.912  17.346 -0.1580 -0.9532 -1.2129
 1162SOL     OW15118   0.658   3.563   6.053 -0.4561 -0.5209  0.5695
 1162SOL    HW115119   0.590   3.626   6.076 -1.8958 -1.8010 -0.1634
 1162SOL    HW215120   0.613   3.511   5.987  1.5608  0.3269 -1.4627
 1163SOL     OW15121   1.092   1.715   3.696 -0.0500 -0.0604 -0.6883
 1163SOL    HW115122   0.999   1.714   3.671  0.2207  2.7248 -1.9059
 1163SOL    HW215123   1.104   1.810   3.684  0.0677 -0.1242 -1.0923
 1164SOL     OW15124   4.554   2.835   4.444 -0.0139  0.3693  0.4870
 1164SOL    HW115125   4.524   2.833   4.535  0.0792 -1.1775  0.4899
 1164SOL    HW215126   4.631   2.778   4.454  0.1542  0.2349 -1.5231
 1165SOL     OW15127   2.286   3.453   5.498  0.1355 -0.3304 -0.1041
 1165SOL    HW115128   2.271   3.469   5.405  0.0229 -0.0065 -0.0293
 1165SOL    HW215129   2.205   3.410   5.526 -0.2546 -0.0198 -0.7762
 1166SOL     OW15130   2.080   3.670   9.141  0.2777  0.7653 -0.4703
 1166SOL    HW115131   2.065   3.581   9.171 -1.2173  1.2647  0.2933
 1166SOL    HW215132   2.153   3.659   9.080  0.7453  3.1300 -0.3548
 1167SOL     OW15133   2.227   3.423  14.183  0.0587 -0.2335  0.0664
 1167SOL    HW115134   2.203   3.478  14.108 -0.5708 -1.0611 -0.3344
 1167SOL    HW215135   2.305   3.379  14.149 -1.1219 -1.5784 -0.8693
 1168SOL     OW15136   1.811   1.329  16.682 -0.6299  0.1153  0.5685
 1168SOL    HW115137   1.836   1.417  16.654 -0.5818 -0.0396  0.1335
 1168SOL    HW215138   1.855   1.324  16.767  0.4539 -0.5127 -0.0329
 1169SOL     OW15139   3.940   4.488  11.594  0.2480 -0.4885  0.4416
 1169SOL    HW115140   3.918   4.537  11.515 -0.1863 -1.5043 -0.0620
 1169SOL    HW215141   4.006   4.546  11.632  1.5973 -2.2333  0.7511
 1170SOL     OW15142   1.462   3.189   9.086  0.5083  0.3005 -0.5082
 1170SOL    HW115143   1.367   3.196   9.076  0.3014  0.0391  1.2724
 1170SOL    HW215144   1.485   3.110   9.037  0.9484  0.8053 -1.1148
 1171SOL     OW15145   3.108   2.530   1.027  0.0540  0.0265  0.2569
 1171SOL    HW115146   3.018   2.531   0.993  1.1033 -0.5410 -2.5584
 1171SOL    HW215147   3.117   2.613   1.074  0.7824 -1.1553  2.1711
 1172SOL     OW15148   2.580   0.530  12.270 -0.3266  0.1542  0.4233
 1172SOL    HW115149   2.503   0.507  12.218 -0.3928 -2.5378  1.7282
 1172SOL    HW215150   2.592   0.624  12.254  2.8862 -0.2911  0.2231
 1173SOL     OW15151   4.187   1.332   2.690  0.3822 -0.0642  0.4185
 1173SOL    HW115152   4.128   1.398   2.727  1.0021  0.7382 -0.0013
 1173SOL    HW215153   4.257   1.387   2.653  0.2132  0.5417  0.9978
 1174SOL     OW15154   3.435   3.316   6.458  0.2237  0.1280  0.0835
 1174SOL    HW115155   3.404   3.303   6.369  0.8412 -1.0883  0.0371
 1174SOL    HW215156   3.529   3.310   6.443  0.4990 -1.6471  2.4135
 1175SOL     OW15157   2.648   2.177   2.870  0.1782 -0.3591  0.2189
 1175SOL    HW115158   2.568   2.136   2.905 -1.4099 -0.1993 -3.2487
 1175SOL    HW215159   2.698   2.194   2.950  1.1805  0.9366 -0.6930
 1176SOL     OW15160   2.790   4.589  14.795 -0.2087  0.5115  0.8849
 1176SOL    HW115161   2.714   4.544  14.831 -0.2364 -0.1443  0.0034
 1176SOL    HW215162   2.755   4.678  14.790  0.9990  0.8452 -2.1266
 1177SOL     OW15163   3.407   2.228   4.084 -0.0786  0.2073 -0.0127
 1177SOL    HW115164   3.448   2.152   4.043  1.0532  0.2517  1.0683
 1177SOL    HW215165   3.418   2.287   4.010  0.8684  1.7786  1.4100
 1178SOL     OW15166   3.482   0.565  16.863 -0.1425 -0.0713  0.1479
 1178SOL    HW115167   3.508   0.651  16.830 -0.6428 -0.0236 -0.1092
 1178SOL    HW215168   3.388   0.568  16.846 -0.6217  0.1703  2.9357
 1179SOL     OW15169   1.764   0.237   0.352  0.3850 -0.2321 -0.1067
 1179SOL    HW115170   1.733   0.178   0.284  1.4928 -0.1603 -0.6757
 1179SOL    HW215171   1.755   0.317   0.300  0.9083 -0.2980 -0.2919
 1180SOL     OW15172   2.997   1.457  10.958 -0.1163  0.1311 -0.7503
 1180SOL    HW115173   2.982   1.463  11.052 -0.2625 -2.0038 -0.6276
 1180SOL    HW215174   3.035   1.544  10.950  0.7182 -0.1080  0.5241
 1181SOL     OW15175   2.616   3.630   7.905 -0.5062 -0.4803  0.3364
 1181SOL    HW115176   2.557   3.563   7.870 -2.9206  2.0506 -0.3750
 1181SOL    HW215177   2.643   3.589   7.987  1.8265 -1.6001 -0.9875
 1182SOL     OW15178   4.735   0.772   5.215 -0.6005 -0.0846 -0.0236
 1182SOL    HW115179   0.026   0.754   5.126 -1.1557  0.2882 -0.2846
 1182SOL    HW215180   4.669   0.707   5.238 -2.5542  2.2896  1.1637
 1183SOL     OW15181   3.804   1.659   2.316  0.0061 -0.0211 -0.3640
 1183SOL    HW115182   3.792   1.591   2.250  0.5678  0.5084 -1.0102
 1183SOL    HW215183   3.899   1.669   2.320  0.1752 -0.9320 -2.2465
 1184SOL     OW15184   4.587   2.407  17.711 -0.2766 -0.2888  0.7855
 1184SOL    HW115185   4.539   2.334  17.671  0.4108  0.1843 -0.9108
 1184SOL    HW215186   4.524   2.437   0.025  0.4843 -0.3708  1.5599
 1185SOL     OW15187   2.832   1.597   4.750 -0.5466  0.4170  0.0609
 1185SOL    HW115188   2.855   1.511   4.784 -1.4756 -0.2728 -1.0272
 1185SOL    HW215189   2.899   1.648   4.796 -0.0833 -0.3781  0.2680
 1186SOL     OW15190   2.320   4.586   3.819  0.2898  0.0868  0.1626
 1186SOL    HW115191   2.412   4.602   3.840  0.6059 -0.1393 -1.0913
 1186SOL    HW215192   2.321   4.492   3.802 -4.3232 -0.2569  1.7002
 1187SOL     OW15193   1.005   3.003   7.780  0.5266 -0.3493 -0.2769
 1187SOL    HW115194   1.091   3.028   7.813  0.2402  0.4898 -0.1698
 1187SOL    HW215195   0.953   2.969   7.853  1.4590  2.0707  1.5051
 1188SOL     OW15196   2.399   1.261   8.790  0.2954  0.1925 -0.3369
 1188SOL    HW115197   2.447   1.191   8.835 -0.1437 -0.3789 -0.7592
 1188SOL    HW215198   2.335   1.289   8.856  0.1927  0.0628 -0.3806
 1189SOL     OW15199   1.805   3.250   4.821  0.2110  0.2451 -0.0686
 1189SOL    HW115200   1.841   3.164   4.842  0.6040  0.6626  1.0159
 1189SOL    HW215201   1.796   3.235   4.727  1.5812  0.5469 -0.2531
 1190SOL     OW15202   1.687   3.283   1.936 -0.0876 -0.1652  0.1871
 1190SOL    HW115203   1.681   3.285   1.840 -0.5144  1.7976  0.2428
 1190SOL    HW215204   1.596   3.263   1.958  0.1961 -0.0636  1.4203
 1191SOL     OW15205   4.038   4.076  13.114 -0.1723  0.2170 -0.3104
 1191SOL    HW115206   4.128   4.053  13.090 -0.5737 -0.2148 -1.4113
 1191SOL    HW215207   3.991   3.998  13.083 -0.8908  1.5231 -2.4610
 1192SOL     OW15208   2.913   2.865   6.677 -0.0825 -0.0531  0.3355
 1192SOL    HW115209   2.959   2.803   6.620  1.9349  2.4217 -0.6964
 1192SOL    HW215210   2.926   2.937   6.616  1.3515  0.2791  1.0271
 1193SOL     OW15211   1.002   3.057   4.494  0.0547  0.3782  0.4582
 1193SOL    HW115212   1.031   2.994   4.428  0.6981  2.7360 -1.5151
 1193SOL    HW215213   0.927   3.008   4.525  1.3842 -1.5289  0.6480
 1194SOL     OW15214   2.750   4.505   8.898  0.9646 -0.3823  0.0336
 1194SOL    HW115215   2.773   4.465   8.982  0.1001  3.2267  2.0057
 1194SOL    HW215216   2.796   4.589   8.906  0.6330 -0.1733 -0.2616
 1195SOL     OW15217   0.334   3.272   2.778 -0.1836  0.5810  0.3028
 1195SOL    HW115218   0.394   3.251   2.849 -1.6191 -0.4150  1.2300
 1195SOL    HW215219   0.285   3.192   2.760  0.5323  0.0738  0.6219
 1196SOL     OW15220   1.945   2.071   0.072  0.3063  0.2683 -0.6709
 1196SOL    HW115221   1.965   2.056  17.730  1.4393  1.4072 -0.6146
 1196SOL    HW215222   1.850   2.067   0.072  0.2786  1.1008  0.9333
 1197SOL     OW15223   4.006   1.178   9.459  0.4814  0.7272  0.2266
 1197SOL    HW115224   3.964   1.110   9.407  1.3303  1.2719 -1.1860
 1197SOL    HW215225   3.933   1.218   9.505 -0.9561 -1.8952  0.2359
 1198SOL     OW15226   3.026   1.290   2.649 -0.2950  0.1951  0.1628
 1198SOL    HW115227   3.065   1.289   2.562 -2.1930 -1.1099 -0.6593
 1198SOL    HW215228   2.942   1.333   2.637 -0.6551 -0.3433  0.7690
 1199SOL     OW15229   1.587   2.012   0.326 -0.5762 -0.0663 -0.1990
 1199SOL    HW115230   1.670   2.052   0.351 -1.2482  1.2296 -0.0717
 1199SOL    HW215231   1.580   2.059   0.244 -0.0641 -1.3790 -1.0018
 1200SOL     OW15232   4.487   4.170  15.653 -0.2028  0.4499 -1.2455
 1200SOL    HW115233   4.527   4.199  15.571  1.3216  0.4298 -0.5058
 1200SOL    HW215234   4.421   4.112  15.615 -1.0669  0.4823  0.1830
 1201SOL     OW15235   0.875   3.806   4.933 -0.1104 -0.2013 -0.6964
 1201SOL    HW115236   0.876   3.808   4.837  3.5140  1.3871 -0.6358
 1201SOL    HW215237   0.861   3.713   4.947 -0.7943  0.0094 -0.0006
 1202SOL     OW15238   2.012   3.599   5.151 -0.2149 -0.5308 -0.3471
 1202SOL    HW115239   1.958   3.588   5.229 -3.1794  0.5113 -2.2316
 1202SOL    HW215240   1.975   3.530   5.096  0.9680 -1.7528  0.3959
 1203SOL     OW15241   2.214   3.329   5.986  0.7450 -0.6966  0.3996
 1203SOL    HW115242   2.207   3.235   6.000 -1.6876 -0.3076  1.9742
 1203SOL    HW215243   2.287   3.341   6.047  0.2317  1.8099  0.5151
 1204SOL     OW15244   3.433   2.421   8.306  0.1598 -0.0729  0.0641
 1204SOL    HW115245   3.361   2.359   8.326 -0.3638  0.3542 -0.5117
 1204SOL    HW215246   3.473   2.366   8.239  0.9182 -2.9888  2.8950
 1205SOL     OW15247   0.090   0.622   8.953  0.2623 -0.4029 -0.8329
 1205SOL    HW115248   0.126   0.538   8.923 -2.8806 -1.9081 -0.4802
 1205SOL    HW215249   0.162   0.647   9.010 -0.4777 -0.4004  0.0973
 1206SOL     OW15250   2.390   2.841   2.135 -0.8541  0.2916 -0.0086
 1206SOL    HW115251   2.328   2.773   2.106  0.7579 -0.1335 -2.4501
 1206SOL    HW215252   2.382   2.815   2.227 -0.7775 -0.8952 -0.3279
 1207SOL     OW15253   1.727   3.706   4.952 -0.1825  0.1399  0.3379
 1207SOL    HW115254   1.816   3.712   4.918  0.1164  0.6773  1.2321
 1207SOL    HW215255   1.689   3.655   4.880 -0.4240 -0.0195  0.5754
 1208SOL     OW15256   4.454   0.207  16.205 -0.1279 -0.0292  0.1422
 1208SOL    HW115257   4.400   0.134  16.235  1.1242 -1.0894 -0.1828
 1208SOL    HW215258   4.535   0.189  16.253 -0.6929  0.0744  1.1341
 1209SOL     OW15259   3.367   3.777   9.859 -0.4820  0.0482  0.1888
 1209SOL    HW115260   3.302   3.842   9.883 -1.7702 -0.0951 -2.9072
 1209SOL    HW215261   3.325   3.695   9.885 -0.1896  0.2260  1.2407
 1210SOL     OW15262   0.117   4.467  12.375  0.5899  0.0160  0.1585
 1210SOL    HW115263   0.123   4.391  12.318  1.8905  0.5546 -0.4186
 1210SOL    HW215264   0.206   4.501  12.363  0.1295  1.7602  1.6682
 1211SOL     OW15265   2.977   0.818  16.908 -0.2255  0.3532  0.4005
 1211SOL    HW115266   3.066   0.830  16.876 -0.4269  1.6291  0.3081
 1211SOL    HW215267   2.931   0.809  16.825  0.2090  2.2261 -0.0272
 1212SOL     OW15268   2.602   4.628  14.527 -0.5417 -0.1347  0.5965
 1212SOL    HW115269   2.694   4.615  14.503 -0.2210  0.4670  1.5131
 1212SOL    HW215270   2.562   4.614  14.441 -1.2990  1.6306  0.6636
 1213SOL     OW15271   0.292   3.414   7.314  0.3142 -0.1017  0.1303
 1213SOL    HW115272   0.200   3.389   7.314  0.2985 -0.0353  0.7183
 1213SOL    HW215273   0.319   3.405   7.223 -0.9075 -1.9472 -0.0476
 1214SOL     OW15274   1.415   2.928   4.018 -0.3607  0.0628 -0.1955
 1214SOL    HW115275   1.370   2.982   3.953 -0.2283  0.0510 -0.2967
 1214SOL    HW215276   1.500   2.913   3.975  0.4573 -0.1144  1.4791
 1215SOL     OW15277   1.444   3.481  12.756  0.1703  0.0341 -0.0675
 1215SOL    HW115278   1.446   3.575  12.739 -1.1086 -0.3367 -2.3257
 1215SOL    HW215279   1.534   3.450  12.767  0.3052  0.3314 -0.3318
 1216SOL     OW15280   2.448   0.195   2.743  0.0236 -0.7607 -0.2778
 1216SOL    HW115281   2.468   0.116   2.793  0.8093  0.5474  1.4236
 1216SOL    HW215282   2.530   0.208   2.695 -1.2133 -0.5310 -2.3267
 1217SOL     OW15283   3.955   2.023   2.872 -0.2587 -0.3934  0.2102
 1217SOL    HW115284   3.900   1.970   2.814 -1.7381  1.1244  0.2123
 1217SOL    HW215285   4.003   2.070   2.804 -1.9200  2.7446  1.2005
 1218SOL     OW15286   1.268   3.876   5.617  0.2359  0.4973 -0.1228
 1218SOL    HW115287   1.218   3.802   5.652 -0.8697  0.8891 -0.8681
 1218SOL    HW215288   1.297   3.854   5.528  0.5142  0.4328 -0.0152
 1219SOL     OW15289   1.954   1.420   5.696  0.5163  0.0866  0.5906
 1219SOL    HW115290   2.021   1.353   5.681  0.9652  0.8318 -0.7925
 1219SOL    HW215291   1.977   1.468   5.616  3.5488  1.6362  2.3824
 1220SOL     OW15292   4.008   3.661   3.391  0.6351  0.4447  0.0698
 1220SOL    HW115293   4.068   3.714   3.338  1.1295 -0.9503 -0.7769
 1220SOL    HW215294   4.055   3.669   3.474 -0.7191  0.8173  0.8042
 1221SOL     OW15295   0.141   0.321   4.169  0.0946 -0.0154  0.6183
 1221SOL    HW115296   0.228   0.315   4.208  0.8786  1.8735 -0.8352
 1221SOL    HW215297   0.119   0.235   4.133 -1.6977 -0.1387  2.0284
 1222SOL     OW15298   3.634   3.824   1.420 -0.3079 -0.3356 -0.2832
 1222SOL    HW115299   3.592   3.742   1.393  1.0831 -0.9312 -0.6437
 1222SOL    HW215300   3.572   3.861   1.482  0.0903  0.7374 -0.5218
 1223SOL     OW15301   0.249   2.356   8.303  0.0960  0.0759  0.4451
 1223SOL    HW115302   0.317   2.289   8.315 -1.3293 -1.7001 -1.4151
 1223SOL    HW215303   0.179   2.297   8.275 -0.7883  0.8595  1.0529
 1224SOL     OW15304   3.289   1.035   1.427 -0.4159  0.4387  0.8085
 1224SOL    HW115305   3.361   0.984   1.463  0.9423 -0.1602 -2.7578
 1224SOL    HW215306   3.256   1.076   1.507 -1.9592 -2.2638  1.5338
 1225SOL     OW15307   2.880   2.005   4.755  0.2039  0.4019  0.4542
 1225SOL    HW115308   2.965   2.049   4.761  1.3182 -1.3539 -3.2436
 1225SOL    HW215309   2.905   1.951   4.681 -2.3150 -0.0481 -0.0727
 1226SOL     OW15310   1.094   3.378   7.808  0.1251 -0.0068  0.1603
 1226SOL    HW115311   1.176   3.428   7.805  0.4891 -0.6939 -1.2977
 1226SOL    HW215312   1.091   3.330   7.725  0.9388  1.0474 -0.4678
 1227SOL     OW15313   3.341   3.321   6.997 -0.1851 -0.2119 -0.1976
 1227SOL    HW115314   3.250   3.331   6.969  0.2202  4.6706  0.1910
 1227SOL    HW215315   3.372   3.259   6.931  1.9568  0.0529  0.5612
 1228SOL     OW15316   1.915   0.711   6.528 -0.1487 -0.4402 -0.4891
 1228SOL    HW115317   1.964   0.643   6.574  1.5386  1.1628  0.0838
 1228SOL    HW215318   1.906   0.776   6.596  0.2750 -0.2594 -0.6052
 1229SOL     OW15319   0.480   3.036   8.211 -0.4616  0.0646 -0.6376
 1229SOL    HW115320   0.391   3.007   8.193 -0.2924 -0.0105 -1.3853
 1229SOL    HW215321   0.521   2.958   8.248  2.8220  1.9275 -0.3561
 1230SOL     OW15322   2.202   4.193   2.937  0.1514 -0.2335 -0.2576
 1230SOL    HW115323   2.117   4.236   2.936 -0.3579 -1.2451 -0.7614
 1230SOL    HW215324   2.208   4.172   3.030 -0.4032  3.5146  0.6280
 1231SOL     OW15325   3.647   3.118   3.211 -0.4161 -0.3735  0.4896
 1231SOL    HW115326   3.728   3.110   3.262  0.6792  1.0101 -1.0194
 1231SOL    HW215327   3.618   3.028   3.197 -0.4321 -0.4120  0.7739
 1232SOL     OW15328   3.219   3.344   4.267 -0.4672 -0.4910 -0.0160
 1232SOL    HW115329   3.193   3.401   4.194 -1.9811  0.1740  1.0481
 1232SOL    HW215330   3.198   3.394   4.346 -0.9868 -1.1562  0.2736
 1233SOL     OW15331   0.729   3.217  10.322 -0.2475  0.1891 -0.0380
 1233SOL    HW115332   0.711   3.246  10.411  0.0194 -0.5248  0.2534
 1233SOL    HW215333   0.692   3.129  10.325 -0.3587  0.2694  1.1279
 1234SOL     OW15334   1.422   2.956  13.784  0.0866 -0.0163  0.4157
 1234SOL    HW115335   1.441   2.862  13.788  0.2447  0.0140  0.3679
 1234SOL    HW215336   1.406   2.986  13.873 -0.1317 -1.3188  0.8089
 1235SOL     OW15337   1.914   4.090   6.717 -0.0687 -0.4000  0.2106
 1235SOL    HW115338   1.885   4.145   6.644  2.0952 -2.3758 -2.1329
 1235SOL    HW215339   1.833   4.065   6.763 -0.2235  1.0890  0.7505
 1236SOL     OW15340   3.616   3.192   8.222 -0.1247  0.0323 -1.0406
 1236SOL    HW115341   3.650   3.271   8.180 -2.2888  0.4700 -1.9941
 1236SOL    HW215342   3.532   3.228   8.252  0.4243 -0.6760  1.3430
 1237SOL     OW15343   3.700   0.045   5.418  0.1046 -0.1146 -0.1571
 1237SOL    HW115344   3.681   4.699   5.375  0.0056 -0.5879  0.8148
 1237SOL    HW215345   3.721   0.007   5.503  0.9516  1.0550  0.1441
 1238SOL     OW15346   0.829   4.262   6.793  0.5006 -0.0011 -0.5393
 1238SOL    HW115347   0.894   4.230   6.855  0.6035  0.7541 -0.2520
 1238SOL    HW215348   0.836   4.192   6.729  0.8621  0.0797 -0.5867
 1239SOL     OW15349   0.261   0.611  15.139 -1.2243 -0.2336  0.3767
 1239SOL    HW115350   0.355   0.620  15.153 -1.3499 -1.0886  1.8352
 1239SOL    HW215351   0.263   0.529  15.089  1.1330  0.3812 -0.4979
 1240SOL     OW15352   3.983   1.069   4.188 -0.3141  0.4370 -0.2672
 1240SOL    HW115353   3.900   1.032   4.217 -1.3107  3.7226  1.1641
 1240SOL    HW215354   4.024   1.088   4.273 -0.1421  2.1272 -0.7233
 1241SOL     OW15355   3.575   2.865   3.111 -0.1089 -0.2692 -0.0987
 1241SOL    HW115356   3.611   2.777   3.121 -2.4032 -1.3891 -1.5845
 1241SOL    HW215357   3.553   2.871   3.018  1.8676 -1.0483 -0.6237
 1242SOL     OW15358   1.029   3.418   1.079  0.1123  0.3913  0.0203
 1242SOL    HW115359   0.952   3.435   1.025 -0.0177  1.8279  0.6484
 1242SOL    HW215360   1.088   3.399   1.006  3.4410 -2.4850  3.4809
 1243SOL     OW15361   1.690   0.047   1.922 -0.0476 -0.4555  0.2771
 1243SOL    HW115362   1.599   0.069   1.941 -0.6107 -0.3945 -2.5041
 1243SOL    HW215363   1.712   4.734   2.000 -0.9068 -0.8176  0.2803
 1244SOL     OW15364   4.637   2.615  11.945 -0.1815 -0.4784 -0.6625
 1244SOL    HW115365   4.573   2.600  12.015  1.2102 -0.5228  0.6072
 1244SOL    HW215366   4.690   2.689  11.976  1.2322 -2.4854  1.8096
 1245SOL     OW15367   3.152   4.044   2.896  0.0361 -0.4813 -0.3833
 1245SOL    HW115368   3.141   4.139   2.903 -0.1638 -0.5483  0.2300
 1245SOL    HW215369   3.220   4.036   2.829  1.2373  0.7064  0.6806
 1246SOL     OW15370   2.183   3.046  11.779 -0.2911  0.0832 -0.4464
 1246SOL    HW115371   2.240   2.969  11.779 -0.0008  0.3065 -2.5710
 1246SOL    HW215372   2.098   3.005  11.792  1.2713 -3.2247 -0.4920
 1247SOL     OW15373   0.088   1.179   8.008  0.3401 -0.2062 -0.6152
 1247SOL    HW115374   0.012   1.131   7.976  0.2538 -0.6300  0.2298
 1247SOL    HW215375   0.056   1.269   8.015  0.0600 -0.3343 -0.2740
 1248SOL     OW15376   0.317   3.206   5.385  0.5208 -0.0610  0.4828
 1248SOL    HW115377   0.397   3.162   5.357  0.7652  1.5214 -1.3402
 1248SOL    HW215378   0.334   3.299   5.370  2.0275 -0.7150 -1.7956
 1249SOL     OW15379   3.627   2.218   7.022  0.4065 -0.3734 -0.5788
 1249SOL    HW115380   3.594   2.201   6.934 -0.3048  0.3773 -0.4547
 1249SOL    HW215381   3.717   2.195   6.999  0.7215  1.3873 -1.0990
 1250SOL     OW15382   2.275   2.268   5.161 -0.0405  0.5656 -0.3100
 1250SOL    HW115383   2.332   2.207   5.115  0.8500  1.0230  0.2022
 1250SOL    HW215384   2.319   2.263   5.245 -2.2094  1.3255  0.8844
 1251SOL     OW15385   2.079   4.057   2.243 -0.2094 -0.0627  0.1473
 1251SOL    HW115386   2.075   4.065   2.148 -0.7484  0.3242  0.2025
 1251SOL    HW215387   2.105   4.147   2.263 -1.1362  0.2246  0.0676
 1252SOL     OW15388   2.374   1.642   4.690 -0.8362  0.2926 -0.7526
 1252SOL    HW115389   2.391   1.549   4.672  1.9304  0.4308  1.1764
 1252SOL    HW215390   2.315   1.674   4.622 -2.1836  2.9437  1.6736
 1253SOL     OW15391   4.591   1.483   6.864  0.2318 -0.1216 -0.3608
 1253SOL    HW115392   4.634   1.469   6.780  0.4442 -0.6946 -0.1568
 1253SOL    HW215393   4.607   1.405   6.917  1.0577  0.0078 -0.4126
 1254SOL     OW15394   3.470   0.160   6.625 -0.4218 -0.1207 -0.9513
 1254SOL    HW115395   3.553   0.200   6.650 -1.4166  0.0456  2.0636
 1254SOL    HW215396   3.426   0.231   6.579  1.7576  1.4562 -0.5829
 1255SOL     OW15397   0.286   1.299  10.697 -0.0152 -0.0436  0.5575
 1255SOL    HW115398   0.347   1.325  10.628 -1.4496  0.1073 -0.6432
 1255SOL    HW215399   0.340   1.298  10.777  2.2388  0.6957 -0.9448
 1256SOL     OW15400   4.302   1.665  16.282 -0.4583  0.6653 -0.3040
 1256SOL    HW115401   4.291   1.714  16.201 -1.2205  1.4355  0.2617
 1256SOL    HW215402   4.279   1.577  16.251 -1.6681  1.1908 -0.8859
 1257SOL     OW15403   0.413   4.213   4.271  0.2314 -0.3150 -0.6791
 1257SOL    HW115404   0.432   4.298   4.311  0.4731 -1.6776  2.0709
 1257SOL    HW215405   0.317   4.215   4.272  0.2826  3.5676 -0.5124
 1258SOL     OW15406   2.390   2.931   3.320 -0.1158  0.0793 -0.0187
 1258SOL    HW115407   2.376   2.988   3.245 -0.5223  0.1497  0.1108
 1258SOL    HW215408   2.468   2.883   3.293 -1.4707 -3.0917  1.7348
 1259SOL     OW15409   4.437   3.138  12.610  0.8443 -0.1762 -0.1815
 1259SOL    HW115410   4.467   3.047  12.609 -0.0703 -0.4777 -0.2551
 1259SOL    HW215411   4.352   3.122  12.652  0.1710  0.2499 -1.3997
 1260SOL     OW15412   1.018   1.194  11.923  0.2793  0.4031 -0.0019
 1260SOL    HW115413   1.075   1.271  11.920 -2.3813  2.3499 -0.5843
 1260SOL    HW215414   1.069   1.147  11.990 -0.6852 -0.5048  0.0963
 1261SOL     OW15415   2.977   4.647   5.976 -0.2131 -0.3242 -0.5917
 1261SOL    HW115416   2.984   4.559   5.939  1.5846  0.2302 -1.6081
 1261SOL    HW215417   2.922   4.634   6.053  0.7354 -3.1120 -0.3977
 1262SOL     OW15418   4.429   1.477   7.893  0.8354 -0.1025  0.4266
 1262SOL    HW115419   4.419   1.565   7.930  1.9041  1.0323 -1.9587
 1262SOL    HW215420   4.349   1.430   7.917  0.1998  0.3660 -0.7812
 1263SOL     OW15421   2.729   1.079   5.196 -0.0988 -0.0755  0.4148
 1263SOL    HW115422   2.753   0.986   5.192  1.8344  0.4486 -0.0481
 1263SOL    HW215423   2.727   1.085   5.292  0.3533  3.0048  0.2183
 1264SOL     OW15424   2.431   1.182   6.361  0.3063  0.0332 -0.0173
 1264SOL    HW115425   2.501   1.125   6.328  0.9728  0.1767  1.1593
 1264SOL    HW215426   2.387   1.116   6.414  2.1834 -1.1224  0.0881
 1265SOL     OW15427   4.340   3.072   9.807 -0.1028 -0.2223 -0.1203
 1265SOL    HW115428   4.393   3.006   9.763 -0.8808 -0.1750 -1.1316
 1265SOL    HW215429   4.400   3.137   9.843 -1.4682 -0.0932  1.9449
 1266SOL     OW15430   2.616   3.261   7.028 -0.4486 -0.2487 -0.3574
 1266SOL    HW115431   2.617   3.170   7.002  1.1791 -0.8730  1.8597
 1266SOL    HW215432   2.585   3.300   6.947 -1.2031 -1.2855 -0.5549
 1267SOL     OW15433   2.107   4.338   2.336 -0.3424 -0.4108 -0.1725
 1267SOL    HW115434   2.125   4.425   2.372  2.3238 -2.2099  2.9872
 1267SOL    HW215435   2.197   4.328   2.304 -0.6889 -0.3236 -1.1465
 1268SOL     OW15436   2.166   4.171   6.283 -0.5578  0.1182 -0.0546
 1268SOL    HW115437   2.110   4.095   6.271 -0.3056  0.0708 -0.9165
 1268SOL    HW215438   2.248   4.132   6.254  0.4841  2.6765 -0.5260
 1269SOL     OW15439   4.564   0.969   5.200 -0.0445 -0.1428 -0.2668
 1269SOL    HW115440   4.649   0.927   5.208 -0.3367 -0.2642  2.1241
 1269SOL    HW215441   4.506   0.894   5.209 -2.4284  1.8565  1.0044
 1270SOL     OW15442   4.721   1.493   9.889 -0.1965  0.0651  0.1138
 1270SOL    HW115443   4.716   1.500   9.984 -0.3505  0.8815  0.0446
 1270SOL    HW215444   4.680   1.408   9.871 -0.1978  0.4648 -1.7701
 1271SOL     OW15445   1.010   1.068   8.984 -0.1150 -0.5563 -0.2338
 1271SOL    HW115446   0.957   1.104   9.055  0.5983 -0.2262  0.1336
 1271SOL    HW215447   1.083   1.023   9.026  0.9621  0.5133 -0.9436
 1272SOL     OW15448   1.890   2.050   9.889 -0.1023  0.3669 -0.0910
 1272SOL    HW115449   1.848   2.093   9.964  1.7673 -0.7542  1.6083
 1272SOL    HW215450   1.915   2.121   9.830 -0.5616 -0.1841 -0.9565
 1273SOL     OW15451   2.617   2.947   9.009 -0.2001 -0.3414  0.3179
 1273SOL    HW115452   2.605   2.980   9.098  1.8161  2.2477 -0.3803
 1273SOL    HW215453   2.545   2.991   8.963 -1.5128 -2.8206  0.0118
 1274SOL     OW15454   4.023   4.225  17.447 -0.4992 -0.2480  1.4960
 1274SOL    HW115455   3.938   4.231  17.489 -2.3532  1.4026 -2.5169
 1274SOL    HW215456   4.009   4.141  17.403  1.0183 -0.1043  0.7411
 1275SOL     OW15457   2.889   0.090  15.345  0.3362 -0.2224  0.4531
 1275SOL    HW115458   2.916   0.127  15.429  0.1200  0.6822  0.1212
 1275SOL    HW215459   2.955   0.128  15.287  0.5409  0.0542  0.8696
 1276SOL     OW15460   3.715   3.328   6.421 -0.5277  0.1118  0.3059
 1276SOL    HW115461   3.765   3.314   6.340 -2.9669  1.2002 -1.3858
 1276SOL    HW215462   3.723   3.423   6.416  0.5726  0.1201  2.4765
 1277SOL     OW15463   0.028   3.172   7.613  0.6682  0.2334 -0.1155
 1277SOL    HW115464   0.123   3.180   7.606  0.6639  0.8393  0.4999
 1277SOL    HW215465   4.737   3.251   7.567 -0.6304  0.0458  0.3862
 1278SOL     OW15466   0.667   0.592  11.592 -0.2013 -0.1241 -0.1495
 1278SOL    HW115467   0.584   0.548  11.611 -0.9054  0.4700 -1.8230
 1278SOL    HW215468   0.738   0.528  11.593  0.4734  0.6134 -0.1791
 1279SOL     OW15469   3.813   2.398   0.284 -0.4445 -0.0758 -0.1363
 1279SOL    HW115470   3.880   2.331   0.300  1.8963  2.3615  0.3001
 1279SOL    HW215471   3.762   2.382   0.363  0.3134  1.0750  0.5997
 1280SOL     OW15472   2.963   4.423   5.750 -0.3378  0.6843 -0.3953
 1280SOL    HW115473   2.894   4.447   5.687 -0.8212 -1.6190 -0.7646
 1280SOL    HW215474   3.039   4.420   5.692  1.7710 -0.3025  2.4083
 1281SOL     OW15475   1.079   1.778  10.789 -0.2350 -0.0067 -0.3456
 1281SOL    HW115476   1.050   1.868  10.805 -0.6525 -0.0372 -0.9298
 1281SOL    HW215477   1.083   1.781  10.693 -0.2104  0.6885 -0.3282
 1282SOL     OW15478   4.693   0.636   6.176  0.6181  0.5500  0.0593
 1282SOL    HW115479   4.679   0.703   6.242  0.0978 -0.5801  1.1097
 1282SOL    HW215480   4.714   0.558   6.229 -0.7836  1.3945  1.8651
 1283SOL     OW15481   3.797   1.661   2.708 -0.0747  0.2180 -0.0311
 1283SOL    HW115482   3.720   1.635   2.759  1.3516 -1.1989  1.4081
 1283SOL    HW215483   3.754   1.673   2.623 -1.3301 -0.3623  0.5247
 1284SOL     OW15484   3.227   2.484   5.895  0.4211  0.4087 -0.3169
 1284SOL    HW115485   3.159   2.534   5.852 -0.4750  0.0543  0.6929
 1284SOL    HW215486   3.300   2.489   5.833 -0.0438  0.4362 -0.8591
 1285SOL     OW15487   3.759   2.203   9.156 -0.0836  0.1129  0.3620
 1285SOL    HW115488   3.808   2.282   9.179  2.3162 -0.7627 -1.7743
 1285SOL    HW215489   3.809   2.147   9.217  1.5467  0.6426 -0.4870
 1286SOL     OW15490   4.322   4.129   2.062 -0.2524  0.5376 -0.7823
 1286SOL    HW115491   4.321   4.134   1.967  0.0210 -0.2948 -0.8363
 1286SOL    HW215492   4.290   4.040   2.080 -0.6562  1.0873  1.1603
 1287SOL     OW15493   1.326   3.938  11.299 -0.0165 -0.3768 -0.3966
 1287SOL    HW115494   1.410   3.947  11.254  0.6540  0.1566  0.9673
 1287SOL    HW215495   1.278   4.003  11.248  0.9505 -0.7529 -1.8062
 1288SOL     OW15496   4.298   3.944   5.484  0.3707 -0.2379 -0.5915
 1288SOL    HW115497   4.323   3.941   5.576  0.4291 -1.7754 -0.6581
 1288SOL    HW215498   4.355   3.879   5.442  3.7031  1.4655  1.3465
 1289SOL     OW15499   2.373   4.235   2.277  0.0318  0.7238  0.3615
 1289SOL    HW115500   2.422   4.154   2.262  0.2815  1.3148 -2.0211
 1289SOL    HW215501   2.417   4.280   2.348  0.3739 -1.7959  1.7378
 1290SOL     OW15502   0.006   4.302  13.891 -0.2994 -0.8256  0.3018
 1290SOL    HW115503   4.675   4.273  13.831  1.1325 -2.0339 -0.7691
 1290SOL    HW215504   4.683   4.348  13.949 -0.4481 -0.1679 -0.3711
 1291SOL     OW15505   4.521   2.548  10.720 -0.0943 -0.2529  0.1943
 1291SOL    HW115506   4.512   2.581  10.630  2.7171  1.2598  0.4634
 1291SOL    HW215507   4.436   2.571  10.759 -0.8717  0.0961 -1.7048
 1292SOL     OW15508   2.240   2.423   7.531 -0.1473 -0.9662  0.3099
 1292SOL    HW115509   2.212   2.347   7.480  2.3034 -1.3780 -0.4240
 1292SOL    HW215510   2.304   2.377   7.585  1.1731  1.0671  0.4605
 1293SOL     OW15511   0.212   1.213   0.233 -0.5371  0.1385  0.0923
 1293SOL    HW115512   0.305   1.192   0.227 -0.1623  1.6865  0.6286
 1293SOL    HW215513   0.219   1.292   0.285 -1.8787 -0.0700  0.5933
 1294SOL     OW15514   2.813   3.805   3.935 -0.4216 -0.1916 -0.2065
 1294SOL    HW115515   2.902   3.772   3.920 -0.4146 -0.3642  0.2166
 1294SOL    HW215516   2.834   3.896   3.914 -0.7897 -0.0591  0.0133
 1295SOL     OW15517   1.907   0.286  17.039 -0.4515 -0.0540  0.3641
 1295SOL    HW115518   1.889   0.301  17.132 -1.4652 -2.3607  0.5654
 1295SOL    HW215519   1.822   0.255  17.007  0.3273 -1.2067 -0.5940
 1296SOL     OW15520   3.281   2.375   7.889 -0.0143  0.1588  0.3859
 1296SOL    HW115521   3.364   2.378   7.935 -0.5860  0.7577  1.3885
 1296SOL    HW215522   3.229   2.439   7.938 -0.0174  0.8576 -0.5410
 1297SOL     OW15523   4.224   3.472   7.554  0.1568 -0.0637 -0.1851
 1297SOL    HW115524   4.161   3.426   7.499 -0.0923 -0.3135  0.3129
 1297SOL    HW215525   4.197   3.437   7.639 -0.9645  0.0914 -0.4823
 1298SOL     OW15526   3.668   4.242   2.342 -0.0952  0.0367 -0.6327
 1298SOL    HW115527   3.674   4.330   2.379  1.5674 -0.0658 -0.6479
 1298SOL    HW215528   3.697   4.184   2.412  0.0847  0.1184 -0.6384
 1299SOL     OW15529   3.504   2.253   1.412  0.7642 -0.1561 -0.0129
 1299SOL    HW115530   3.427   2.198   1.398  0.1986  0.8991 -1.1161
 1299SOL    HW215531   3.469   2.343   1.416 -0.0029 -0.3639 -2.3430
 1300SOL     OW15532   2.468   3.520   3.149  0.0341  0.5110  0.4407
 1300SOL    HW115533   2.505   3.565   3.072  0.0956  1.3126  0.9383
 1300SOL    HW215534   2.377   3.530   3.121  0.0668  1.0172  0.5068
 1301SOL     OW15535   4.081   3.786   1.549 -0.6366  0.4219 -0.0710
 1301SOL    HW115536   4.038   3.738   1.620  2.3274 -2.7147 -0.3612
 1301SOL    HW215537   4.025   3.772   1.473 -0.9956  1.8415 -0.0564
 1302SOL     OW15538   3.249   4.374   7.978 -0.3100 -0.4908  0.2717
 1302SOL    HW115539   3.272   4.296   7.927  0.0622 -0.3365  0.1987
 1302SOL    HW215540   3.177   4.343   8.033  0.0889 -0.1141  1.0066
 1303SOL     OW15541   3.127   1.703  15.391  0.0931  0.3066 -0.1855
 1303SOL    HW115542   3.103   1.793  15.413  1.3365  0.1062  2.0296
 1303SOL    HW215543   3.222   1.711  15.382  0.0830  2.7656  1.8882
 1304SOL     OW15544   4.279   0.878  10.606 -0.4854  0.1150  0.5816
 1304SOL    HW115545   4.340   0.899  10.535  1.7203  0.5088  2.5858
 1304SOL    HW215546   4.339   0.884  10.680 -0.9126  2.1612  0.7651
 1305SOL     OW15547   2.636   2.855   1.150  0.3425  0.2509  0.2328
 1305SOL    HW115548   2.607   2.941   1.119 -2.1823 -0.7812 -0.2489
 1305SOL    HW215549   2.696   2.877   1.221 -0.8788  1.2513  0.9647
 1306SOL     OW15550   3.312   2.663   4.212 -0.1300  0.2521 -0.0554
 1306SOL    HW115551   3.280   2.609   4.284  0.9116  2.4440  2.0104
 1306SOL    HW215552   3.368   2.603   4.162 -1.1802 -0.4503 -0.3770
 1307SOL     OW15553   1.727   3.691   7.394 -0.1632  0.4131  0.2728
 1307SOL    HW115554   1.760   3.745   7.322  1.4429  0.3950  1.0059
 1307SOL    HW215555   1.694   3.613   7.350  0.6615 -0.3634  1.0459
 1308SOL     OW15556   0.035   4.440   5.303  0.2173  0.0006 -0.9869
 1308SOL    HW115557   4.706   4.472   5.243 -0.2237 -0.2851 -0.6407
 1308SOL    HW215558   4.713   4.395   5.362  0.8580  0.8715  0.3471
 1309SOL     OW15559   2.674   1.576   6.458  0.1896  0.2471  0.1349
 1309SOL    HW115560   2.714   1.634   6.524 -3.0319  1.4660  1.0109
 1309SOL    HW215561   2.600   1.627   6.423  1.1882  0.7070 -1.3238
 1310SOL     OW15562   4.165   4.111   2.476  0.1382 -0.5617 -0.9396
 1310SOL    HW115563   4.152   4.171   2.402 -2.6365  0.3652  0.2935
 1310SOL    HW215564   4.256   4.082   2.466  0.8612  0.9654  1.2946
 1311SOL     OW15565   1.329   3.680  11.373 -0.2145  0.8067 -0.8765
 1311SOL    HW115566   1.236   3.667  11.388  0.3570 -0.6653  1.2256
 1311SOL    HW215567   1.333   3.770  11.340 -3.8486  1.3215  0.0503
 1312SOL     OW15568   0.106   0.463  11.793  0.3181 -0.7214  0.8520
 1312SOL    HW115569   0.039   0.421  11.739 -2.2817  3.3424  0.9016
 1312SOL    HW215570   0.138   0.387  11.842  0.6396 -1.2558 -0.1950
 1313SOL     OW15571   1.408   3.492   6.287 -0.3410 -0.2770 -0.1998
 1313SOL    HW115572   1.475   3.424   6.280  0.8971  1.1250 -1.8948
 1313SOL    HW215573   1.344   3.454   6.226 -0.1019  0.4875 -0.9224
 1314SOL     OW15574   0.613   0.698  15.213 -0.3393  0.2723  0.0553
 1314SOL    HW115575   0.564   0.642  15.273 -1.4303  0.6065 -0.5235
 1314SOL    HW215576   0.561   0.778  15.214 -1.8019 -0.6657 -1.1571
 1315SOL     OW15577   3.233   2.527   1.330 -0.5443 -0.8045 -0.2252
 1315SOL    HW115578   3.288   2.476   1.390  0.4330 -0.2290 -0.6294
 1315SOL    HW215579   3.175   2.467   1.283 -0.5479  0.5583 -1.9438
 1316SOL     OW15580   2.947   1.469  10.669  0.5527  0.2830 -0.1369
 1316SOL    HW115581   2.856   1.463  10.698  0.1939 -0.7639 -1.4889
 1316SOL    HW215582   2.988   1.519  10.740 -1.2723  0.5769  0.6980
 1317SOL     OW15583   1.816   1.599   5.415 -0.1005  0.3264 -0.3466
 1317SOL    HW115584   1.785   1.509   5.417 -1.2885  0.7363 -0.1749
 1317SOL    HW215585   1.908   1.575   5.431  0.5776  2.9814 -0.1621
 1318SOL     OW15586   3.854   0.500   9.341  0.4945  0.5279  0.1801
 1318SOL    HW115587   3.889   0.585   9.312 -0.8330  0.5014 -1.5262
 1318SOL    HW215588   3.801   0.525   9.417 -0.2329 -0.6612  0.0632
 1319SOL     OW15589   0.489   3.528  17.441  0.5567  0.2999 -0.0610
 1319SOL    HW115590   0.486   3.562  17.530 -1.7190  1.8886 -0.7679
 1319SOL    HW215591   0.517   3.437  17.456 -1.4118 -0.7056 -2.5029
 1320SOL     OW15592   2.648   1.435   7.811 -0.5469  0.6204  0.4928
 1320SOL    HW115593   2.620   1.408   7.724  1.8558 -1.1630  0.2588
 1320SOL    HW215594   2.713   1.502   7.791  0.5365  0.3057  2.8913
 1321SOL     OW15595   2.853   3.259   6.147 -0.8267  0.4049  0.0631
 1321SOL    HW115596   2.847   3.226   6.058 -1.4108 -0.2106  0.3296
 1321SOL    HW215597   2.945   3.238   6.161 -0.3399  1.4897 -1.5751
 1322SOL     OW15598   2.370   4.108   6.964 -0.5815  0.2003  0.7292
 1322SOL    HW115599   2.277   4.129   6.973  0.4532  4.0616  2.2024
 1322SOL    HW215600   2.362   4.028   6.912  0.6985 -0.4722  1.5776
 1323SOL     OW15601   0.524   3.075  13.970 -0.5645 -0.0059  0.5415
 1323SOL    HW115602   0.504   3.027  13.890  0.5321 -2.0707  1.4949
 1323SOL    HW215603   0.577   3.016  14.024  2.4852 -2.2412 -4.8791
 1324SOL     OW15604   0.717   1.261   4.248  0.3589 -0.4914 -0.0807
 1324SOL    HW115605   0.704   1.351   4.219  0.2856 -0.6563 -0.5667
 1324SOL    HW215606   0.811   1.255   4.231 -0.0995  1.2142 -3.3004
 1325SOL     OW15607   4.467   4.169   3.116  0.1654 -0.0396 -0.1375
 1325SOL    HW115608   4.475   4.256   3.155  1.2328 -0.1874 -0.0235
 1325SOL    HW215609   4.429   4.200   3.033  3.0849  0.7365 -1.1820
 1326SOL     OW15610   2.850   2.527   0.926 -0.6245  0.6007  0.0796
 1326SOL    HW115611   2.800   2.606   0.909  0.3221  0.7364 -2.0571
 1326SOL    HW215612   2.786   2.458   0.946  0.9375 -0.9360 -0.1351
 1327SOL     OW15613   1.890   2.067  17.323  0.1945  0.7064 -0.2843
 1327SOL    HW115614   1.952   2.027  17.262  0.2183  2.7632 -1.6368
 1327SOL    HW215615   1.920   2.033  17.407 -1.4529  1.4894  0.6201
 1328SOL     OW15616   0.045   3.605   2.821  0.0564  0.0248  0.4056
 1328SOL    HW115617   0.045   3.699   2.802  0.4923 -0.1410 -0.4206
 1328SOL    HW215618   0.140   3.599   2.826  0.1060  0.8501  0.5152
 1329SOL     OW15619   3.849   2.387   1.689  0.1001 -0.1887 -0.3278
 1329SOL    HW115620   3.944   2.401   1.683  0.1337 -0.3134 -0.0606
 1329SOL    HW215621   3.839   2.377   1.783  0.9533  1.5184 -0.0412
 1330SOL     OW15622   4.234   2.012   7.134 -0.1595  0.4355  0.9984
 1330SOL    HW115623   4.275   2.047   7.054 -0.4942 -0.1087  0.5915
 1330SOL    HW215624   4.268   1.924   7.145  0.7413  0.5023 -1.1540
 1331SOL     OW15625   4.251   0.553   7.007 -0.5614 -0.3302  0.6223
 1331SOL    HW115626   4.316   0.623   7.007 -1.3613  0.4099  2.7771
 1331SOL    HW215627   4.169   0.604   7.012  0.3552  1.1394  0.6229
 1332SOL     OW15628   3.379   3.120  13.457  0.2068  0.3030 -0.1947
 1332SOL    HW115629   3.346   3.154  13.540 -0.4903 -0.5649 -0.1118
 1332SOL    HW215630   3.327   3.042  13.435 -1.1508  1.3458 -0.6892
 1333SOL     OW15631   4.157   0.283   6.813  0.2231  0.3622  0.1839
 1333SOL    HW115632   4.148   0.190   6.791 -2.2324  0.3218  1.2425
 1333SOL    HW215633   4.175   0.279   6.907 -0.0167  1.5863  0.2801
 1334SOL     OW15634   1.633   3.299   8.419  0.0465 -0.1452  0.1321
 1334SOL    HW115635   1.600   3.302   8.508  0.1150 -1.1854  0.1988
 1334SOL    HW215636   1.726   3.278   8.429  0.3137  2.0549  1.9602
 1335SOL     OW15637   2.532   0.233  14.088  0.8213 -0.3543 -0.1986
 1335SOL    HW115638   2.438   0.244  14.100  1.1842  1.6184  0.8392
 1335SOL    HW215639   2.572   0.244  14.175  1.4847  4.4707 -1.0939
 1336SOL     OW15640   1.310   0.257   5.817 -0.0500 -0.2865  0.2195
 1336SOL    HW115641   1.335   0.281   5.728 -1.2103  2.2200  0.5717
 1336SOL    HW215642   1.295   0.347   5.845  2.1227  0.4587 -0.9683
 1337SOL     OW15643   0.787   1.047   0.952  0.0376 -0.2741  0.0335
 1337SOL    HW115644   0.759   0.974   1.007  2.5963 -1.1124  0.1890
 1337SOL    HW215645   0.823   1.102   1.021  1.1418 -2.6984  1.3969
 1338SOL     OW15646   0.697   2.602  12.335  0.1599  0.7108  0.2385
 1338SOL    HW115647   0.607   2.626  12.316 -0.3344 -2.8322 -1.9238
 1338SOL    HW215648   0.749   2.682  12.336 -0.2163  0.9429  1.0772
 1339SOL     OW15649   3.914   4.602   8.769  0.0262  0.3840 -0.0488
 1339SOL    HW115650   3.901   4.580   8.677 -3.1889 -0.7713  0.6829
 1339SOL    HW215651   3.834   4.576   8.814  0.7977 -0.4910  0.8290
 1340SOL     OW15652   3.972   4.006   6.427 -0.2068  0.3018 -0.5105
 1340SOL    HW115653   4.023   3.970   6.354  0.8670  1.5896 -0.3866
 1340SOL    HW215654   3.878   4.002   6.412 -0.2003 -1.0557 -0.2080
 1341SOL     OW15655   2.668   0.091   6.011 -0.6858  0.6120 -0.2080
 1341SOL    HW115656   2.683   0.012   5.959  0.4535 -0.3964  1.6317
 1341SOL    HW215657   2.679   0.153   5.939  0.8422  1.9955  1.2023
 1342SOL     OW15658   0.032   4.161   2.267 -0.1934  0.4347  0.0286
 1342SOL    HW115659   0.059   4.249   2.241 -1.0656  0.4381 -0.8604
 1342SOL    HW215660   0.080   4.154   2.350 -0.1449 -1.5042 -0.1672
 1343SOL     OW15661   0.653   4.426  17.172 -0.3747 -0.3197  0.3319
 1343SOL    HW115662   0.647   4.346  17.119  0.2043 -0.3583  0.3220
 1343SOL    HW215663   0.669   4.494  17.106 -0.2910  0.0674  0.7539
 1344SOL     OW15664   4.101   3.119  16.270  0.1755  0.3860  0.6425
 1344SOL    HW115665   4.011   3.091  16.258  0.0057  0.2159  2.3534
 1344SOL    HW215666   4.132   3.159  16.189 -1.7249 -0.9069 -0.6971
 1345SOL     OW15667   0.281   1.844   0.883  0.3078  0.1042 -0.3107
 1345SOL    HW115668   0.201   1.827   0.934  1.9407 -0.6266  2.0005
 1345SOL    HW215669   0.346   1.843   0.954  1.9349 -2.2818 -1.8473
 1346SOL     OW15670   0.339   4.288   7.762  0.1787  0.2141 -0.0318
 1346SOL    HW115671   0.369   4.374   7.791  0.1426 -0.3699  1.7115
 1346SOL    HW215672   0.410   4.245   7.714 -0.0087 -3.5125  3.0406
 1347SOL     OW15673   2.176   4.295   5.084  0.5386  0.4673 -0.1389
 1347SOL    HW115674   2.103   4.352   5.058  0.5396  0.7967  0.5740
 1347SOL    HW215675   2.134   4.238   5.148 -0.8739 -1.5593 -2.8365
 1348SOL     OW15676   3.899   3.865   5.672 -0.4614  0.4869 -0.2294
 1348SOL    HW115677   3.912   3.851   5.578  2.6093 -0.2883  0.3177
 1348SOL    HW215678   3.978   3.914   5.694 -0.9558  1.6980 -1.1491
 1349SOL     OW15679   4.626   1.914  12.231  0.0319  0.2235 -0.4811
 1349SOL    HW115680   4.650   1.905  12.139  0.0302  2.2219 -0.6953
 1349SOL    HW215681   4.551   1.975  12.238 -0.2958 -0.1689 -0.5791
 1350SOL     OW15682   1.705   1.557   8.987  0.1574 -0.3765 -0.0300
 1350SOL    HW115683   1.660   1.488   8.938 -0.3538 -0.1212  0.0788
 1350SOL    HW215684   1.741   1.616   8.922  1.9418  0.6418  1.8745
 1351SOL     OW15685   4.003   2.450   6.633  0.2550 -0.1065 -0.3281
 1351SOL    HW115686   4.086   2.495   6.615 -1.9141  3.0065 -2.5509
 1351SOL    HW215687   3.953   2.503   6.696  1.6273 -0.1358  0.7839
 1352SOL     OW15688   2.355   0.621   6.624 -0.2648  0.7498 -0.6018
 1352SOL    HW115689   2.274   0.581   6.655  1.7561 -2.5962  0.3225
 1352SOL    HW215690   2.406   0.640   6.702  0.1734 -0.4191 -0.6052
 1353SOL     OW15691   1.224   0.347   6.972 -0.3878 -0.3751  0.0386
 1353SOL    HW115692   1.146   0.308   7.009 -0.6440 -0.0600 -0.1693
 1353SOL    HW215693   1.203   0.433   6.935 -3.0054 -0.4072  1.4785
 1354SOL     OW15694   1.407   4.316   2.542 -0.6613  0.2221  0.0411
 1354SOL    HW115695   1.489   4.281   2.576 -0.5805  0.1839 -0.1939
 1354SOL    HW215696   1.354   4.238   2.525 -0.3354 -0.3309  1.5695
 1355SOL     OW15697   4.579   2.466   4.131  0.0846  0.5757 -0.1031
 1355SOL    HW115698   4.577   2.485   4.038  0.2307  1.1003  0.0004
 1355SOL    HW215699   4.670   2.487   4.152 -0.5023  1.2991  1.7578
 1356SOL     OW15700   1.127   1.441  14.470 -0.0229  0.0832 -0.3244
 1356SOL    HW115701   1.197   1.475  14.415  0.4372 -0.1249  0.1261
 1356SOL    HW215702   1.167   1.443  14.558  0.3927  3.0877 -0.5999
 1357SOL     OW15703   0.600   0.726   4.849  0.1227 -0.5319  0.4129
 1357SOL    HW115704   0.526   0.708   4.790  1.8981 -0.2670 -1.8989
 1357SOL    HW215705   0.643   0.802   4.808 -2.3142  0.4252 -0.3709
 1358SOL     OW15706   3.335   2.481   2.061 -0.4598  0.1857  0.0356
 1358SOL    HW115707   3.334   2.410   2.125  1.2003  0.0556 -0.0789
 1358SOL    HW215708   3.382   2.442   1.988  0.3802  0.1210  0.6161
 1359SOL     OW15709   1.837   2.565   4.897 -0.2188  0.0928 -0.1443
 1359SOL    HW115710   1.758   2.551   4.949  0.0117 -1.3657 -0.1786
 1359SOL    HW215711   1.836   2.496   4.830  0.4150 -0.0645  0.0077
 1360SOL     OW15712   0.761   3.200   0.029 -0.2083  0.7243  0.3351
 1360SOL    HW115713   0.793   3.262  17.714 -2.0132 -0.1159 -1.3363
 1360SOL    HW215714   0.666   3.206   0.018 -0.2237 -2.0183 -0.9633
 1361SOL     OW15715   0.687   4.671   2.190  0.5811  0.1588 -0.0765
 1361SOL    HW115716   0.737   4.596   2.157  2.3015  0.2435  2.3116
 1361SOL    HW215717   0.754   4.718   2.239  1.8416 -1.9037  0.1825
 1362SOL     OW15718   0.747   1.535   4.138 -0.6858 -0.1146  0.1210
 1362SOL    HW115719   0.808   1.607   4.118 -0.9007  0.0251 -0.0344
 1362SOL    HW215720   0.671   1.578   4.176 -1.2909 -0.3683 -0.7858
 1363SOL     OW15721   1.496   3.276   0.813  1.1320 -0.3491 -0.6311
 1363SOL    HW115722   1.576   3.266   0.864  0.4579  0.1713  0.5396
 1363SOL    HW215723   1.515   3.363   0.777  1.2269 -0.7157 -1.4806
 1364SOL     OW15724   3.186   3.089   7.473  0.0993  0.2203 -0.2880
 1364SOL    HW115725   3.257   3.105   7.536  0.1714  0.4658 -0.4340
 1364SOL    HW215726   3.222   3.121   7.391  0.3781  2.4298  0.6891
 1365SOL     OW15727   4.500   2.157   6.453  0.1530  0.4468 -0.7789
 1365SOL    HW115728   4.518   2.208   6.533 -0.0861  1.5945 -1.4571
 1365SOL    HW215729   4.521   2.066   6.474  0.1773  0.4988 -0.5795
 1366SOL     OW15730   2.054   1.588  16.763 -0.0930  0.6159  0.1937
 1366SOL    HW115731   2.100   1.541  16.694 -1.7072  0.4081 -0.7394
 1366SOL    HW215732   1.973   1.605  16.716 -1.3457 -1.9950  1.4272
 1367SOL     OW15733   4.008   3.951   3.999 -0.1563 -0.0861 -0.5636
 1367SOL    HW115734   3.946   3.997   4.055 -1.1526 -2.0436 -0.0618
 1367SOL    HW215735   4.091   3.992   4.024 -1.5359  2.9740 -1.0380
 1368SOL     OW15736   2.683   1.130   4.925  0.0391 -0.0374  0.2882
 1368SOL    HW115737   2.604   1.168   4.964 -0.3676  0.1998 -0.7535
 1368SOL    HW215738   2.730   1.125   5.008  0.5358 -0.2552 -0.0115
 1369SOL     OW15739   2.022   2.273   7.108 -0.4558  0.0754  0.1224
 1369SOL    HW115740   1.965   2.216   7.056  1.5326  0.2099 -2.1939
 1369SOL    HW215741   2.088   2.208   7.128 -0.4245  0.2877  0.6939
 1370SOL     OW15742   2.758   3.060  12.341  0.4144  0.0071  0.2440
 1370SOL    HW115743   2.726   3.020  12.261  0.3021 -0.9901  0.7836
 1370SOL    HW215744   2.770   2.987  12.402  2.1336  1.4824  1.7056
 1371SOL     OW15745   3.406   1.036   6.253  0.2004 -0.1444 -0.0026
 1371SOL    HW115746   3.417   1.105   6.319 -1.2206 -0.5550  0.6597
 1371SOL    HW215747   3.412   1.092   6.176 -0.2179  2.1028  1.5884
 1372SOL     OW15748   2.664   3.861   6.324  0.3242 -0.2407 -0.3419
 1372SOL    HW115749   2.706   3.799   6.383  1.6227  0.5158 -0.4833
 1372SOL    HW215750   2.570   3.854   6.340  0.4852  0.3698  0.8181
 1373SOL     OW15751   1.388   2.392   8.989  0.3992  0.2775 -0.1535
 1373SOL    HW115752   1.460   2.354   8.939  0.6709  0.7737 -0.1315
 1373SOL    HW215753   1.361   2.321   9.047  0.3958 -0.3614 -0.9412
 1374SOL     OW15754   4.594   0.393   8.049 -0.7091  1.2014 -0.5159
 1374SOL    HW115755   4.533   0.441   8.104  2.8420  0.5373  3.9558
 1374SOL    HW215756   4.610   0.451   7.975  0.8390  0.3019 -0.9091
 1375SOL     OW15757   2.850   2.926   9.180  0.4824 -0.3561 -0.2786
 1375SOL    HW115758   2.827   2.975   9.101  0.3079  0.6888  0.4203
 1375SOL    HW215759   2.806   2.983   9.243  1.0233 -1.9408  1.5485
 1376SOL     OW15760   2.560   3.591   6.104 -0.1381  0.1396 -0.5576
 1376SOL    HW115761   2.643   3.629   6.077 -0.1298  0.8387  0.4420
 1376SOL    HW215762   2.564   3.508   6.057 -1.2636 -0.4304  0.3318
 1377SOL     OW15763   0.053   1.367   9.376 -0.4866  0.3659 -0.0534
 1377SOL    HW115764   0.119   1.312   9.334  1.3000  2.2947  0.2774
 1377SOL    HW215765   4.722   1.304   9.398  0.2457 -0.2226  0.5861
 1378SOL     OW15766   2.751   1.925   5.425 -0.4110  0.6774  0.1170
 1378SOL    HW115767   2.800   2.006   5.424  0.5783  0.0800  0.5003
 1378SOL    HW215768   2.806   1.881   5.360  0.9276 -0.3115  1.9350
 1379SOL     OW15769   2.321   3.211   4.814 -0.4843 -0.5524 -0.1405
 1379SOL    HW115770   2.395   3.150   4.811 -0.1156 -0.1814  1.6248
 1379SOL    HW215771   2.326   3.253   4.728 -0.1327 -2.8349 -1.2431
 1380SOL     OW15772   2.898   1.564   6.985 -0.1208 -0.0228  0.3503
 1380SOL    HW115773   2.808   1.539   7.007  1.1484 -3.4259  1.6071
 1380SOL    HW215774   2.940   1.517   7.058 -0.0608 -0.3596  0.0996
 1381SOL     OW15775   0.647   0.693   7.339 -0.5106 -0.2095  0.6202
 1381SOL    HW115776   0.679   0.761   7.279  0.0144  0.5152  1.7122
 1381SOL    HW215777   0.604   0.742   7.409  0.0752  0.0578  0.7955
 1382SOL     OW15778   0.206   0.456   4.910 -0.5168  0.1476 -0.0526
 1382SOL    HW115779   0.245   0.500   4.835 -1.1533  1.9918  0.7010
 1382SOL    HW215780   0.262   0.380   4.926 -0.1591  0.5284  0.5000
 1383SOL     OW15781   0.296   1.405   3.213 -0.0547 -0.4137  0.7026
 1383SOL    HW115782   0.381   1.378   3.179  0.3311  2.5797 -0.7668
 1383SOL    HW215783   0.317   1.403   3.306 -2.4840 -2.5437  1.1792
 1384SOL     OW15784   4.334   3.730   4.392 -0.3575  0.2204  0.3070
 1384SOL    HW115785   4.303   3.795   4.329 -0.1581 -1.0956 -1.1427
 1384SOL    HW215786   4.378   3.660   4.345 -1.1964 -0.5619  0.6893
 1385SOL     OW15787   0.477   2.101  15.246  0.0293  0.1839  0.6004
 1385SOL    HW115788   0.428   2.111  15.165 -1.1643  0.8215  1.4005
 1385SOL    HW215789   0.401   2.100  15.304  0.4813 -0.5341  1.1879
 1386SOL     OW15790   0.311   3.983   1.211  0.2924  0.0913  0.6914
 1386SOL    HW115791   0.291   3.960   1.302  2.8665  0.5981  1.4028
 1386SOL    HW215792   0.278   4.073   1.211  1.3861  0.4961 -3.0265
 1387SOL     OW15793   2.926   4.057   7.863 -0.0982  0.0300  0.0962
 1387SOL    HW115794   2.917   4.055   7.767  0.3952 -1.4089  0.0724
 1387SOL    HW215795   2.912   3.962   7.873 -2.6135  0.7152  3.1605
 1388SOL     OW15796   4.702   4.686   8.332  0.0691 -1.1385  0.1940
 1388SOL    HW115797   0.004   0.001   8.401 -1.2837  2.5274 -1.8409
 1388SOL    HW215798   4.612   4.686   8.364  0.4184 -0.6221  1.1886
 1389SOL     OW15799   0.418   0.850  15.289  0.3087 -0.2797 -0.0014
 1389SOL    HW115800   0.443   0.859  15.381  0.4779 -3.4364  0.2654
 1389SOL    HW215801   0.362   0.927  15.283  0.7883  0.1338  0.8705
 1390SOL     OW15802   4.719   2.425   3.575 -0.9498  0.4600 -0.0455
 1390SOL    HW115803   4.682   2.373   3.504  0.1650  0.1340 -0.3762
 1390SOL    HW215804   4.724   2.364   3.648 -2.3008 -0.4828 -0.7386
 1391SOL     OW15805   2.153   1.041   8.821 -0.2435  0.2198 -0.3493
 1391SOL    HW115806   2.211   1.049   8.745  1.4205 -0.1805  0.8517
 1391SOL    HW215807   2.180   1.114   8.876  1.7816 -1.5004  0.9942
 1392SOL     OW15808   1.321   1.963   2.163  0.5162 -0.0507 -0.0985
 1392SOL    HW115809   1.265   2.040   2.179  0.4662  0.3501 -2.1109
 1392SOL    HW215810   1.295   1.896   2.226 -2.2852  1.1697  0.0631
 1393SOL     OW15811   4.424   0.825   3.363 -0.6680 -0.0474 -0.3745
 1393SOL    HW115812   4.395   0.860   3.279  0.2827 -0.6888 -0.9770
 1393SOL    HW215813   4.338   0.801   3.398 -0.0278 -0.5175  0.9048
 1394SOL     OW15814   0.099   2.149   7.433 -0.5348 -0.3513  0.1767
 1394SOL    HW115815   0.054   2.232   7.420  0.8161  0.1139 -1.5687
 1394SOL    HW215816   0.072   2.092   7.361 -1.6055 -0.9372  1.0403
 1395SOL     OW15817   4.235   1.580  17.551  0.1371  0.1631  0.2886
 1395SOL    HW115818   4.166   1.603  17.488 -1.3714 -2.0330  1.1415
 1395SOL    HW215819   4.185   1.554  17.628  0.2935 -1.5240 -0.1917
 1396SOL     OW15820   2.224   3.743   5.235  0.6335 -0.7719  0.4321
 1396SOL    HW115821   2.155   3.685   5.203  0.2388 -1.1417  1.9495
 1396SOL    HW215822   2.204   3.753   5.329  0.8902 -0.1160  0.4155
 1397SOL     OW15823   1.285   0.372   3.010 -0.4560 -0.1732 -0.2531
 1397SOL    HW115824   1.310   0.406   3.096 -1.6218 -2.6478  1.0755
 1397SOL    HW215825   1.272   0.456   2.966  1.3608  0.3743  0.2441
 1398SOL     OW15826   2.033   1.515   7.427  0.2745 -0.3446 -0.1202
 1398SOL    HW115827   2.017   1.559   7.510 -0.3670 -1.8431  0.5340
 1398SOL    HW215828   1.982   1.434   7.424 -0.0747 -0.1364  0.1355
 1399SOL     OW15829   3.570   0.047   1.971 -0.0598 -0.9579 -0.6055
 1399SOL    HW115830   3.642   0.043   2.034  0.0222  1.8872 -0.5174
 1399SOL    HW215831   3.544   0.135   1.997 -2.3040 -1.9311  0.4738
 1400SOL     OW15832   1.719   3.007   4.386 -0.6225  0.7223  0.3154
 1400SOL    HW115833   1.637   2.990   4.432 -0.7326  0.8427  0.1629
 1400SOL    HW215834   1.680   3.021   4.300 -0.7333  0.3668  0.3072
 1401SOL     OW15835   0.023   0.371   7.407  0.6190 -0.8071 -0.3164
 1401SOL    HW115836   0.085   0.335   7.343 -1.0800 -2.7788 -0.8559
 1401SOL    HW215837   0.020   0.461   7.375  0.8368 -0.2001  1.3932
 1402SOL     OW15838   4.669   0.625   6.854  0.2725 -0.5913 -0.4360
 1402SOL    HW115839   4.609   0.692   6.885  0.4140  0.0702 -1.5754
 1402SOL    HW215840   4.678   0.642   6.760 -1.3265  2.0088 -0.1077
 1403SOL     OW15841   3.077   4.108   1.572  0.3458  0.1069 -0.0880
 1403SOL    HW115842   3.027   4.066   1.641  0.4931 -0.8832 -0.5828
 1403SOL    HW215843   3.096   4.191   1.614 -1.9159  0.0737  0.9613
 1404SOL     OW15844   3.629   1.108  17.224 -0.3902  0.4121 -0.0643
 1404SOL    HW115845   3.562   1.105  17.292  0.6159 -0.0177  0.9099
 1404SOL    HW215846   3.599   1.185  17.176 -1.5288 -0.8094 -1.3007
 1405SOL     OW15847   4.097   0.501   7.651  0.9516  0.1446 -0.0361
 1405SOL    HW115848   4.030   0.500   7.584 -0.5141 -1.1081  1.4471
 1405SOL    HW215849   4.110   0.406   7.651 -1.4001 -0.1822 -0.2145
 1406SOL     OW15850   0.076   2.033   2.904  0.4397 -0.7623  0.3924
 1406SOL    HW115851   0.007   2.029   2.970 -1.1002 -0.7535 -1.2226
 1406SOL    HW215852   0.146   2.081   2.948  1.0549 -0.6160 -0.7428
 1407SOL     OW15853   0.636   3.167   3.964  0.0781 -0.3589  0.3012
 1407SOL    HW115854   0.554   3.168   3.915 -1.6342 -1.3061  3.1370
 1407SOL    HW215855   0.686   3.206   3.893  0.7328  0.9791  1.5012
 1408SOL     OW15856   4.136   1.662  14.125  0.1513 -0.4279  0.1006
 1408SOL    HW115857   4.056   1.611  14.112 -0.4794  0.8706 -1.1271
 1408SOL    HW215858   4.143   1.720  14.049 -2.3741  0.0261  0.2117
 1409SOL     OW15859   1.679   1.150   7.820 -0.1661 -0.3178 -0.3759
 1409SOL    HW115860   1.619   1.224   7.809  0.6806  0.5849  1.1214
 1409SOL    HW215861   1.744   1.183   7.882  0.7843  2.8804 -3.0093
 1410SOL     OW15862   3.593   1.641   3.643  0.6531  0.5941  0.3043
 1410SOL    HW115863   3.534   1.615   3.714  0.3886  1.1679  0.2948
 1410SOL    HW215864   3.532   1.663   3.573 -2.4108 -1.6174  2.2521
 1411SOL     OW15865   4.566   3.853  11.923  0.1545 -0.0967  0.0910
 1411SOL    HW115866   4.560   3.907  11.844  1.6124 -0.5054 -0.3084
 1411SOL    HW215867   4.611   3.775  11.887  1.8671  0.2794  1.4271
 1412SOL     OW15868   3.729   3.825   6.123 -0.1725 -0.1226  0.4929
 1412SOL    HW115869   3.716   3.843   6.216  1.0627  0.9227  0.4788
 1412SOL    HW215870   3.642   3.837   6.086 -0.0902 -1.2528 -0.0446
 1413SOL     OW15871   2.201   1.915   4.090 -0.4519 -0.4314  0.2090
 1413SOL    HW115872   2.190   2.004   4.121  1.5008 -0.6378  1.5078
 1413SOL    HW215873   2.129   1.896   4.030  1.2984 -2.5056 -1.2837
 1414SOL     OW15874   2.231   1.341   3.763 -0.0709 -0.0871 -0.4217
 1414SOL    HW115875   2.239   1.259   3.715 -1.5734 -0.6612  0.2980
 1414SOL    HW215876   2.321   1.367   3.782  0.2486 -0.4727 -1.4118
 1415SOL     OW15877   0.311   4.035   1.703 -0.2224  0.3941 -0.5564
 1415SOL    HW115878   0.349   3.985   1.775 -0.5057 -1.1523 -1.4809
 1415SOL    HW215879   0.304   4.126   1.732  3.4463  0.7213 -0.6990
 1416SOL     OW15880   4.017   0.589   0.413  0.2654 -0.5491 -0.4267
 1416SOL    HW115881   4.107   0.563   0.394 -0.0815 -0.7576 -1.7845
 1416SOL    HW215882   4.023   0.629   0.499  2.2423 -0.1119 -0.7566
 1417SOL     OW15883   0.984   1.210   7.442 -0.4772 -0.6483 -0.2117
 1417SOL    HW115884   1.015   1.166   7.363  1.1434 -1.2351  0.7596
 1417SOL    HW215885   1.054   1.187   7.503  0.0842  2.2674  0.2305
 1418SOL     OW15886   4.561   4.308   2.123  0.3806  0.5221  0.2147
 1418SOL    HW115887   4.495   4.239   2.111  0.1223  0.7218  0.5065
 1418SOL    HW215888   4.553   4.346   2.036  0.3228 -2.0589 -0.9242
 1419SOL     OW15889   2.028   2.642  10.887 -0.3863  0.1595 -0.2780
 1419SOL    HW115890   2.039   2.727  10.930  0.7193 -0.1285  0.0105
 1419SOL    HW215891   2.097   2.651  10.822 -2.5475  1.1685 -2.4171
 1420SOL     OW15892   0.343   4.562   5.224 -0.0064 -0.1801  0.7564
 1420SOL    HW115893   0.341   4.523   5.137  0.1915 -0.9104  1.0819
 1420SOL    HW215894   0.282   4.635   5.212  0.5489 -0.1245 -1.6401
 1421SOL     OW15895   4.272   1.898   9.673 -0.0928 -0.7804  0.0151
 1421SOL    HW115896   4.196   1.949   9.644  0.6201  0.6241  0.6018
 1421SOL    HW215897   4.237   1.810   9.660  2.0423 -1.6542  0.2473
 1422SOL     OW15898   4.190   1.161   2.082  0.3516 -0.3629  0.0788
 1422SOL    HW115899   4.281   1.169   2.053  1.1800 -0.9223  2.5771
 1422SOL    HW215900   4.190   1.067   2.065 -0.3657 -0.0366 -1.7592
 1423SOL     OW15901   4.406   3.921   1.378 -0.2811  0.3275  0.7166
 1423SOL    HW115902   4.334   3.982   1.394  1.1731  2.1333  0.4938
 1423SOL    HW215903   4.394   3.865   1.455  1.7473  1.0482  1.5597
 1424SOL     OW15904   3.688   1.749   7.336  0.3617 -0.2643  0.4702
 1424SOL    HW115905   3.676   1.655   7.351  0.3138 -0.3402 -0.0478
 1424SOL    HW215906   3.773   1.753   7.291 -1.2051  0.0011 -2.4943
 1425SOL     OW15907   4.123   0.853   7.549 -0.2958  0.4993  0.1811
 1425SOL    HW115908   4.204   0.884   7.589 -0.5125  2.8090 -1.1564
 1425SOL    HW215909   4.110   0.767   7.588  0.0627  0.7725  0.9205
 1426SOL     OW15910   2.503   3.779   9.418  0.1921  0.5517 -0.1630
 1426SOL    HW115911   2.474   3.702   9.370  2.2800 -0.3376 -0.0036
 1426SOL    HW215912   2.478   3.853   9.363  0.2566 -0.1502 -1.1306
 1427SOL     OW15913   0.043   3.600   6.768  0.4228  0.0569 -0.3665
 1427SOL    HW115914   4.729   3.676   6.796  0.1027  0.2879 -1.5873
 1427SOL    HW215915   4.716   3.547   6.721  0.0674  1.0237 -0.9590
 1428SOL     OW15916   2.998   2.627  11.312  0.5029  0.5444  0.1573
 1428SOL    HW115917   2.998   2.723  11.318  1.4138  0.6729 -1.7234
 1428SOL    HW215918   2.974   2.617  11.220  0.7037  0.4348  0.1182
 1429SOL     OW15919   2.859   2.957   5.389  0.1969 -0.1806 -0.1277
 1429SOL    HW115920   2.905   2.904   5.323 -1.5999  0.6966 -2.0861
 1429SOL    HW215921   2.931   2.987   5.444  0.2169  0.7617 -0.6701
 1430SOL     OW15922   0.841   4.455   9.189 -0.4307 -0.1693 -0.4563
 1430SOL    HW115923   0.827   4.528   9.249 -1.5276  0.9398 -2.0751
 1430SOL    HW215924   0.748   4.449   9.167 -0.0545 -2.1364 -1.4779
 1431SOL     OW15925   2.020   3.037   0.205  0.4943 -0.0453 -0.2681
 1431SOL    HW115926   1.962   3.050   0.280 -0.8939 -0.8313 -1.2217
 1431SOL    HW215927   1.998   3.117   0.158  1.2298 -0.1847 -0.8601
 1432SOL     OW15928   2.544   1.838   4.700  0.2653  0.2599  0.3695
 1432SOL    HW115929   2.501   1.753   4.706  2.2871 -0.5668  2.9661
 1432SOL    HW215930   2.613   1.813   4.638  0.1619 -0.2432  0.4537
 1433SOL     OW15931   1.599   1.479   7.797 -0.0748 -0.5394  0.2532
 1433SOL    HW115932   1.513   1.520   7.790 -1.4413 -3.2962  0.8450
 1433SOL    HW215933   1.580   1.423   7.872  2.7466  0.1189  1.4652
 1434SOL     OW15934   2.284   1.087   3.644 -0.6340  0.1026  0.0734
 1434SOL    HW115935   2.199   1.078   3.601  0.4418 -1.5069 -1.6586
 1434SOL    HW215936   2.309   0.996   3.655 -3.3837 -0.5400  1.0214
 1435SOL     OW15937   3.276   0.305  15.349  0.3870 -0.1418 -0.2237
 1435SOL    HW115938   3.219   0.228  15.347  0.4467 -0.2465  1.8655
 1435SOL    HW215939   3.326   0.283  15.270  1.1856  0.7168  0.0381
 1436SOL     OW15940   1.656   4.623   6.718 -1.1194  0.3691  0.0279
 1436SOL    HW115941   1.569   4.650   6.749 -1.1511 -0.2812  0.5131
 1436SOL    HW215942   1.655   4.617   6.622  0.0821 -3.0983  0.2570
 1437SOL     OW15943   0.678   1.850   9.238  0.5191 -0.3710  0.0812
 1437SOL    HW115944   0.704   1.769   9.193  0.9720 -0.7454  1.0065
 1437SOL    HW215945   0.622   1.878   9.167  0.0668  0.0732  0.6136
 1438SOL     OW15946   4.429   0.406   6.872 -0.2689  0.1087  0.4450
 1438SOL    HW115947   4.341   0.442   6.889 -0.2325  0.9357 -1.1124
 1438SOL    HW215948   4.456   0.463   6.799  0.8308  1.2669  1.7601
 1439SOL     OW15949   2.282   2.040   6.342 -0.5049  0.2209  0.4912
 1439SOL    HW115950   2.357   2.092   6.372  0.6457 -1.8783  1.2587
 1439SOL    HW215951   2.214   2.059   6.406 -2.3365  0.4678 -1.5197
 1440SOL     OW15952   1.306   3.454   7.654 -0.3718  0.1153 -0.2259
 1440SOL    HW115953   1.310   3.549   7.646 -1.6921  0.1707 -0.1874
 1440SOL    HW215954   1.397   3.441   7.679 -0.7279 -1.5247  0.2272
 1441SOL     OW15955   3.827   0.437   9.820 -0.3633  0.2141  0.2540
 1441SOL    HW115956   3.901   0.434   9.760 -1.5467 -0.4151 -1.1463
 1441SOL    HW215957   3.802   0.346   9.832 -3.6191  1.2198  0.9134
 1442SOL     OW15958   3.603   4.210   2.791 -0.2138  0.2692  0.1265
 1442SOL    HW115959   3.623   4.279   2.728 -0.7197  0.3620  0.0682
 1442SOL    HW215960   3.570   4.139   2.736 -1.0930  0.1999  0.7392
 1443SOL     OW15961   0.145   4.334   5.921 -0.2812 -0.5949  0.3460
 1443SOL    HW115962   0.198   4.384   5.860 -3.5165  0.0441 -1.9404
 1443SOL    HW215963   0.130   4.398   5.991 -3.1528 -0.9878  0.1085
 1444SOL     OW15964   2.873   3.255   5.519  0.5283  0.3862  0.3203
 1444SOL    HW115965   2.948   3.196   5.530  0.2987  0.3290  1.5945
 1444SOL    HW215966   2.801   3.206   5.560 -0.3502  1.3292 -0.0996
 1445SOL     OW15967   4.120   1.095   4.440  0.8336 -0.1831 -0.2135
 1445SOL    HW115968   4.087   1.116   4.527 -0.2403 -1.3728 -0.3403
 1445SOL    HW215969   4.197   1.048   4.470 -1.0289 -1.8615  1.9089
 1446SOL     OW15970   3.928   2.251   5.675  0.6004 -0.3517  0.3339
 1446SOL    HW115971   3.846   2.203   5.688  0.4686  0.0797  1.0849
 1446SOL    HW215972   3.986   2.179   5.702  1.7141 -0.2964 -1.9251
 1447SOL     OW15973   1.157   4.377   0.662 -0.0275 -0.3938  0.7069
 1447SOL    HW115974   1.159   4.338   0.750  0.1122  0.9254  1.2918
 1447SOL    HW215975   1.077   4.430   0.665  0.8934  0.9013  2.0925
 1448SOL     OW15976   3.731   3.782   5.386 -0.4249  0.5562 -0.3900
 1448SOL    HW115977   3.708   3.752   5.298  0.7078  0.6877 -0.7330
 1448SOL    HW215978   3.826   3.791   5.388 -0.4455  0.5039  0.8652
 1449SOL     OW15979   2.274   0.244  15.504  0.0805  0.4496 -0.4019
 1449SOL    HW115980   2.268   0.278  15.415  2.0656  0.1905 -0.6282
 1449SOL    HW215981   2.369   0.240  15.513  0.3530 -0.0123 -3.4518
 1450SOL     OW15982   2.547   3.120   3.764  0.7689  0.3132  0.0925
 1450SOL    HW115983   2.587   3.151   3.683 -0.0598  1.6085  0.1869
 1450SOL    HW215984   2.599   3.046   3.798  1.1169  0.3866 -0.2787
 1451SOL     OW15985   3.579   0.121   9.020 -0.0456 -0.1280  0.3612
 1451SOL    HW115986   3.526   0.055   9.064 -0.4396  0.3216  0.5624
 1451SOL    HW215987   3.605   0.172   9.096  2.4793  0.2075 -0.7279
 1452SOL     OW15988   0.053   1.870   9.417 -0.6986 -0.5899 -0.2952
 1452SOL    HW115989   4.699   1.883   9.394 -0.8568  0.0318  0.6720
 1452SOL    HW215990   0.084   1.794   9.367 -0.9335 -1.1144  0.3515
 1453SOL     OW15991   4.268   2.910   8.204 -0.5205 -0.5140  0.3673
 1453SOL    HW115992   4.280   2.921   8.109  1.1084 -1.6652  0.4455
 1453SOL    HW215993   4.344   2.960   8.233  0.4066 -0.7927 -1.5604
 1454SOL     OW15994   4.403   1.506   8.394 -0.1288 -0.0614 -0.2078
 1454SOL    HW115995   4.365   1.423   8.367  1.9907 -1.4842  1.1431
 1454SOL    HW215996   4.325   1.561   8.397  0.1525  0.2686  0.8662
 1455SOL     OW15997   2.391   0.605   5.407  0.3953 -0.6068  0.7182
 1455SOL    HW115998   2.326   0.560   5.462  0.2825 -2.3706 -0.8437
 1455SOL    HW215999   2.465   0.544   5.409  0.3954 -0.5341  2.7305
 1456SOL     OW16000   4.594   1.718   4.551  0.1722 -0.1276  0.0691
 1456SOL    HW116001   4.517   1.733   4.498  0.1787  1.6717  0.5712
 1456SOL    HW216002   4.607   1.805   4.589 -0.0247 -0.4222  0.8148
 1457SOL     OW16003   4.606   1.203   9.728  0.0242  0.0986 -0.1548
 1457SOL    HW116004   4.594   1.109   9.718  0.1038  0.1032 -0.2904
 1457SOL    HW216005   4.603   1.216   9.823  1.6785  0.1240 -0.1159
 1458SOL     OW16006   1.259   3.211   3.428 -0.6264 -0.2448 -0.3838
 1458SOL    HW116007   1.301   3.154   3.364  0.6150 -1.1746  1.2582
 1458SOL    HW216008   1.221   3.272   3.364  1.2078  2.8091  1.4406
 1459SOL     OW16009   0.155   1.563   5.655  0.4950 -0.0880 -0.5928
 1459SOL    HW116010   0.109   1.563   5.739  1.8120 -1.6661  0.1334
 1459SOL    HW216011   0.244   1.553   5.689 -0.1976 -2.2948  0.5276
 1460SOL     OW16012   3.941   2.006   7.195 -0.5143  0.5369  0.6101
 1460SOL    HW116013   4.029   2.026   7.161 -0.5523 -0.1564  0.1124
 1460SOL    HW216014   3.884   2.051   7.133 -0.7194 -2.3839 -1.3284
 1461SOL     OW16015   2.692   3.050   4.942 -0.0144  0.1730  0.3140
 1461SOL    HW116016   2.640   3.043   5.023  0.5748 -0.5790  0.6294
 1461SOL    HW216017   2.624   3.030   4.877 -0.5554  0.4650  0.7827
 1462SOL     OW16018   2.713   1.055   4.680  0.4267 -0.0168 -0.1774
 1462SOL    HW116019   2.619   1.065   4.666  1.0559  2.0677 -2.9282
 1462SOL    HW216020   2.707   1.091   4.768  0.5005 -0.7120  0.1120
 1463SOL     OW16021   2.106   1.851   4.611  0.4957 -0.0743  0.0254
 1463SOL    HW116022   2.024   1.814   4.641  1.8744 -2.5740  0.7289
 1463SOL    HW216023   2.164   1.843   4.687 -0.6675 -2.4812  0.6549
 1464SOL     OW16024   1.055   2.929   5.877  0.2491  0.6648  0.1501
 1464SOL    HW116025   1.085   2.841   5.897 -1.2100  0.0718 -0.3248
 1464SOL    HW216026   0.962   2.916   5.893 -0.0762  0.6051 -1.8267
 1465SOL     OW16027   3.835   4.201   5.291 -0.1392 -0.1363  0.3609
 1465SOL    HW116028   3.910   4.142   5.296 -0.9957 -1.3704 -1.2419
 1465SOL    HW216029   3.837   4.208   5.195 -3.0000 -1.3636  0.1981
 1466SOL     OW16030   2.030   4.013   7.350  0.7972  0.2648 -0.1817
 1466SOL    HW116031   2.005   3.980   7.264 -1.4579  1.1328  0.1375
 1466SOL    HW216032   2.115   3.970   7.358  0.5524 -0.6903 -2.8347
 1467SOL     OW16033   2.870   2.797  10.786  0.0976 -0.0924  0.0391
 1467SOL    HW116034   2.822   2.878  10.804  0.5828 -0.0109  0.9679
 1467SOL    HW216035   2.946   2.818  10.841 -2.5829 -0.6970  4.0134
 1468SOL     OW16036   4.132   3.887   8.285 -0.5286 -0.2788  0.0365
 1468SOL    HW116037   4.128   3.796   8.314  0.8651 -0.8552 -1.5868
 1468SOL    HW216038   4.168   3.871   8.198 -1.4092  0.9862 -0.5585
 1469SOL     OW16039   0.563   0.125   4.529 -0.1183 -0.2039  0.7017
 1469SOL    HW116040   0.658   0.117   4.517 -0.5086  0.8829 -3.1308
 1469SOL    HW216041   0.543   0.085   4.614 -1.1078  0.1021  0.6105
 1470SOL     OW16042   4.428   4.015   2.507 -0.1855 -0.0377  0.2466
 1470SOL    HW116043   4.460   3.930   2.536  0.4314  1.7346  4.7802
 1470SOL    HW216044   4.484   4.076   2.555  3.4403 -0.1456 -3.8359
 1471SOL     OW16045   4.006   0.672   4.614 -0.4737  0.2958  0.2879
 1471SOL    HW116046   3.943   0.743   4.625  0.3803  1.0595  0.1929
 1471SOL    HW216047   4.040   0.679   4.703 -0.0480 -1.8931  0.3102
 1472SOL     OW16048   3.060   1.349  10.474  0.0441 -0.1257 -0.0885
 1472SOL    HW116049   3.153   1.361  10.494 -0.3163 -1.1182  2.1190
 1472SOL    HW216050   3.022   1.382  10.555 -2.0563 -2.2047 -0.2438
 1473SOL     OW16051   0.188   1.793   3.909 -0.1884 -0.3573 -0.4970
 1473SOL    HW116052   0.096   1.810   3.890 -0.2218 -0.8396 -0.7769
 1473SOL    HW216053   0.169   1.732   3.980 -0.3806 -1.2941 -1.3445
 1474SOL     OW16054   4.480   3.055   6.030  0.3335  0.1307 -0.0205
 1474SOL    HW116055   4.501   3.023   5.942 -0.0217 -0.2643  0.0384
 1474SOL    HW216056   4.472   2.972   6.078  1.4395  0.8916  1.4727
 1475SOL     OW16057   2.225   3.911  16.223  0.2756  0.1199 -0.0447
 1475SOL    HW116058   2.149   3.906  16.281  0.4668  0.0694  0.2037
 1475SOL    HW216059   2.182   3.888  16.141  3.0388  0.5232 -1.5788
 1476SOL     OW16060   1.798   1.053  10.948 -0.1462  0.5540  0.4460
 1476SOL    HW116061   1.781   1.146  10.936  2.8869  0.9228 -0.8951
 1476SOL    HW216062   1.842   1.059  11.033 -1.6917  3.9219  1.0091
 1477SOL     OW16063   2.704   1.957   1.777  0.3530 -0.0584  0.2875
 1477SOL    HW116064   2.627   1.934   1.725  0.2902 -1.9692  1.2109
 1477SOL    HW216065   2.746   1.871   1.769 -0.8692 -0.8038  1.7556
 1478SOL     OW16066   1.996   0.111  10.779  0.1234 -0.0065  0.0690
 1478SOL    HW116067   1.940   0.187  10.764  0.3863  0.4388  1.3066
 1478SOL    HW216068   1.974   0.086  10.869 -0.2961 -0.7070 -0.2287
 1479SOL     OW16069   4.445   2.361   8.050  0.0299 -0.4185  0.4880
 1479SOL    HW116070   4.519   2.381   7.992 -0.1020 -1.8069 -0.1626
 1479SOL    HW216071   4.386   2.431   8.022  1.2174  0.7538  0.9081
 1480SOL     OW16072   2.389   0.737   3.337  0.5962  0.2549  0.3111
 1480SOL    HW116073   2.399   0.832   3.343 -1.6577  0.5833 -1.4137
 1480SOL    HW216074   2.304   0.722   3.378  0.6752  1.2552  0.8496
 1481SOL     OW16075   0.413   3.617  11.308 -0.5981 -0.3790 -0.0761
 1481SOL    HW116076   0.441   3.681  11.243  1.5063  0.9910  2.1487
 1481SOL    HW216077   0.487   3.611  11.368 -0.2420 -0.2451 -0.5060
 1482SOL     OW16078   0.311   3.902   2.544  0.2274 -0.3523  0.1492
 1482SOL    HW116079   0.217   3.888   2.557 -0.0583  0.3573 -1.1486
 1482SOL    HW216080   0.312   3.885   2.450 -1.1349  0.0026  0.0733
 1483SOL     OW16081   1.486   3.526   3.059  0.2436 -0.6998 -0.2847
 1483SOL    HW116082   1.407   3.570   3.028  0.4543  0.3829  0.7152
 1483SOL    HW216083   1.550   3.582   3.014 -1.2801 -0.7001 -2.4955
 1484SOL     OW16084   0.922   1.785   6.337 -0.6387  0.4874 -0.2893
 1484SOL    HW116085   0.956   1.873   6.321  0.4560 -0.1893 -1.6305
 1484SOL    HW216086   0.999   1.752   6.384 -0.8135  0.2844 -0.1431
 1485SOL     OW16087   0.246   0.363   4.482  0.4216 -0.5485  0.5099
 1485SOL    HW116088   0.330   0.370   4.526 -0.6441 -0.9149  2.6003
 1485SOL    HW216089   0.187   0.385   4.555  1.4794  4.1629 -0.0581
 1486SOL     OW16090   3.676   4.353   5.751  0.4469  0.0999  0.1303
 1486SOL    HW116091   3.608   4.296   5.715  0.0679  1.0592 -0.6552
 1486SOL    HW216092   3.667   4.334   5.844  0.1227 -0.6283 -0.0455
 1487SOL     OW16093   1.988   1.842   3.931 -0.5550  0.0910 -0.4150
 1487SOL    HW116094   1.898   1.833   3.962 -1.2216  0.7733 -2.1550
 1487SOL    HW216095   1.989   1.776   3.861  0.7093 -0.6099  0.2636
 1488SOL     OW16096   1.217   1.026   5.683 -0.8737  0.0240  0.0404
 1488SOL    HW116097   1.198   0.932   5.690  0.5124 -0.3117 -0.6270
 1488SOL    HW216098   1.130   1.063   5.695 -0.4718  0.7667  0.6704
 1489SOL     OW16099   2.967   0.839   1.150 -0.4911  0.1568  0.0752
 1489SOL    HW116100   3.043   0.786   1.175 -1.1719 -0.4132  0.9243
 1489SOL    HW216101   2.907   0.777   1.191  0.8484 -1.0146  0.2573
 1490SOL     OW16102   1.015   3.708   2.962 -0.3833  0.3340 -0.1631
 1490SOL    HW116103   1.046   3.794   2.932 -0.4675  1.7018  3.6315
 1490SOL    HW216104   0.941   3.689   2.903 -0.2162  0.5628 -0.4500
 1491SOL     OW16105   1.710   4.411   3.638 -0.2657  0.4987  0.1016
 1491SOL    HW116106   1.751   4.456   3.565  0.4790 -1.9127 -0.9558
 1491SOL    HW216107   1.677   4.490   3.682 -1.6456  0.5081 -0.9520
 1492SOL     OW16108   0.552   3.587  14.354 -0.1388  0.4393 -0.4400
 1492SOL    HW116109   0.618   3.580  14.285  1.3361  0.6374  0.9426
 1492SOL    HW216110   0.486   3.638  14.308  1.6396  1.5063 -1.7914
 1493SOL     OW16111   0.900   3.872   5.203  0.2190 -0.7307  0.4719
 1493SOL    HW116112   0.959   3.801   5.226  1.0076 -0.0152  0.6485
 1493SOL    HW216113   0.896   3.869   5.108  0.7211  0.5952  0.4079
 1494SOL     OW16114   0.637   4.663   6.172  0.1555  0.2210 -0.3761
 1494SOL    HW116115   0.676   4.693   6.255  1.7128  1.9950 -1.7480
 1494SOL    HW216116   0.646   0.006   6.122  0.4150 -1.0102 -2.3104
 1495SOL     OW16117   3.273   0.850  13.091 -0.0793 -0.1166  0.3376
 1495SOL    HW116118   3.353   0.808  13.061 -0.8354 -1.3942  0.1294
 1495SOL    HW216119   3.211   0.823  13.023 -0.6462 -1.1238  1.2420
 1496SOL     OW16120   4.274   4.465   2.955  0.5138 -0.3328  0.7641
 1496SOL    HW116121   4.255   4.487   2.864 -0.1952 -0.5328  0.8595
 1496SOL    HW216122   4.364   4.440   2.936  0.5765  0.1194  0.4895
 1497SOL     OW16123   2.660   3.308   3.938 -0.1391  0.7006  0.1292
 1497SOL    HW116124   2.670   3.261   4.021 -3.1291 -0.3917 -0.1005
 1497SOL    HW216125   2.645   3.248   3.864 -0.5642 -0.9702  1.5711
 1498SOL     OW16126   3.946   1.744   7.241 -0.2029 -0.7193 -0.1044
 1498SOL    HW116127   4.016   1.711   7.298 -0.5193 -0.3374  0.5058
 1498SOL    HW216128   3.967   1.834   7.218  0.0450 -0.9202 -0.6641
 1499SOL     OW16129   2.690   1.057  10.323 -0.6339 -0.0165  0.4188
 1499SOL    HW116130   2.725   1.020  10.404 -1.3394 -0.2589  0.6082
 1499SOL    HW216131   2.655   1.140  10.355 -1.6202 -0.2852  0.0591
 1500SOL     OW16132   3.681   4.427   2.605  0.3583 -0.1252  0.1238
 1500SOL    HW116133   3.765   4.472   2.613  1.0443 -1.1576 -1.1586
 1500SOL    HW216134   3.638   4.484   2.541 -1.4649 -2.8472 -1.0968
 1501SOL     OW16135   0.129   4.235   4.250  0.2666  0.5380 -0.2180
 1501SOL    HW116136   0.103   4.257   4.161 -0.0433  1.0587  0.0003
 1501SOL    HW216137   0.110   4.142   4.249  0.4078  0.5266 -1.5124
 1502SOL     OW16138   4.227   1.719   6.492 -0.1845 -0.1895  0.1265
 1502SOL    HW116139   4.299   1.661   6.516 -1.0920 -0.8653  1.2538
 1502SOL    HW216140   4.213   1.674   6.409  1.4399 -0.3653 -0.0516
 1503SOL     OW16141   2.431   0.898   0.622 -0.0635  0.0091  0.5144
 1503SOL    HW116142   2.366   0.836   0.653 -0.9874  0.9426  0.4395
 1503SOL    HW216143   2.378   0.978   0.619  0.9123  0.5668 -2.2221
 1504SOL     OW16144   1.380   2.983  10.663 -0.0398  0.1762  0.2195
 1504SOL    HW116145   1.440   3.047  10.625  0.9392 -0.3117  0.9458
 1504SOL    HW216146   1.334   2.961  10.582  0.6303  0.9526 -0.3771
 1505SOL     OW16147   2.448   3.346   5.728  0.2173  0.7215 -0.3052
 1505SOL    HW116148   2.515   3.387   5.673  0.0456 -2.5612 -2.9882
 1505SOL    HW216149   2.370   3.385   5.691  0.3826  1.2271 -0.1169
 1506SOL     OW16150   1.095   0.451  13.305 -0.4231 -0.7328  0.4658
 1506SOL    HW116151   1.131   0.438  13.393 -1.3444 -1.5225  0.7139
 1506SOL    HW216152   1.115   0.372  13.256  1.1620  0.1989 -0.4032
 1507SOL     OW16153   0.350   3.192  12.095 -0.0405  0.0926 -0.1539
 1507SOL    HW116154   0.409   3.133  12.048 -0.0309 -0.9594  1.2025
 1507SOL    HW216155   0.311   3.234  12.018 -0.7333 -0.9743 -0.3936
 1508SOL     OW16156   0.466   2.164  10.627  0.1718 -0.3027 -1.1194
 1508SOL    HW116157   0.488   2.134  10.715  1.3308  2.0907 -0.5996
 1508SOL    HW216158   0.537   2.226  10.613 -0.3955  0.5782 -0.0165
 1509SOL     OW16159   4.046   0.876   5.656  0.1363  0.1755  0.5739
 1509SOL    HW116160   4.110   0.816   5.620 -0.1098  0.8115 -0.9349
 1509SOL    HW216161   4.092   0.955   5.685 -0.6915  0.7511  0.3276
 1510SOL     OW16162   2.926   1.970   5.763 -0.2853  0.4565 -0.3409
 1510SOL    HW116163   2.845   2.015   5.738 -0.8768  0.7356  2.1476
 1510SOL    HW216164   2.964   1.969   5.675  0.5616 -0.3052  0.0416
 1511SOL     OW16165   4.727   4.705  17.180  0.1195 -0.3650  0.2714
 1511SOL    HW116166   0.083   4.718  17.171 -0.0846  0.7740 -0.1704
 1511SOL    HW216167   4.689   0.042  17.136 -1.1489 -1.0974  0.0992
 1512SOL     OW16168   0.408   3.484   5.927 -0.6598 -0.2729 -0.0153
 1512SOL    HW116169   0.313   3.494   5.938 -0.5873  0.2341  0.1775
 1512SOL    HW216170   0.400   3.452   5.838  1.6049  0.1657 -0.3678
 1513SOL     OW16171   1.916   1.807   5.258 -0.1492  0.4999 -0.0276
 1513SOL    HW116172   1.859   1.757   5.316 -0.1663  0.7719  0.1934
 1513SOL    HW216173   1.997   1.819   5.308 -0.5574  1.5793  0.3667
 1514SOL     OW16174   3.762   0.866  15.253  0.0108 -0.0450  0.7095
 1514SOL    HW116175   3.791   0.932  15.316 -2.8397  1.2770  0.6039
 1514SOL    HW216176   3.684   0.843  15.304 -1.1832  2.4136 -0.0188
 1515SOL     OW16177   1.017   1.937  11.851  0.0968 -0.2598  0.2676
 1515SOL    HW116178   0.947   1.928  11.787  0.7159  2.0445 -0.7616
 1515SOL    HW216179   1.026   2.029  11.826  4.3781 -0.6659  0.3381
 1516SOL     OW16180   4.668   0.480   9.727 -0.3720 -0.0696 -0.6157
 1516SOL    HW116181   4.731   0.412   9.752 -1.9141 -0.1511  3.0992
 1516SOL    HW216182   4.601   0.459   9.793 -1.0009 -0.9539 -1.5315
 1517SOL     OW16183   4.477   1.167   6.991 -0.4908 -0.6995 -0.0530
 1517SOL    HW116184   4.408   1.210   6.941  0.4332  0.2015 -0.5551
 1517SOL    HW216185   4.494   1.089   6.937 -2.4880 -1.4577  0.4229
 1518SOL     OW16186   4.163   2.679   2.133  0.2777 -0.1369  0.3415
 1518SOL    HW116187   4.228   2.650   2.197  1.8014  0.2553 -1.0134
 1518SOL    HW216188   4.180   2.609   2.070  2.2293 -1.0706  1.8943
 1519SOL     OW16189   0.423   4.265  15.802 -0.3248 -0.1941 -0.1626
 1519SOL    HW116190   0.344   4.223  15.837 -0.4743  0.0596 -0.1961
 1519SOL    HW216191   0.457   4.197  15.743 -2.6965 -0.3630 -1.3551
 1520SOL     OW16192   3.189   1.337   9.063  0.0514 -0.2788 -0.5294
 1520SOL    HW116193   3.246   1.268   9.031  0.5722  0.4727 -1.2201
 1520SOL    HW216194   3.204   1.405   8.997  0.5272  3.0939  3.0644
 1521SOL     OW16195   2.017   1.622   7.689 -0.4560  0.3248 -0.1346
 1521SOL    HW116196   1.927   1.629   7.721 -0.4611 -0.3454 -0.0054
 1521SOL    HW216197   2.045   1.544   7.737 -1.1569 -0.6390 -1.2881
 1522SOL     OW16198   0.021   4.704   4.614  0.1490 -0.1612 -0.2304
 1522SOL    HW116199   4.729   4.705   4.523  1.3376 -0.7027 -0.6230
 1522SOL    HW216200   0.062   4.618   4.611 -1.5815 -0.9865 -0.2055
 1523SOL     OW16201   1.745   2.144   6.568 -0.4652  0.3689  0.6864
 1523SOL    HW116202   1.656   2.151   6.601 -0.1209  1.6738  1.3723
 1523SOL    HW216203   1.762   2.238   6.567  1.9757 -0.0993 -1.1794
 1524SOL     OW16204   2.570   1.689   3.015 -0.0151  0.4703 -0.3534
 1524SOL    HW116205   2.566   1.601   2.978  1.1444  0.7123 -1.0593
 1524SOL    HW216206   2.662   1.696   3.039  0.3032 -3.7143 -0.4720
 1525SOL     OW16207   2.664   0.215  10.233 -0.7543 -0.1150  0.2474
 1525SOL    HW116208   2.658   0.123  10.259 -1.9194  0.2470  1.2874
 1525SOL    HW216209   2.595   0.227  10.167 -0.6741  0.6490  0.3024
 1526SOL     OW16210   2.767   2.747  11.153  0.3512 -0.0481  0.2611
 1526SOL    HW116211   2.825   2.814  11.189 -0.3791  0.8278 -0.1856
 1526SOL    HW216212   2.807   2.727  11.068  0.5443 -1.7549  0.7657
 1527SOL     OW16213   0.085   4.185  12.993  0.0408  0.0333 -0.1103
 1527SOL    HW116214   0.040   4.116  12.944 -0.9507  0.9285 -0.4642
 1527SOL    HW216215   0.166   4.189  12.941 -0.1756  0.6541 -0.4071
 1528SOL     OW16216   4.087   0.989  10.866 -0.1306  0.3943  0.0294
 1528SOL    HW116217   4.058   1.079  10.882 -1.4239  0.4575 -2.7026
 1528SOL    HW216218   4.183   0.984  10.863 -0.2839 -2.0062 -0.3249
 1529SOL     OW16219   3.826   1.522   3.534  0.0177  0.1021  0.1256
 1529SOL    HW116220   3.882   1.599   3.541 -0.6583  0.6560 -0.5328
 1529SOL    HW216221   3.746   1.554   3.575 -1.5627 -1.9878 -1.3473
 1530SOL     OW16222   4.423   0.681   4.538 -0.2698  0.6540 -0.2384
 1530SOL    HW116223   4.401   0.588   4.529 -1.8161  1.0140 -0.1509
 1530SOL    HW216224   4.512   0.683   4.503  0.1011 -1.9742  0.5579
 1531SOL     OW16225   0.858   4.285   9.851 -0.0688  0.1180 -0.8425
 1531SOL    HW116226   0.862   4.228   9.928  0.4596 -0.9091 -1.6364
 1531SOL    HW216227   0.950   4.310   9.849  0.0872 -0.3799 -0.2069
 1532SOL     OW16228   4.515   2.687   8.271  0.3994 -0.3467  0.1783
 1532SOL    HW116229   4.419   2.681   8.268  0.2750  1.5160  0.9015
 1532SOL    HW216230   4.540   2.638   8.192 -0.9484  1.6480 -1.5024
 1533SOL     OW16231   4.539   0.542   7.311 -0.0940  0.3437 -0.0666
 1533SOL    HW116232   4.474   0.611   7.297 -0.9590 -0.5741 -0.5734
 1533SOL    HW216233   4.512   0.494   7.390 -1.3688 -1.4448 -1.6019
 1534SOL     OW16234   3.652   3.708   7.720 -0.6035  0.2661  0.4590
 1534SOL    HW116235   3.740   3.692   7.754 -0.6054  0.1292  0.4023
 1534SOL    HW216236   3.673   3.705   7.627  0.1688 -1.6031  0.6894
 1535SOL     OW16237   3.681   1.945  10.595  0.2676  0.5406  0.2284
 1535SOL    HW116238   3.625   2.022  10.584 -1.9648 -1.4187 -1.9888
 1535SOL    HW216239   3.709   1.955  10.686  0.2415  0.9533  0.1916
 1536SOL     OW16240   2.365   3.398  14.457  0.2598 -0.4328 -0.1299
 1536SOL    HW116241   2.329   3.440  14.379  1.1608 -0.7598 -0.7316
 1536SOL    HW216242   2.282   3.373  14.496  0.5734 -0.5144  0.4790
 1537SOL     OW16243   3.306   3.770   3.701 -0.1197 -0.0196  0.1691
 1537SOL    HW116244   3.276   3.759   3.611  1.9462  0.3918 -0.5804
 1537SOL    HW216245   3.319   3.864   3.705 -0.8542  0.1133 -0.5651
 1538SOL     OW16246   0.619   1.553  12.604 -0.1144  0.3098  0.5480
 1538SOL    HW116247   0.674   1.631  12.611 -1.2336  1.0649  0.8174
 1538SOL    HW216248   0.689   1.490  12.584 -2.1283 -1.9295  0.5807
 1539SOL     OW16249   1.729   2.237   9.166 -0.0717  0.8587 -0.2750
 1539SOL    HW116250   1.730   2.280   9.252  2.1534  1.6940 -0.7162
 1539SOL    HW216251   1.639   2.205   9.161  1.1090 -2.7255  1.2761
 1540SOL     OW16252   3.930   2.710   2.269 -0.1731 -0.3953  0.1411
 1540SOL    HW116253   4.015   2.694   2.227  0.2319  2.2447 -0.0890
 1540SOL    HW216254   3.873   2.664   2.208  0.6946 -1.0216 -0.1952
 1541SOL     OW16255   2.990   1.124   4.591 -0.5014 -0.8686 -0.3207
 1541SOL    HW116256   2.975   1.215   4.562  1.2459 -1.2257 -2.3792
 1541SOL    HW216257   2.907   1.097   4.631 -0.7125 -0.9413 -0.8007
 1542SOL     OW16258   3.860   1.473   4.419  0.3823 -0.0157 -0.5228
 1542SOL    HW116259   3.769   1.461   4.394  0.2721  1.6266 -0.9199
 1542SOL    HW216260   3.900   1.422   4.348  0.1761 -1.8656  0.7106
 1543SOL     OW16261   4.678   4.269  12.477 -0.4111  0.1050 -0.3798
 1543SOL    HW116262   0.015   4.328  12.485 -0.2087 -0.3274  0.7969
 1543SOL    HW216263   4.615   4.336  12.449 -1.4763 -0.6523  0.2038
 1544SOL     OW16264   2.766   1.093  10.614  0.0401 -0.1733 -0.1123
 1544SOL    HW116265   2.679   1.128  10.597 -0.7168 -1.9616  0.0154
 1544SOL    HW216266   2.757   1.072  10.707  1.1847 -0.9572 -0.1714
 1545SOL     OW16267   0.065   1.569  14.048 -0.0473 -0.1671  0.0760
 1545SOL    HW116268   0.109   1.484  14.044 -0.1490 -0.1661 -1.0788
 1545SOL    HW216269   4.726   1.565  13.992 -1.9834 -0.0230  2.7313
 1546SOL     OW16270   1.597   2.781   4.310  0.1539  0.3770  0.1889
 1546SOL    HW116271   1.546   2.848   4.356 -0.0974  1.2187 -1.3263
 1546SOL    HW216272   1.649   2.744   4.382 -2.1880 -2.8809  0.2391
 1547SOL     OW16273   2.318   2.066   7.740 -0.0624 -0.3501 -0.2049
 1547SOL    HW116274   2.382   2.093   7.806 -1.6752  0.0235  1.2059
 1547SOL    HW216275   2.294   1.974   7.750 -1.2875  0.0018 -0.0004
 1548SOL     OW16276   2.619   0.051   6.709 -0.2391 -0.0626  0.1779
 1548SOL    HW116277   2.644   0.096   6.790 -0.9028  0.7778 -0.0902
 1548SOL    HW216278   2.543   0.011   6.752 -1.0791 -0.0825 -1.3191
 1549SOL     OW16279   0.049   2.754   8.191  0.1931  0.5631 -0.0949
 1549SOL    HW116280   4.706   2.794   8.159 -0.5812 -0.3137  0.7945
 1549SOL    HW216281   0.054   2.771   8.285 -0.1659  2.1888 -0.3803
 1550SOL     OW16282   2.039   1.844  10.005  0.3966  0.2560  0.0539
 1550SOL    HW116283   2.001   1.902   9.939  0.7261  1.9608  1.3551
 1550SOL    HW216284   2.134   1.855  10.012  0.7639 -2.4148 -0.7719
 1551SOL     OW16285   1.565   2.971   0.103 -0.1192 -0.0275 -0.3414
 1551SOL    HW116286   1.605   3.034   0.164 -1.1271  0.6923 -0.4200
 1551SOL    HW216287   1.483   3.019   0.089 -0.5743 -0.5213  0.6253
 1552SOL     OW16288   3.626   0.631   0.936 -0.3420  0.0053  0.6131
 1552SOL    HW116289   3.575   0.707   0.961 -0.9663  0.1006 -0.9374
 1552SOL    HW216290   3.646   0.655   0.845  1.6780 -0.0266  1.0489
 1553SOL     OW16291   3.768   1.643   7.961  0.4320 -0.4077  0.0313
 1553SOL    HW116292   3.741   1.557   7.991  2.3013 -1.3973 -1.1348
 1553SOL    HW216293   3.747   1.645   7.868 -1.3954 -1.9972  0.4189
 1554SOL     OW16294   3.733   2.495   4.636 -0.0999  0.3762  0.2821
 1554SOL    HW116295   3.827   2.499   4.616 -0.1094 -0.3719  0.0976
 1554SOL    HW216296   3.691   2.500   4.550 -2.7163  1.0041  1.6210
 1555SOL     OW16297   2.795   3.865   7.078  0.2566  0.0191 -0.3927
 1555SOL    HW116298   2.782   3.863   6.983 -0.3620 -2.0895 -0.2891
 1555SOL    HW216299   2.769   3.776   7.103  3.7845 -1.3242 -1.5779
 1556SOL     OW16300   3.153   1.211  15.090 -0.6815  0.1296  0.4232
 1556SOL    HW116301   3.247   1.226  15.075 -0.8544 -1.6787 -2.3917
 1556SOL    HW216302   3.133   1.221  14.997 -0.1582 -2.0526  0.0720
 1557SOL     OW16303   0.212   4.086  17.500 -0.2152 -0.5630  0.2391
 1557SOL    HW116304   0.290   4.088  17.445 -0.6775  1.0048 -0.3308
 1557SOL    HW216305   0.152   4.140  17.449  0.6631 -1.6325 -1.9334
 1558SOL     OW16306   1.468   0.822  11.599  0.6150  0.5672  0.1284
 1558SOL    HW116307   1.554   0.861  11.582 -0.0070  2.0326  0.3213
 1558SOL    HW216308   1.461   0.826  11.694  2.1532 -1.9855  0.3353
 1559SOL     OW16309   4.386   3.456   2.001  0.3372  0.4492  0.5574
 1559SOL    HW116310   4.476   3.471   2.028  0.6541 -0.5685  0.0988
 1559SOL    HW216311   4.352   3.390   2.062  0.4232  2.1920  2.4782
 1560SOL     OW16312   3.316   3.754   1.239 -0.0571  0.0609  0.4615
 1560SOL    HW116313   3.274   3.828   1.284 -2.4845 -0.0651 -1.6204
 1560SOL    HW216314   3.343   3.799   1.159 -0.1474  0.4473  0.6441
 1561SOL     OW16315   4.726   2.770  11.663 -0.3352 -0.0980 -0.0674
 1561SOL    HW116316   4.691   2.832  11.727 -1.2349  0.0196 -0.6740
 1561SOL    HW216317   0.048   2.820  11.608  1.1441 -1.3083  0.4712
 1562SOL     OW16318   3.256   0.190  12.235  0.0783  0.6868 -0.2014
 1562SOL    HW116319   3.236   0.194  12.141 -0.3293 -2.4683 -0.2271
 1562SOL    HW216320   3.172   0.206  12.276  1.6195  1.3365  2.7283
 1563SOL     OW16321   0.413   3.962   5.958  0.1440  0.0060 -0.5245
 1563SOL    HW116322   0.491   3.911   5.939 -0.3323 -1.7871  2.3137
 1563SOL    HW216323   0.441   4.047   5.992 -0.9504  0.6599 -1.2528
 1564SOL     OW16324   3.095   0.140   6.093  0.2608 -0.6587  0.2961
 1564SOL    HW116325   3.075   0.059   6.046  0.7075 -0.2297 -0.6222
 1564SOL    HW216326   3.005   0.164   6.112  0.4883  0.3282  0.1191
 1565SOL     OW16327   2.176   0.244   2.278 -0.8604 -0.2767  0.0131
 1565SOL    HW116328   2.261   0.223   2.242 -0.5130 -0.6140  1.0249
 1565SOL    HW216329   2.205   0.317   2.333  1.7925 -2.5861  1.6665
 1566SOL     OW16330   4.275   1.682   7.344  0.6070 -0.2377  0.0363
 1566SOL    HW116331   4.258   1.720   7.258 -1.2041  2.6809  1.6973
 1566SOL    HW216332   4.274   1.588   7.323  1.4864 -0.2648  0.1225
 1567SOL     OW16333   1.778   1.605  16.599 -0.4155  1.0134 -0.3048
 1567SOL    HW116334   1.685   1.594  16.578 -0.2094  0.9234 -1.1607
 1567SOL    HW216335   1.815   1.665  16.535  0.9482  0.2662 -0.2062
 1568SOL     OW16336   0.438   1.769   8.733 -0.0819  0.2401 -0.5053
 1568SOL    HW116337   0.483   1.807   8.658 -2.6266  1.3079 -1.4737
 1568SOL    HW216338   0.347   1.798   8.724 -0.8195 -2.0543 -0.5244
 1569SOL     OW16339   2.377   3.881   5.977  0.5231 -0.5195  0.1268
 1569SOL    HW116340   2.466   3.911   5.995 -0.1185  1.1207  0.5367
 1569SOL    HW216341   2.344   3.964   5.942  0.9767  0.1970  1.3978
 1570SOL     OW16342   4.310   0.513   4.031  0.5941  0.8628 -0.1605
 1570SOL    HW116343   4.284   0.469   3.950  0.1996  0.6019  0.1096
 1570SOL    HW216344   4.368   0.445   4.066 -1.6849  0.5819  3.0046
 1571SOL     OW16345   2.305   4.285   5.410 -0.6128 -0.3175  0.7290
 1571SOL    HW116346   2.276   4.194   5.406 -1.3335 -0.1114  1.2863
 1571SOL    HW216347   2.397   4.267   5.431 -0.1029 -0.1172 -1.2718
 1572SOL     OW16348   3.549   0.521   5.689  0.2506  0.4035 -0.1335
 1572SOL    HW116349   3.537   0.438   5.643 -0.0594 -0.3531  1.3389
 1572SOL    HW216350   3.590   0.491   5.770  1.0024 -1.0922 -1.0655
 1573SOL     OW16351   3.817   2.815   5.582 -0.6214 -0.8964  0.3332
 1573SOL    HW116352   3.833   2.753   5.511  0.7209  0.6878 -0.7578
 1573SOL    HW216353   3.865   2.773   5.654 -2.3873 -1.0418  1.4076
 1574SOL     OW16354   2.868   1.947   8.203  0.6295  0.4129 -0.3398
 1574SOL    HW116355   2.802   1.957   8.134 -1.0117  2.7233  1.5562
 1574SOL    HW216356   2.941   1.961   8.143  0.1404 -1.5524 -1.3906
 1575SOL     OW16357   2.937   1.646   2.804  0.2023  0.1223  0.2362
 1575SOL    HW116358   3.014   1.677   2.755 -1.3800  0.5850 -1.9715
 1575SOL    HW216359   2.900   1.571   2.759 -3.8679  1.4129  1.4080
 1576SOL     OW16360   2.348   1.485   9.186 -0.2533  0.2427  0.2299
 1576SOL    HW116361   2.396   1.521   9.111  0.8777  2.4497  2.0207
 1576SOL    HW216362   2.394   1.527   9.259 -0.6372  1.9422 -0.5035
 1577SOL     OW16363   3.857   0.856   8.791 -0.1762  0.1014 -0.3090
 1577SOL    HW116364   3.928   0.816   8.740 -0.3271  0.2281 -0.6125
 1577SOL    HW216365   3.859   0.945   8.757 -0.0274 -0.6787 -2.3762
 1578SOL     OW16366   1.417   1.404   4.911 -0.3580  0.1169  0.3588
 1578SOL    HW116367   1.374   1.479   4.952  0.7790  0.1439  1.4966
 1578SOL    HW216368   1.509   1.432   4.915  0.4063 -2.5997  1.5688
 1579SOL     OW16369   1.106   1.519   3.906 -0.3437 -0.5369 -0.0382
 1579SOL    HW116370   1.110   1.577   3.831  1.5094  0.1468  0.5917
 1579SOL    HW216371   1.063   1.584   3.962  3.1906 -0.4842  2.6241
 1580SOL     OW16372   1.798   3.277  10.460  0.3564 -0.2223  0.0508
 1580SOL    HW116373   1.805   3.287  10.365 -1.8723  3.2652  0.2213
 1580SOL    HW216374   1.889   3.264  10.486 -0.2415 -1.7705  1.3208
 1581SOL     OW16375   4.670   1.773  11.249  0.5613  0.8153  0.3262
 1581SOL    HW116376   4.587   1.790  11.293 -0.8348 -4.6444 -0.1114
 1581SOL    HW216377   4.690   1.688  11.289  0.1487  1.1849  1.3281
 1582SOL     OW16378   3.474   1.645   9.285  0.6616  0.0658  0.3479
 1582SOL    HW116379   3.397   1.590   9.300  1.8740 -1.4357  1.0990
 1582SOL    HW216380   3.484   1.632   9.191 -1.1069  1.7209 -0.0690
 1583SOL     OW16381   0.540   0.703  12.889  0.2926 -0.3334  1.1253
 1583SOL    HW116382   0.475   0.744  12.833  2.4036  0.0666 -1.0126
 1583SOL    HW216383   0.617   0.687  12.834 -0.3727  0.4306 -0.0351
 1584SOL     OW16384   4.191   2.750  13.393  0.4615 -0.3671  0.0480
 1584SOL    HW116385   4.108   2.710  13.366  0.5268 -0.7094  0.3608
 1584SOL    HW216386   4.196   2.834  13.347 -0.8586 -0.0894  0.4093
 1585SOL     OW16387   3.385   0.570  11.316  0.1253 -0.1250  0.2375
 1585SOL    HW116388   3.440   0.516  11.258  0.4454  1.2407 -0.7275
 1585SOL    HW216389   3.458   0.615  11.357 -0.8554  0.1872  1.6275
 1586SOL     OW16390   3.315   2.327  10.898  0.1768 -0.1082  0.3900
 1586SOL    HW116391   3.313   2.260  10.830 -1.6376  0.7876 -0.4537
 1586SOL    HW216392   3.242   2.387  10.880 -0.7451 -1.6591 -0.9977
 1587SOL     OW16393   0.580   2.597   3.868  0.1602 -0.3208  0.7177
 1587SOL    HW116394   0.526   2.519   3.860 -0.1920  0.1155 -1.2172
 1587SOL    HW216395   0.584   2.608   3.963 -1.4038 -0.3198  0.7882
 1588SOL     OW16396   1.867   0.886   7.559  0.1743 -0.0563 -0.4184
 1588SOL    HW116397   1.921   0.838   7.497  1.9696  1.5233 -0.0758
 1588SOL    HW216398   1.828   0.822   7.618 -1.3789  1.6869  0.4472
 1589SOL     OW16399   2.283   3.066  12.822 -1.0561 -0.8514 -0.2066
 1589SOL    HW116400   2.255   3.012  12.896  0.4290 -2.0035 -0.4775
 1589SOL    HW216401   2.254   3.154  12.845 -0.7426 -0.8550  0.1858
 1590SOL     OW16402   3.123   0.661  11.393  1.1172  0.3153  0.2948
 1590SOL    HW116403   3.148   0.742  11.438  1.0542  0.0978  0.7190
 1590SOL    HW216404   3.208   0.620  11.378  2.3684  1.5652  3.9547
 1591SOL     OW16405   4.699   4.293   4.943 -1.1257  0.4915 -0.6211
 1591SOL    HW116406   4.677   4.247   4.862  1.2518 -2.0616  0.1704
 1591SOL    HW216407   4.615   4.325   4.977 -0.9453 -0.2145  0.4982
 1592SOL     OW16408   0.498   0.666   2.296  0.3524  0.5466 -0.1352
 1592SOL    HW116409   0.543   0.636   2.216  2.4807 -0.6700  1.5269
 1592SOL    HW216410   0.503   0.584   2.345  0.3676  1.0082  0.6355
 1593SOL     OW16411   3.847   3.521   4.630  0.2648  0.1773 -0.4407
 1593SOL    HW116412   3.815   3.512   4.540 -0.0950  1.3583 -0.4208
 1593SOL    HW216413   3.817   3.441   4.675 -1.7114  1.2044  0.0515
 1594SOL     OW16414   2.767   3.155   1.923 -0.3420  0.2189 -0.1050
 1594SOL    HW116415   2.676   3.181   1.936 -0.2235  2.2806 -3.5282
 1594SOL    HW216416   2.817   3.189   1.998  1.6030  0.4745 -1.5069
 1595SOL     OW16417   2.934   0.030   4.041  0.3270 -0.6309 -0.1982
 1595SOL    HW116418   2.918   4.675   4.028 -0.0542 -0.5774 -0.0878
 1595SOL    HW216419   2.880   0.061   3.969  2.9638  0.0484 -1.9082
 1596SOL     OW16420   0.861   3.698   7.559  0.1267  0.1213  0.2754
 1596SOL    HW116421   0.841   3.660   7.645  0.8732 -0.7374  0.0686
 1596SOL    HW216422   0.956   3.707   7.568  0.2806 -0.0032 -1.2673
 1597SOL     OW16423   2.193   1.228   9.008 -0.2400  1.0688  0.9508
 1597SOL    HW116424   2.141   1.306   9.029 -2.9218 -0.3043 -0.6883
 1597SOL    HW216425   2.176   1.168   9.080 -0.3073  0.4666  0.4276
 1598SOL     OW16426   3.895   0.597  13.280 -0.0889  0.1249  0.0257
 1598SOL    HW116427   3.990   0.607  13.268 -0.3145  0.2399 -1.7002
 1598SOL    HW216428   3.884   0.616  13.373 -0.2750 -1.0742  0.2420
 1599SOL     OW16429   1.880   4.727   6.831 -0.6639 -0.1430 -0.2202
 1599SOL    HW116430   1.821   4.674   6.777  0.4519 -1.6485  0.0358
 1599SOL    HW216431   1.812   0.025   6.887 -1.0798 -0.1190 -0.7354
 1600SOL     OW16432   1.384   3.751   3.999  0.0297  0.5264  0.1164
 1600SOL    HW116433   1.380   3.761   4.095 -0.8399 -2.9232  0.4251
 1600SOL    HW216434   1.331   3.672   3.995  1.5138 -0.4693 -0.0019
 1601SOL     OW16435   2.580   4.324   2.447 -0.3695 -0.3934  0.1380
 1601SOL    HW116436   2.659   4.324   2.393 -0.6178 -0.7303 -0.2214
 1601SOL    HW216437   2.598   4.257   2.513 -2.4445  0.7579  1.8615
 1602SOL     OW16438   2.455   4.195   6.185  0.3041  0.2902  0.3485
 1602SOL    HW116439   2.511   4.119   6.169  0.8511  0.1957  2.8348
 1602SOL    HW216440   2.497   4.233   6.262 -0.2491  3.7105 -1.0364
 1603SOL     OW16441   0.072   2.701   0.981 -0.5662 -0.3551 -0.2158
 1603SOL    HW116442   4.718   2.679   0.999 -0.4585 -1.0007 -0.4505
 1603SOL    HW216443   0.119   2.632   1.027  1.5384  1.5197  0.4277
 1604SOL     OW16444   3.834   4.323   7.019  0.3474 -0.1850  0.1256
 1604SOL    HW116445   3.846   4.410   7.057  1.4192  0.1877 -1.0616
 1604SOL    HW216446   3.783   4.279   7.088  3.0745 -1.5306  1.2965
 1605SOL     OW16447   1.614   4.311  12.478 -0.3514  0.3639  0.3593
 1605SOL    HW116448   1.531   4.356  12.491 -1.9430 -2.9815  1.9714
 1605SOL    HW216449   1.609   4.261  12.559 -0.1014  2.0153  1.3704
 1606SOL     OW16450   4.531   1.765   7.419 -0.2497  0.1075 -0.2217
 1606SOL    HW116451   4.576   1.682   7.437  2.7289  1.5934 -0.9046
 1606SOL    HW216452   4.452   1.739   7.371 -0.5896  1.5692 -0.4528
 1607SOL     OW16453   1.108   1.620   4.633 -0.4044  0.3068  0.6445
 1607SOL    HW116454   1.020   1.627   4.670 -0.6885 -2.3052  0.4300
 1607SOL    HW216455   1.125   1.714   4.619 -1.1114  0.1011 -1.5994
 1608SOL     OW16456   0.452   2.769   6.674  0.3762  0.4462 -0.4775
 1608SOL    HW116457   0.389   2.753   6.743 -0.6639 -1.0086 -1.7621
 1608SOL    HW216458   0.424   2.854   6.639 -2.1827 -0.0587  0.3642
 1609SOL     OW16459   1.308   4.600  10.067  0.4523  0.1450 -0.6329
 1609SOL    HW116460   1.400   4.626  10.078  0.3579  0.2798 -0.1705
 1609SOL    HW216461   1.306   4.516  10.113  0.9644 -0.6012 -1.9693
 1610SOL     OW16462   2.972   1.564   2.420  0.1592 -0.5085  0.0465
 1610SOL    HW116463   2.898   1.625   2.417 -0.2942 -0.9298  3.3641
 1610SOL    HW216464   2.939   1.487   2.375 -1.5967  1.2576 -1.7115
 1611SOL     OW16465   1.425   1.189   6.554  0.1562 -0.2059  0.0246
 1611SOL    HW116466   1.484   1.224   6.621  2.4320  4.0302 -4.1706
 1611SOL    HW216467   1.438   1.094   6.555  1.5343 -0.0052  2.0200
 1612SOL     OW16468   0.912   1.619   5.391 -0.3089  0.1923  0.2717
 1612SOL    HW116469   0.870   1.623   5.305  0.5494 -0.2583 -0.1629
 1612SOL    HW216470   0.890   1.535   5.431 -0.5109  0.6074  1.0372
 1613SOL     OW16471   0.923   1.034   6.283 -0.5075 -0.0948  0.2604
 1613SOL    HW116472   0.919   1.126   6.258 -0.0730 -0.4158 -0.9607
 1613SOL    HW216473   0.894   1.039   6.374  0.6790  1.3350  0.5580
 1614SOL     OW16474   1.620   1.096  17.558 -0.2374  0.5390 -0.4423
 1614SOL    HW116475   1.621   1.150  17.638  1.4137  1.1577 -0.9014
 1614SOL    HW216476   1.535   1.130  17.528 -0.1892 -0.1469 -1.3335
 1615SOL     OW16477   0.109   3.406  11.506  0.3216  0.4917  0.0770
 1615SOL    HW116478   0.110   3.437  11.416  1.2026 -0.2739 -0.1827
 1615SOL    HW216479   0.048   3.460  11.555  1.2790  1.0731  0.6351
 1616SOL     OW16480   3.294   3.076   3.303  0.1607  0.3631 -0.2352
 1616SOL    HW116481   3.382   3.114   3.301  0.5742 -0.5303  0.9608
 1616SOL    HW216482   3.290   3.039   3.391 -0.1431  0.1556 -0.3339
 1617SOL     OW16483   2.995   0.360   8.970  0.0467  0.1608  0.1477
 1617SOL    HW116484   3.039   0.362   9.054  0.6958  1.1109 -0.2102
 1617SOL    HW216485   2.904   0.384   8.987 -0.0894  0.2758 -0.7308
 1618SOL     OW16486   1.839   1.190   1.749  0.2721  0.1162  0.0506
 1618SOL    HW116487   1.831   1.234   1.664 -0.7902  2.2072  1.2580
 1618SOL    HW216488   1.932   1.167   1.756 -0.1272 -0.7235  2.6649
 1619SOL     OW16489   1.717   3.668  13.269 -0.2765 -0.1378 -0.1294
 1619SOL    HW116490   1.801   3.625  13.284  0.0866  1.1924  1.6994
 1619SOL    HW216491   1.675   3.660  13.355 -0.3979  2.2616  0.0321
 1620SOL     OW16492   1.786   0.164   9.321  0.8473  0.0374 -0.4344
 1620SOL    HW116493   1.725   0.093   9.300 -0.9699  1.4897 -0.1166
 1620SOL    HW216494   1.727   0.239   9.336  0.8342  0.1847 -1.1955
 1621SOL     OW16495   3.882   1.113   5.151 -0.3884  0.2140 -0.0311
 1621SOL    HW116496   3.935   1.083   5.225  0.0221  1.5142  0.2010
 1621SOL    HW216497   3.851   1.197   5.184 -1.8437  0.0522 -1.0204
 1622SOL     OW16498   1.011   2.865  13.772  0.2455 -0.1934  0.4249
 1622SOL    HW116499   1.096   2.865  13.728  0.3371 -2.8994  0.5840
 1622SOL    HW216500   1.025   2.867  13.866 -0.0938  0.7983  0.4527
 1623SOL     OW16501   2.327   1.951   4.784 -0.1097 -0.6872 -0.5920
 1623SOL    HW116502   2.407   1.923   4.740  0.2008  2.1373 -1.8266
 1623SOL    HW216503   2.341   2.045   4.791 -0.8006 -0.6837  0.8361
 1624SOL     OW16504   2.263   4.282   7.984 -0.2892 -0.6733  0.2851
 1624SOL    HW116505   2.357   4.285   7.964 -0.6201 -2.1945 -1.4766
 1624SOL    HW216506   2.276   4.245   8.071  2.8475 -0.2660  0.0060
 1625SOL     OW16507   3.143   2.676   5.739  0.0422 -0.6471  0.0125
 1625SOL    HW116508   3.053   2.694   5.711  0.1424 -0.3527 -0.1207
 1625SOL    HW216509   3.195   2.753   5.718  0.1029 -0.3411  1.2635
 1626SOL     OW16510   4.160   2.416   2.534  0.5130 -0.0550 -0.6142
 1626SOL    HW116511   4.074   2.377   2.520 -0.3656  0.7223  2.4786
 1626SOL    HW216512   4.185   2.373   2.616  1.8865  3.0529  0.6008
 1627SOL     OW16513   2.812   4.355   5.015 -0.9051 -0.2324  0.6071
 1627SOL    HW116514   2.827   4.444   5.047 -0.5457  0.2086 -0.8297
 1627SOL    HW216515   2.848   4.313   5.094 -1.6872 -1.5137  0.2768
 1628SOL     OW16516   1.213   3.299   2.703  0.2932  0.1167  0.1781
 1628SOL    HW116517   1.256   3.241   2.640  0.0053  1.0472 -0.8739
 1628SOL    HW216518   1.151   3.238   2.743 -0.7009  1.4352  0.6656
 1629SOL     OW16519   3.012   1.390  14.174 -0.5532 -0.0535 -0.2911
 1629SOL    HW116520   2.966   1.330  14.115 -1.8408  2.0092 -1.4026
 1629SOL    HW216521   2.988   1.340  14.252  3.1537 -0.8965  0.3072
 1630SOL     OW16522   3.350   0.004  12.843  0.5872  0.0961  0.2776
 1630SOL    HW116523   3.414   0.056  12.794  1.2947  0.2455  1.3580
 1630SOL    HW216524   3.269   0.054  12.845 -0.7144 -1.9409 -1.6198
 1631SOL     OW16525   3.013   3.910   2.013  0.4188 -0.3140  0.4020
 1631SOL    HW116526   2.964   3.832   1.985 -0.6484  1.0648 -1.5520
 1631SOL    HW216527   2.994   3.971   1.942 -0.4760  0.1605  1.0425
 1632SOL     OW16528   3.919   3.845  14.129 -0.4181  0.8139 -0.3949
 1632SOL    HW116529   3.958   3.774  14.079  2.3546  1.9108  0.1693
 1632SOL    HW216530   3.827   3.850  14.106 -0.9238  1.2276  1.6940
 1633SOL     OW16531   0.962   1.269  12.766 -0.3255  0.5312 -0.2261
 1633SOL    HW116532   0.926   1.180  12.764  0.5716  0.1599  0.2000
 1633SOL    HW216533   0.910   1.310  12.835  0.7638  0.7297  0.4724
 1634SOL     OW16534   3.398   2.307  17.508 -0.3403  0.1655  0.4119
 1634SOL    HW116535   3.440   2.285  17.591  0.3139  0.0913  0.0597
 1634SOL    HW216536   3.325   2.354  17.548 -1.5170  1.7488 -3.6074
 1635SOL     OW16537   0.956   4.507   8.911  0.4927 -0.1602 -0.7182
 1635SOL    HW116538   0.906   4.504   8.992  0.6700 -1.5640 -0.6691
 1635SOL    HW216539   0.940   4.421   8.873  0.7244 -0.4721 -0.1140
 1636SOL     OW16540   1.277   0.021   4.778 -0.0901  0.1570  0.0451
 1636SOL    HW116541   1.231   4.697   4.835 -1.8379  0.2591 -1.2669
 1636SOL    HW216542   1.336   0.059   4.843  0.9946 -0.4910 -0.5555
 1637SOL     OW16543   3.903   1.947  15.869  0.2270 -0.2204  0.1764
 1637SOL    HW116544   3.986   1.960  15.824 -0.4457  1.4021 -0.6012
 1637SOL    HW216545   3.846   2.020  15.845  3.0474  1.9962  0.2809
 1638SOL     OW16546   2.431   1.147  11.719  0.0386  0.0700 -0.2254
 1638SOL    HW116547   2.366   1.215  11.705 -0.8869 -0.6886  0.3598
 1638SOL    HW216548   2.378   1.067  11.714  1.3448 -0.8774  1.0386
 1639SOL     OW16549   3.158   1.064   5.559 -0.1697 -0.2028 -0.2448
 1639SOL    HW116550   3.243   1.088   5.520 -0.2420 -0.6556 -0.6765
 1639SOL    HW216551   3.124   0.995   5.503 -0.5612  0.3425 -0.6728
 1640SOL     OW16552   1.554   2.939  10.285  0.5119  0.1482  0.4532
 1640SOL    HW116553   1.520   3.018  10.328  0.8120  0.9553 -0.7898
 1640SOL    HW216554   1.617   2.900  10.345  0.0537 -1.0282  0.1552
 1641SOL     OW16555   3.612   0.668   8.536  0.2034 -0.1223 -0.3485
 1641SOL    HW116556   3.639   0.584   8.572 -2.0795 -0.3931  0.7646
 1641SOL    HW216557   3.610   0.717   8.619 -0.6955 -7.0753  3.7675
 1642SOL     OW16558   4.519   1.202  10.916  0.6003  0.2866  0.0482
 1642SOL    HW116559   4.533   1.255  10.994  1.2132  0.7832 -0.4065
 1642SOL    HW216560   4.558   1.249  10.842 -1.8939  0.0323 -1.4418
 1643SOL     OW16561   2.331   1.308   4.847 -0.1380 -0.0659 -0.1156
 1643SOL    HW116562   2.339   1.264   4.932 -1.1622 -0.0116  0.0149
 1643SOL    HW216563   2.419   1.344   4.838 -0.2844  0.2558 -0.2595
 1644SOL     OW16564   4.080   3.495   0.245 -0.6004 -0.0352  0.6489
 1644SOL    HW116565   4.166   3.533   0.261 -0.4456 -0.9408  1.9103
 1644SOL    HW216566   4.105   3.402   0.242 -0.7010 -0.0623  0.6484
 1645SOL     OW16567   3.748   4.414   8.547  0.3954 -0.0903  0.0737
 1645SOL    HW116568   3.798   4.333   8.561  1.6476  0.8784  1.2190
 1645SOL    HW216569   3.812   4.457   8.490  0.0981  0.0860 -0.1246
 1646SOL     OW16570   3.204   1.455   8.756 -0.5245  0.2570 -0.0601
 1646SOL    HW116571   3.109   1.446   8.760 -0.8647  4.2364  0.3975
 1646SOL    HW216572   3.202   1.550   8.753  0.5830  0.2555 -0.8258
 1647SOL     OW16573   1.964   0.485  10.849  0.3982  0.3513  0.5547
 1647SOL    HW116574   2.016   0.447  10.919  0.2649  0.0568  0.4940
 1647SOL    HW216575   1.927   0.563  10.890 -0.5530 -0.4539  1.2364
 1648SOL     OW16576   2.463   3.577   9.762  0.0684  0.0008  0.0203
 1648SOL    HW116577   2.442   3.669   9.744  1.2644  0.2562 -0.1117
 1648SOL    HW216578   2.511   3.554   9.682  1.6866 -3.3280  1.9645
 1649SOL     OW16579   1.806   2.102   3.868 -0.1529 -0.1020  0.2190
 1649SOL    HW116580   1.856   2.160   3.811 -0.8514  0.8523  0.5634
 1649SOL    HW216581   1.849   2.130   3.949  0.1423 -0.2943  0.1270
 1650SOL     OW16582   1.079   3.866   0.225 -0.0908 -0.2648 -0.0401
 1650SOL    HW116583   1.000   3.839   0.273 -0.5192  0.0336 -0.5735
 1650SOL    HW216584   1.125   3.901   0.301  0.5840  0.1209 -0.6305
 1651SOL     OW16585   0.236   4.171   8.822  0.2165 -0.0654 -0.0617
 1651SOL    HW116586   0.243   4.090   8.773 -2.5135 -0.7069  0.5835
 1651SOL    HW216587   0.320   4.213   8.806  0.2593  0.1146  0.6081
 1652SOL     OW16588   2.731   1.724   4.541 -0.2972  0.4927  0.2317
 1652SOL    HW116589   2.668   1.653   4.530  0.1695  0.2601 -0.9224
 1652SOL    HW216590   2.785   1.677   4.604 -0.7010 -0.8210 -0.4199
 1653SOL     OW16591   4.459   2.240   1.971 -0.2313  0.0709 -0.4832
 1653SOL    HW116592   4.462   2.209   2.062 -1.7239 -2.3822 -1.2725
 1653SOL    HW216593   4.542   2.286   1.977  0.5609 -1.4031 -0.1758
 1654SOL     OW16594   1.457   3.610   8.326 -0.3036  0.2715 -0.0962
 1654SOL    HW116595   1.434   3.660   8.247 -1.6799 -0.5036 -0.1939
 1654SOL    HW216596   1.400   3.536   8.305 -0.2664  0.3322 -0.4135
 1655SOL     OW16597   3.841   4.414   8.247 -0.3191 -0.8234  0.0008
 1655SOL    HW116598   3.839   4.331   8.200  0.7624  1.3076 -3.7226
 1655SOL    HW216599   3.783   4.467   8.193  1.6059  3.5179  2.2090
 1656SOL     OW16600   0.728   1.546  12.873 -0.2521  0.2156 -0.0374
 1656SOL    HW116601   0.652   1.571  12.926 -0.4640  1.0245 -0.7287
 1656SOL    HW216602   0.691   1.533  12.786 -0.1777  1.7974 -0.3163
 1657SOL     OW16603   0.386   3.889   1.937 -0.2814 -0.0830 -0.1003
 1657SOL    HW116604   0.306   3.842   1.915 -0.6219  1.2079 -1.6107
 1657SOL    HW216605   0.446   3.828   1.893  0.2154  0.3837 -0.0711
 1658SOL     OW16606   1.566   3.072   8.251 -0.1549 -0.2558  0.4079
 1658SOL    HW116607   1.602   3.137   8.311 -0.7762 -1.3899  2.0045
 1658SOL    HW216608   1.588   3.111   8.167 -0.1375 -0.1052  0.4820
 1659SOL     OW16609   2.417   4.341  14.306  0.1763 -0.5184  0.3328
 1659SOL    HW116610   2.452   4.346  14.395  0.0905  0.5388  0.3142
 1659SOL    HW216611   2.469   4.267  14.276  1.1087  0.9179 -1.6243
 1660SOL     OW16612   3.747   1.840   0.014 -0.3300 -0.8256 -0.1432
 1660SOL    HW116613   3.709   1.753   0.030 -1.2014 -0.5660 -0.8007
 1660SOL    HW216614   3.777   1.831  17.674  0.9019 -1.8074  0.3602
 1661SOL     OW16615   1.327   0.911   7.809 -0.0643 -0.0306 -0.6599
 1661SOL    HW116616   1.416   0.912   7.774  0.3351  0.1496  0.3854
 1661SOL    HW216617   1.329   0.855   7.887  2.5829  0.7302 -0.1814
 1662SOL     OW16618   2.867   1.449  12.675 -0.0348  0.3390 -0.4205
 1662SOL    HW116619   2.892   1.399  12.597  1.2724 -0.4060  0.4925
 1662SOL    HW216620   2.944   1.428  12.726 -1.7685  0.8624  2.3945
 1663SOL     OW16621   4.693   0.364  15.893  0.0465  0.0677 -0.0100
 1663SOL    HW116622   4.728   0.398  15.810  2.3455 -1.5429  0.3075
 1663SOL    HW216623   4.688   0.443  15.947  0.4751  0.3069 -0.3199
 1664SOL     OW16624   1.272   0.902   8.935 -0.1447  0.1388 -0.3415
 1664SOL    HW116625   1.336   0.856   8.989  1.0906  0.6426 -1.3781
 1664SOL    HW216626   1.233   0.828   8.888 -0.4410  0.3897 -0.4933
 1665SOL     OW16627   2.503   3.480   0.548  0.1152  0.3891  0.7586
 1665SOL    HW116628   2.454   3.434   0.616  0.9670  1.0536  1.8285
 1665SOL    HW216629   2.445   3.555   0.533  0.3268  0.9378  2.7072
 1666SOL     OW16630   3.913   2.012  13.508 -0.2205  0.0445 -0.2758
 1666SOL    HW116631   3.984   1.991  13.447 -1.4882 -2.9683 -0.7152
 1666SOL    HW216632   3.920   2.105  13.530 -3.0438 -0.3392  2.2787
 1667SOL     OW16633   3.719   2.840   3.633 -0.0219  0.2331 -0.1216
 1667SOL    HW116634   3.667   2.907   3.587  1.1426  0.5617 -0.9647
 1667SOL    HW216635   3.802   2.868   3.594  0.3674 -0.2508  0.3646
 1668SOL     OW16636   0.839   2.878   7.549  0.1907 -0.2437  0.5911
 1668SOL    HW116637   0.891   2.872   7.629  0.1176  0.6318  0.7087
 1668SOL    HW216638   0.754   2.895   7.591  0.9628  0.0550  2.0314
 1669SOL     OW16639   1.423   1.403   2.652 -0.3321  0.0342 -0.1771
 1669SOL    HW116640   1.440   1.424   2.560 -1.4112  0.2740 -0.3232
 1669SOL    HW216641   1.397   1.491   2.678  1.1927  0.4847 -0.1395
 1670SOL     OW16642   3.835   3.465   8.292  0.2591 -0.3722 -0.5509
 1670SOL    HW116643   3.809   3.558   8.289 -0.2990 -0.5462 -1.1590
 1670SOL    HW216644   3.869   3.461   8.381 -1.2069  0.9150  0.0758
 1671SOL     OW16645   0.837   4.619   4.240 -0.1238  0.2929 -0.7520
 1671SOL    HW116646   0.888   4.555   4.192  1.7802  1.6513 -0.5493
 1671SOL    HW216647   0.899   4.692   4.245 -0.0503  0.2939 -1.7044
 1672SOL     OW16648   3.209   0.647   6.060 -0.4882  0.3616 -0.0392
 1672SOL    HW116649   3.237   0.732   6.024  0.1726 -0.1282 -0.6725
 1672SOL    HW216650   3.237   0.660   6.151  0.5628  2.2072 -0.6137
 1673SOL     OW16651   0.787   3.084   4.697 -0.1527  0.8899  0.3121
 1673SOL    HW116652   0.855   3.056   4.759 -0.9623  0.9235  1.2128
 1673SOL    HW216653   0.714   3.031   4.730 -1.2262  1.1972 -1.6203
 1674SOL     OW16654   4.329   0.744   0.623 -0.2589 -0.5424 -0.3537
 1674SOL    HW116655   4.402   0.755   0.683 -0.4546 -0.5497 -0.1147
 1674SOL    HW216656   4.335   0.833   0.587  0.5499 -0.8914 -1.0758
 1675SOL     OW16657   2.362   1.621   1.721 -0.1291 -0.1739  0.3888
 1675SOL    HW116658   2.294   1.671   1.675 -0.6427 -1.8102 -0.6388
 1675SOL    HW216659   2.441   1.673   1.704 -1.5571  1.7539 -0.3904
 1676SOL     OW16660   4.379   0.091   7.635 -0.5721  0.0225  0.3135
 1676SOL    HW116661   4.311   0.121   7.695  0.3983  1.4169  0.7015
 1676SOL    HW216662   4.462   0.107   7.680 -0.1326 -0.5011 -0.3002
 1677SOL     OW16663   3.477   0.648   8.303  0.2488  0.1096  0.3597
 1677SOL    HW116664   3.518   0.676   8.385 -0.3198 -0.8119  0.9542
 1677SOL    HW216665   3.392   0.613   8.331 -0.4999 -0.7594 -3.0219
 1678SOL     OW16666   3.836   1.315   2.523  0.1917 -0.6760 -0.1194
 1678SOL    HW116667   3.853   1.228   2.488 -0.1403 -0.5951 -0.4841
 1678SOL    HW216668   3.773   1.348   2.459  0.7862  0.8928  0.1042
 1679SOL     OW16669   1.015   1.715  12.452  1.0873 -0.1861  0.3308
 1679SOL    HW116670   1.089   1.685  12.505  0.6833 -2.1369 -0.2338
 1679SOL    HW216671   1.065   1.734  12.372 -1.6107  1.5561 -0.9359
 1680SOL     OW16672   2.687   4.393   7.210 -0.7115  0.0655  0.2786
 1680SOL    HW116673   2.609   4.345   7.183  2.3770 -3.4269 -2.4388
 1680SOL    HW216674   2.751   4.322   7.204 -1.1220 -0.2069 -1.0716
 1681SOL     OW16675   2.781   2.780   1.606  0.0771  0.1680  0.1062
 1681SOL    HW116676   2.776   2.871   1.635 -0.4110 -0.3075  1.5482
 1681SOL    HW216677   2.797   2.729   1.686 -0.0331  0.5579  0.3767
 1682SOL     OW16678   1.991   0.698  17.604  0.4061  0.0706  0.4268
 1682SOL    HW116679   2.023   0.788  17.603  1.2703 -0.2126  2.1190
 1682SOL    HW216680   2.071   0.653  17.580  1.4369  2.6007 -0.8129
 1683SOL     OW16681   1.819   0.749   7.090  0.0958 -0.0584 -0.5578
 1683SOL    HW116682   1.864   0.834   7.089 -0.1396  0.1050  3.1430
 1683SOL    HW216683   1.746   0.779   7.037 -0.5894  1.1605  1.0609
 1684SOL     OW16684   4.286   2.053  10.329 -0.6110 -0.0173 -0.5354
 1684SOL    HW116685   4.266   2.146  10.337  0.7514  0.4513 -2.5961
 1684SOL    HW216686   4.197   2.027  10.308  0.1941 -1.2793 -2.3948
 1685SOL     OW16687   1.276   4.270   9.024  0.1753  0.6182 -0.6340
 1685SOL    HW116688   1.369   4.282   9.042  0.1043 -0.3116  0.3642
 1685SOL    HW216689   1.238   4.322   9.094 -2.4392 -0.3836 -1.3051
 1686SOL     OW16690   2.577   4.478   2.787 -0.0880  0.0001 -0.1556
 1686SOL    HW116691   2.549   4.395   2.825 -0.1046 -1.2019 -2.7489
 1686SOL    HW216692   2.534   4.554   2.826  1.9750  0.0178  2.0694
 1687SOL     OW16693   0.816   1.431  11.753 -0.3399  0.1680 -0.5672
 1687SOL    HW116694   0.810   1.523  11.728 -1.8768  0.7210  1.7759
 1687SOL    HW216695   0.878   1.442  11.824 -2.3820 -0.1043  1.2650
 1688SOL     OW16696   1.274   1.758   2.322 -0.0463 -0.3659  0.1749
 1688SOL    HW116697   1.238   1.779   2.408  2.1682 -1.5881  1.4043
 1688SOL    HW216698   1.368   1.743   2.329 -0.6363 -5.0319 -2.5040
 1689SOL     OW16699   3.430   0.492   7.370 -0.2879 -0.2913  0.2148
 1689SOL    HW116700   3.364   0.466   7.306 -1.3202 -0.5559  1.4000
 1689SOL    HW216701   3.441   0.421   7.433  0.0912  0.1338  0.6214
 1690SOL     OW16702   3.868   4.264   3.273 -0.0856 -0.6648  0.3779
 1690SOL    HW116703   3.924   4.311   3.212 -0.4543 -0.6359  0.0591
 1690SOL    HW216704   3.802   4.241   3.207 -0.7644  1.3239  0.3608
 1691SOL     OW16705   1.219   0.733  17.718  0.1990 -0.2116 -0.5224
 1691SOL    HW116706   1.156   0.803  17.733 -1.4371 -1.9899  0.8529
 1691SOL    HW216707   1.263   0.778  17.646  0.6058  2.5093  1.4439
 1692SOL     OW16708   3.861   2.700   6.450 -0.7353  0.3694 -0.1182
 1692SOL    HW116709   3.766   2.706   6.438 -1.3038 -2.9297  2.4247
 1692SOL    HW216710   3.867   2.716   6.544  0.9525  2.3582 -0.5735
 1693SOL     OW16711   4.329   1.943   7.727  0.4453  0.5062  0.5183
 1693SOL    HW116712   4.265   1.904   7.667 -0.5525  0.4658  1.6081
 1693SOL    HW216713   4.277   2.021   7.746 -0.9645 -0.4340  0.5635
 1694SOL     OW16714   0.557   4.007   2.230 -0.3364 -0.1491  0.4271
 1694SOL    HW116715   0.588   4.030   2.143  0.9737 -0.5925  0.7773
 1694SOL    HW216716   0.521   4.090   2.260  0.2286 -0.5121  2.1202
 1695SOL     OW16717   1.214   0.259   7.837 -0.3189 -0.5504 -0.0828
 1695SOL    HW116718   1.176   0.171   7.839 -1.9542  0.2288  2.1994
 1695SOL    HW216719   1.211   0.290   7.927  2.4699 -2.2578  0.6026
 1696SOL     OW16720   1.657   2.759   8.868  0.2974 -0.3467  0.3547
 1696SOL    HW116721   1.582   2.747   8.809  1.5212 -1.2184 -1.0352
 1696SOL    HW216722   1.731   2.737   8.811 -0.4727  1.3178 -1.2491
 1697SOL     OW16723   3.535   3.220  15.425 -0.5672 -0.0753  0.2651
 1697SOL    HW116724   3.511   3.235  15.516 -3.3589  0.3707 -0.5326
 1697SOL    HW216725   3.448   3.194  15.394  0.0385  0.4918 -1.9538
 1698SOL     OW16726   4.182   1.506   4.226 -0.2642 -0.5101 -0.1391
 1698SOL    HW116727   4.225   1.451   4.160  0.8944 -2.6000  2.3633
 1698SOL    HW216728   4.094   1.467   4.225 -1.1354  1.4332  0.1398
 1699SOL     OW16729   1.802   4.283   8.700  0.3941  0.4437 -0.2401
 1699SOL    HW116730   1.836   4.312   8.784 -0.1255 -0.5002  0.2980
 1699SOL    HW216731   1.737   4.215   8.721 -0.0979  1.2396  0.8116
 1700SOL     OW16732   0.885   2.805   7.289 -0.0109  0.3336 -0.4449
 1700SOL    HW116733   0.837   2.881   7.256 -1.3915 -0.2058  0.3268
 1700SOL    HW216734   0.883   2.825   7.382 -0.4400 -0.0120 -0.3801
 1701SOL     OW16735   1.500   1.158  12.496 -0.1355  0.1959 -0.2120
 1701SOL    HW116736   1.532   1.068  12.507 -1.7685 -0.0956  2.0897
 1701SOL    HW216737   1.519   1.212  12.572 -2.7101  0.2508  0.3761
 1702SOL     OW16738   2.210   3.186   4.225  0.1569 -0.0796 -0.0451
 1702SOL    HW116739   2.298   3.203   4.257 -0.1003  1.0310  0.0641
 1702SOL    HW216740   2.175   3.273   4.206 -0.2824 -0.3491 -0.4621
 1703SOL     OW16741   0.437   3.083   6.866  0.6905 -0.6336  0.0542
 1703SOL    HW116742   0.408   3.065   6.955  2.1250 -0.9590  0.4645
 1703SOL    HW216743   0.362   3.062   6.810  0.5289 -2.4595  0.9535
 1704SOL     OW16744   3.895   2.017   2.389 -0.1947  0.7940 -0.4149
 1704SOL    HW116745   3.864   2.013   2.299 -2.5986  0.6459  0.3996
 1704SOL    HW216746   3.874   1.930   2.422  5.0999 -0.0744  0.6243
 1705SOL     OW16747   2.101   0.873   9.013 -0.9677 -0.2755  0.0048
 1705SOL    HW116748   2.122   0.933   8.942  1.1749  0.8868  1.6042
 1705SOL    HW216749   2.061   0.799   8.967  2.2578 -1.4911 -0.8499
 1706SOL     OW16750   1.553   1.301   9.229 -0.4833  0.1257 -0.0231
 1706SOL    HW116751   1.642   1.278   9.253 -0.3956 -0.8117 -1.2544
 1706SOL    HW216752   1.487   1.254   9.280 -2.4278 -0.2028 -2.8356
 1707SOL     OW16753   2.455   2.827   6.752  0.1704  0.1962  0.9199
 1707SOL    HW116754   2.444   2.781   6.835  1.5909  1.5265  1.8254
 1707SOL    HW216755   2.365   2.854   6.732 -0.0731 -0.2277  1.4690
 1708SOL     OW16756   3.996   0.342   6.250 -0.0099 -0.0810  0.1862
 1708SOL    HW116757   4.054   0.270   6.274  0.9319  0.6403  0.0756
 1708SOL    HW216758   3.917   0.309   6.292 -1.3887  0.7120 -1.7866
 1709SOL     OW16759   3.575   0.922  10.031 -0.4074 -0.0654  0.0407
 1709SOL    HW116760   3.603   1.008  10.001  2.4702  0.2536  3.6945
 1709SOL    HW216761   3.489   0.947  10.066  0.8520  3.4735  0.5357
 1710SOL     OW16762   0.242   4.516   1.142  0.1641  0.1970 -0.5075
 1710SOL    HW116763   0.173   4.451   1.140  2.1268 -1.8781 -0.7857
 1710SOL    HW216764   0.226   4.562   1.224  0.0701 -1.9818  0.6771
 1711SOL     OW16765   1.761   1.842  15.917  0.6348 -0.0759 -0.3911
 1711SOL    HW116766   1.829   1.858  15.852 -0.9897 -0.5018 -2.2097
 1711SOL    HW216767   1.759   1.747  15.932  0.4346 -0.1456 -0.8852
 1712SOL     OW16768   3.802   2.922   5.064  0.0629  0.3138 -0.0322
 1712SOL    HW116769   3.841   2.886   4.984 -0.0606  0.2349 -0.0566
 1712SOL    HW216770   3.715   2.882   5.067 -1.3533  3.4484  1.6418
 1713SOL     OW16771   0.104   3.536   3.547  0.0650  0.3161 -0.6929
 1713SOL    HW116772   0.042   3.470   3.578 -0.6753  1.2868 -0.0934
 1713SOL    HW216773   0.095   3.535   3.451 -0.4022 -0.4417 -0.6391
 1714SOL     OW16774   1.172   0.706   8.801  0.6193 -0.2216  0.5179
 1714SOL    HW116775   1.176   0.752   8.718  0.0393  1.0461  1.1907
 1714SOL    HW216776   1.204   0.619   8.778  0.6199  0.1390 -0.8347
 1715SOL     OW16777   1.125   1.164  16.779 -0.0810 -0.2373  0.3664
 1715SOL    HW116778   1.101   1.159  16.686 -1.0689 -0.3245  0.6236
 1715SOL    HW216779   1.118   1.258  16.793 -2.4960  0.0227 -2.5756
 1716SOL     OW16780   3.761   2.051  14.616 -0.3528  0.4568 -0.2761
 1716SOL    HW116781   3.712   2.109  14.559 -3.1963  0.8564  2.6110
 1716SOL    HW216782   3.706   1.972  14.619  1.9979 -1.2759 -2.8981
 1717SOL     OW16783   1.138   3.486   9.505 -0.4563 -0.4338  0.1635
 1717SOL    HW116784   1.111   3.576   9.523  0.3665 -0.3840  1.1217
 1717SOL    HW216785   1.165   3.496   9.414  2.7908  0.2671  1.1973
 1718SOL     OW16786   1.925   0.641   1.696 -0.4670  0.0456  0.2763
 1718SOL    HW116787   1.985   0.713   1.676 -0.6855  0.1149 -0.1199
 1718SOL    HW216788   1.880   0.637   1.612  0.9774 -2.0695 -0.3860
 1719SOL     OW16789   0.265   4.281   2.728  0.2762  0.3936 -0.4883
 1719SOL    HW116790   0.248   4.293   2.822  0.7544  2.0454 -0.6081
 1719SOL    HW216791   0.355   4.250   2.723 -0.6345 -2.3010 -0.2253
 1720SOL     OW16792   3.042   1.877   6.613 -0.1888 -0.5655  0.0238
 1720SOL    HW116793   3.120   1.869   6.669  0.2248  0.8878 -0.3343
 1720SOL    HW216794   2.989   1.805   6.645 -1.0819  0.0685 -0.0381
 1721SOL     OW16795   0.742   4.037   4.829  0.0829 -0.6188  0.0532
 1721SOL    HW116796   0.761   3.957   4.877 -1.5640 -0.1145  1.5310
 1721SOL    HW216797   0.784   4.105   4.882 -0.2692  0.9556 -1.6522
 1722SOL     OW16798   2.566   2.806  10.280 -0.4307 -0.1600  0.2734
 1722SOL    HW116799   2.655   2.832  10.301 -0.6977  0.8382  0.1662
 1722SOL    HW216800   2.515   2.861  10.339 -2.4597 -2.5104  0.7151
 1723SOL     OW16801   2.112   0.021   3.936 -0.2485 -0.3381  0.2735
 1723SOL    HW116802   2.173   4.700   3.892 -0.5571 -1.1476  0.9252
 1723SOL    HW216803   2.173   0.082   3.976  0.0844 -0.3016 -0.3041
 1724SOL     OW16804   0.521   2.456   4.731  0.1199  0.5613  0.3586
 1724SOL    HW116805   0.566   2.457   4.647 -0.5541  0.2710 -0.0007
 1724SOL    HW216806   0.461   2.530   4.721 -1.2309 -0.3874  1.3205
 1725SOL     OW16807   1.426   3.853   7.396 -0.2041 -0.1840  0.6437
 1725SOL    HW116808   1.487   3.798   7.444  1.5859  0.7503 -0.5730
 1725SOL    HW216809   1.482   3.927   7.372  0.9392 -0.7975  1.4552
 1726SOL     OW16810   1.774   0.415  14.145 -0.4921  0.4205 -0.2967
 1726SOL    HW116811   1.703   0.435  14.084 -1.0196  1.3558  0.6179
 1726SOL    HW216812   1.774   0.495  14.198 -1.6433  0.1364  0.1310
 1727SOL     OW16813   1.623   4.348   6.513  0.0027  0.4714  0.6954
 1727SOL    HW116814   1.650   4.297   6.437  4.7998  1.7950  1.5466
 1727SOL    HW216815   1.568   4.415   6.471  0.5693 -0.2246 -1.1398
 1728SOL     OW16816   2.863   4.051   4.671  0.3748 -0.2404 -0.5360
 1728SOL    HW116817   2.813   4.080   4.748  1.6242  2.8822 -0.9245
 1728SOL    HW216818   2.792   4.067   4.608 -0.4512 -2.1834 -0.1076
 1729SOL     OW16819   3.839   0.517   5.524  0.0221  0.4215 -0.1320
 1729SOL    HW116820   3.821   0.578   5.596 -0.9680  0.8284 -0.7203
 1729SOL    HW216821   3.795   0.565   5.454 -2.1395 -1.5206 -0.1218
 1730SOL     OW16822   2.777   2.744   4.491 -1.0044  0.1372 -0.0077
 1730SOL    HW116823   2.798   2.717   4.401  0.1811 -0.0043  0.3087
 1730SOL    HW216824   2.865   2.734   4.527 -1.0386 -0.9862 -0.2392
 1731SOL     OW16825   3.944   4.325   7.809  0.0555 -0.0426  0.0489
 1731SOL    HW116826   4.021   4.332   7.864 -0.2783 -0.9529  0.6363
 1731SOL    HW216827   3.981   4.319   7.721  1.3054  1.1785  0.5017
 1732SOL     OW16828   0.190   4.018   9.801 -0.1148 -0.7623  0.0089
 1732SOL    HW116829   0.128   4.087   9.826 -0.6362 -1.2275 -0.0166
 1732SOL    HW216830   0.273   4.052   9.836 -0.8620 -0.4221  1.4378
 1733SOL     OW16831   4.644   2.555   5.623  0.1790 -0.3262  0.4461
 1733SOL    HW116832   4.724   2.564   5.674 -0.6092  0.4911  1.5254
 1733SOL    HW216833   4.581   2.606   5.675  0.1568  1.9258 -1.7818
 1734SOL     OW16834   4.552   0.295   8.500  0.3342  0.1174 -0.2818
 1734SOL    HW116835   4.543   0.244   8.420 -1.6778  1.6979 -1.0720
 1734SOL    HW216836   4.460   0.293   8.528 -0.0821 -0.6997 -1.7280
 1735SOL     OW16837   2.707   1.279   0.123 -0.5004  0.1704  0.2416
 1735SOL    HW116838   2.722   1.370   0.148 -1.2169  0.2628  0.3448
 1735SOL    HW216839   2.635   1.281   0.060 -0.2247  1.9174 -0.0058
 1736SOL     OW16840   3.424   0.285  17.475 -0.4081 -0.2193  0.2216
 1736SOL    HW116841   3.391   0.289  17.564  2.3157 -0.3665  1.2393
 1736SOL    HW216842   3.345   0.312  17.428 -0.9773 -0.0643  1.2737
 1737SOL     OW16843   0.857   1.698   4.713 -0.4604  0.3001 -0.2732
 1737SOL    HW116844   0.786   1.659   4.763 -0.2993 -0.2898 -0.5074
 1737SOL    HW216845   0.821   1.782   4.684  0.1556  0.1939 -1.3584
 1738SOL     OW16846   3.939   3.121   7.125  0.1838 -0.8662 -0.5243
 1738SOL    HW116847   3.963   3.180   7.053 -0.7251  0.3808  0.1958
 1738SOL    HW216848   4.026   3.127   7.166 -0.5170  2.1179  0.4790
 1739SOL     OW16849   2.483   1.461   3.253  0.3657  0.0094  0.7869
 1739SOL    HW116850   2.561   1.514   3.268  1.6166 -1.2811 -1.0793
 1739SOL    HW216851   2.491   1.412   3.170 -0.6361  1.0282  0.0992
 1740SOL     OW16852   2.168   2.200   9.782  0.4289  0.0900  0.2340
 1740SOL    HW116853   2.212   2.212   9.698 -0.3748  0.6432 -0.1019
 1740SOL    HW216854   2.173   2.105   9.791  2.3379  0.0679 -1.1345
 1741SOL     OW16855   2.733   1.031   2.832  0.5226  0.7251 -0.3460
 1741SOL    HW116856   2.814   0.980   2.830  1.3300  1.9432  1.5580
 1741SOL    HW216857   2.718   1.059   2.742 -1.1357  1.8732  0.2782
 1742SOL     OW16858   1.477   3.871   7.046 -0.6526 -0.0746  0.2331
 1742SOL    HW116859   1.557   3.870   7.099 -0.3218  2.7601 -0.1952
 1742SOL    HW216860   1.427   3.951   7.061 -3.7505 -1.4722 -2.5913
 1743SOL     OW16861   2.356   3.762   1.837 -0.2122 -0.0701 -0.1019
 1743SOL    HW116862   2.408   3.776   1.758 -0.4974  0.9973 -0.0931
 1743SOL    HW216863   2.387   3.827   1.900  0.6995 -1.5800  1.0263
 1744SOL     OW16864   3.827   0.899   2.672  0.2460  0.7980  0.4267
 1744SOL    HW116865   3.811   0.947   2.754  2.2476  0.8989  0.7488
 1744SOL    HW216866   3.761   0.829   2.668 -0.0054  1.1794 -1.6388
 1745SOL     OW16867   3.356   1.229   6.821 -0.0215  0.4713 -0.5267
 1745SOL    HW116868   3.284   1.220   6.884 -1.1329 -1.1062 -2.0105
 1745SOL    HW216869   3.345   1.137   6.798 -0.9582  0.8797 -1.6898
 1746SOL     OW16870   3.656   2.731  16.920 -0.1663  0.0588 -0.7251
 1746SOL    HW116871   3.647   2.667  16.991  0.9206  4.8703  3.6866
 1746SOL    HW216872   3.689   2.801  16.975  1.4066 -0.2551 -1.2703
 1747SOL     OW16873   2.253   3.709   0.450  0.6034  0.1167 -0.1389
 1747SOL    HW116874   2.329   3.763   0.431  0.8554  0.1436  0.9808
 1747SOL    HW216875   2.185   3.777   0.447  1.6044  1.0374 -2.0648
 1748SOL     OW16876   2.980   1.915   2.204  0.1948 -0.8177  0.2614
 1748SOL    HW116877   2.909   1.977   2.188  2.1595  1.2940 -0.2073
 1748SOL    HW216878   2.936   1.832   2.187  0.2077 -1.0870  1.5262
 1749SOL     OW16879   0.569   3.407   3.352  0.3771  0.1413 -0.2603
 1749SOL    HW116880   0.581   3.490   3.305 -0.6551  0.0424 -0.7200
 1749SOL    HW216881   0.632   3.362   3.296 -1.2359 -0.8046 -1.3404
 1750SOL     OW16882   0.912   1.802  17.622  0.5483 -0.3371 -0.4873
 1750SOL    HW116883   0.824   1.766  17.628 -0.2909  1.2707 -3.2869
 1750SOL    HW216884   0.911   1.813  17.527  0.6893  0.8948 -0.3570
 1751SOL     OW16885   2.494   2.119   5.080 -0.2074  0.3511  0.0297
 1751SOL    HW116886   2.522   2.040   5.128 -1.4638 -0.4586 -0.5785
 1751SOL    HW216887   2.534   2.098   4.995 -3.9287 -0.1557 -1.5764
 1752SOL     OW16888   2.984   0.238   4.581  0.5143  0.6187  0.5031
 1752SOL    HW116889   3.075   0.224   4.556 -0.5696 -2.6597 -1.6738
 1752SOL    HW216890   2.990   0.331   4.600 -1.9219  1.4136 -2.5480
 1753SOL     OW16891   1.713   4.485   5.778 -0.1674  0.0621 -0.2288
 1753SOL    HW116892   1.746   4.509   5.691  0.1696  0.1825 -0.0650
 1753SOL    HW216893   1.797   4.461   5.817 -1.0679 -1.9596  0.4716
 1754SOL     OW16894   4.117   2.323   8.097  0.4378 -0.3238 -0.1311
 1754SOL    HW116895   4.108   2.257   8.165  2.1099  0.8313  1.2307
 1754SOL    HW216896   4.162   2.285   8.021  0.2074  2.6966 -1.7737
 1755SOL     OW16897   0.403   0.640   3.359  0.8326  0.1127 -0.2962
 1755SOL    HW116898   0.475   0.586   3.327  0.7576  0.7327 -1.5248
 1755SOL    HW216899   0.387   0.615   3.449 -1.0659 -0.8714 -0.9117
 1756SOL     OW16900   4.365   0.742   2.104 -0.1068 -0.2605  0.1209
 1756SOL    HW116901   4.289   0.795   2.081 -0.4860 -0.3991  1.0344
 1756SOL    HW216902   4.363   0.669   2.043  0.2028  0.1951 -0.4309
 1757SOL     OW16903   0.213   2.855   5.293  0.2917  0.2856 -0.1323
 1757SOL    HW116904   0.194   2.943   5.324  1.5886 -0.0456  1.5860
 1757SOL    HW216905   0.126   2.831   5.259 -0.5563  1.4116  1.2700
 1758SOL     OW16906   1.367   4.204   6.329 -0.3310 -0.0696  0.7777
 1758SOL    HW116907   1.276   4.186   6.304 -0.1396  0.2655 -0.1586
 1758SOL    HW216908   1.366   4.296   6.353 -2.0072 -0.0688  0.7045
 1759SOL     OW16909   0.294   1.236   7.768 -0.0590 -0.1814  0.1520
 1759SOL    HW116910   0.249   1.152   7.771  0.5657 -0.4500  1.7866
 1759SOL    HW216911   0.387   1.215   7.760  0.0148 -0.6409  2.1820
 1760SOL     OW16912   2.540   3.185   1.591  0.7654  0.1062 -0.5809
 1760SOL    HW116913   2.464   3.143   1.631  1.3621 -0.5207 -0.1154
 1760SOL    HW216914   2.527   3.268   1.636  1.4192 -1.1817  1.9769
 1761SOL     OW16915   0.091   0.398  12.782 -0.4519  0.7851 -0.4887
 1761SOL    HW116916   0.013   0.384  12.835  1.0956  0.8764  1.8136
 1761SOL    HW216917   0.148   0.448  12.841  0.6431  1.2289 -1.9179
 1762SOL     OW16918   4.653   0.900   3.151  0.3067 -0.1280  0.2195
 1762SOL    HW116919   4.573   0.939   3.115  1.2805  0.1896 -1.6025
 1762SOL    HW216920   4.720   0.964   3.125 -0.1833  0.7897  1.2261
 1763SOL     OW16921   4.175   2.117   3.283 -0.1138 -0.3104 -0.2106
 1763SOL    HW116922   4.157   2.024   3.269 -1.6266 -0.3210  1.8205
 1763SOL    HW216923   4.105   2.155   3.230 -0.4765 -0.3119  0.2642
 1764SOL     OW16924   2.838   4.178   5.477 -0.0557 -0.1622  0.2300
 1764SOL    HW116925   2.867   4.087   5.469  1.7507  0.3317  1.1876
 1764SOL    HW216926   2.923   4.211   5.505 -0.4045  1.5650 -0.7363
 1765SOL     OW16927   3.043   4.151  14.168  0.2336  0.3966  0.6151
 1765SOL    HW116928   2.952   4.123  14.162  0.0277  1.1847  0.0284
 1765SOL    HW216929   3.052   4.220  14.102  1.6203  2.3105  2.7957
 1766SOL     OW16930   2.974   2.284   2.573 -0.1109 -0.4215  0.1215
 1766SOL    HW116931   2.894   2.231   2.571 -1.1937  1.0879  2.6682
 1766SOL    HW216932   3.028   2.248   2.644  0.7891 -1.9489 -1.3549
 1767SOL     OW16933   1.977   4.310  11.168 -0.0356  0.0590 -0.1137
 1767SOL    HW116934   2.059   4.359  11.172  0.3233 -0.3473 -2.4116
 1767SOL    HW216935   1.951   4.339  11.081 -1.3068  1.9702  0.9145
 1768SOL     OW16936   0.387   2.161   2.336 -0.8246 -0.6958  0.7661
 1768SOL    HW116937   0.441   2.140   2.260  0.1272 -0.2971  1.3365
 1768SOL    HW216938   0.314   2.100   2.325  0.1585 -1.7610  0.1590
 1769SOL     OW16939   0.681   3.425   8.348 -0.3008  0.5577  0.3664
 1769SOL    HW116940   0.674   3.448   8.256  0.5923  0.4000  0.2569
 1769SOL    HW216941   0.647   3.335   8.344  0.9203  0.1553 -0.8992
 1770SOL     OW16942   1.343   4.277   4.940 -0.1629 -0.0027  0.3066
 1770SOL    HW116943   1.304   4.194   4.911  1.9163 -0.8706 -0.0182
 1770SOL    HW216944   1.414   4.277   4.876  0.0445 -2.0478  0.5242
 1771SOL     OW16945   3.412   1.203   5.485 -0.8663 -0.5576  0.6209
 1771SOL    HW116946   3.370   1.230   5.404  0.0799  0.9765  0.6453
 1771SOL    HW216947   3.501   1.234   5.466 -0.1300 -3.2475 -0.3149
 1772SOL     OW16948   1.983   0.627  14.758  0.1045  0.6017  0.0072
 1772SOL    HW116949   2.033   0.576  14.821  0.0659  1.0492  0.3987
 1772SOL    HW216950   2.002   0.714  14.792  1.1140  0.7275 -0.8685
 1773SOL     OW16951   4.349   0.625   7.641  0.2224  0.4781 -0.2029
 1773SOL    HW116952   4.259   0.596   7.650  0.3072  0.5535  0.8854
 1773SOL    HW216953   4.403   0.550   7.614 -0.1032  1.0311 -2.3805
 1774SOL     OW16954   3.531   2.908  10.195 -0.0087  0.3978  0.1106
 1774SOL    HW116955   3.569   2.824  10.168 -0.1487  1.2541 -2.6923
 1774SOL    HW216956   3.580   2.954  10.127  0.2316  0.1828  0.1379
 1775SOL     OW16957   3.834   2.131  14.995 -0.0777  0.0542  0.0522
 1775SOL    HW116958   3.870   2.217  15.016 -0.0883 -0.1082  0.7528
 1775SOL    HW216959   3.878   2.065  15.049  0.1964 -0.0767 -0.3375
 1776SOL     OW16960   0.456   1.454   9.104 -0.4447 -0.2550 -0.9778
 1776SOL    HW116961   0.405   1.398   9.047 -2.4254  1.2137 -0.6331
 1776SOL    HW216962   0.385   1.508   9.139  0.9273  1.8182 -1.3182
 1777SOL     OW16963   1.203   2.838  16.773 -0.1145  0.3079 -0.4515
 1777SOL    HW116964   1.216   2.744  16.762 -1.1199  0.0438  0.5798
 1777SOL    HW216965   1.263   2.870  16.706 -0.7296  3.5935  0.5709
 1778SOL     OW16966   0.077   2.804  10.633 -0.4863  0.2508 -0.5875
 1778SOL    HW116967   0.025   2.798  10.553  0.6340  0.8081 -1.3572
 1778SOL    HW216968   0.128   2.724  10.635  0.8438  1.0641 -1.7095
 1779SOL     OW16969   1.032   2.235   8.361  0.4419  0.0561 -0.0192
 1779SOL    HW116970   0.969   2.258   8.292 -0.4945 -0.4340  0.6745
 1779SOL    HW216971   1.035   2.317   8.410  0.0267  0.6412 -0.9684
 1780SOL     OW16972   3.670   3.928  12.557  0.0223 -0.3932 -0.1391
 1780SOL    HW116973   3.755   3.887  12.541 -1.6507 -3.3458 -1.4242
 1780SOL    HW216974   3.694   4.021  12.559  1.6726 -0.8218  0.2824
 1781SOL     OW16975   3.066   2.586   1.920  0.4355 -0.2412  0.0934
 1781SOL    HW116976   3.056   2.578   2.015 -4.1798 -1.5654 -0.4540
 1781SOL    HW216977   3.117   2.509   1.895  0.4820 -0.0407 -0.4343
 1782SOL     OW16978   2.157   3.013  16.961 -0.4866  0.0874  0.1682
 1782SOL    HW116979   2.177   3.020  16.867 -2.5482 -2.8900 -0.5170
 1782SOL    HW216980   2.064   3.036  16.960  0.3871  3.6014 -0.0416
 1783SOL     OW16981   4.211   0.280  13.712 -0.2491 -0.3179  0.7082
 1783SOL    HW116982   4.234   0.361  13.665 -0.1096 -0.2402  0.9098
 1783SOL    HW216983   4.252   0.218  13.652 -2.0421 -2.4134  1.6403
 1784SOL     OW16984   2.275   1.887   9.805  0.4497 -0.5126  0.0192
 1784SOL    HW116985   2.262   1.898   9.711  0.4454  2.6924  0.4044
 1784SOL    HW216986   2.211   1.817   9.822  0.6503 -0.1567  2.2938
 1785SOL     OW16987   4.231   1.536   3.482  0.1782 -0.1134  0.9988
 1785SOL    HW116988   4.202   1.527   3.573  0.2381 -0.0675  1.0226
 1785SOL    HW216989   4.301   1.472   3.493 -0.1545 -0.4709  1.0163
 1786SOL     OW16990   3.474   3.145   5.745 -0.1321 -0.1578 -0.3548
 1786SOL    HW116991   3.518   3.091   5.679  0.9768  0.8749 -0.4524
 1786SOL    HW216992   3.546   3.156   5.806  1.4290 -4.2814 -1.4621
 1787SOL     OW16993   2.987   3.825   4.586 -0.1783 -0.3370  0.8685
 1787SOL    HW116994   2.935   3.903   4.606 -0.7113 -0.6200  0.5705
 1787SOL    HW216995   2.983   3.782   4.671  2.8552 -2.3489 -0.0458
 1788SOL     OW16996   2.363   1.371   8.354 -0.0752  0.1121  0.2054
 1788SOL    HW116997   2.334   1.291   8.397 -1.8745  0.4767 -0.3113
 1788SOL    HW216998   2.361   1.348   8.261 -1.6857 -0.9092  0.4910
 1789SOL     OW16999   4.154   0.245  13.340 -0.2978  0.0276  0.0722
 1789SOL    HW117000   4.188   0.250  13.251  0.2758 -1.1945  0.2212
 1789SOL    HW217001   4.064   0.244  13.306 -0.9659 -0.8295  1.8722
 1790SOL     OW17002   2.378   3.162   8.940  0.1209 -0.4295 -0.5202
 1790SOL    HW117003   2.318   3.209   8.882  0.6599 -0.0408 -0.7605
 1790SOL    HW217004   2.434   3.230   8.975  2.7881 -2.7635 -0.2031
 1791SOL     OW17005   3.546   3.626  14.030 -0.5395 -0.3191 -0.5942
 1791SOL    HW117006   3.457   3.604  14.057 -0.4343 -0.8504 -0.6815
 1791SOL    HW217007   3.594   3.557  14.074 -0.1054 -1.9491 -3.6364
 1792SOL     OW17008   1.737   2.243   8.083  0.3144 -0.4805 -0.1021
 1792SOL    HW117009   1.656   2.206   8.047  0.3569 -1.9679  1.3629
 1792SOL    HW217010   1.808   2.201   8.035 -0.5128 -1.5270 -0.4163
 1793SOL     OW17011   4.248   2.062  17.716  0.1253 -0.0874  0.4114
 1793SOL    HW117012   4.274   2.095   0.051  1.4809  1.4309 -0.5852
 1793SOL    HW217013   4.265   1.968  17.723 -2.0361 -0.4551  0.8326
 1794SOL     OW17014   1.558   1.526   4.423  0.5661 -0.1492  0.0710
 1794SOL    HW117015   1.468   1.505   4.449  0.5283 -1.5046 -1.1186
 1794SOL    HW217016   1.594   1.446   4.461  0.0543  0.3118  1.5140
 1795SOL     OW17017   1.614   4.045   6.405  0.3444  0.0502  0.3181
 1795SOL    HW117018   1.648   3.969   6.453 -0.3308 -0.8081 -0.5641
 1795SOL    HW217019   1.518   4.044   6.406  0.3598 -0.4204  1.6258
 1796SOL     OW17020   1.383   0.081   6.783  0.1902  0.0646 -0.3862
 1796SOL    HW117021   1.315   0.026   6.822 -0.3607  1.5969  0.8328
 1796SOL    HW217022   1.355   0.088   6.691 -1.3621 -0.0633  0.0650
 1797SOL     OW17023   4.024   1.033   6.508 -0.2952  0.3119  0.8901
 1797SOL    HW117024   4.023   0.956   6.451  1.9808 -0.3547  1.7622
 1797SOL    HW217025   4.116   1.027   6.531 -0.4963  0.9346  1.8394
 1798SOL     OW17026   3.559   3.651   3.268  0.1423  0.0885 -0.1700
 1798SOL    HW117027   3.548   3.558   3.285 -0.4246  0.0811 -0.5817
 1798SOL    HW217028   3.609   3.671   3.347 -0.2793  1.3058 -0.2044
 1799SOL     OW17029   0.266   0.115  12.898 -0.5361 -0.4686  0.0262
 1799SOL    HW117030   0.350   0.149  12.865 -0.8689 -0.0610 -0.4062
 1799SOL    HW217031   0.268   0.030  12.854  0.8711 -0.2276 -0.3956
 1800SOL     OW17032   3.153   3.781   7.840 -0.0127 -0.0904  0.3921
 1800SOL    HW117033   3.159   3.743   7.752 -1.0131 -1.3292  0.8577
 1800SOL    HW217034   3.109   3.716   7.894 -0.0838 -0.6965 -0.3937
 1801SOL     OW17035   1.447   2.094  15.983 -0.5899  0.5881 -0.6465
 1801SOL    HW117036   1.453   2.100  15.887 -0.4773 -1.6584 -0.7739
 1801SOL    HW217037   1.370   2.039  15.996  0.7165 -0.6779  1.6103
 1802SOL     OW17038   4.637   2.245   6.195 -0.3695  1.2029 -0.2641
 1802SOL    HW117039   4.562   2.266   6.139 -1.3250  0.2706  0.6699
 1802SOL    HW217040   4.598   2.197   6.268  1.0200 -1.0536 -0.9887
 1803SOL     OW17041   4.701   1.540   6.378 -0.8534  0.4220  0.2930
 1803SOL    HW117042   4.682   1.526   6.285  0.3698 -2.4799  0.4713
 1803SOL    HW217043   0.052   1.573   6.367 -0.6429 -0.0535  0.5789
 1804SOL     OW17044   0.221   3.412   8.281  0.4641 -0.4667 -0.1537
 1804SOL    HW117045   0.212   3.317   8.268  2.5173 -0.8612  1.2975
 1804SOL    HW217046   0.275   3.406   8.359 -0.2502  0.0220  0.3753
 1805SOL     OW17047   2.947   2.303  10.702  0.2299 -0.3229  0.2111
 1805SOL    HW117048   2.954   2.259  10.786 -3.4260 -2.4707 -0.5959
 1805SOL    HW217049   2.864   2.348  10.716 -0.3312 -2.4156  3.4859
 1806SOL     OW17050   2.683   4.381  10.353  0.3248 -0.4444  0.6448
 1806SOL    HW117051   2.620   4.382  10.425 -1.0889  0.5857 -0.5997
 1806SOL    HW217052   2.629   4.355  10.278  0.8521  1.6358 -0.4299
 1807SOL     OW17053   1.370   3.471   2.307 -0.1175  0.2895 -0.1938
 1807SOL    HW117054   1.422   3.427   2.373 -0.3156  2.2633  1.3061
 1807SOL    HW217055   1.424   3.544   2.276 -0.0502  0.4789  0.3749
 1808SOL     OW17056   2.054   3.375  15.570 -0.1694 -0.2875 -0.0432
 1808SOL    HW117057   1.960   3.375  15.551 -0.3232  2.5726  0.6895
 1808SOL    HW217058   2.071   3.459  15.613  1.4652  0.0611 -1.3702
 1809SOL     OW17059   3.910   2.588   4.919  0.3038 -0.0209 -0.4578
 1809SOL    HW117060   3.844   2.595   4.850 -0.8374  1.4558  0.7703
 1809SOL    HW217061   3.944   2.677   4.933  1.5887 -0.4890 -0.7127
 1810SOL     OW17062   1.579   1.668  10.625 -0.2581  0.2221  0.7053
 1810SOL    HW117063   1.609   1.756  10.605 -1.3032  0.1739 -1.1158
 1810SOL    HW217064   1.562   1.675  10.719 -2.7147  1.6519  0.1636
 1811SOL     OW17065   3.543   2.460   3.582 -0.2141 -0.1717  0.2114
 1811SOL    HW117066   3.606   2.507   3.636  0.6181  0.5128 -1.3535
 1811SOL    HW217067   3.544   2.503   3.496 -1.1213 -0.0609  0.2538
 1812SOL     OW17068   3.714   0.109   9.521 -0.2494 -0.3969  0.5553
 1812SOL    HW117069   3.779   0.179   9.519 -0.0904 -0.5611  0.0627
 1812SOL    HW217070   3.755   0.038   9.570 -1.3619 -0.7261  1.0061
 1813SOL     OW17071   0.230   1.267   4.856  0.0802 -0.9983 -0.1850
 1813SOL    HW117072   0.304   1.238   4.803  0.4452 -0.9529  0.3003
 1813SOL    HW217073   0.189   1.188   4.891 -0.7642 -1.0467 -1.2730
 1814SOL     OW17074   0.917   4.321   7.444 -0.0545 -0.1015  0.1466
 1814SOL    HW117075   1.012   4.311   7.452 -0.1873 -2.2289 -1.0589
 1814SOL    HW217076   0.893   4.343   7.534  2.0235 -0.1927  0.7239
 1815SOL     OW17077   3.404   0.622   2.893 -0.0407  0.2726 -0.8158
 1815SOL    HW117078   3.352   0.697   2.867 -0.2570  0.8355  1.2150
 1815SOL    HW217079   3.482   0.670   2.923 -2.4743  2.9119  1.2583
 1816SOL     OW17080   0.466   1.306   8.462  0.1168 -0.1283  0.3968
 1816SOL    HW117081   0.433   1.232   8.409 -1.0955  1.6957 -1.3869
 1816SOL    HW217082   0.388   1.311   8.516  1.3097 -0.9739  2.2098
 1817SOL     OW17083   4.527   3.872   6.486 -0.0914 -0.0484  0.5306
 1817SOL    HW117084   4.584   3.853   6.561  1.6362  2.4168 -0.1524
 1817SOL    HW217085   4.468   3.942   6.513 -1.1747 -0.3062 -1.2012
 1818SOL     OW17086   2.149   3.059   5.953  0.1607  0.0931 -0.4964
 1818SOL    HW117087   2.097   3.113   5.893 -0.1770  2.0820  1.5833
 1818SOL    HW217088   2.101   2.976   5.948 -0.1780  0.2027  0.8864
 1819SOL     OW17089   1.736   1.330   6.339  0.1594  0.3245  0.4641
 1819SOL    HW117090   1.797   1.366   6.403 -0.7011  1.4204  0.6864
 1819SOL    HW217091   1.744   1.239   6.367 -0.8009  0.1507  0.1615
 1820SOL     OW17092   0.600   4.370   5.470 -1.0765 -0.2742 -0.5720
 1820SOL    HW117093   0.694   4.358   5.456 -0.4737  2.2695  1.2175
 1820SOL    HW217094   0.591   4.448   5.526 -0.9824 -1.1654  0.6851
 1821SOL     OW17095   1.192   3.127   5.078 -0.0361  0.0571  0.3217
 1821SOL    HW117096   1.279   3.164   5.063 -0.4410  0.4607 -1.0144
 1821SOL    HW217097   1.129   3.184   5.034 -2.0021 -1.0746  1.7030
 1822SOL     OW17098   1.894   0.662   3.287  0.0517  0.2232  0.1295
 1822SOL    HW117099   1.899   0.596   3.218  1.5601 -0.8624  1.2919
 1822SOL    HW217100   1.841   0.623   3.357  0.5353  1.1499  1.0085
 1823SOL     OW17101   2.813   2.650   1.839  0.1946  0.6389  0.0979
 1823SOL    HW117102   2.902   2.619   1.855 -0.6961 -2.1430 -0.2219
 1823SOL    HW217103   2.776   2.668   1.925  1.0097  0.4380  0.4935
 1824SOL     OW17104   0.143   1.473  13.295 -0.0045  0.1371  0.4901
 1824SOL    HW117105   0.069   1.413  13.301  0.5911 -0.4996  1.6338
 1824SOL    HW217106   0.103   1.555  13.323  1.2746  0.6891  0.6982
 1825SOL     OW17107   1.456   3.355  17.170  0.1796 -0.3899 -0.1301
 1825SOL    HW117108   1.387   3.385  17.229  0.0161  0.9383 -1.0015
 1825SOL    HW217109   1.424   3.281  17.120 -2.5610  0.9748 -0.4157
 1826SOL     OW17110   4.599   0.366  17.670 -0.0333 -0.2776 -0.2298
 1826SOL    HW117111   4.692   0.377  17.689  0.1551 -1.0479 -0.7090
 1826SOL    HW217112   4.585   0.272  17.678  0.1841 -0.2348  0.6515
 1827SOL     OW17113   3.125   4.157   8.596  0.9488 -0.1994 -0.8924
 1827SOL    HW117114   3.104   4.132   8.506  0.2588  2.8087 -1.5758
 1827SOL    HW217115   3.054   4.211   8.632  0.1288 -1.7995 -0.1424
 1828SOL     OW17116   3.625   2.429   6.495 -0.1193 -0.8252 -0.3673
 1828SOL    HW117117   3.547   2.483   6.500  0.2665 -0.2459 -0.6394
 1828SOL    HW217118   3.690   2.489   6.457 -0.8081 -0.2307 -0.6053
 1829SOL     OW17119   0.251   3.764   5.928 -0.2663 -0.1124  0.6005
 1829SOL    HW117120   0.296   3.848   5.935  1.6653 -0.8385 -3.1843
 1829SOL    HW217121   0.210   3.743   6.012  2.1917  0.2480  1.8875
 1830SOL     OW17122   4.093   2.737   3.447 -0.0431  0.1171  0.1479
 1830SOL    HW117123   4.013   2.785   3.465 -0.4087 -1.2568  2.1869
 1830SOL    HW217124   4.113   2.721   3.540  0.6794  0.0246 -0.0223
 1831SOL     OW17125   3.282   3.782  14.093 -0.4998 -0.1293  0.2747
 1831SOL    HW117126   3.196   3.772  14.134 -1.6663 -0.8175 -2.3446
 1831SOL    HW217127   3.247   3.826  14.015 -1.1327  0.0369  0.6499
 1832SOL     OW17128   3.757   3.778  13.181 -0.0267 -0.5056 -0.4826
 1832SOL    HW117129   3.751   3.874  13.187 -0.3771 -0.5738  0.2200
 1832SOL    HW217130   3.783   3.756  13.270  1.0381 -1.3837 -1.0096
 1833SOL     OW17131   2.533   0.942  16.070  0.4112  0.2639 -0.3494
 1833SOL    HW117132   2.506   0.879  16.136  0.7926  3.2028  2.6448
 1833SOL    HW217133   2.573   0.880  16.009  0.3693  0.5620 -0.6796
 1834SOL     OW17134   1.219   4.112   2.565 -0.0353 -0.2049  0.1450
 1834SOL    HW117135   1.153   4.086   2.501 -0.9031 -0.1574  1.0282
 1834SOL    HW217136   1.259   4.028   2.586 -0.0006 -0.0076  0.8720
 1835SOL     OW17137   4.057   2.385  11.888  0.4481 -0.5227  0.0009
 1835SOL    HW117138   3.964   2.406  11.898  0.2277 -1.4420 -0.1266
 1835SOL    HW217139   4.079   2.366  11.979  0.6348 -0.6990 -0.0796
 1836SOL     OW17140   4.611   1.401   8.533 -0.0961  0.4494  0.1482
 1836SOL    HW117141   4.531   1.438   8.494 -1.7562  0.7962  3.8865
 1836SOL    HW217142   4.647   1.480   8.573 -0.7489  1.2477 -0.8225
 1837SOL     OW17143   3.697   2.956   4.193 -0.2212  0.4167  0.1445
 1837SOL    HW117144   3.704   2.868   4.231 -1.0489 -0.1509 -1.0257
 1837SOL    HW217145   3.649   2.938   4.113 -0.3704  0.6443  0.1832
 1838SOL     OW17146   2.060   3.336   0.868  0.4012  0.4482 -0.4048
 1838SOL    HW117147   1.976   3.367   0.836  0.3579  0.8293  0.0841
 1838SOL    HW217148   2.076   3.283   0.790 -0.5855 -1.3340  0.6048
 1839SOL     OW17149   3.861   3.508  15.066  0.3749 -0.1692  0.6419
 1839SOL    HW117150   3.954   3.528  15.056  0.2418 -0.5749 -1.3765
 1839SOL    HW217151   3.843   3.499  15.160 -0.2276 -3.0347  0.2536
 1840SOL     OW17152   2.142   1.574   8.628 -0.1249 -0.2836  0.0289
 1840SOL    HW117153   2.095   1.490   8.632 -1.4018  0.4778  1.1159
 1840SOL    HW217154   2.079   1.632   8.586  2.5926  1.1742 -1.9838
 1841SOL     OW17155   3.885   3.531   2.245 -0.0267  0.6324  0.0448
 1841SOL    HW117156   3.877   3.460   2.182 -0.4492  1.5355 -0.9206
 1841SOL    HW217157   3.796   3.547   2.274 -1.3028 -4.5163 -1.0412
 1842SOL     OW17158   0.838   4.046   7.420  0.3364  0.5066  0.2442
 1842SOL    HW117159   0.798   4.021   7.504  0.0175  1.1177  0.2743
 1842SOL    HW217160   0.873   4.134   7.435  0.2655  0.4904  0.5058
 1843SOL     OW17161   4.659   4.619   2.200  0.0822 -0.3131  0.6267
 1843SOL    HW117162   4.677   4.712   2.214 -1.7809  0.0471  0.7597
 1843SOL    HW217163   4.567   4.634   2.225  0.4157  0.6505  1.2718
 1844SOL     OW17164   0.261   3.774   5.315 -0.3815 -0.2368  0.2655
 1844SOL    HW117165   0.308   3.793   5.234  0.0240 -0.1337  0.5248
 1844SOL    HW217166   0.270   3.857   5.361  0.8880  0.2304 -0.8282
 1845SOL     OW17167   4.475   3.575   5.386  0.2620 -0.0520  0.2179
 1845SOL    HW117168   4.509   3.659   5.357 -0.6482  0.6635  1.2149
 1845SOL    HW217169   4.484   3.573   5.481 -1.2984 -0.4814  0.3616
 1846SOL     OW17170   2.727   0.909   3.287  0.1336  0.2049  0.4075
 1846SOL    HW117171   2.811   0.952   3.267  0.6512 -0.3516  1.3869
 1846SOL    HW217172   2.670   0.926   3.212 -0.2682  0.4441  0.7651
 1847SOL     OW17173   0.599   4.687   5.217  0.2594 -0.0801 -0.2175
 1847SOL    HW117174   0.547   4.606   5.224  0.7533 -0.2874  1.0406
 1847SOL    HW217175   0.646   4.686   5.300  1.0573  2.6542 -0.6507
 1848SOL     OW17176   4.056   0.732   0.691  0.0052  0.1565  0.0332
 1848SOL    HW117177   4.073   0.813   0.642 -1.3714  0.4487  0.0230
 1848SOL    HW217178   4.147   0.713   0.713 -0.1423  2.3347  2.4736
 1849SOL     OW17179   3.469   1.925   1.081  0.4611 -0.1605  0.5396
 1849SOL    HW117180   3.541   1.866   1.104 -0.4504 -0.7213  1.9809
 1849SOL    HW217181   3.468   1.972   1.164 -0.5618  0.3171  0.2562
 1850SOL     OW17182   3.724   0.460  16.783  0.0428  0.1145 -0.9447
 1850SOL    HW117183   3.767   0.500  16.859 -1.2465 -1.6473  0.7335
 1850SOL    HW217184   3.645   0.514  16.775 -0.9313 -1.0811  0.4477
 1851SOL     OW17185   3.246   0.623   6.919  0.0101 -0.8983  0.1663
 1851SOL    HW117186   3.220   0.706   6.957 -0.5897 -0.6048 -0.8711
 1851SOL    HW217187   3.164   0.577   6.935 -1.0297  1.5427  1.8068
 1852SOL     OW17188   3.415   1.189   9.446 -0.1495 -0.3066 -0.0189
 1852SOL    HW117189   3.336   1.236   9.419  0.4600 -1.4961 -3.8860
 1852SOL    HW217190   3.405   1.107   9.397 -1.0837  0.4848 -1.1582
 1853SOL     OW17191   4.196   2.793  10.522 -1.6112  0.0779  0.0643
 1853SOL    HW117192   4.259   2.856  10.558 -0.8150 -1.7085  1.7845
 1853SOL    HW217193   4.263   2.742  10.477 -0.2588  0.6637  1.3830
 1854SOL     OW17194   2.716   2.655  14.687 -0.2602  0.4432 -0.0463
 1854SOL    HW117195   2.706   2.566  14.720 -0.1896  0.3145 -0.3649
 1854SOL    HW217196   2.678   2.656  14.599 -0.1820  0.1448 -0.0855
 1855SOL     OW17197   0.641   1.641   7.746 -0.3413  0.2585  0.9253
 1855SOL    HW117198   0.629   1.614   7.837  1.6941  1.9441  1.7021
 1855SOL    HW217199   0.555   1.682   7.735  1.7451  4.5607  0.3407
 1856SOL     OW17200   3.777   2.663   0.532 -0.4981  0.2435  0.2136
 1856SOL    HW117201   3.755   2.695   0.444 -1.8636  2.1146  1.2126
 1856SOL    HW217202   3.872   2.668   0.523 -0.4880  0.8301  0.6578
 1857SOL     OW17203   3.134   3.907   6.280 -0.1694  0.0187 -0.2146
 1857SOL    HW117204   3.076   3.945   6.346 -0.9153  0.1117 -0.9257
 1857SOL    HW217205   3.139   3.978   6.216  2.4301  0.0001 -0.0483
 1858SOL     OW17206   0.736   2.054   7.940 -0.4015  0.2903  0.2935
 1858SOL    HW117207   0.743   2.033   7.847  1.4805  1.2760  0.2010
 1858SOL    HW217208   0.699   1.972   7.974  1.4872 -0.5745  0.2724
 1859SOL     OW17209   4.262   1.037   7.907  0.4629 -0.1154  0.4733
 1859SOL    HW117210   4.311   0.976   7.963  1.1640  0.9698  1.0349
 1859SOL    HW217211   4.285   0.989   7.828  1.5767 -0.4084  0.9668
 1860SOL     OW17212   2.634   0.892  11.453 -0.3282 -0.7964  0.0408
 1860SOL    HW117213   2.706   0.911  11.513  1.8415 -1.0538 -2.4406
 1860SOL    HW217214   2.683   0.836  11.392 -0.0903 -1.0379  0.4564
 1861SOL     OW17215   3.814   3.193   4.089 -0.5574  0.2529 -0.6862
 1861SOL    HW117216   3.758   3.252   4.139 -0.2762  0.1978 -0.3046
 1861SOL    HW217217   3.786   3.112   4.131 -0.4589  0.2997 -0.5286
 1862SOL     OW17218   2.159   4.522   7.691 -0.1902 -0.1962  0.2666
 1862SOL    HW117219   2.217   4.553   7.621 -0.7623 -1.0889 -0.6153
 1862SOL    HW217220   2.205   4.443   7.721  1.7090 -0.2022 -2.6280
 1863SOL     OW17221   0.807   3.954   4.309  0.5914  0.4208  0.1599
 1863SOL    HW117222   0.725   3.995   4.337  0.8342  1.3848 -0.5566
 1863SOL    HW217223   0.866   4.029   4.322  1.4409  0.3055 -3.0278
 1864SOL     OW17224   2.925   2.453  14.862  0.3268  0.1288  0.3467
 1864SOL    HW117225   2.972   2.446  14.945 -0.7041 -1.9886  0.7407
 1864SOL    HW217226   2.995   2.463  14.797  1.4121  0.7901  1.6324
 1865SOL     OW17227   1.910   3.253   3.564  0.0228  0.0744  0.6981
 1865SOL    HW117228   1.961   3.322   3.521 -0.4729 -0.7190 -1.1103
 1865SOL    HW217229   1.984   3.214   3.611  0.4793 -0.0662 -0.1441
 1866SOL     OW17230   2.185   3.574   3.094 -0.3230  0.0400  0.1827
 1866SOL    HW117231   2.156   3.662   3.121 -0.5925  0.7029 -2.2166
 1866SOL    HW217232   2.114   3.555   3.032  1.2855 -0.2598 -1.5724
 1867SOL     OW17233   4.590   2.537   3.845 -0.2600 -0.1600 -0.0993
 1867SOL    HW117234   4.643   2.520   3.767 -1.0791  0.3341 -0.7640
 1867SOL    HW217235   4.599   2.627   3.874  1.1886 -0.0423 -0.9554
 1868SOL     OW17236   0.502   3.119   4.763  0.3174 -0.0264 -0.0694
 1868SOL    HW117237   0.523   3.209   4.736  0.9893 -0.6121 -1.5025
 1868SOL    HW217238   0.414   3.115   4.725  0.1199 -2.1766  0.6274
 1869SOL     OW17239   1.215   3.281   9.007 -0.6360  0.0573  0.2455
 1869SOL    HW117240   1.232   3.325   8.924 -0.3051 -0.2671  0.1407
 1869SOL    HW217241   1.141   3.223   8.990  0.1230 -0.9409  0.3214
 1870SOL     OW17242   1.811   1.859   7.487 -0.3977 -0.3488 -0.3863
 1870SOL    HW117243   1.791   1.802   7.561 -0.5109  2.9478  2.1326
 1870SOL    HW217244   1.778   1.818   7.407 -0.6286  0.9637 -0.9663
 1871SOL     OW17245   1.840   3.428  13.075 -0.2284  0.0874 -0.2102
 1871SOL    HW117246   1.841   3.333  13.060 -1.2320 -0.3753  2.6810
 1871SOL    HW217247   1.905   3.444  13.143 -1.0502 -1.0161  0.8411
 1872SOL     OW17248   3.045   1.211   2.340 -0.7067 -0.1224 -0.4755
 1872SOL    HW117249   3.072   1.122   2.363  1.7089  0.9963  1.0853
 1872SOL    HW217250   2.953   1.185   2.326 -1.0798  0.4607  0.8520
 1873SOL     OW17251   1.024   4.061   7.213 -0.3566 -0.3516 -0.0056
 1873SOL    HW117252   1.063   3.974   7.222 -2.2598 -1.1180  0.8890
 1873SOL    HW217253   0.955   4.056   7.279  1.5010 -0.5444  1.9345
 1874SOL     OW17254   1.951   2.521   7.855 -0.1269  0.4473  0.6626
 1874SOL    HW117255   1.927   2.432   7.828 -0.0221  0.1887  1.4252
 1874SOL    HW217256   1.918   2.578   7.785  1.0035 -0.2110 -0.4183
 1875SOL     OW17257   0.304   0.421  11.537 -0.1887 -0.2284 -0.2793
 1875SOL    HW117258   0.226   0.438  11.591  1.1820  2.3780  0.8445
 1875SOL    HW217259   0.372   0.431  11.603 -0.5131  0.9658 -0.1291
 1876SOL     OW17260   2.160   0.834   6.320 -0.2870  0.0456  0.3002
 1876SOL    HW117261   2.167   0.884   6.239 -0.4691 -0.0633  0.2168
 1876SOL    HW217262   2.064   0.830   6.322 -0.2861 -0.5659 -0.8908
 1877SOL     OW17263   2.189   4.325   2.672  0.1718 -0.3210 -0.0628
 1877SOL    HW117264   2.152   4.413   2.660  0.2158 -0.3327 -0.2849
 1877SOL    HW217265   2.281   4.336   2.647  0.2960  3.3374  1.9390
 1878SOL     OW17266   1.529   1.062   4.788  0.1940  0.0107 -0.5124
 1878SOL    HW117267   1.444   1.071   4.744 -0.3956 -0.6231  0.5101
 1878SOL    HW217268   1.536   0.968   4.769 -2.0982  0.1112 -1.8746
 1879SOL     OW17269   1.268   4.577   8.661  0.2642 -0.3406 -0.2342
 1879SOL    HW117270   1.245   4.490   8.693  0.4575 -0.4832 -0.4888
 1879SOL    HW217271   1.363   4.569   8.654  0.1890 -2.2059  0.8175
 1880SOL     OW17272   2.689   3.490   8.130  0.2144 -0.3039 -0.2121
 1880SOL    HW117273   2.771   3.461   8.168 -0.0982  0.4329  1.0263
 1880SOL    HW217274   2.642   3.407   8.131 -1.0987  0.4198 -0.6888
 1881SOL     OW17275   3.637   1.385   7.936 -0.6230 -0.4774  0.1196
 1881SOL    HW117276   3.732   1.373   7.946 -0.4212  1.1795  0.1796
 1881SOL    HW217277   3.611   1.294   7.951 -1.7937  0.0868  1.4940
 1882SOL     OW17278   1.301   3.162   7.555 -0.1011  1.0479 -0.5088
 1882SOL    HW117279   1.320   3.252   7.579  2.2996 -0.3567  2.9284
 1882SOL    HW217280   1.356   3.124   7.624  0.0374 -1.6431 -2.0917
 1883SOL     OW17281   1.066   3.883   9.164 -0.3412  0.4545  0.1040
 1883SOL    HW117282   1.081   3.943   9.236  1.3245 -0.6427  0.6864
 1883SOL    HW217283   1.052   3.950   9.097 -1.8828  0.4287  0.4041
 1884SOL     OW17284   3.667   4.536   5.233  0.0885 -0.5143 -0.2708
 1884SOL    HW117285   3.695   4.490   5.313 -0.3010  0.5691  0.4827
 1884SOL    HW217286   3.651   4.464   5.173 -1.7468 -0.0600 -0.3196
 1885SOL     OW17287   0.557   4.127   7.677 -0.1986 -0.3369  0.3362
 1885SOL    HW117288   0.631   4.069   7.697  0.8104  0.3679 -1.3517
 1885SOL    HW217289   0.528   4.092   7.593  1.2138  0.9650 -0.7160
 1886SOL     OW17290   4.207   0.491   7.983 -0.2775 -0.0712 -0.3435
 1886SOL    HW117291   4.203   0.403   7.946 -1.7371  0.6067 -1.7661
 1886SOL    HW217292   4.137   0.540   7.941  0.2726  2.0617  1.2394
 1887SOL     OW17293   1.964   4.639   9.107 -0.1824 -0.1447  0.0050
 1887SOL    HW117294   1.931   4.549   9.100 -1.2855  0.1283  2.0328
 1887SOL    HW217295   1.978   4.654   9.200 -0.6250  0.5837 -0.0499
 1888SOL     OW17296   3.805   0.285   4.690  0.4134 -0.2128  0.6095
 1888SOL    HW117297   3.723   0.324   4.721  2.3826  3.5993  1.0991
 1888SOL    HW217298   3.805   0.199   4.730 -2.0589 -1.4501 -2.0306
 1889SOL     OW17299   0.185   0.261  16.004  0.4199 -0.3632 -0.5388
 1889SOL    HW117300   0.101   0.264  15.959  0.6611  0.9174 -0.9001
 1889SOL    HW217301   0.173   0.185  16.061  0.0968  0.4852  0.5402
 1890SOL     OW17302   3.676   2.422  15.928  0.1479 -0.1735  0.5597
 1890SOL    HW117303   3.622   2.452  15.855 -0.1063 -0.3511  0.6719
 1890SOL    HW217304   3.690   2.506  15.971 -4.2472  0.9031 -0.1022
 1891SOL     OW17305   2.748   2.804  14.152 -0.3122 -0.0922  0.5614
 1891SOL    HW117306   2.692   2.882  14.159 -0.9993 -0.7658  2.4557
 1891SOL    HW217307   2.824   2.836  14.200  0.9323 -0.9339 -0.8555
 1892SOL     OW17308   0.591   2.720  16.286  0.0190  0.3013  0.2039
 1892SOL    HW117309   0.669   2.714  16.340  0.6184 -0.0756 -0.7064
 1892SOL    HW217310   0.538   2.646  16.316 -0.5681  0.0994 -1.3073
 1893SOL     OW17311   2.786   1.864   5.994  0.0430 -0.2001  0.1164
 1893SOL    HW117312   2.705   1.814   6.005 -0.5348  0.4782 -1.0094
 1893SOL    HW217313   2.794   1.868   5.899  0.0719 -1.5851  0.0742
 1894SOL     OW17314   1.425   2.013  16.545 -0.5337 -0.2634  0.0363
 1894SOL    HW117315   1.388   2.002  16.457  1.6079 -0.6832 -0.8184
 1894SOL    HW217316   1.508   1.968  16.529 -0.2717  1.2336 -2.8110
 1895SOL     OW17317   0.408   2.393  12.565 -0.6273  0.2699 -0.2644
 1895SOL    HW117318   0.387   2.392  12.472  0.0476 -1.3068 -0.3848
 1895SOL    HW217319   0.501   2.376  12.576 -1.2469 -0.4456  3.9329
 1896SOL     OW17320   0.450   3.034  11.909  0.1169 -0.2701  0.6864
 1896SOL    HW117321   0.363   3.014  11.874  0.6353 -1.8960  0.3419
 1896SOL    HW217322   0.492   2.992  11.834  0.7627  0.5471  0.5834
 1897SOL     OW17323   2.271   3.566  12.426 -0.2287 -0.5181  0.1348
 1897SOL    HW117324   2.262   3.657  12.396  0.5991  0.0080  1.4802
 1897SOL    HW217325   2.197   3.525  12.381 -0.1947  2.4713 -2.6636
 1898SOL     OW17326   2.797   2.990   0.844  0.1542 -0.4172  0.2509
 1898SOL    HW117327   2.737   2.916   0.837 -1.7229  1.0561  0.8184
 1898SOL    HW217328   2.761   3.046   0.776  0.1792 -2.6978 -1.6250
 1899SOL     OW17329   2.648   0.657   9.397 -0.1677  0.1213  0.1399
 1899SOL    HW117330   2.562   0.625   9.368  1.2621 -3.1563 -0.4511
 1899SOL    HW217331   2.702   0.579   9.407 -0.6444 -0.0536  1.3719
 1900SOL     OW17332   1.460   2.127   3.799 -0.0753 -0.2286 -0.3375
 1900SOL    HW117333   1.483   2.043   3.838  1.9551  1.4511  2.0745
 1900SOL    HW217334   1.366   2.113   3.789 -0.0706 -1.5748  1.5257
 1901SOL     OW17335   4.579   0.252   7.766  0.1893 -1.1237 -0.7226
 1901SOL    HW117336   4.564   0.305   7.844 -0.5817 -4.1566  1.1570
 1901SOL    HW217337   4.641   0.185   7.794 -0.5582 -0.3075  2.8464
 1902SOL     OW17338   1.851   3.782   1.283 -0.2875 -0.3319  0.0844
 1902SOL    HW117339   1.885   3.852   1.339 -1.1947  0.4061 -0.2999
 1902SOL    HW217340   1.939   3.751   1.261  0.0293  0.5552  0.1124
 1903SOL     OW17341   2.143   0.285   6.964  0.3443 -0.6313 -0.4637
 1903SOL    HW117342   2.164   0.375   6.990 -0.2653 -1.0730  1.5284
 1903SOL    HW217343   2.177   0.290   6.874 -1.8318  3.8306 -1.0370
 1904SOL     OW17344   2.909   3.672   2.712 -0.2498 -0.1254  0.1407
 1904SOL    HW117345   2.861   3.644   2.634 -1.7410 -0.2318  1.1035
 1904SOL    HW217346   2.919   3.765   2.695 -0.9586 -0.2288 -0.8305
 1905SOL     OW17347   1.174   1.535   7.961 -0.1852 -0.3581 -0.3410
 1905SOL    HW117348   1.167   1.626   7.930  0.3407  0.2895  1.4379
 1905SOL    HW217349   1.263   1.538   7.996  0.1545 -0.3711 -1.2095
 1906SOL     OW17350   4.721   2.226   4.495 -0.1086 -0.3507 -0.0626
 1906SOL    HW117351   0.067   2.189   4.467 -0.3345  0.4123 -1.7270
 1906SOL    HW217352   4.718   2.192   4.584 -2.2577 -0.4793 -0.1913
 1907SOL     OW17353   2.734   2.386  12.060 -0.7595 -0.4896 -0.5168
 1907SOL    HW117354   2.676   2.316  12.090 -0.7631 -1.0301 -1.7731
 1907SOL    HW217355   2.805   2.331  12.026  0.2149 -0.0911  0.9040
 1908SOL     OW17356   0.104   3.703   7.310  0.5872  0.3654  0.4362
 1908SOL    HW117357   0.124   3.796   7.317  1.0068  0.2585  0.6848
 1908SOL    HW217358   0.077   3.672   7.396  0.3414 -0.0285  0.2175
 1909SOL     OW17359   4.315   3.810   8.018  0.1242 -0.2382 -0.0373
 1909SOL    HW117360   4.373   3.853   7.955 -1.2917  0.0471 -1.1663
 1909SOL    HW217361   4.365   3.810   8.099  1.9217  0.9654 -1.1437
 1910SOL     OW17362   2.294   0.881   8.579 -0.2425 -0.6721 -0.3631
 1910SOL    HW117363   2.205   0.847   8.569  0.1676 -1.7881 -0.2601
 1910SOL    HW217364   2.341   0.810   8.534 -1.4632 -1.2025 -0.7977
 1911SOL     OW17365   4.528   1.595   9.630  0.6401 -0.2279 -0.3220
 1911SOL    HW117366   4.469   1.580   9.556 -1.1925  0.0699  1.0824
 1911SOL    HW217367   4.608   1.551   9.603  1.2198 -0.4163  1.7517
 1912SOL     OW17368   2.161   0.280   6.001  0.1761  0.0836 -0.5711
 1912SOL    HW117369   2.113   0.343   6.053  0.1818  1.6032 -2.4201
 1912SOL    HW217370   2.102   0.206   6.017  0.0159 -0.5178 -3.8284
 1913SOL     OW17371   3.849   1.380  10.906 -0.0989  0.0946 -0.3314
 1913SOL    HW117372   3.790   1.304  10.902 -0.8486  0.7237 -1.0752
 1913SOL    HW217373   3.930   1.332  10.888  0.5206  1.1284 -0.2316
 1914SOL     OW17374   3.028   0.503   7.021 -0.0503 -0.4524 -0.0897
 1914SOL    HW117375   2.936   0.517   6.998 -0.1301 -0.1423  0.3990
 1914SOL    HW217376   3.015   0.515   7.116 -0.8722  2.3217 -0.5402
 1915SOL     OW17377   2.794   2.902   2.176 -0.0699 -0.2977  0.2096
 1915SOL    HW117378   2.743   2.826   2.151 -0.3311 -0.9354  2.6419
 1915SOL    HW217379   2.723   2.957   2.209 -0.3774 -0.1906 -0.6309
 1916SOL     OW17380   1.622   2.581  15.346 -0.5359  0.4930 -0.0106
 1916SOL    HW117381   1.693   2.645  15.343  2.2319 -2.6438 -1.4856
 1916SOL    HW217382   1.550   2.639  15.321 -1.5022 -1.6088 -2.0674
 1917SOL     OW17383   1.003   0.774   6.293 -0.0790  0.4470 -0.8117
 1917SOL    HW117384   0.962   0.860   6.288 -0.9099  0.0465 -0.8839
 1917SOL    HW217385   1.069   0.790   6.360 -1.1087  0.1071  0.2815
 1918SOL     OW17386   1.058   1.375   8.197  0.4857  0.2172  0.0043
 1918SOL    HW117387   1.059   1.463   8.234 -2.7800  0.2698 -0.0045
 1918SOL    HW217388   1.095   1.321   8.267  1.2911  0.4884 -0.2070
 1919SOL     OW17389   3.934   2.054   5.293  0.1926  0.5126  0.3079
 1919SOL    HW117390   3.854   2.078   5.340 -0.5414  1.3162 -1.3501
 1919SOL    HW217391   3.929   1.978   5.236  1.7391 -1.4399  2.7582
 1920SOL     OW17392   4.601   3.950   8.075 -0.1050 -0.3083  0.0902
 1920SOL    HW117393   4.544   3.969   8.000  0.9973  1.7077 -0.2408
 1920SOL    HW217394   4.626   4.035   8.110  0.4889  0.3796 -1.9724
 1921SOL     OW17395   0.277   4.023   5.423 -0.3529 -0.2136  0.1939
 1921SOL    HW117396   0.334   4.042   5.498  1.2868  1.3472 -1.4462
 1921SOL    HW217397   0.276   4.105   5.374  0.0859  0.3540  1.1427
 1922SOL     OW17398   4.724   4.330  10.800  0.2154  0.2033 -0.2326
 1922SOL    HW117399   0.076   4.343  10.771  0.3613 -0.3291 -0.0102
 1922SOL    HW217400   4.735   4.338  10.895  0.1909  0.1880 -0.2284
 1923SOL     OW17401   1.926   3.377   7.444  0.1035 -0.3304 -0.7584
 1923SOL    HW117402   1.980   3.319   7.498 -0.1925 -1.5655 -1.7957
 1923SOL    HW217403   1.995   3.441   7.428 -3.2248  2.5523 -3.4439
 1924SOL     OW17404   2.953   3.565   6.943  0.2036  0.1005 -0.4876
 1924SOL    HW117405   3.001   3.625   6.887  0.2001  1.2073  0.6845
 1924SOL    HW217406   2.902   3.520   6.876  1.5236  0.5274 -1.7597
 1925SOL     OW17407   3.152   2.654  15.109 -0.6259  0.4239  0.2302
 1925SOL    HW117408   3.114   2.703  15.036  0.2232 -0.1583 -0.6006
 1925SOL    HW217409   3.128   2.710  15.183  1.5119  0.6512  0.7556
 1926SOL     OW17410   4.059   3.487   5.504 -0.2176  0.1382 -0.6911
 1926SOL    HW117411   3.993   3.428   5.467 -1.2655  0.0817  1.3191
 1926SOL    HW217412   4.126   3.423   5.529 -0.0861  0.6538  0.2829
 1927SOL     OW17413   1.196   2.863   2.618 -0.6499  0.2375  0.0933
 1927SOL    HW117414   1.270   2.883   2.561  0.9561 -2.3843  1.2517
 1927SOL    HW217415   1.137   2.933   2.591  1.0073  0.9897 -1.5654
 1928SOL     OW17416   3.383   4.138  10.408  0.4895  0.2199 -0.4970
 1928SOL    HW117417   3.354   4.199  10.476 -0.8920  0.6039 -1.4473
 1928SOL    HW217418   3.451   4.182  10.357 -0.0279  1.0466 -0.4815
 1929SOL     OW17419   0.786   3.967   7.680  0.2102 -0.0677 -0.0188
 1929SOL    HW117420   0.803   3.962   7.774  2.9777  0.9523 -0.4680
 1929SOL    HW217421   0.809   3.878   7.655  2.0339  0.0183  1.3616
 1930SOL     OW17422   4.647   3.906   7.475  0.2651 -0.1060 -0.0696
 1930SOL    HW117423   4.664   3.920   7.568 -1.8271  0.7027  0.1951
 1930SOL    HW217424   4.705   3.975   7.442 -0.5347  1.3359  1.5436
 1931SOL     OW17425   2.362   1.767   4.253 -0.2524  0.0558  0.5383
 1931SOL    HW117426   2.311   1.699   4.296 -0.1375 -0.2771  0.1495
 1931SOL    HW217427   2.300   1.806   4.191  1.2962  1.9799  0.1718
 1932SOL     OW17428   3.148   3.010  13.315 -0.0520  0.6797 -0.2387
 1932SOL    HW117429   3.066   2.976  13.278  0.7703 -0.8020 -0.6883
 1932SOL    HW217430   3.152   2.964  13.398  0.6996  1.9326  0.4162
 1933SOL     OW17431   4.738   3.128   8.628  0.1186 -0.6132  0.1732
 1933SOL    HW117432   0.077   3.093   8.584  1.1466  0.5569  1.0522
 1933SOL    HW217433   4.708   3.054   8.681 -2.0032  1.3085  1.6295
 1934SOL     OW17434   4.299   2.609   8.098 -0.6398  0.1652  0.6967
 1934SOL    HW117435   4.273   2.688   8.146 -1.7809  1.0549 -1.4143
 1934SOL    HW217436   4.215   2.565   8.088 -0.2336 -0.2298 -0.8568
 1935SOL     OW17437   1.725   2.817   4.833 -0.8851  0.9720  0.1128
 1935SOL    HW117438   1.768   2.732   4.836  1.8221  2.2433 -2.3510
 1935SOL    HW217439   1.798   2.877   4.816 -0.2361  0.3036  0.5620
 1936SOL     OW17440   3.611   2.113   3.085  0.6384  0.0259  0.2490
 1936SOL    HW117441   3.665   2.037   3.110  0.9356  0.3364  0.5527
 1936SOL    HW217442   3.526   2.082   3.116  0.4685 -0.0618 -0.3209
 1937SOL     OW17443   1.870   2.540  13.330 -0.1806  0.2507  0.3141
 1937SOL    HW117444   1.902   2.478  13.396 -2.4268  1.0581  2.1446
 1937SOL    HW217445   1.951   2.553  13.281 -0.6222 -0.2532 -0.5573
 1938SOL     OW17446   1.215   2.496  11.193  0.3159  0.0455 -0.7024
 1938SOL    HW117447   1.180   2.540  11.116 -0.7547 -2.5408 -1.6809
 1938SOL    HW217448   1.295   2.459  11.157  0.6421 -0.5707  0.6571
 1939SOL     OW17449   4.694   0.649   1.302  0.3453  0.6237 -0.0466
 1939SOL    HW117450   4.609   0.612   1.324  0.0700  1.6815  0.6804
 1939SOL    HW217451   0.025   0.592   1.336  1.2935  0.7260 -1.8208
 1940SOL     OW17452   3.533   0.082   3.637  0.0489 -0.0570 -0.3477
 1940SOL    HW117453   3.586   0.036   3.572  2.6039  0.4373  1.4197
 1940SOL    HW217454   3.484   0.009   3.675  0.6783 -1.0659 -1.4496
 1941SOL     OW17455   4.029   1.717   3.506 -0.7531  0.0842  0.1337
 1941SOL    HW117456   4.029   1.806   3.471  1.9634 -0.2812 -0.8121
 1941SOL    HW217457   4.111   1.679   3.474 -1.0802 -0.2959 -0.2613
 1942SOL     OW17458   2.423   3.812   8.866  0.2733  0.2127 -0.2754
 1942SOL    HW117459   2.513   3.843   8.878 -0.0885  1.7716 -1.6149
 1942SOL    HW217460   2.380   3.888   8.903 -1.3432 -0.9083  0.1567
 1943SOL     OW17461   0.457   0.558  15.382 -0.0892  0.0898  0.3625
 1943SOL    HW117462   0.475   0.570  15.475  0.9174 -0.1931  0.2001
 1943SOL    HW217463   0.362   0.551  15.386 -0.2568  2.4363  0.1626
 1944SOL     OW17464   1.734   4.198  16.518  0.1453  0.3058  0.1575
 1944SOL    HW117465   1.786   4.163  16.446 -0.5331 -1.4631  0.5367
 1944SOL    HW217466   1.782   4.175  16.598  0.4328  0.7236  0.1043
 1945SOL     OW17467   2.233   1.785   1.982  0.7266 -0.6728  0.7374
 1945SOL    HW117468   2.245   1.805   1.889  0.8166 -1.0659  0.6620
 1945SOL    HW217469   2.164   1.849   2.000  0.7776  0.1500 -2.0207
 1946SOL     OW17470   4.060   0.753  10.517 -0.0382 -0.2723  0.0251
 1946SOL    HW117471   4.022   0.808  10.449  0.7871 -0.4851 -0.6106
 1946SOL    HW217472   4.134   0.807  10.545  0.9586 -0.2115 -2.7276
 1947SOL     OW17473   3.613   2.201  11.972  0.0398 -0.0243  0.1260
 1947SOL    HW117474   3.653   2.194  12.058 -1.0836  0.7130  0.7144
 1947SOL    HW217475   3.658   2.281  11.945 -2.7322  1.3171 -0.5522
 1948SOL     OW17476   1.454   2.964   4.457  0.3540 -0.1598 -0.1332
 1948SOL    HW117477   1.414   2.978   4.371  1.8100  1.6716 -0.5061
 1948SOL    HW217478   1.383   2.996   4.513  0.3396 -1.3502  0.5350
 1949SOL     OW17479   0.889   2.847   8.394  0.0352  0.3332 -0.0413
 1949SOL    HW117480   0.844   2.828   8.312 -0.3332  1.0695 -0.0168
 1949SOL    HW217481   0.912   2.939   8.380 -0.6387  0.7189  1.3116
 1950SOL     OW17482   0.455   0.682   4.136 -0.5386 -0.0293 -0.1340
 1950SOL    HW117483   0.372   0.700   4.091 -1.8484 -1.6535  1.6537
 1950SOL    HW217484   0.463   0.765   4.183 -0.0217  0.6846 -1.4816
 1951SOL     OW17485   2.956   3.272   2.109 -0.1297  0.1691  0.0240
 1951SOL    HW117486   3.014   3.326   2.163 -0.7302  1.3509 -0.5308
 1951SOL    HW217487   3.013   3.205   2.070 -0.1826  0.8590 -1.2332
 1952SOL     OW17488   4.649   2.247   8.711  0.0454  0.1355 -0.1625
 1952SOL    HW117489   4.636   2.179   8.777 -0.1321  0.1148 -0.2165
 1952SOL    HW217490   4.583   2.312   8.735  0.3346  0.1770  0.5028
 1953SOL     OW17491   2.900   2.158   6.654 -0.3833 -0.5648 -0.0223
 1953SOL    HW117492   2.893   2.122   6.566 -2.2406  0.0496 -0.1452
 1953SOL    HW217493   2.862   2.244   6.633  0.3754 -0.5973 -1.5030
 1954SOL     OW17494   2.712   2.156   5.699 -0.3685  0.0241  0.3254
 1954SOL    HW117495   2.688   2.140   5.790 -0.7954 -0.2904  0.1598
 1954SOL    HW217496   2.628   2.139   5.655  0.8768 -3.4768 -0.6639
 1955SOL     OW17497   0.294   0.704   4.415 -0.2750  0.1050  0.3860
 1955SOL    HW117498   0.278   0.699   4.321 -3.3705 -0.3934  0.9618
 1955SOL    HW217499   0.324   0.795   4.406 -0.4792  0.3778  2.4182
 1956SOL     OW17500   2.257   0.493  15.268 -0.3738 -0.2134 -0.5794
 1956SOL    HW117501   2.170   0.491  15.229  1.1565 -1.4161 -3.9741
 1956SOL    HW217502   2.297   0.420  15.219 -1.4584 -2.2917  1.6258
 1957SOL     OW17503   4.281   1.843   4.889  0.2747  0.9098  0.4247
 1957SOL    HW117504   4.197   1.827   4.848  0.5157  1.1573 -0.1726
 1957SOL    HW217505   4.319   1.918   4.842  1.9110 -1.0933 -1.4286
 1958SOL     OW17506   0.118   3.577   4.405  0.2884 -0.1333  0.0948
 1958SOL    HW117507   0.165   3.659   4.391  0.4061 -0.3401 -0.6868
 1958SOL    HW217508   0.180   3.521   4.451 -2.9631 -3.4495  0.4566
 1959SOL     OW17509   4.355   3.190   3.084 -0.5543 -0.0677 -0.3895
 1959SOL    HW117510   4.313   3.136   3.150 -0.9151  0.9117  0.1803
 1959SOL    HW217511   4.281   3.207   3.027 -2.3841  0.3115  2.1017
 1960SOL     OW17512   4.676   4.328   7.990 -0.0940 -0.1503  0.1290
 1960SOL    HW117513   4.737   4.398   8.014 -0.3604  0.3268 -0.6106
 1960SOL    HW217514   4.618   4.336   8.066 -1.0392 -2.3099 -0.3630
 1961SOL     OW17515   1.444   3.512   8.588 -0.1002 -0.6456  0.1493
 1961SOL    HW117516   1.460   3.529   8.495  0.8716 -0.5101  0.3397
 1961SOL    HW217517   1.481   3.590   8.629  1.1907  0.2144 -2.6378
 1962SOL     OW17518   4.483   4.295   7.383  0.6169  0.7853  0.1920
 1962SOL    HW117519   4.407   4.322   7.330  1.8473 -0.2058 -2.0891
 1962SOL    HW217520   4.540   4.371   7.373 -0.9696  1.9646  0.1556
 1963SOL     OW17521   4.530   4.660  16.628  0.4928  0.2342 -0.6604
 1963SOL    HW117522   4.594   4.730  16.617  2.2546 -1.3366 -0.3677
 1963SOL    HW217523   4.513   4.634  16.537  1.1004  0.1628 -0.7564
 1964SOL     OW17524   3.772   3.819   6.571  0.2385 -0.2374 -0.5495
 1964SOL    HW117525   3.865   3.835   6.559  0.0781 -0.0683 -1.5648
 1964SOL    HW217526   3.765   3.844   6.663  0.8726  0.0447 -0.5815
 1965SOL     OW17527   1.299   0.154   3.178  0.4870 -0.2295  0.4070
 1965SOL    HW117528   1.295   0.196   3.092  0.5723 -3.2046 -1.0667
 1965SOL    HW217529   1.394   0.160   3.190  0.3866  1.6116  0.1860
 1966SOL     OW17530   4.640   4.057   6.950  0.2306  0.5967  0.0460
 1966SOL    HW117531   4.668   4.070   6.860 -0.2399 -0.0412 -0.1915
 1966SOL    HW217532   4.550   4.086   6.942 -0.2786 -0.5597  1.4372
 1967SOL     OW17533   2.472   3.230   8.635 -0.6175  0.4635  0.4994
 1967SOL    HW117534   2.421   3.272   8.704  0.8247 -2.1017  3.1635
 1967SOL    HW217535   2.479   3.143   8.675  1.8760 -0.2417 -1.4795
 1968SOL     OW17536   1.254   3.848   6.624 -0.1881  0.2432  0.3022
 1968SOL    HW117537   1.164   3.831   6.595  0.2544  0.9438 -1.4924
 1968SOL    HW217538   1.298   3.836   6.540 -0.1309  0.9011  0.2363
 1969SOL     OW17539   4.052   1.707   2.170 -0.2404  0.6840  0.3538
 1969SOL    HW117540   4.111   1.752   2.230  1.1295  0.6719 -0.9975
 1969SOL    HW217541   4.096   1.622   2.165 -0.4057  0.6323 -0.2397
 1970SOL     OW17542   1.514   4.472  12.783 -0.0672  0.0642  0.7309
 1970SOL    HW117543   1.419   4.473  12.775 -0.1455 -3.0784  1.4360
 1970SOL    HW217544   1.524   4.384  12.746  0.5910  0.3857  0.1471
 1971SOL     OW17545   4.009   2.100  11.246  0.1512 -0.5563  0.7837
 1971SOL    HW117546   4.029   2.048  11.168 -1.4572  1.2258 -0.8436
 1971SOL    HW217547   3.914   2.088  11.252 -0.2502  2.9911  1.8177
 1972SOL     OW17548   1.606   1.358   8.738  0.0122 -0.7168 -0.8735
 1972SOL    HW117549   1.515   1.356   8.710 -0.5219 -1.8029  0.9302
 1972SOL    HW217550   1.636   1.285   8.684 -2.7329 -1.4160 -1.3973
 1973SOL     OW17551   0.533   2.258   5.408 -0.1830  0.1452  0.3166
 1973SOL    HW117552   0.577   2.316   5.346 -1.4570  1.2880  0.4892
 1973SOL    HW217553   0.469   2.218   5.350  1.3783  0.1041 -1.4037
 1974SOL     OW17554   4.087   1.612   0.024  0.1335 -0.1345  0.0373
 1974SOL    HW117555   4.104   1.579   0.113 -3.6879  1.3019  1.3055
 1974SOL    HW217556   3.993   1.629   0.017 -0.3897 -3.0768 -0.3280
 1975SOL     OW17557   0.760   3.946   9.246 -0.1197 -0.0083 -0.1540
 1975SOL    HW117558   0.746   3.888   9.321  0.6772 -0.5405 -0.4110
 1975SOL    HW217559   0.845   3.914   9.214  0.7444  0.5757  1.5459
 1976SOL     OW17560   0.622   4.093  14.360 -0.3648  0.5305 -0.0392
 1976SOL    HW117561   0.535   4.101  14.399 -0.3784 -0.3406  0.0914
 1976SOL    HW217562   0.646   4.185  14.345  2.8785  0.0492  2.0024
 1977SOL     OW17563   3.106   1.061  12.745 -0.2622  0.2288  0.1332
 1977SOL    HW117564   3.046   1.113  12.692 -1.8277 -0.5557  1.1312
 1977SOL    HW217565   3.194   1.084  12.714  0.2113 -2.0017 -0.1553
 1978SOL     OW17566   0.863   4.022   6.654  0.1049  0.1561  0.2490
 1978SOL    HW117567   0.861   4.015   6.558 -0.0443  0.7260  0.2099
 1978SOL    HW217568   0.815   3.943   6.677 -0.1548  0.3246  0.2931
 1979SOL     OW17569   2.103   2.126  11.947  0.9317  0.0669 -0.1310
 1979SOL    HW117570   2.119   2.215  11.978  1.6748 -0.6642  1.5992
 1979SOL    HW217571   2.184   2.110  11.899  1.5725 -3.8369  2.2280
 1980SOL     OW17572   4.085   1.494  13.124 -0.0433 -0.4153 -0.3618
 1980SOL    HW117573   4.004   1.466  13.165  0.0592 -1.4834 -0.8802
 1980SOL    HW217574   4.074   1.442  13.044  1.0886 -2.4669  0.7947
 1981SOL     OW17575   0.201   3.916   8.712 -0.0808  0.2454  0.3127
 1981SOL    HW117576   0.174   3.901   8.803 -1.9242 -3.1756 -0.8296
 1981SOL    HW217577   0.246   3.834   8.689 -0.3869  0.2912 -0.4383
 1982SOL     OW17578   4.446   4.425   1.877 -0.6194  0.7143  0.3642
 1982SOL    HW117579   4.445   4.344   1.826 -2.4275  0.5044  0.7242
 1982SOL    HW217580   4.357   4.461   1.871 -0.2416  1.7543  1.1321
 1983SOL     OW17581   2.307   2.060   3.571 -0.0783  0.2583 -0.0851
 1983SOL    HW117582   2.401   2.067   3.556  0.4807 -2.7354  2.1917
 1983SOL    HW217583   2.291   1.973   3.536 -1.8863  0.0361  1.2912
 1984SOL     OW17584   0.949   3.587   6.064  0.2467 -0.0945 -0.2103
 1984SOL    HW117585   0.985   3.519   6.007  1.1011 -0.7676  1.1263
 1984SOL    HW217586   0.873   3.540   6.098 -0.4489  0.0641 -1.5628
 1985SOL     OW17587   4.252   3.961   3.689 -1.1147  0.4614 -0.0555
 1985SOL    HW117588   4.316   4.032   3.682  0.4735 -1.1130 -1.6089
 1985SOL    HW217589   4.179   4.003   3.643 -0.0317 -0.8435 -2.9808
 1986SOL     OW17590   1.429   0.703   4.456  0.5498  0.5499  0.2750
 1986SOL    HW117591   1.344   0.721   4.496 -0.0143 -0.3055 -0.5650
 1986SOL    HW217592   1.420   0.640   4.384  1.2224  0.4723  0.2564
 1987SOL     OW17593   1.583   2.291   7.432 -0.2176 -0.0913 -0.2412
 1987SOL    HW117594   1.488   2.297   7.440 -0.1637  0.5568 -0.0980
 1987SOL    HW217595   1.595   2.214   7.488  0.3981 -1.2170 -1.9231
 1988SOL     OW17596   1.848   0.799   7.888 -0.1405  0.0633  0.5552
 1988SOL    HW117597   1.877   0.741   7.959 -1.0671 -1.4285 -0.2893
 1988SOL    HW217598   1.913   0.869   7.901 -0.9457  0.6485  1.4280
 1989SOL     OW17599   2.858   4.572   2.370  0.2707  0.0947  0.0662
 1989SOL    HW117600   2.844   4.650   2.423 -0.9482 -0.9469  1.2635
 1989SOL    HW217601   2.885   4.499   2.426  0.4667  1.5209  1.8126
 1990SOL     OW17602   2.717   0.730   7.279 -0.4118 -0.3109 -0.1782
 1990SOL    HW117603   2.756   0.774   7.354 -0.1016 -0.9929  0.0582
 1990SOL    HW217604   2.789   0.673   7.253 -0.7030 -0.5152 -0.5463
 1991SOL     OW17605   4.021   3.787   5.438 -0.0205  0.0668  0.2292
 1991SOL    HW117606   4.047   3.698   5.462  0.2103  0.0281 -0.1729
 1991SOL    HW217607   4.077   3.799   5.361  1.8995 -1.3796  1.3940
 1992SOL     OW17608   4.505   0.209   4.379  0.2177  0.0628 -0.5467
 1992SOL    HW117609   4.550   0.125   4.384 -0.2885 -0.3428 -2.8679
 1992SOL    HW217610   4.461   0.218   4.464  0.5538  2.0587 -0.5859
 1993SOL     OW17611   3.357   4.500   0.895 -0.2352  0.1702 -0.1167
 1993SOL    HW117612   3.330   4.438   0.828 -0.3488  1.5827 -1.3667
 1993SOL    HW217613   3.395   4.570   0.842  1.2012 -0.1205  0.5334
 1994SOL     OW17614   3.740   1.050   1.194  0.8292  0.5116 -0.2041
 1994SOL    HW117615   3.817   1.098   1.223  0.7339 -0.0822  1.0648
 1994SOL    HW217616   3.781   0.966   1.175 -2.2528 -1.2912  1.0398
 1995SOL     OW17617   2.365   1.460   4.327  0.3277 -0.0786 -0.1111
 1995SOL    HW117618   2.343   1.388   4.269  0.5158  0.1201 -0.4275
 1995SOL    HW217619   2.279   1.490   4.355  0.5186  0.8685 -0.5524
 1996SOL     OW17620   3.969   2.836   7.884 -0.3743  0.0135 -0.0047
 1996SOL    HW117621   4.032   2.815   7.815  1.7290  2.8088  1.0561
 1996SOL    HW217622   3.897   2.843   7.822  1.3889  1.3424 -1.9015
 1997SOL     OW17623   0.431   2.922   3.736 -0.4454  0.1534  0.5294
 1997SOL    HW117624   0.495   2.863   3.775 -0.9410 -0.2386  0.7454
 1997SOL    HW217625   0.358   2.869   3.706  0.1218 -0.2687 -0.1026
 1998SOL     OW17626   2.567   3.498  13.077  0.1505  0.2083 -0.3090
 1998SOL    HW117627   2.623   3.469  13.004  0.8687 -0.6161  0.5753
 1998SOL    HW217628   2.489   3.527  13.029  0.6512 -0.7455 -1.7194
 1999SOL     OW17629   4.138   3.721  15.276 -0.2691  0.1586 -0.2906
 1999SOL    HW117630   4.150   3.631  15.244  2.3827  1.0251 -1.7425
 1999SOL    HW217631   4.123   3.773  15.197  1.2860  0.2435 -0.5443
 2000SOL     OW17632   1.675   3.517   2.056 -0.2741 -0.2668 -0.3311
 2000SOL    HW117633   1.585   3.528   2.026 -0.5618 -0.2535  0.5315
 2000SOL    HW217634   1.711   3.448   2.000  1.2312 -0.8364  1.3027
 2001SOL     OW17635   3.629   2.364   5.380  0.4902 -0.4235 -0.3176
 2001SOL    HW117636   3.699   2.411   5.334 -0.3410 -1.6767 -2.8523
 2001SOL    HW217637   3.624   2.410   5.463  1.0414  0.2589 -0.6579
 2002SOL     OW17638   3.970   4.328   7.313 -0.5202  0.2102 -0.1601
 2002SOL    HW117639   3.968   4.395   7.245  3.7056  0.8708  0.3306
 2002SOL    HW217640   3.878   4.302   7.311 -0.4858  0.1678 -0.8777
 2003SOL     OW17641   0.725   2.017   7.680  0.4205 -0.7773 -0.2961
 2003SOL    HW117642   0.779   1.965   7.620  0.7398 -0.4303 -0.3050
 2003SOL    HW217643   0.661   2.062   7.624  0.5546  1.0917  1.0699
 2004SOL     OW17644   3.758   0.358   9.111 -0.2244  0.0642  0.1037
 2004SOL    HW117645   3.791   0.395   9.193 -1.8380  2.2868 -0.2545
 2004SOL    HW217646   3.675   0.329   9.148 -1.4423  0.4242 -2.3658
 2005SOL     OW17647   2.803   2.238   2.205  0.2574 -0.1163 -0.1406
 2005SOL    HW117648   2.755   2.164   2.240  0.2946  0.2828  0.7481
 2005SOL    HW217649   2.780   2.233   2.112 -1.5040  0.6693  0.2386
 2006SOL     OW17650   4.614   4.312   3.686  0.1970  0.0179 -0.1249
 2006SOL    HW117651   4.593   4.241   3.626 -0.4751 -0.3831  0.5738
 2006SOL    HW217652   4.529   4.313   3.731  0.8187 -0.1447  1.0664
 2007SOL     OW17653   4.618   4.528   7.367  0.2277 -0.0484 -0.2999
 2007SOL    HW117654   4.701   4.538   7.322  1.0120 -3.0661  0.4531
 2007SOL    HW217655   4.632   4.587   7.442  1.4748 -0.8235  0.0865
 2008SOL     OW17656   0.098   1.137  10.599  0.2693 -0.0323  0.1204
 2008SOL    HW117657   0.153   1.121  10.522 -1.2123  1.0480 -1.1300
 2008SOL    HW217658   0.152   1.203  10.642  1.3095 -1.1668  0.5858
 2009SOL     OW17659   1.676   3.521  10.478 -0.2424  0.0403  0.4459
 2009SOL    HW117660   1.722   3.438  10.490  2.1413  1.2061 -0.5534
 2009SOL    HW217661   1.604   3.510  10.540  1.1399 -0.6343  1.9194
 2010SOL     OW17662   0.490   0.194   5.276 -0.5632 -0.2282  0.2158
 2010SOL    HW117663   0.571   0.233   5.243 -1.6727  0.2103 -2.0197
 2010SOL    HW217664   0.504   0.106   5.243  0.2855  0.6056 -1.6630
 2011SOL     OW17665   0.817   3.285  14.359  0.8232  0.1970 -0.4925
 2011SOL    HW117666   0.839   3.292  14.267  0.7903 -2.5963 -0.7172
 2011SOL    HW217667   0.847   3.199  14.389 -3.1705 -0.3381  2.0254
 2012SOL     OW17668   3.178   0.018   9.012  0.1130  0.0948 -0.1879
 2012SOL    HW117669   3.240   4.684   9.015  1.3369  1.1515 -0.3548
 2012SOL    HW217670   3.099   4.723   9.056  0.0926 -0.5519 -0.7049
 2013SOL     OW17671   1.361   4.447  12.546 -0.0391 -0.2526  0.1643
 2013SOL    HW117672   1.288   4.385  12.533  0.2458 -0.7491  0.9394
 2013SOL    HW217673   1.314   4.527  12.567  1.9521  0.9689 -0.1074
 2014SOL     OW17674   2.974   0.302   3.084 -0.0986 -0.1619 -0.1406
 2014SOL    HW117675   2.938   0.337   3.003  1.3945  0.2350 -0.6354
 2014SOL    HW217676   3.021   0.376   3.124  0.1693 -0.5298  0.2231
 2015SOL     OW17677   0.405   0.996   5.902  0.2005  0.3276 -0.2168
 2015SOL    HW117678   0.443   0.922   5.854 -0.5560 -0.1663 -0.0589
 2015SOL    HW217679   0.369   0.953   5.980 -1.1799  1.4549 -0.2407
 2016SOL     OW17680   4.224   0.678   8.868  0.3157  0.4008  0.3580
 2016SOL    HW117681   4.296   0.643   8.815 -0.7918 -3.0027  1.0867
 2016SOL    HW217682   4.178   0.598   8.892 -0.3718  0.0535 -2.0628
 2017SOL     OW17683   1.525   4.447   6.113 -0.0795  0.4339  0.0186
 2017SOL    HW117684   1.487   4.436   6.200  0.6134 -0.5702  0.2055
 2017SOL    HW217685   1.447   4.427   6.062 -0.1899  0.1577  0.2906
 2018SOL     OW17686   0.099   4.593   8.982 -0.2755 -0.0029  0.2469
 2018SOL    HW117687   0.073   4.517   9.035  1.3749 -0.4674  0.3850
 2018SOL    HW217688   0.173   4.634   9.027 -0.3867 -1.4203  1.7565
 2019SOL     OW17689   1.872   0.902  13.697 -0.3586  0.1074  0.6271
 2019SOL    HW117690   1.828   0.855  13.626  0.8061  0.3704 -0.2667
 2019SOL    HW217691   1.808   0.911  13.767 -0.5829  1.7864  0.2122
 2020SOL     OW17692   1.937   4.418   5.902 -0.2394 -0.0554  0.0064
 2020SOL    HW117693   1.989   4.345   5.935 -3.2087 -1.0856  2.3368
 2020SOL    HW217694   1.996   4.460   5.839  0.1888  0.4291  0.7362
 2021SOL     OW17695   2.567   3.647   1.530 -0.3528 -0.0495 -0.3486
 2021SOL    HW117696   2.585   3.571   1.584  0.5958  1.4629  1.4522
 2021SOL    HW217697   2.625   3.623   1.457  0.8475  2.2248 -0.1550
 2022SOL     OW17698   4.532   1.938   2.383  0.4997  0.0863  0.7529
 2022SOL    HW117699   4.489   1.852   2.378  2.7878 -1.1775  2.9389
 2022SOL    HW217700   4.626   1.924   2.386  0.5504  0.6088  1.6233
 2023SOL     OW17701   2.145   3.053   1.937  0.2437  0.7986  0.1266
 2023SOL    HW117702   2.181   3.086   2.019  0.9274  1.4223 -0.4224
 2023SOL    HW217703   2.051   3.050   1.952  0.3435 -0.5250  0.5247
 2024SOL     OW17704   2.528   3.668   7.050  0.1573  0.0565 -0.5232
 2024SOL    HW117705   2.505   3.736   7.113  0.9461 -0.6726  0.5600
 2024SOL    HW217706   2.517   3.720   6.971  3.9354  0.4603 -0.8007
 2025SOL     OW17707   4.139   3.032   8.636 -0.2955 -0.1601 -0.2857
 2025SOL    HW117708   4.116   3.018   8.544 -1.5910 -1.2958  0.2184
 2025SOL    HW217709   4.229   2.999   8.629  0.4928  1.8198  0.5146
 2026SOL     OW17710   2.383   2.694   2.898  0.2805  0.5305 -0.1280
 2026SOL    HW117711   2.439   2.640   2.954 -1.3331 -2.0560 -1.0247
 2026SOL    HW217712   2.447   2.731   2.837  0.3837 -1.9292 -1.5166
 2027SOL     OW17713   2.204   4.625   8.704  0.0039  0.0968  0.0143
 2027SOL    HW117714   2.276   4.656   8.759 -0.2799 -0.0658  0.4753
 2027SOL    HW217715   2.178   4.708   8.663  0.1901  0.0330 -0.2328
 2028SOL     OW17716   3.237   1.104   8.880 -0.2755  0.2224 -0.3890
 2028SOL    HW117717   3.290   1.029   8.909 -0.2046 -0.0152 -1.1372
 2028SOL    HW217718   3.304   1.162   8.843 -0.1773  0.3925  0.0534
 2029SOL     OW17719   3.791   1.433   3.947  0.3471 -0.1750  0.2637
 2029SOL    HW117720   3.790   1.496   3.874 -0.6428 -0.7145 -0.1907
 2029SOL    HW217721   3.711   1.382   3.934 -0.2712  0.5946  1.1190
 2030SOL     OW17722   0.558   1.925  17.358 -0.0270  0.3926  0.0722
 2030SOL    HW117723   0.617   1.903  17.286 -1.2974  0.9825 -1.1504
 2030SOL    HW217724   0.516   1.999  17.315  0.4405  0.4448 -0.2922
 2031SOL     OW17725   1.304   1.963   5.067  0.1410  0.0216 -0.1980
 2031SOL    HW117726   1.266   1.975   5.154 -2.4415  0.7867 -1.4052
 2031SOL    HW217727   1.229   1.917   5.027 -0.7189  0.7228  0.5993
 2032SOL     OW17728   2.201   4.249   7.306 -0.0981  0.3871 -0.1968
 2032SOL    HW117729   2.283   4.209   7.277  0.1119  2.1163 -1.9996
 2032SOL    HW217730   2.149   4.171   7.324  0.6263  0.1724  0.9763
 2033SOL     OW17731   3.254   2.854  10.162  0.1551 -0.2854  0.5641
 2033SOL    HW117732   3.347   2.872  10.175  0.9128 -3.0071 -1.0718
 2033SOL    HW217733   3.237   2.774  10.211  0.9768 -0.0058  1.2988
 2034SOL     OW17734   3.796   2.482   5.694 -0.3623  0.0628  0.4278
 2034SOL    HW117735   3.863   2.539   5.731  0.6174 -0.4788 -0.5136
 2034SOL    HW217736   3.850   2.405   5.674 -1.8224 -0.7143 -0.5891
 2035SOL     OW17737   4.693   0.059   2.578  0.1536 -0.0216  0.0375
 2035SOL    HW117738   4.623   4.734   2.596 -0.3223  0.4851 -0.0245
 2035SOL    HW217739   0.034   0.040   2.628  0.5798 -0.1161 -0.6662
 2036SOL     OW17740   3.220   3.823   7.037  0.6298 -0.1469 -0.2264
 2036SOL    HW117741   3.267   3.787   6.962 -0.8037 -0.1609 -1.1246
 2036SOL    HW217742   3.149   3.759   7.036  1.8140 -1.4574  0.0226
 2037SOL     OW17743   1.253   4.533   9.449  0.4812 -0.3018  0.1706
 2037SOL    HW117744   1.327   4.589   9.427 -0.0568  1.2682  2.2809
 2037SOL    HW217745   1.230   4.488   9.368 -0.1835 -0.1586  0.2786
 2038SOL     OW17746   0.483   0.140   2.337  0.2532 -0.1033  0.3066
 2038SOL    HW117747   0.499   0.048   2.358  2.8508  0.3901  0.5051
 2038SOL    HW217748   0.394   0.144   2.371 -0.7280  1.7845 -2.5067
 2039SOL     OW17749   4.081   1.346   6.442 -0.1459 -0.1597 -0.4307
 2039SOL    HW117750   4.078   1.251   6.453  2.5170 -0.3001 -1.0987
 2039SOL    HW217751   4.039   1.354   6.357 -1.0708  0.7741  0.1163
 2040SOL     OW17752   1.429   3.708   7.664 -0.2527 -0.5602 -0.1871
 2040SOL    HW117753   1.459   3.760   7.739  2.2998 -1.1318 -0.8049
 2040SOL    HW217754   1.495   3.639   7.662  0.6275  0.1989  2.8230
 2041SOL     OW17755   3.880   0.795   9.063  0.0618  0.4950  0.0331
 2041SOL    HW117756   3.785   0.807   9.066 -0.1155 -0.2863 -2.6481
 2041SOL    HW217757   3.899   0.827   8.975  2.8193 -0.7137  0.1864
 2042SOL     OW17758   2.741   4.680   9.291 -0.4505  0.7194 -0.3004
 2042SOL    HW117759   2.673   4.615   9.273 -0.9268  0.7679  1.3187
 2042SOL    HW217760   2.786   4.642   9.367  0.5392  1.6164 -0.4313
 2043SOL     OW17761   0.912   1.745   2.412 -0.5642  0.2944 -0.3574
 2043SOL    HW117762   0.830   1.775   2.452  0.3758 -1.1361  2.6528
 2043SOL    HW217763   0.896   1.740   2.318  0.7742 -0.0769 -0.5642
 2044SOL     OW17764   2.193   2.579  10.158 -0.0122 -0.3665  0.2999
 2044SOL    HW117765   2.230   2.615  10.078  0.1933 -0.1815  0.4778
 2044SOL    HW217766   2.208   2.485  10.145  0.0705 -0.3509  0.2805
 2045SOL     OW17767   4.173   0.412   4.298  0.1070  0.0259  0.8150
 2045SOL    HW117768   4.114   0.381   4.366 -1.0700 -0.6577 -0.5258
 2045SOL    HW217769   4.122   0.460   4.233  0.8564 -0.1515  0.0854
 2046SOL     OW17770   0.150   0.911   2.808 -0.1259 -0.6194 -0.0945
 2046SOL    HW117771   0.193   0.899   2.724  2.8202  0.3660  1.2897
 2046SOL    HW217772   0.078   0.851   2.787 -0.2938 -0.5435  0.2572
 2047SOL     OW17773   2.107   3.990   1.175 -0.5984  0.0050  0.5267
 2047SOL    HW117774   2.115   3.895   1.168  5.1874  0.6868 -1.8051
 2047SOL    HW217775   2.194   4.019   1.149 -0.4950  0.8210  1.7725
 2048SOL     OW17776   3.033   3.551   4.401  0.1112 -0.1026  0.4339
 2048SOL    HW117777   2.990   3.554   4.316 -0.3659  0.3909  0.6993
 2048SOL    HW217778   3.006   3.635   4.437 -1.1841 -0.2701 -0.1598
 2049SOL     OW17779   4.437   0.505   5.622 -0.0465  0.5318  0.8894
 2049SOL    HW117780   4.485   0.517   5.704 -0.5311 -0.2719  1.2834
 2049SOL    HW217781   4.471   0.423   5.588 -1.7579  0.9095 -1.7513
 2050SOL     OW17782   0.054   2.592   4.791  0.3096  0.0855 -0.1993
 2050SOL    HW117783   4.727   2.566   4.726 -0.1742 -1.1531  0.7743
 2050SOL    HW217784   0.066   2.686   4.783  0.5591 -0.0087 -0.9215
 2051SOL     OW17785   1.021   0.758   6.700  0.4981  0.0855  0.4940
 2051SOL    HW117786   0.975   0.840   6.719  2.3286  0.9891  1.0612
 2051SOL    HW217787   1.071   0.790   6.625  1.0066 -1.7333  0.0626
 2052SOL     OW17788   2.731   2.624   7.060 -0.0054  0.1369  0.1204
 2052SOL    HW117789   2.799   2.639   6.995  0.0235 -0.6150 -0.0231
 2052SOL    HW217790   2.768   2.651   7.144 -0.2979 -2.6965  1.1544
 2053SOL     OW17791   0.690   3.630   7.346 -0.0713 -0.0460 -0.1001
 2053SOL    HW117792   0.612   3.659   7.393 -0.6365  0.3818 -1.2939
 2053SOL    HW217793   0.760   3.660   7.404 -0.0475 -0.0862 -0.1078
 2054SOL     OW17794   2.530   3.632   7.541  0.6482 -0.5155 -0.4890
 2054SOL    HW117795   2.605   3.689   7.559  0.3909 -0.6582  1.0075
 2054SOL    HW217796   2.495   3.617   7.629 -0.7740  2.3356 -0.5783
 2055SOL     OW17797   1.256   1.010   4.669  0.3004 -0.0203 -0.1492
 2055SOL    HW117798   1.226   0.919   4.672  1.7248 -0.4387  1.1385
 2055SOL    HW217799   1.247   1.032   4.576 -0.1937 -1.0495 -0.3466
 2056SOL     OW17800   0.836   0.955   5.940 -0.1884  0.3431  0.5290
 2056SOL    HW117801   0.787   0.876   5.916 -2.1052  0.5130  3.9021
 2056SOL    HW217802   0.802   0.970   6.028  1.0562  1.9000  0.7579
 2057SOL     OW17803   3.665   3.187  16.424  0.2276 -0.0735 -0.1248
 2057SOL    HW117804   3.710   3.256  16.473  1.9317 -1.3287  0.0916
 2057SOL    HW217805   3.602   3.149  16.485  0.6096 -0.8082 -0.1879
 2058SOL     OW17806   4.460   2.657   2.183  0.2523  0.1265  0.6535
 2058SOL    HW117807   4.449   2.748   2.209  0.5998  0.9281 -2.0014
 2058SOL    HW217808   4.552   2.654   2.209  0.3668  1.3501  0.3829
 2059SOL     OW17809   3.204   1.471   3.349 -0.2040  0.4630  0.3947
 2059SOL    HW117810   3.287   1.487   3.306 -0.8840 -2.2485 -1.9033
 2059SOL    HW217811   3.198   1.379   3.375  0.2890  0.4440  0.4250
 2060SOL     OW17812   0.846   4.348   6.194 -0.2926  0.3697  0.0214
 2060SOL    HW117813   0.779   4.384   6.136 -0.6037 -1.6401 -0.8712
 2060SOL    HW217814   0.788   4.313   6.261  0.9178  0.8430  1.3146
 2061SOL     OW17815   1.039   0.071   3.192  0.3717 -0.1752  1.0240
 2061SOL    HW117816   1.129   0.083   3.162 -0.0376 -0.3817 -0.2831
 2061SOL    HW217817   1.027   0.143   3.254  0.4831  0.4982  0.2568
 2062SOL     OW17818   3.870   0.262   2.758 -0.5142  0.1524 -0.8135
 2062SOL    HW117819   3.839   0.253   2.848 -0.2388  1.7918 -0.5632
 2062SOL    HW217820   3.963   0.252   2.777 -0.4775  0.4175 -0.8576
 2063SOL     OW17821   1.064   1.531   5.888  0.0183  0.1815  1.0354
 2063SOL    HW117822   1.104   1.487   5.813 -0.9283  2.0549 -0.5703
 2063SOL    HW217823   1.136   1.577   5.931 -0.6971  2.5655 -0.3539
 2064SOL     OW17824   3.945   1.500   9.064 -0.0563  0.7826  0.1760
 2064SOL    HW117825   3.941   1.582   9.015  0.8045  1.4564  1.2279
 2064SOL    HW217826   3.890   1.516   9.140  0.1916  0.1806  0.4847
 2065SOL     OW17827   3.584   1.321   3.230 -0.2474 -0.0831 -0.4427
 2065SOL    HW117828   3.553   1.401   3.273  0.5282  0.5449 -1.0757
 2065SOL    HW217829   3.626   1.355   3.152 -1.1796 -0.8486 -1.2905
 2066SOL     OW17830   0.860   1.459  12.587  0.0838  0.1892  0.2540
 2066SOL    HW117831   0.927   1.426  12.646 -0.0325 -2.8778 -1.3106
 2066SOL    HW217832   0.898   1.512  12.516  1.4609 -0.8986  0.1821
 2067SOL     OW17833   1.508   3.755   0.137 -0.0970  0.3025 -0.1661
 2067SOL    HW117834   1.574   3.709   0.085 -2.4401  0.6260 -3.4829
 2067SOL    HW217835   1.534   3.847   0.129  1.8921 -0.2105  0.6017
 2068SOL     OW17836   2.715   0.579   4.432 -0.6430 -0.0815  0.2163
 2068SOL    HW117837   2.645   0.644   4.425 -1.2162 -1.0080 -2.3200
 2068SOL    HW217838   2.685   0.550   4.519 -3.1779  3.7883  0.6248
 2069SOL     OW17839   0.833   0.914   7.696  0.0340 -0.1484 -0.6433
 2069SOL    HW117840   0.769   0.883   7.760 -1.6724 -0.4342 -2.4592
 2069SOL    HW217841   0.806   1.006   7.691 -2.7730 -0.9657 -0.4843
 2070SOL     OW17842   1.341   2.075   8.879  0.4959 -0.1702 -0.3823
 2070SOL    HW117843   1.317   2.018   8.806 -1.4726 -1.1950  1.0726
 2070SOL    HW217844   1.310   2.158   8.845  0.5640  0.5794  1.3828
 2071SOL     OW17845   3.312   2.822   2.552 -0.1308 -0.5753 -0.3845
 2071SOL    HW117846   3.238   2.811   2.611 -0.4400 -0.6402 -0.7859
 2071SOL    HW217847   3.287   2.785   2.468  0.8085  0.2189 -1.0115
 2072SOL     OW17848   4.218   1.362  15.278 -0.5114 -0.1219  0.2668
 2072SOL    HW117849   4.132   1.377  15.317 -0.1370  0.3470  0.9232
 2072SOL    HW217850   4.273   1.323  15.346  2.1210 -0.6299 -2.1912
 2073SOL     OW17851   1.604   4.112   1.833  0.5083 -0.2825  0.3083
 2073SOL    HW117852   1.575   4.052   1.902 -0.4613 -0.0498  0.1031
 2073SOL    HW217853   1.546   4.093   1.760 -0.1064  1.4092  0.3568
 2074SOL     OW17854   4.194   0.227   7.076  0.0672 -0.0381  0.5601
 2074SOL    HW117855   4.289   0.219   7.069 -0.0918 -1.2085 -0.2070
 2074SOL    HW217856   4.166   0.137   7.088  0.7295 -0.4600 -1.0734
 2075SOL     OW17857   3.373   4.649   8.037  0.0729  0.2442 -0.3378
 2075SOL    HW117858   3.306   4.581   8.027  0.4794  0.0692 -1.9920
 2075SOL    HW217859   3.449   4.600   8.004 -2.0607 -2.4968 -1.2232
 2076SOL     OW17860   2.556   3.384  15.078  0.5150  0.6813  0.0292
 2076SOL    HW117861   2.572   3.457  15.137 -2.9303 -0.6259  2.5432
 2076SOL    HW217862   2.481   3.334  15.110  0.7735  0.4681  0.2979
 2077SOL     OW17863   0.192   2.394   2.955 -0.4878 -0.1621  0.0683
 2077SOL    HW117864   0.239   2.311   2.951  0.6429  0.4298  1.0620
 2077SOL    HW217865   0.120   2.381   3.016 -0.5815  0.2696  0.0537
 2078SOL     OW17866   0.549   0.691  15.875 -0.2572  0.0584 -0.2250
 2078SOL    HW117867   0.510   0.760  15.929 -0.8232 -0.7331  0.3674
 2078SOL    HW217868   0.629   0.683  15.926  0.4996  0.0338 -1.4259
 2079SOL     OW17869   4.457   1.523  13.599 -0.8826  0.0508  0.1143
 2079SOL    HW117870   4.503   1.571  13.530 -0.6717 -0.8535 -0.3745
 2079SOL    HW217871   4.507   1.549  13.677 -0.4854  0.5068 -0.2957
 2080SOL     OW17872   2.242   4.350   9.054  0.2199  0.0185  1.2238
 2080SOL    HW117873   2.160   4.364   9.005  0.4767 -1.2242  0.4352
 2080SOL    HW217874   2.303   4.365   8.982 -1.4364  0.1790 -0.1600
 2081SOL     OW17875   0.231   0.351   8.841  0.2618  0.2605  0.1448
 2081SOL    HW117876   0.162   0.330   8.778 -1.4061  2.3404  1.2932
 2081SOL    HW217877   0.280   0.401   8.776  0.5496 -1.4130 -0.9357
 2082SOL     OW17878   2.620   2.228  10.751 -0.5939 -0.2948 -0.7560
 2082SOL    HW117879   2.598   2.309  10.706 -2.8240  0.1913  1.2175
 2082SOL    HW217880   2.591   2.251  10.839 -0.7626  1.1452 -1.1861
 2083SOL     OW17881   0.089   0.240   1.531 -0.3835  0.3688 -0.3608
 2083SOL    HW117882   0.048   0.225   1.616 -2.5568 -2.1527 -1.8388
 2083SOL    HW217883   0.075   0.156   1.488 -0.1399 -0.4583  1.1769
 2084SOL     OW17884   1.875   3.998   3.252 -0.3310 -0.2861  0.1288
 2084SOL    HW117885   1.786   3.964   3.246  0.3421 -1.8527 -1.0497
 2084SOL    HW217886   1.869   4.093   3.264 -0.7794 -0.0344 -2.0133
 2085SOL     OW17887   1.928   1.395   4.602  0.4612 -0.0831 -0.0940
 2085SOL    HW117888   1.932   1.406   4.697  2.5916 -1.8263  0.0258
 2085SOL    HW217889   1.975   1.313   4.585  2.8865  1.7199 -2.1865
 2086SOL     OW17890   3.082   2.766   7.794  0.1731  0.1268 -0.3623
 2086SOL    HW117891   3.027   2.834   7.755  2.1357  0.4687 -2.5249
 2086SOL    HW217892   3.149   2.822   7.834  1.3937  0.0716 -2.3317
 2087SOL     OW17893   0.793   4.427   4.411 -0.3493 -0.2877 -0.1519
 2087SOL    HW117894   0.816   4.507   4.364 -1.7240  0.1606 -0.0692
 2087SOL    HW217895   0.697   4.428   4.418 -0.3001 -1.4188  0.7565
 2088SOL     OW17896   3.797   1.054  15.427 -0.0639  0.5050  0.1438
 2088SOL    HW117897   3.762   1.077  15.513 -0.3658 -0.8152  0.3629
 2088SOL    HW217898   3.878   1.013  15.455  0.1272  0.8857  0.1508
 2089SOL     OW17899   2.293   2.691   9.949 -0.3463  0.4255  0.2323
 2089SOL    HW117900   2.288   2.635   9.871  0.9022  1.7329 -0.8040
 2089SOL    HW217901   2.226   2.757   9.933  0.6608  0.6472 -3.1558
 2090SOL     OW17902   1.388   4.044   6.793 -0.1253  0.3235 -0.9745
 2090SOL    HW117903   1.336   4.016   6.869 -1.2101  0.6363 -1.6047
 2090SOL    HW217904   1.341   3.993   6.727 -2.2059  0.9997 -0.0133
 2091SOL     OW17905   3.995   4.006   9.554  0.2547  0.2490 -0.0331
 2091SOL    HW117906   4.045   4.061   9.614  0.5265 -0.9928  0.8824
 2091SOL    HW217907   3.934   3.958   9.611  0.6000  0.4637  0.5136
 2092SOL     OW17908   0.039   1.044   5.375  1.0648  0.3227 -0.0929
 2092SOL    HW117909   0.078   1.068   5.459 -1.8330 -0.3101  1.4163
 2092SOL    HW217910   4.707   0.984   5.398  0.2335  0.6589 -1.7590
 2093SOL     OW17911   4.342   0.184   3.529  0.6708  0.4700 -0.2080
 2093SOL    HW117912   4.428   0.156   3.497  1.2661 -1.0830  2.7779
 2093SOL    HW217913   4.365   0.277   3.532 -1.3246  0.9614 -0.2819
 2094SOL     OW17914   2.080   2.780   3.924  0.3508  0.1240 -0.0552
 2094SOL    HW117915   2.073   2.860   3.976 -0.3330  1.0744 -1.6140
 2094SOL    HW217916   2.158   2.732   3.954 -0.0707 -2.2169 -2.7324
 2095SOL     OW17917   1.902   1.207   5.185  0.1418  0.0946  0.4271
 2095SOL    HW117918   1.881   1.213   5.092  0.7688 -0.6502  0.2345
 2095SOL    HW217919   1.962   1.134   5.193  1.1293  0.8558  0.0472
 2096SOL     OW17920   0.331   1.814   4.334  0.3564  0.0398 -0.2186
 2096SOL    HW117921   0.298   1.900   4.305  4.4570  1.8486  0.4487
 2096SOL    HW217922   0.250   1.773   4.364  0.2263 -0.0024 -0.6213
 2097SOL     OW17923   2.402   2.305   7.291  0.2644  0.0191  0.2385
 2097SOL    HW117924   2.475   2.320   7.231 -0.1228  0.0106 -0.2360
 2097SOL    HW217925   2.365   2.229   7.244  0.5524 -1.0667  1.7726
 2098SOL     OW17926   0.410   3.143   9.885 -0.0458  0.5047  0.4529
 2098SOL    HW117927   0.345   3.104   9.826  2.0754  0.2586 -1.7531
 2098SOL    HW217928   0.351   3.204   9.930 -0.9633 -0.8025  1.0174
 2099SOL     OW17929   0.453   4.300   8.733 -0.3262 -0.4961  0.0788
 2099SOL    HW117930   0.524   4.311   8.671  0.9289 -0.4087  1.5431
 2099SOL    HW217931   0.478   4.364   8.800  1.6901 -2.7124  1.4396
 2100SOL     OW17932   4.482   4.140  10.205 -0.3470 -0.1845  0.8936
 2100SOL    HW117933   4.432   4.214  10.170  2.5684  1.8047  1.0016
 2100SOL    HW217934   4.434   4.115  10.285 -1.6244  1.7504  0.7473
 2101SOL     OW17935   3.872   4.427  12.069 -0.0866 -0.1370 -0.5040
 2101SOL    HW117936   3.792   4.381  12.091  0.4037  0.0654  1.7525
 2101SOL    HW217937   3.927   4.351  12.054  0.6716 -0.2376  2.8786
 2102SOL     OW17938   1.019   2.603   5.474  0.0140  0.0877 -0.3692
 2102SOL    HW117939   0.965   2.527   5.452  1.2443 -0.1431 -2.6904
 2102SOL    HW217940   1.030   2.645   5.389 -1.0643  1.0101 -0.0474
 2103SOL     OW17941   0.910   4.320  11.908 -0.7773 -0.0507 -0.1716
 2103SOL    HW117942   0.917   4.315  12.003 -2.3527  0.3164 -0.0309
 2103SOL    HW217943   0.828   4.369  11.903 -1.6547 -1.6806 -1.6098
 2104SOL     OW17944   1.466   2.550   1.841 -0.2320  0.2212 -0.2055
 2104SOL    HW117945   1.468   2.459   1.812  2.3633  0.4418 -0.6813
 2104SOL    HW217946   1.488   2.588   1.756 -1.3879 -0.4442 -0.8031
 2105SOL     OW17947   1.525   3.051   4.798 -0.1173  0.0796  0.0202
 2105SOL    HW117948   1.523   2.988   4.726 -2.5321  1.4507 -1.1251
 2105SOL    HW217949   1.576   3.125   4.765  0.3848 -0.3225 -0.1091
 2106SOL     OW17950   3.806   0.929  13.508  0.3868  0.0118 -0.4089
 2106SOL    HW117951   3.876   0.863  13.512  1.2636  0.9910  0.4332
 2106SOL    HW217952   3.849   1.003  13.465 -0.5450  1.1727  0.6463
 2107SOL     OW17953   1.172   1.036   0.857 -0.2318 -0.2265  0.4168
 2107SOL    HW117954   1.205   1.004   0.773  1.7946  1.7180  0.4672
 2107SOL    HW217955   1.178   0.959   0.913 -1.5657 -0.3138  0.4407
 2108SOL     OW17956   1.114   1.044   6.051 -0.2430  0.9945  0.3468
 2108SOL    HW117957   1.078   1.130   6.034 -0.6263  0.6374 -0.6684
 2108SOL    HW217958   1.055   1.007   6.115  1.1695 -0.3720  0.8680
 2109SOL     OW17959   0.204   0.433  12.527  0.8158 -0.5069 -0.0521
 2109SOL    HW117960   0.279   0.485  12.554  0.2460 -0.3177  1.1889
 2109SOL    HW217961   0.163   0.410  12.611 -2.5474  0.8245 -1.3210
 2110SOL     OW17962   1.864   3.559  10.141  0.6137 -0.4925  0.1509
 2110SOL    HW117963   1.895   3.525  10.056 -0.0254 -1.3103  0.2370
 2110SOL    HW217964   1.792   3.497  10.157  1.1854 -1.3095 -0.4555
 2111SOL     OW17965   0.554   4.052   4.401  0.1115 -0.6785 -0.4473
 2111SOL    HW117966   0.498   4.022   4.473 -0.8892 -3.6330 -2.4471
 2111SOL    HW217967   0.497   4.105   4.345  2.8847  0.4470 -2.1690
 2112SOL     OW17968   3.832   2.240  10.722  0.6681 -0.3528 -0.2326
 2112SOL    HW117969   3.784   2.313  10.760  0.4900 -1.0621  0.9373
 2112SOL    HW217970   3.770   2.169  10.740 -0.0333  0.4828  0.6505
 2113SOL     OW17971   3.240   3.904   8.986 -0.6222  0.0446 -0.1097
 2113SOL    HW117972   3.331   3.928   9.001 -0.1631 -2.0342  0.5471
 2113SOL    HW217973   3.247   3.841   8.915  2.9999  1.7754 -1.3044
 2114SOL     OW17974   2.407   0.932   2.609 -0.0815 -0.0220 -0.2691
 2114SOL    HW117975   2.488   0.965   2.572 -0.9025  0.2134 -1.8479
 2114SOL    HW217976   2.374   1.008   2.657 -2.7282 -2.2010  1.3658
 2115SOL     OW17977   3.095   0.170   9.249  0.3578  0.4912 -0.2428
 2115SOL    HW117978   3.168   0.124   9.207 -1.1687  0.2814 -2.6636
 2115SOL    HW217979   3.120   0.168   9.342 -1.2785 -0.9568  0.1614
 2116SOL     OW17980   2.072   3.991  17.414  0.3449 -0.0475  0.0122
 2116SOL    HW117981   2.103   3.912  17.459  2.7706 -0.0483 -1.6764
 2116SOL    HW217982   2.155   4.005  17.369 -0.2904  1.7530 -0.5776
 2117SOL     OW17983   1.369   3.743   0.371 -0.5078  0.0999 -0.6117
 2117SOL    HW117984   1.399   3.739   0.280 -0.4041  1.3866 -0.6373
 2117SOL    HW217985   1.367   3.837   0.388  0.4032 -0.3777  2.1605
 2118SOL     OW17986   4.072   3.336  16.440  1.0476  0.4603  0.1998
 2118SOL    HW117987   4.142   3.356  16.502  1.6214  0.4898 -0.4504
 2118SOL    HW217988   4.093   3.251  16.399 -1.8365 -0.7215  1.1823
 2119SOL     OW17989   3.955   4.328   5.679 -0.3608  0.0046 -0.2768
 2119SOL    HW117990   3.990   4.400   5.731  0.0645  0.6032 -1.4144
 2119SOL    HW217991   3.863   4.327   5.708 -0.3970  1.1865 -0.3669
 2120SOL     OW17992   4.229   4.483   3.381  0.2362  0.2593 -0.4373
 2120SOL    HW117993   4.253   4.524   3.464  1.0984  0.6033 -0.8537
 2120SOL    HW217994   4.202   4.395   3.409  1.1109  0.5873  1.4512
 2121SOL     OW17995   3.294   4.403   2.873  0.9865  0.0110  0.1069
 2121SOL    HW117996   3.227   4.334   2.880  1.0037 -0.0771 -0.6047
 2121SOL    HW217997   3.296   4.424   2.780 -1.0666 -3.1915 -0.6900
 2122SOL     OW17998   2.750   3.057   1.644 -0.7076  0.0393  0.0786
 2122SOL    HW117999   2.732   3.079   1.735 -1.7738 -0.2312 -0.0726
 2122SOL    HW218000   2.675   3.104   1.609  0.5736  1.8288 -0.2531
 2123SOL     OW18001   3.144   4.113   3.898  0.1060 -0.2146  0.1112
 2123SOL    HW118002   3.173   4.070   3.979  2.3290 -0.1857 -0.6486
 2123SOL    HW218003   3.159   4.204   3.924 -1.0242  0.4902 -1.7221
 2124SOL     OW18004   0.755   0.619   8.098 -0.0696  0.0204 -0.0021
 2124SOL    HW118005   0.798   0.546   8.054  2.4792  1.0823  0.6885
 2124SOL    HW218006   0.787   0.606   8.188 -0.6498 -1.2741  0.0184
 2125SOL     OW18007   2.235   3.474  15.329 -0.4862 -0.3211  0.2426
 2125SOL    HW118008   2.205   3.564  15.343  0.8708 -0.0069  1.2241
 2125SOL    HW218009   2.324   3.472  15.364 -0.5206  2.5274  0.5375
 2126SOL     OW18010   3.652   4.048   2.541 -0.1520  0.3637 -0.2018
 2126SOL    HW118011   3.677   3.964   2.579 -1.6327 -0.2832 -0.6452
 2126SOL    HW218012   3.614   4.012   2.460  0.0100 -2.2432  0.8619
 2127SOL     OW18013   0.966   2.561   7.240 -0.3056  0.2245 -0.3750
 2127SOL    HW118014   0.985   2.595   7.328 -1.4394 -1.4545  0.5154
 2127SOL    HW218015   0.926   2.645   7.219 -0.5435  0.4808  1.0701
 2128SOL     OW18016   4.222   3.549   7.974  0.1140  0.4228 -0.5487
 2128SOL    HW118017   4.136   3.587   7.993 -0.7432 -1.2766 -1.0392
 2128SOL    HW218018   4.274   3.629   7.965 -0.5068  0.8353 -0.5260
 2129SOL     OW18019   0.188   2.800   4.233 -0.3822  0.2079  0.3128
 2129SOL    HW118020   0.260   2.859   4.256 -1.0929  1.5464 -0.9318
 2129SOL    HW218021   0.144   2.769   4.312 -2.4058 -3.9898 -2.4221
 2130SOL     OW18022   3.787   1.792  17.507  0.0253  0.1028  0.2112
 2130SOL    HW118023   3.702   1.809  17.469  0.6377  1.4491 -0.5541
 2130SOL    HW218024   3.775   1.698  17.521 -0.2912 -0.0693 -1.2341
 2131SOL     OW18025   1.644   2.220   1.256 -0.2171 -0.1513  0.0054
 2131SOL    HW118026   1.685   2.259   1.178  1.9928 -0.1528  1.1731
 2131SOL    HW218027   1.603   2.298   1.294 -1.2276 -0.5158 -0.3266
 2132SOL     OW18028   2.746   1.638   8.912 -0.4899  0.7632  0.4352
 2132SOL    HW118029   2.728   1.720   8.866 -0.2195  0.1591 -0.7177
 2132SOL    HW218030   2.841   1.625   8.907 -0.9234 -1.5600 -1.5301
 2133SOL     OW18031   3.517   2.937   2.835  0.4381 -0.2175  0.1032
 2133SOL    HW118032   3.590   2.997   2.820  1.0498 -0.6888  1.1900
 2133SOL    HW218033   3.509   2.898   2.748  2.0272 -0.9733  0.2897
 2134SOL     OW18034   1.877   0.549  10.459  0.2731  0.0444  0.5012
 2134SOL    HW118035   1.952   0.601  10.430 -0.8854  0.6704 -1.4266
 2134SOL    HW218036   1.807   0.611  10.479  0.3468  0.4280 -0.4236
 2135SOL     OW18037   1.731   2.198  12.951  0.1817  0.3905 -0.1177
 2135SOL    HW118038   1.729   2.292  12.970  0.7118  0.5773 -0.9801
 2135SOL    HW218039   1.671   2.189  12.877  0.9164 -0.6757 -0.5788
 2136SOL     OW18040   4.704   3.694   9.005 -0.3376 -0.3604  0.1296
 2136SOL    HW118041   4.678   3.636   8.934 -1.1014  1.1266 -0.8170
 2136SOL    HW218042   4.628   3.750   9.022 -0.1116 -0.0338  0.0641
 2137SOL     OW18043   0.788   0.337   3.535 -0.3295 -0.1355 -0.3015
 2137SOL    HW118044   0.811   0.356   3.626  0.3287  0.8464 -0.6650
 2137SOL    HW218045   0.754   0.248   3.540  2.4103 -1.1666 -0.1275
 2138SOL     OW18046   4.735   2.362   9.505  0.0966  0.3207 -0.3621
 2138SOL    HW118047   0.049   2.304   9.561 -3.3460  0.0226  2.4763
 2138SOL    HW218048   4.652   2.347   9.549 -0.2029  1.9315 -0.3745
 2139SOL     OW18049   1.233   1.221   7.581 -0.3098  0.8149  0.0826
 2139SOL    HW118050   1.199   1.221   7.671  0.6588  0.0024  0.4541
 2139SOL    HW218051   1.326   1.203   7.591 -0.1685  2.0724  1.0258
 2140SOL     OW18052   2.441   1.050   7.535  0.1606  0.3519  0.0187
 2140SOL    HW118053   2.461   1.106   7.609 -0.0595  1.1235 -0.5059
 2140SOL    HW218054   2.345   1.046   7.543  0.2410 -0.0879  0.7907
 2141SOL     OW18055   1.176   3.594   4.355  0.1098 -0.2463 -0.0030
 2141SOL    HW118056   1.135   3.507   4.356  0.9365 -0.6234  1.4778
 2141SOL    HW218057   1.168   3.617   4.448  1.0450  1.2952 -0.3077
 2142SOL     OW18058   1.850   4.285   2.359  0.6834  0.0478  0.2651
 2142SOL    HW118059   1.865   4.238   2.441  0.5989  1.0472  0.8483
 2142SOL    HW218060   1.939   4.319   2.351  0.1777  1.3098 -0.1336
 2143SOL     OW18061   0.211   2.112   4.705 -0.2763 -0.8265 -0.1133
 2143SOL    HW118062   0.126   2.155   4.714  1.6708  2.7916  0.9932
 2143SOL    HW218063   0.184   2.027   4.740 -1.1335 -0.2184  0.7026
 2144SOL     OW18064   4.194   4.301  16.284  0.2316  0.2094  0.2739
 2144SOL    HW118065   4.158   4.384  16.251  2.2802  1.6796  1.6946
 2144SOL    HW218066   4.212   4.329  16.374  2.1441  1.6495 -0.5402
 2145SOL     OW18067   0.660   4.002  12.044 -0.2160 -0.3571  0.7519
 2145SOL    HW118068   0.611   3.968  11.968 -0.6065  1.3341  0.2534
 2145SOL    HW218069   0.611   4.083  12.056 -0.0534 -0.0590 -0.6137
 2146SOL     OW18070   3.573   2.587   2.193 -0.5140 -0.2762  0.1808
 2146SOL    HW118071   3.628   2.601   2.116 -0.6483  2.4020  0.5722
 2146SOL    HW218072   3.484   2.605   2.163  0.9490  0.3288 -3.7164
 2147SOL     OW18073   1.484   0.853   2.842  0.4814 -0.4494 -0.5172
 2147SOL    HW118074   1.520   0.767   2.860 -1.3367 -1.7764 -3.2041
 2147SOL    HW218075   1.396   0.847   2.880  0.8936 -1.7721  0.2347
 2148SOL     OW18076   1.639   2.040   2.590 -0.6757 -0.3418 -0.1352
 2148SOL    HW118077   1.645   1.945   2.580  1.5857 -0.2725  0.7775
 2148SOL    HW218078   1.545   2.049   2.574 -0.7732 -2.0522 -0.5190
 2149SOL     OW18079   2.088   4.127   6.918 -0.1340 -1.0509 -0.0373
 2149SOL    HW118080   2.035   4.118   6.839 -1.4206  1.9216  0.4963
 2149SOL    HW218081   2.048   4.207   6.953  0.9630 -0.4618 -0.1387
 2150SOL     OW18082   2.853   1.308   3.293 -0.0224  0.4562 -0.3441
 2150SOL    HW118083   2.870   1.277   3.381  0.5336  2.7012  0.3332
 2150SOL    HW218084   2.895   1.237   3.244 -0.5208 -2.3006  3.2322
 2151SOL     OW18085   1.304   2.222   7.458 -0.2977  0.2811 -0.1846
 2151SOL    HW118086   1.284   2.144   7.510  3.0849  0.8046  1.9251
 2151SOL    HW218087   1.304   2.183   7.371 -0.5067  1.8434 -0.8863
 2152SOL     OW18088   1.742   1.738   4.047 -0.3082  0.7254 -0.0668
 2152SOL    HW118089   1.675   1.689   4.093  1.0025 -1.3491 -0.3782
 2152SOL    HW218090   1.761   1.677   3.975 -0.5187  1.4181 -0.7097
 2153SOL     OW18091   1.525   0.294   2.680  0.2924  0.5045  0.3790
 2153SOL    HW118092   1.460   0.349   2.637 -1.6990 -0.3917  2.2560
 2153SOL    HW218093   1.570   0.256   2.604  1.8320  1.4507  0.8223
 2154SOL     OW18094   2.671   0.045   7.869 -0.0105 -0.1295  0.3898
 2154SOL    HW118095   2.738   0.063   7.936  0.9182 -1.7485 -0.1152
 2154SOL    HW218096   2.694   0.099   7.793 -1.7501 -1.2929 -0.9496
 2155SOL     OW18097   2.868   2.354  17.746  0.5315 -0.7864  0.0308
 2155SOL    HW118098   2.869   2.292  17.673 -4.9638 -0.8993  0.0708
 2155SOL    HW218099   2.862   2.439  17.702  0.7949 -0.6335  0.2912
 2156SOL     OW18100   1.263   3.046   5.735 -0.2598 -0.0402 -0.3348
 2156SOL    HW118101   1.193   3.004   5.785  0.3385 -2.3643 -1.4364
 2156SOL    HW218102   1.317   2.969   5.715 -0.7687 -1.1469  2.5822
 2157SOL     OW18103   4.012   0.930   0.119 -0.1629  0.7050  0.4007
 2157SOL    HW118104   4.108   0.929   0.123 -0.1120 -0.1179 -0.8094
 2157SOL    HW218105   3.987   0.839   0.103 -2.7030  1.1688  1.8164
 2158SOL     OW18106   4.701   0.998   8.891 -0.0048  0.1640  0.3904
 2158SOL    HW118107   0.021   1.004   8.816 -0.5225  0.8601  0.0458
 2158SOL    HW218108   4.709   1.080   8.938 -2.3535  0.1884  0.7660
 2159SOL     OW18109   4.609   1.793   2.679 -0.5678  0.3428 -0.2234
 2159SOL    HW118110   4.603   1.864   2.742  2.1213  0.6944 -0.3543
 2159SOL    HW218111   4.622   1.837   2.595  0.5663 -1.1445 -0.8257
 2160SOL     OW18112   3.998   0.544   3.541 -0.0732 -0.4038 -0.0360
 2160SOL    HW118113   3.995   0.483   3.615 -0.1627 -0.6360 -0.2334
 2160SOL    HW218114   4.061   0.501   3.482  0.0947 -0.4041  0.1414
 2161SOL     OW18115   2.259   1.741  15.805 -0.5732  0.0298 -0.2294
 2161SOL    HW118116   2.352   1.753  15.786 -0.5057  1.0013  0.7593
 2161SOL    HW218117   2.216   1.822  15.778 -1.1407 -0.7257 -1.5778
 2162SOL     OW18118   0.909   4.370  14.098  0.1594 -0.4642 -0.0135
 2162SOL    HW118119   0.938   4.457  14.069  1.4737 -0.6770  0.6365
 2162SOL    HW218120   0.819   4.382  14.126 -0.6987 -0.9357 -2.5714
 2163SOL     OW18121   1.575   3.000   0.816  0.1930 -0.1075 -0.0343
 2163SOL    HW118122   1.667   3.022   0.799  0.1333  0.7149  0.7502
 2163SOL    HW218123   1.529   3.082   0.802  0.8163  0.0647 -1.0768
 2164SOL     OW18124   2.255   3.233   2.816 -0.1933  0.8004  0.0601
 2164SOL    HW118125   2.328   3.287   2.847  0.1380  0.6394 -0.4357
 2164SOL    HW218126   2.294   3.207   2.732 -2.7535 -0.3718 -0.7524
 2165SOL     OW18127   2.187   2.715   4.277  0.6077 -0.3179  0.1709
 2165SOL    HW118128   2.255   2.746   4.337  0.8730  1.2401 -0.9372
 2165SOL    HW218129   2.128   2.788   4.291  2.4996  1.3764 -0.6858
 2166SOL     OW18130   1.333   1.696   1.751 -0.0970  0.1583  0.2074
 2166SOL    HW118131   1.289   1.620   1.789 -2.2559  1.3489  0.0781
 2166SOL    HW218132   1.373   1.738   1.827  0.1057  3.8771 -1.9574
 2167SOL     OW18133   0.337   2.611   3.072  0.1094 -0.1175 -0.2227
 2167SOL    HW118134   0.298   2.535   3.030  0.3593  0.0425 -0.7539
 2167SOL    HW218135   0.427   2.593   3.046  0.0935  1.4104 -1.3396
 2168SOL     OW18136   1.578   2.647   3.705  0.8439 -0.0025  0.0234
 2168SOL    HW118137   1.624   2.639   3.621  1.6972 -0.2949  0.5081
 2168SOL    HW218138   1.595   2.562   3.747 -1.8153 -1.3276 -1.6293
 2169SOL     OW18139   3.966   4.407   4.817 -0.1049 -0.4666 -0.1523
 2169SOL    HW118140   4.024   4.399   4.742 -1.2635 -0.7716 -1.0077
 2169SOL    HW218141   3.912   4.484   4.801  0.0812  0.0725  1.7354
 2170SOL     OW18142   1.002   2.893   4.275 -0.3679 -0.0362  0.0231
 2170SOL    HW118143   0.943   2.864   4.206 -0.3901 -2.5633  1.1118
 2170SOL    HW218144   1.021   2.813   4.323  2.2933  0.9326  0.6099
 2171SOL     OW18145   0.522   4.319  12.039  0.3478 -0.3496 -0.5364
 2171SOL    HW118146   0.452   4.265  12.002  0.7632  0.5867 -2.6990
 2171SOL    HW218147   0.494   4.317  12.130  0.5526  1.3077 -0.4362
 2172SOL     OW18148   4.144   2.551   4.197  0.7094 -0.0640 -0.0126
 2172SOL    HW118149   4.179   2.504   4.121  1.1848  0.0487  0.1354
 2172SOL    HW218150   4.223   2.589   4.236  1.5367 -0.0191 -1.7022
 2173SOL     OW18151   2.830   0.677   9.165 -0.7162  0.3303  0.3502
 2173SOL    HW118152   2.763   0.656   9.230  1.5177  1.3382  2.9526
 2173SOL    HW218153   2.836   0.770   9.186  4.1066  0.4580 -1.5800
 2174SOL     OW18154   1.748   0.376   3.793  0.6986  0.3161  0.4228
 2174SOL    HW118155   1.821   0.314   3.790  2.7982  2.8356 -0.6857
 2174SOL    HW218156   1.760   0.402   3.884 -0.8812  0.0577  0.7128
 2175SOL     OW18157   4.593   1.310   8.184  0.9786 -0.0786 -0.0645
 2175SOL    HW118158   4.499   1.325   8.199  0.9368 -0.5197  0.1251
 2175SOL    HW218159   4.583   1.230   8.131  2.9139 -2.1977  2.7356
 2176SOL     OW18160   1.029   0.741   8.258 -0.2683  0.5953 -0.4775
 2176SOL    HW118161   1.080   0.688   8.319  0.6097  3.1627  0.9813
 2176SOL    HW218162   1.026   0.691   8.176 -0.7699  0.8006 -0.5901
 2177SOL     OW18163   4.322   4.057   7.138  0.1998 -0.2745  0.2364
 2177SOL    HW118164   4.280   4.052   7.224  1.4140  2.0563  0.9701
 2177SOL    HW218165   4.396   3.999   7.153  0.6740  0.1463 -0.4540
 2178SOL     OW18166   3.644   3.777   5.106  0.7609  0.2737  0.2255
 2178SOL    HW118167   3.609   3.837   5.040  0.0812  1.2517  1.4734
 2178SOL    HW218168   3.738   3.772   5.086  0.6377  1.7024 -0.6732
 2179SOL     OW18169   2.580   2.057   3.544  0.4899  0.0036 -0.1217
 2179SOL    HW118170   2.576   2.023   3.455  2.0018 -0.1996 -0.1134
 2179SOL    HW218171   2.624   1.984   3.587  0.7626  1.1881  1.5785
 2180SOL     OW18172   2.759   3.896   5.779 -0.3036 -0.3162  0.3185
 2180SOL    HW118173   2.685   3.956   5.766 -0.7466 -0.8706  0.3049
 2180SOL    HW218174   2.828   3.960   5.798  2.1092 -2.2426 -2.0916
 2181SOL     OW18175   0.671   2.345   1.240 -0.7344 -0.3202 -0.0171
 2181SOL    HW118176   0.729   2.305   1.176 -0.5315 -0.6609  0.3754
 2181SOL    HW218177   0.617   2.408   1.194 -0.6722  0.1660  0.5733
 2182SOL     OW18178   4.604   0.745   8.937  0.6403  0.0097  0.0050
 2182SOL    HW118179   4.640   0.834   8.932 -1.5352  0.9963  2.2169
 2182SOL    HW218180   4.686   0.700   8.954  0.6882  0.3026  0.5598
 2183SOL     OW18181   2.576   3.332   6.291 -0.4265  0.3447  0.1446
 2183SOL    HW118182   2.645   3.331   6.225  0.3905  2.8050  0.9633
 2183SOL    HW218183   2.509   3.287   6.240 -0.4309  0.7731 -0.2205
 2184SOL     OW18184   4.420   3.244   7.680 -0.5953 -0.2374  0.0531
 2184SOL    HW118185   4.482   3.303   7.721 -0.2833 -1.6004  1.5312
 2184SOL    HW218186   4.333   3.266   7.716 -1.0029 -1.1210 -0.3916
 2185SOL     OW18187   3.651   3.235   0.060 -0.1751 -0.3120  0.0872
 2185SOL    HW118188   3.643   3.283  17.728 -1.8917  1.4962  1.3088
 2185SOL    HW218189   3.637   3.151   0.017 -2.0094 -0.0776  0.2536
 2186SOL     OW18190   4.530   3.861   5.306  0.5240 -0.1153 -0.0195
 2186SOL    HW118191   4.602   3.900   5.257  0.6408 -0.1429  0.1294
 2186SOL    HW218192   4.462   3.916   5.266 -0.6090 -1.4025  0.1512
 2187SOL     OW18193   2.765   1.187   8.872  0.0205 -0.1768  0.6714
 2187SOL    HW118194   2.672   1.171   8.881 -0.1891  1.6218  1.5981
 2187SOL    HW218195   2.802   1.205   8.958  2.8193  0.2453 -0.5966
 2188SOL     OW18196   3.289   4.418  12.836  0.0403  0.0781 -0.4188
 2188SOL    HW118197   3.231   4.463  12.775  0.2167  1.0479  0.1370
 2188SOL    HW218198   3.285   4.463  12.920 -1.4478  0.3222 -0.6289
 2189SOL     OW18199   1.554   1.563   6.328 -0.3521  0.3141 -0.1022
 2189SOL    HW118200   1.598   1.647   6.310 -0.7695  1.0432  2.3514
 2189SOL    HW218201   1.635   1.511   6.325 -1.5918 -1.4983 -2.5056
 2190SOL     OW18202   4.247   3.018   2.814 -0.8838 -0.3897  1.1478
 2190SOL    HW118203   4.240   2.963   2.892 -1.0350 -2.4799 -0.3332
 2190SOL    HW218204   4.341   3.010   2.799 -0.6774  0.5988  1.8762
 2191SOL     OW18205   2.478   3.325  14.160  0.6730 -0.6674 -0.1796
 2191SOL    HW118206   2.442   3.240  14.133  0.3410 -0.2294 -1.1268
 2191SOL    HW218207   2.513   3.353  14.075  0.6208  1.7216  0.5943
 2192SOL     OW18208   0.467   0.645   2.904 -0.2713 -0.4217  0.6490
 2192SOL    HW118209   0.459   0.736   2.875  1.8404 -0.8355 -1.2661
 2192SOL    HW218210   0.515   0.644   2.987 -2.3086  1.3451  1.8450
 2193SOL     OW18211   0.490   2.750   0.459  0.0473 -0.3603 -0.1889
 2193SOL    HW118212   0.474   2.826   0.403  0.0992  0.6202  1.1320
 2193SOL    HW218213   0.509   2.799   0.539  0.0974  2.3081 -1.8526
 2194SOL     OW18214   2.431   1.736   6.501  0.8317  0.0316 -0.6867
 2194SOL    HW118215   2.411   1.682   6.577 -2.2893 -0.3221 -1.7652
 2194SOL    HW218216   2.444   1.815   6.553  0.8877  0.4726 -1.3643
 2195SOL     OW18217   2.279   0.727   7.208 -0.1808  0.0683  0.1678
 2195SOL    HW118218   2.281   0.816   7.244 -0.9995  0.0485  0.2558
 2195SOL    HW218219   2.348   0.676   7.250 -0.1529  0.6889  0.8719
 2196SOL     OW18220   2.242   3.248   6.323  0.9910  0.1065  0.0679
 2196SOL    HW118221   2.327   3.255   6.366 -0.3522 -1.4388  3.0208
 2196SOL    HW218222   2.235   3.331   6.275 -0.9596 -0.1556 -0.1338
 2197SOL     OW18223   2.201   4.353   9.528 -0.0375  0.1626 -0.2293
 2197SOL    HW118224   2.255   4.414   9.578 -0.5477 -0.2692  0.8403
 2197SOL    HW218225   2.116   4.377   9.565 -0.1670 -0.9222  0.1627
 2198SOL     OW18226   2.082   1.589   0.962 -0.1678 -0.1338  0.4372
 2198SOL    HW118227   2.063   1.519   0.899  0.0623 -0.3881  0.6514
 2198SOL    HW218228   2.155   1.630   0.915 -0.6443  0.3710  0.1428
 2199SOL     OW18229   0.220   0.617   6.896  0.4242  0.0738  0.2961
 2199SOL    HW118230   0.124   0.622   6.897  0.4047 -0.0630 -0.4512
 2199SOL    HW218231   0.242   0.541   6.949  0.2333 -1.3638 -1.6804
 2200SOL     OW18232   4.673   0.803   3.549 -0.4109 -0.1833 -0.9864
 2200SOL    HW118233   4.620   0.881   3.565 -1.6849 -0.9441 -1.4447
 2200SOL    HW218234   4.704   0.785   3.637 -0.9949  0.6985 -0.6016
 2201SOL     OW18235   4.666   4.681   4.369  0.4961  0.4016 -0.1033
 2201SOL    HW118236   4.594   4.685   4.305 -1.1371 -0.1691  1.6764
 2201SOL    HW218237   0.006   4.669   4.316 -0.7407 -0.6015 -1.7039
 2202SOL     OW18238   2.650   3.952   8.044  0.1666 -0.0849  0.5922
 2202SOL    HW118239   2.725   3.922   7.993  0.3627  1.0657  0.1869
 2202SOL    HW218240   2.692   3.974   8.128 -0.4094  2.3795  0.2304
 2203SOL     OW18241   4.655   1.583   8.205 -0.0285  0.2199  0.1444
 2203SOL    HW118242   4.637   1.493   8.181 -0.1357  0.0735  0.7779
 2203SOL    HW218243   4.589   1.592   8.274  0.1297 -1.5418  0.5236
 2204SOL     OW18244   2.218   3.373   1.580  0.7639  0.0881  1.0242
 2204SOL    HW118245   2.300   3.416   1.603  1.4834  0.7699 -2.7879
 2204SOL    HW218246   2.230   3.286   1.618 -0.1163  0.2952  1.7666
 2205SOL     OW18247   3.823   4.370   4.288 -0.2106  0.5041 -0.1277
 2205SOL    HW118248   3.729   4.381   4.280 -0.3451 -0.2498  0.3429
 2205SOL    HW218249   3.847   4.390   4.379  1.0062 -0.8054 -0.1428
 2206SOL     OW18250   3.333   2.407   4.410 -0.0141 -0.0837 -0.3933
 2206SOL    HW118251   3.276   2.362   4.347 -3.0787  0.7770  1.7610
 2206SOL    HW218252   3.332   2.341   4.479  0.3298  0.7744  0.4199
 2207SOL     OW18253   1.872   1.563   4.381 -0.0776  0.2860 -0.2381
 2207SOL    HW118254   1.907   1.493   4.436 -1.5093 -0.5116 -0.3232
 2207SOL    HW218255   1.825   1.619   4.442  0.1560  0.4817 -0.2402
 2208SOL     OW18256   0.132   0.683   5.634  0.2684  0.4286  0.1061
 2208SOL    HW118257   0.172   0.600   5.659  0.6366  0.7182  0.4663
 2208SOL    HW218258   0.090   0.699   5.719 -1.3319 -2.3312 -0.1403
 2209SOL     OW18259   0.628   2.167   3.833  0.3392  0.3690  0.2895
 2209SOL    HW118260   0.602   2.112   3.906 -0.4705  2.2431  1.4179
 2209SOL    HW218261   0.642   2.250   3.879 -1.1429  0.4136  0.6555
 2210SOL     OW18262   1.118   0.120   1.702 -0.0473  0.0677 -0.1905
 2210SOL    HW118263   1.212   0.108   1.719 -0.3929  0.1806  1.8543
 2210SOL    HW218264   1.073   0.056   1.757  1.1305  0.6576  1.4705
 2211SOL     OW18265   1.758   3.978   5.379  0.2517 -0.4451 -0.2552
 2211SOL    HW118266   1.750   3.912   5.447  2.7179 -0.5698 -0.0874
 2211SOL    HW218267   1.688   3.949   5.321 -1.2078 -0.4199  1.4910
 2212SOL     OW18268   4.173   2.372   3.457 -0.2680 -0.0376 -0.1098
 2212SOL    HW118269   4.167   2.378   3.362  0.8106 -1.1699 -0.2491
 2212SOL    HW218270   4.259   2.410   3.475 -0.7160  0.9218 -0.0138
 2213SOL     OW18271   1.385   4.509   2.012  0.2779 -0.4320 -0.0020
 2213SOL    HW118272   1.401   4.511   2.107 -1.5970 -0.4622  0.3140
 2213SOL    HW218273   1.456   4.447   1.995  0.4283  0.4656 -2.6191
 2214SOL     OW18274   2.329   1.956   7.018 -0.0007  0.0483  0.5993
 2214SOL    HW118275   2.396   1.890   6.996 -2.3710 -2.2344  0.1665
 2214SOL    HW218276   2.378   2.037   7.007 -1.5795  0.5931 -2.5093
 2215SOL     OW18277   0.738   0.821  11.737  0.5748  0.0904  0.0297
 2215SOL    HW118278   0.649   0.797  11.765 -0.1050  2.3279 -0.2408
 2215SOL    HW218279   0.752   0.758  11.666 -0.0461  0.6410 -0.5754
 2216SOL     OW18280   3.837   0.843   6.758  0.1202  0.1348  0.0902
 2216SOL    HW118281   3.850   0.787   6.834  2.2033  0.5810  0.0546
 2216SOL    HW218282   3.906   0.909   6.768 -0.1581  0.3214  0.7759
 2217SOL     OW18283   1.780   2.630   5.297  0.2928 -0.6209  0.0933
 2217SOL    HW118284   1.875   2.643   5.295 -0.0370  1.8264  0.8603
 2217SOL    HW218285   1.766   2.535   5.295 -0.3857 -0.5314  0.9057
 2218SOL     OW18286   0.658   3.905   9.956 -0.9831 -0.1097  0.1616
 2218SOL    HW118287   0.712   3.838   9.915 -0.0366  0.1934  0.9071
 2218SOL    HW218288   0.716   3.938  10.025 -1.3425 -1.5996  1.1851
 2219SOL     OW18289   1.205   1.255   7.977  0.3254 -0.4594 -0.1119
 2219SOL    HW118290   1.120   1.211   7.974  0.9961 -1.9240  2.4499
 2219SOL    HW218291   1.169   1.336   8.013  1.5477  0.5070 -1.1036
 2220SOL     OW18292   2.722   0.739   9.805  0.6273 -0.1085 -0.0388
 2220SOL    HW118293   2.803   0.754   9.756  0.2919  0.5355 -0.3881
 2220SOL    HW218294   2.743   0.651   9.835  0.7927 -0.1105 -0.1602
 2221SOL     OW18295   2.639   1.174   3.963  0.3902  0.2302  0.8901
 2221SOL    HW118296   2.668   1.103   3.905 -2.5193 -2.2493  2.4960
 2221SOL    HW218297   2.549   1.142   3.967 -0.1000  1.5922  0.7737
 2222SOL     OW18298   0.117   2.234  11.878  0.1486 -0.2177 -0.1346
 2222SOL    HW118299   0.044   2.174  11.898  0.4920 -0.7682 -0.5386
 2222SOL    HW218300   0.172   2.177  11.825  0.3103 -1.6748  1.5745
 2223SOL     OW18301   3.772   0.186  16.386  0.4274 -0.2195  0.5965
 2223SOL    HW118302   3.773   0.188  16.482  0.1831  1.5692  0.5607
 2223SOL    HW218303   3.768   0.278  16.362  0.2159  0.0274  1.5784
 2224SOL     OW18304   0.929   2.274   2.058 -0.7198 -0.2412  0.2425
 2224SOL    HW118305   0.931   2.179   2.045  1.2816 -0.1192 -0.3285
 2224SOL    HW218306   0.882   2.293   2.139  1.3363  2.9589  0.7196
 2225SOL     OW18307   2.967   2.905   2.381  0.4358 -0.0204  0.0587
 2225SOL    HW118308   2.907   2.906   2.307 -0.4499  0.3646  0.7774
 2225SOL    HW218309   2.921   2.835   2.429  0.3761  0.2625  0.4144
 2226SOL     OW18310   4.574   0.522   2.672 -0.9254 -0.2466 -0.2003
 2226SOL    HW118311   4.552   0.429   2.671  0.5492 -0.6017  1.8856
 2226SOL    HW218312   4.599   0.538   2.581  0.3049 -2.5396 -0.2489
 2227SOL     OW18313   2.712   3.566  10.688 -0.2042  0.7720  0.2863
 2227SOL    HW118314   2.668   3.650  10.702  0.1084  1.0601 -0.4761
 2227SOL    HW218315   2.670   3.502  10.746 -1.6045 -1.0508 -2.6944
 2228SOL     OW18316   1.003   0.822   9.224  0.6763  0.2999  0.2418
 2228SOL    HW118317   0.923   0.836   9.173  0.2175  1.7886  1.3438
 2228SOL    HW218318   1.009   0.734   9.188 -1.5724 -0.2087  1.1091
 2229SOL     OW18319   4.066   1.612   3.102  0.0768 -0.0083  0.5842
 2229SOL    HW118320   4.087   1.533   3.153  0.0311 -0.5385 -0.2118
 2229SOL    HW218321   4.053   1.674   3.173 -0.4420  1.7590 -1.0739
 2230SOL     OW18322   2.229   3.330   8.738  0.0039  0.6132 -0.0240
 2230SOL    HW118323   2.172   3.265   8.696 -0.2638  0.4327  0.6043
 2230SOL    HW218324   2.190   3.411   8.704 -0.3515  1.0721  1.4382
 2231SOL     OW18325   1.838   4.641   2.103  0.1747 -0.4340 -0.3259
 2231SOL    HW118326   1.873   4.554   2.088  1.6031  0.2931 -1.2555
 2231SOL    HW218327   1.908   4.687   2.149  1.0240 -2.9973  0.8824
 2232SOL     OW18328   4.095   3.192   2.358  0.3848 -0.0455 -0.2230
 2232SOL    HW118329   4.069   3.202   2.449 -0.9459 -1.1723 -0.4853
 2232SOL    HW218330   4.041   3.121   2.325  0.3322  0.8484 -2.0998
 2233SOL     OW18331   1.902   3.761  15.876  0.1702 -0.1873 -0.0131
 2233SOL    HW118332   1.849   3.818  15.930 -1.5848 -0.4178 -1.4882
 2233SOL    HW218333   1.830   3.730  15.821  0.0437 -3.2931  1.8591
 2234SOL     OW18334   2.127   3.376  13.478 -0.3151 -0.7200 -0.2559
 2234SOL    HW118335   2.187   3.327  13.534  0.3726  1.1769  0.6896
 2234SOL    HW218336   2.056   3.398  13.538  0.9033 -0.4042  1.0763
 2235SOL     OW18337   0.761   2.250   4.058  0.0973  0.1565  0.2964
 2235SOL    HW118338   0.748   2.336   4.097 -0.4760  0.4440 -0.5280
 2235SOL    HW218339   0.841   2.205   4.084 -0.2588  0.5052  2.0086
 2236SOL     OW18340   2.931   2.586   6.590 -0.2122  0.5336  0.2486
 2236SOL    HW118341   3.003   2.550   6.539 -1.9944 -0.6652 -1.3981
 2236SOL    HW218342   2.873   2.512   6.607  0.0377  0.9818  3.1062
 2237SOL     OW18343   2.611   4.156  16.186  0.3045  0.4789  0.1892
 2237SOL    HW118344   2.579   4.082  16.238  2.4554 -1.2282 -0.9049
 2237SOL    HW218345   2.624   4.227  16.249  1.3091  1.0197 -0.6337
 2238SOL     OW18346   4.328   0.765   7.303 -0.2160 -0.1746 -0.1359
 2238SOL    HW118347   4.368   0.852   7.298  1.1247 -0.7358  0.9233
 2238SOL    HW218348   4.287   0.759   7.389  1.1680  1.3385  0.6305
 2239SOL     OW18349   1.641   4.469   8.934  0.3209 -0.0818 -0.5618
 2239SOL    HW118350   1.694   4.407   8.983  2.2027  2.2131  0.3310
 2239SOL    HW218351   1.564   4.466   8.991  1.1764  0.1809  0.5926
 2240SOL     OW18352   3.216   3.069  14.239  0.4172 -0.3640 -0.1738
 2240SOL    HW118353   3.271   3.078  14.161 -0.8583  1.1396 -0.9200
 2240SOL    HW218354   3.141   3.019  14.205 -0.5702  2.1901 -1.8033
 2241SOL     OW18355   3.256   1.845   2.188 -0.1524 -0.0008 -0.6088
 2241SOL    HW118356   3.254   1.941   2.182  1.4096  0.2103  2.2930
 2241SOL    HW218357   3.164   1.821   2.179 -0.3858  0.1074  1.5501
 2242SOL     OW18358   3.324   2.873  17.429  0.0199  0.3260  0.3720
 2242SOL    HW118359   3.258   2.845  17.491 -0.7825 -1.0103 -1.1018
 2242SOL    HW218360   3.391   2.809  17.451  0.0422  0.3061  0.2486
 2243SOL     OW18361   0.775   1.565   5.907 -0.2318 -0.2345 -0.2505
 2243SOL    HW118362   0.864   1.529   5.900 -0.0015  0.5929 -1.5940
 2243SOL    HW218363   0.794   1.657   5.889 -1.0808 -0.3560 -1.7240
 2244SOL     OW18364   0.673   3.959   7.224 -0.0009 -0.1399  0.2173
 2244SOL    HW118365   0.653   3.867   7.240 -0.2313  0.1382  1.5151
 2244SOL    HW218366   0.727   3.993   7.295  0.5616 -1.1777  0.2914
 2245SOL     OW18367   4.660   2.808   3.481  0.0654  0.6718  0.3025
 2245SOL    HW118368   4.691   2.792   3.570 -0.5364  2.7789  0.8932
 2245SOL    HW218369   4.566   2.809   3.499 -0.6473  2.3067 -3.3970
 2246SOL     OW18370   2.203   4.160   8.717 -0.4041  0.3178  0.4430
 2246SOL    HW118371   2.193   4.244   8.762  2.7741  0.1588  1.4504
 2246SOL    HW218372   2.113   4.137   8.694  0.2258  1.3435 -2.9475
 2247SOL     OW18373   2.767   0.731  14.789 -0.1758  0.4582  0.3749
 2247SOL    HW118374   2.834   0.691  14.733  0.7957 -0.4577  2.1896
 2247SOL    HW218375   2.734   0.661  14.845 -1.0374 -0.2706 -1.0344
 2248SOL     OW18376   2.890   3.545   6.267  0.0702  0.3162 -0.3548
 2248SOL    HW118377   2.900   3.588   6.182  0.3979 -2.9890 -2.0001
 2248SOL    HW218378   2.888   3.451   6.246 -1.3594  0.3065 -0.1765
 2249SOL     OW18379   4.093   0.753   2.762 -0.1300 -0.4657 -0.0119
 2249SOL    HW118380   4.052   0.750   2.675  1.4654  0.0217 -0.7842
 2249SOL    HW218381   4.072   0.845   2.777  1.3094  0.0804 -1.3403
 2250SOL     OW18382   0.179   0.487   7.995  0.8807  0.4459  0.4856
 2250SOL    HW118383   0.131   0.561   7.957  0.9459  1.8088  3.1010
 2250SOL    HW218384   0.252   0.537   8.031  1.1636  1.8216 -1.9620
 2251SOL     OW18385   0.393   3.116   6.309  0.3026 -0.1800 -0.6135
 2251SOL    HW118386   0.336   3.193   6.305  1.1135  0.4731  0.4692
 2251SOL    HW218387   0.340   3.040   6.332  0.9044 -1.8234 -4.6250
 2252SOL     OW18388   1.125   0.446   7.272  0.1575 -0.4279 -0.4387
 2252SOL    HW118389   1.084   0.389   7.207  0.0588 -1.6236  0.6895
 2252SOL    HW218390   1.101   0.527   7.226 -1.1284 -1.6293 -1.8434
 2253SOL     OW18391   0.957   1.508   9.827  0.2726 -0.8706  0.4011
 2253SOL    HW118392   1.001   1.446   9.886  1.3205  0.1306  0.6546
 2253SOL    HW218393   1.010   1.587   9.839  0.2992 -0.9210  0.6220
 2254SOL     OW18394   3.563   4.571  14.519 -0.1742  0.7181  0.2423
 2254SOL    HW118395   3.539   4.506  14.585  0.3272 -0.9404 -1.1967
 2254SOL    HW218396   3.515   4.534  14.446  0.2006  0.2757  0.2208
 2255SOL     OW18397   2.886   0.374  13.179 -0.4157 -0.1670 -0.3142
 2255SOL    HW118398   2.948   0.349  13.110 -1.1756 -0.0683 -1.0313
 2255SOL    HW218399   2.823   0.431  13.134 -2.7443 -0.8346  2.0711
 2256SOL     OW18400   2.577   1.836   5.067  0.2340  0.1935 -0.6646
 2256SOL    HW118401   2.527   1.785   5.130 -0.8239 -0.1104 -1.7591
 2256SOL    HW218402   2.550   1.796   4.984 -0.1569 -1.4510  0.2557
 2257SOL     OW18403   1.722   3.435  14.635  0.3731 -0.4888 -0.2283
 2257SOL    HW118404   1.708   3.520  14.594  0.3118 -0.2304  0.3314
 2257SOL    HW218405   1.811   3.412  14.607  1.0466  2.1227 -0.2537
 2258SOL     OW18406   4.443   1.836  11.032  0.0120 -0.2090  0.4378
 2258SOL    HW118407   4.487   1.917  11.006  1.0513 -0.3862  1.6604
 2258SOL    HW218408   4.464   1.762  10.975 -0.5618  0.2062 -0.3239
 2259SOL     OW18409   0.962   0.207   6.182 -0.2915  0.5064  0.5745
 2259SOL    HW118410   0.906   0.284   6.195 -2.4630 -1.0124  0.1046
 2259SOL    HW218411   0.912   0.160   6.116  2.6976  0.7901 -1.8782
 2260SOL     OW18412   0.314   0.480   6.660 -0.2630 -0.1267  0.1139
 2260SOL    HW118413   0.318   0.560   6.607 -0.6438  0.3134  0.7590
 2260SOL    HW218414   0.272   0.507   6.742  0.5576 -0.1236  0.5238
 2261SOL     OW18415   0.051   1.549   5.251 -0.0922  0.0894  0.2745
 2261SOL    HW118416   0.115   1.492   5.209  1.3903  2.8837 -1.1955
 2261SOL    HW218417   4.713   1.523   5.198  2.2976 -3.0967 -1.6057
 2262SOL     OW18418   4.216   0.539  16.440 -0.4463 -0.1168  0.0605
 2262SOL    HW118419   4.126   0.570  16.449 -1.0781 -0.8589 -4.0022
 2262SOL    HW218420   4.209   0.522  16.346 -1.0890  0.2049  0.0525
 2263SOL     OW18421   4.561   2.851   6.776 -0.5149  0.0923 -0.0726
 2263SOL    HW118422   4.622   2.913   6.736  1.1222 -1.7077 -0.3015
 2263SOL    HW218423   4.616   2.818   6.846  0.7748 -3.2344 -2.6723
 2264SOL     OW18424   2.979   2.788   3.165  0.9970  0.4141 -0.0038
 2264SOL    HW118425   3.067   2.818   3.142  0.5928 -0.4216 -2.6664
 2264SOL    HW218426   2.926   2.867   3.167  0.6139  0.1664 -0.4190
 2265SOL     OW18427   3.557   0.049   3.310  0.2014  0.3208 -0.0337
 2265SOL    HW118428   3.632   0.107   3.295  0.0107  0.5931  0.0742
 2265SOL    HW218429   3.598   4.732   3.376 -0.4134  0.1843  0.2351
 2266SOL     OW18430   2.280   0.670   6.916  0.4955  0.0829 -0.1859
 2266SOL    HW118431   2.327   0.587   6.912  1.3975  0.5911 -0.0463
 2266SOL    HW218432   2.267   0.682   7.010  1.6917  2.0396 -0.2680
 2267SOL     OW18433   0.858   1.538   6.579  0.2358  0.2753  0.7495
 2267SOL    HW118434   0.933   1.591   6.552 -0.8524  1.3875 -0.0929
 2267SOL    HW218435   0.868   1.532   6.674  2.8723  0.1308  0.4495
 2268SOL     OW18436   0.824   2.003   1.234  0.2316 -0.2369  0.3812
 2268SOL    HW118437   0.776   2.054   1.169 -1.7224 -1.3068  0.9769
 2268SOL    HW218438   0.912   2.000   1.196 -0.3319  0.2492 -0.9303
 2269SOL     OW18439   2.365   1.120   8.457  0.0119 -0.8149  0.0644
 2269SOL    HW118440   2.433   1.068   8.416 -0.2701 -0.7323 -0.5130
 2269SOL    HW218441   2.331   1.065   8.527  1.3533 -1.9086 -0.1649
 2270SOL     OW18442   1.239   1.270  12.686 -0.2056  0.0696  0.4307
 2270SOL    HW118443   1.144   1.269  12.688 -0.2923  1.0564 -2.3987
 2270SOL    HW218444   1.261   1.178  12.671  1.7771  0.4750  0.7736
 2271SOL     OW18445   1.955   4.723   7.619  0.2243  0.3023  0.4393
 2271SOL    HW118446   2.048   4.704   7.610  0.8702  2.0057  3.5331
 2271SOL    HW218447   1.929   4.714   7.527  1.5538 -0.5445  0.1529
 2272SOL     OW18448   0.991   4.212   8.139  0.6363 -0.5330  1.0021
 2272SOL    HW118449   0.990   4.263   8.058 -1.8078 -0.2579  1.2227
 2272SOL    HW218450   0.976   4.279   8.206  1.4070 -0.5976  1.2372
 2273SOL     OW18451   1.691   2.264   9.428  0.1908 -0.1490 -0.1142
 2273SOL    HW118452   1.645   2.181   9.422 -0.1249  0.0439 -0.3441
 2273SOL    HW218453   1.760   2.239   9.489  0.9269 -1.3014 -1.4067
 2274SOL     OW18454   1.694   3.761   5.579  0.0720  0.1397  0.0909
 2274SOL    HW118455   1.729   3.682   5.619  2.0071  0.1643 -1.6003
 2274SOL    HW218456   1.649   3.811   5.647 -0.1234  0.2636 -0.1263
 2275SOL     OW18457   0.107   4.689   4.977 -0.1143 -0.0938  0.2212
 2275SOL    HW118458   0.181   4.628   4.972 -0.3412 -0.2853 -0.6953
 2275SOL    HW218459   0.130   0.000   5.056 -1.5574  1.5201 -0.3823
 2276SOL     OW18460   3.023   3.459   3.610 -0.4747  0.2345  0.2491
 2276SOL    HW118461   2.995   3.378   3.652  0.2105 -0.4116 -0.5297
 2276SOL    HW218462   3.105   3.430   3.569 -1.7605 -1.1696 -1.3433
 2277SOL     OW18463   1.056   4.151  12.313 -0.2292  0.2389 -0.0817
 2277SOL    HW118464   1.093   4.185  12.231 -1.7933  1.0390 -0.4492
 2277SOL    HW218465   0.990   4.220  12.321 -0.8319 -0.5181  1.3881
 2278SOL     OW18466   3.222   0.447   4.100 -0.0448 -0.0846  0.6837
 2278SOL    HW118467   3.236   0.402   4.017 -0.0145 -0.4427  0.8812
 2278SOL    HW218468   3.189   0.367   4.141 -0.0403 -0.6002 -0.3095
 2279SOL     OW18469   1.134   2.416   4.500 -0.3014  0.0633 -0.1074
 2279SOL    HW118470   1.072   2.469   4.448 -0.1230  0.6679  0.2899
 2279SOL    HW218471   1.208   2.476   4.505 -0.4078  0.3083 -1.4838
 2280SOL     OW18472   1.297   1.107  11.582  0.1875 -0.6689 -0.2572
 2280SOL    HW118473   1.275   1.197  11.557 -2.8387 -0.8385  1.8106
 2280SOL    HW218474   1.291   1.103  11.677  0.1410  1.6930 -0.1505
 2281SOL     OW18475   1.257   3.380   6.113 -0.3033  0.0890  0.5376
 2281SOL    HW118476   1.201   3.305   6.093 -1.3607  1.1177 -0.3930
 2281SOL    HW218477   1.260   3.428   6.030 -1.4825 -0.2251  0.3143
 2282SOL     OW18478   1.020   1.621   2.937  0.2035 -0.2468 -0.4135
 2282SOL    HW118479   1.103   1.668   2.944  1.3667 -2.6080  1.6055
 2282SOL    HW218480   0.996   1.598   3.027  2.7757  2.0472  0.8467
 2283SOL     OW18481   3.660   1.276   5.947 -0.6357  0.3887  0.2011
 2283SOL    HW118482   3.680   1.365   5.976 -0.6961  0.6283 -0.4788
 2283SOL    HW218483   3.579   1.289   5.896  0.0905  0.5317 -0.9163
 2284SOL     OW18484   2.553   2.984   9.648  0.0479  0.3912  0.3450
 2284SOL    HW118485   2.595   2.979   9.734 -0.9781  2.5389  0.9511
 2284SOL    HW218486   2.601   3.058   9.612  0.6697  0.3327  1.0552
 2285SOL     OW18487   3.595   1.032  16.217  0.4211 -0.3559  0.0435
 2285SOL    HW118488   3.601   1.121  16.251 -0.4081 -1.0669  2.0171
 2285SOL    HW218489   3.517   1.005  16.265  0.1078  1.2065  0.4072
 2286SOL     OW18490   3.214   1.115   1.667 -0.3628 -0.3629 -0.0537
 2286SOL    HW118491   3.273   1.083   1.736  0.7111 -0.1353 -0.8585
 2286SOL    HW218492   3.167   1.189   1.705 -0.4769 -0.1385 -0.6356
 2287SOL     OW18493   4.190   3.054  17.495 -0.0074 -0.6911  0.0663
 2287SOL    HW118494   4.171   3.117  17.425  0.8792 -0.8096 -0.2782
 2287SOL    HW218495   4.232   2.983  17.446 -0.0160 -0.8960  0.3600
 2288SOL     OW18496   1.939   0.658   3.830 -0.2103 -0.0926  0.4176
 2288SOL    HW118497   1.971   0.741   3.793 -0.1826  0.8806  2.6584
 2288SOL    HW218498   1.972   0.592   3.770 -0.1120 -0.7407  1.1905
 2289SOL     OW18499   4.605   1.523   4.847 -0.3914 -0.3061 -0.5964
 2289SOL    HW118500   4.695   1.546   4.825  0.0748 -3.0593 -1.5620
 2289SOL    HW218501   4.610   1.496   4.938  3.4563 -1.3182 -1.1244
 2290SOL     OW18502   0.048   2.037   0.418 -0.0785  0.7813  0.5682
 2290SOL    HW118503   4.716   2.064   0.478 -0.5121  1.8215 -0.4087
 2290SOL    HW218504   0.003   1.992   0.347 -0.0918  0.9432  0.4736
 2291SOL     OW18505   2.454   4.709   2.947 -0.2941 -0.4489  0.2190
 2291SOL    HW118506   2.486   0.007   3.029 -0.0888 -0.1573  0.0128
 2291SOL    HW218507   2.384   4.647   2.965 -0.9640  0.0533 -0.6566
 2292SOL     OW18508   2.248   1.500   6.073 -0.1416 -0.4125  0.9540
 2292SOL    HW118509   2.212   1.578   6.031 -2.4200 -0.7119  2.3457
 2292SOL    HW218510   2.207   1.509   6.159 -0.8647 -0.1227  0.5735
 2293SOL     OW18511   2.411   0.180   8.415 -0.2976  0.0360 -0.7389
 2293SOL    HW118512   2.318   0.187   8.394  0.4254  0.4456 -3.7083
 2293SOL    HW218513   2.396   0.174   8.510  0.3842  1.4864 -0.5326
 2294SOL     OW18514   3.922   2.434   6.342 -0.4879 -0.1287 -0.0972
 2294SOL    HW118515   3.885   2.520   6.362  0.0820  1.1308 -4.4384
 2294SOL    HW218516   3.962   2.408   6.425 -0.1465 -0.5305 -0.3878
 2295SOL     OW18517   2.495   3.458  15.471  0.1282 -0.0394  0.5158
 2295SOL    HW118518   2.573   3.401  15.468  0.6886  0.7712 -0.1834
 2295SOL    HW218519   2.429   3.399  15.506  0.2709  1.0001  2.5419
 2296SOL     OW18520   2.725   4.042   7.276  0.9156 -0.0588 -0.1000
 2296SOL    HW118521   2.747   3.978   7.209 -1.3719 -0.4378 -0.4601
 2296SOL    HW218522   2.813   4.072   7.299  1.3274 -2.1784  1.1152
 2297SOL     OW18523   2.852   4.413   9.124  0.2230 -0.2952  0.3157
 2297SOL    HW118524   2.881   4.322   9.123 -1.4855 -0.8825  2.0879
 2297SOL    HW218525   2.875   4.459   9.205  0.7171 -2.6694  1.5322
 2298SOL     OW18526   3.019   0.744   8.906 -0.3579 -0.2619  0.0829
 2298SOL    HW118527   2.990   0.717   8.994 -0.5058  0.0005  0.1154
 2298SOL    HW218528   3.031   0.837   8.927 -0.0823 -0.3060  0.1246
 2299SOL     OW18529   3.619   0.726   3.018 -0.0773 -0.0815  0.0400
 2299SOL    HW118530   3.633   0.796   2.954  1.3458  1.3472  1.9224
 2299SOL    HW218531   3.622   0.768   3.104  0.1653  0.1316 -0.0719
 2300SOL     OW18532   2.283   2.199   3.323  0.7180  0.2858  0.1282
 2300SOL    HW118533   2.335   2.124   3.296 -0.6487 -0.5948 -0.0418
 2300SOL    HW218534   2.283   2.188   3.419 -0.7673 -0.8855 -0.0201
 2301SOL     OW18535   2.151   0.353   3.115 -0.0872 -0.1954  0.2030
 2301SOL    HW118536   2.126   0.309   3.034  1.2501 -1.1555  0.2981
 2301SOL    HW218537   2.245   0.332   3.107 -0.6057 -1.7651 -1.9532
 2302SOL     OW18538   4.361   3.021   7.586 -0.3964 -0.1454  0.2192
 2302SOL    HW118539   4.431   3.032   7.522  0.7538  1.2810  1.7318
 2302SOL    HW218540   4.374   3.110   7.619  0.1476  0.2208 -1.0081
 2303SOL     OW18541   2.280   2.130  15.936 -0.1582  0.4659  0.2412
 2303SOL    HW118542   2.299   2.153  16.027 -0.8491 -0.0311  0.5166
 2303SOL    HW218543   2.316   2.207  15.891  0.5255 -1.6349 -2.8127
 2304SOL     OW18544   1.104   3.768   7.843 -0.1270  0.0151 -0.4576
 2304SOL    HW118545   1.119   3.862   7.847  0.8495 -0.1003 -1.5022
 2304SOL    HW218546   1.117   3.751   7.750  1.8343 -1.8928  0.1696
 2305SOL     OW18547   4.303   3.645   5.893 -0.0144  0.8426  0.0108
 2305SOL    HW118548   4.333   3.599   5.971  1.2826 -0.2726 -1.1294
 2305SOL    HW218549   4.208   3.633   5.896  0.2786 -1.1169  1.8482
 2306SOL     OW18550   3.954   2.259   8.901 -0.1238 -0.8661  0.0620
 2306SOL    HW118551   4.001   2.217   8.973  0.4114 -0.4461 -0.0394
 2306SOL    HW218552   3.865   2.225   8.906 -0.3237 -0.4740 -0.8890
 2307SOL     OW18553   2.609   0.410   5.447  0.2259 -0.2006 -0.7290
 2307SOL    HW118554   2.540   0.348   5.472  1.4653 -0.1953  2.7645
 2307SOL    HW218555   2.654   0.427   5.530 -1.9105  0.5944  0.2686
 2308SOL     OW18556   0.754   4.389   3.453  0.6765  0.0745 -0.2312
 2308SOL    HW118557   0.774   4.311   3.505  3.5672  0.9422 -0.0398
 2308SOL    HW218558   0.832   4.407   3.401  1.0806  0.0608  0.3723
 2309SOL     OW18559   1.525   1.327   1.912  0.0280 -0.1053 -0.6316
 2309SOL    HW118560   1.522   1.248   1.967 -0.5872  0.8570  0.7059
 2309SOL    HW218561   1.528   1.298   1.821 -0.7065 -2.1584 -0.0171
 2310SOL     OW18562   1.830   0.703   8.159  0.2805  0.1462  0.1920
 2310SOL    HW118563   1.781   0.750   8.227 -1.4351  3.3609 -3.2728
 2310SOL    HW218564   1.772   0.656   8.098 -0.3097 -0.4243  1.1901
 2311SOL     OW18565   1.111   4.210   2.818 -0.0844 -0.3185 -0.4246
 2311SOL    HW118566   1.066   4.290   2.790 -0.8504 -0.1283  1.3566
 2311SOL    HW218567   1.159   4.189   2.737  0.0172  0.2670 -0.5141
 2312SOL     OW18568   1.208   2.660   3.702 -0.1395  0.0238  0.1768
 2312SOL    HW118569   1.192   2.584   3.646  1.7139 -0.4630  0.3123
 2312SOL    HW218570   1.121   2.697   3.688 -0.0287  0.9839  2.1977
 2313SOL     OW18571   1.056   2.638   2.553  0.1447  0.2382  0.4725
 2313SOL    HW118572   1.110   2.716   2.567 -3.1253  2.2360  1.6975
 2313SOL    HW218573   0.968   2.675   2.558  0.3746  0.8658 -0.1466
 2314SOL     OW18574   3.958   3.218   7.942 -0.0491  0.0552  0.1089
 2314SOL    HW118575   3.934   3.162   8.016  0.9242  0.1886  0.5320
 2314SOL    HW218576   3.895   3.192   7.875  0.0637  1.2940 -0.4835
 2315SOL     OW18577   0.559   0.180   5.833  0.1186 -0.0968  0.1962
 2315SOL    HW118578   0.470   0.212   5.819  0.1214 -0.8048 -1.4362
 2315SOL    HW218579   0.582   0.162   5.742  4.4233 -1.0162  1.4419
 2316SOL     OW18580   0.996   4.318  12.907  0.7939 -0.1375  0.5386
 2316SOL    HW118581   0.954   4.233  12.892  1.2916 -0.7865  2.8646
 2316SOL    HW218582   0.927   4.379  12.879  1.2484  0.0096 -0.2816
 2317SOL     OW18583   1.830   3.963   5.916  0.2472 -0.0299 -0.0935
 2317SOL    HW118584   1.791   3.911   5.986  2.0400 -0.1977  0.7696
 2317SOL    HW218585   1.750   4.002   5.879  1.4389  0.4195 -2.2312
 2318SOL     OW18586   3.978   3.042   0.303  0.6033 -0.6615  0.0155
 2318SOL    HW118587   3.947   3.108   0.241 -0.4520 -0.8593  0.3242
 2318SOL    HW218588   3.982   2.960   0.254  0.4430  0.7377 -2.3162
 2319SOL     OW18589   4.451   1.509  17.056 -0.2250  0.1239 -0.0210
 2319SOL    HW118590   4.400   1.470  17.127 -2.3160  2.3457 -0.3282
 2319SOL    HW218591   4.421   1.600  17.068  0.0307  0.4237 -1.7232
 2320SOL     OW18592   1.298   0.298   0.087  0.5981  0.0627 -0.0123
 2320SOL    HW118593   1.251   0.347   0.020 -1.1100  1.0652  1.8992
 2320SOL    HW218594   1.358   0.258   0.025  0.6330  1.0043 -0.5793
 2321SOL     OW18595   3.603   1.789   1.947 -0.1073  0.1495 -0.0796
 2321SOL    HW118596   3.595   1.851   1.874 -0.2641 -0.4590 -0.5772
 2321SOL    HW218597   3.517   1.748   1.941 -0.0737  0.0481  0.1284
 2322SOL     OW18598   1.808   0.042  11.989 -0.3812 -0.1091  0.5888
 2322SOL    HW118599   1.805   0.023  12.082 -0.3655 -0.3733  0.5368
 2322SOL    HW218600   1.796   4.695  11.946  0.0221 -1.0365  2.3261
 2323SOL     OW18601   3.323   4.192  14.620 -0.7139  0.5898 -0.1418
 2323SOL    HW118602   3.389   4.188  14.551 -0.5475 -2.0333  0.1871
 2323SOL    HW218603   3.257   4.228  14.560 -1.0032 -1.4138 -1.0155
 2324SOL     OW18604   0.394   3.567  12.489  0.8290  0.2538 -0.4867
 2324SOL    HW118605   0.432   3.645  12.450  1.9874  0.2887  0.6830
 2324SOL    HW218606   0.347   3.519  12.422  1.2995  0.1723 -0.7576
 2325SOL     OW18607   1.794   2.557  14.877  0.0104  0.4151  0.2154
 2325SOL    HW118608   1.769   2.647  14.895  1.8648  1.0670 -0.3917
 2325SOL    HW218609   1.769   2.512  14.957  1.0733  2.5306  1.7355
 2326SOL     OW18610   3.046   0.035  14.557 -0.2985  0.6832 -0.0651
 2326SOL    HW118611   3.107   4.700  14.545 -1.3572 -0.2409  0.2474
 2326SOL    HW218612   3.068   0.062  14.647 -1.3155 -1.5254  0.8415
 2327SOL     OW18613   3.712   2.207   3.829  0.2331  0.0788  0.3587
 2327SOL    HW118614   3.723   2.200   3.734  0.7055 -1.7826  0.5488
 2327SOL    HW218615   3.803   2.205   3.858  0.5438  3.2684 -0.3158
 2328SOL     OW18616   1.980   3.365  14.552  0.2211  0.1468  0.3256
 2328SOL    HW118617   2.039   3.432  14.585  0.9817  0.6046 -1.9331
 2328SOL    HW218618   2.032   3.332  14.478  2.9562 -0.2279  2.4446
 2329SOL     OW18619   0.253   2.048  11.758  0.4460 -0.5420 -0.5355
 2329SOL    HW118620   0.194   2.006  11.695 -0.1292  1.6246 -1.4138
 2329SOL    HW218621   0.283   1.971  11.806  3.5673 -0.6100 -2.5847
 2330SOL     OW18622   0.954   3.674   2.357 -0.1760 -0.1850  0.1910
 2330SOL    HW118623   0.865   3.709   2.365 -0.4530 -0.4648 -1.6176
 2330SOL    HW218624   0.987   3.722   2.433  1.5804 -0.4093 -0.4350
 2331SOL     OW18625   0.586   2.914   3.060  0.3658  0.0533  0.2267
 2331SOL    HW118626   0.491   2.917   3.048  0.5072 -0.5249 -1.0943
 2331SOL    HW218627   0.594   2.982   3.127  0.7675  0.7518 -0.5302
 2332SOL     OW18628   2.565   0.596   1.005  0.2309  0.9223  0.1673
 2332SOL    HW118629   2.580   0.680   1.047  0.0105  2.0870 -2.1045
 2332SOL    HW218630   2.657   0.569   1.000  0.5211  1.7068  1.2896
 2333SOL     OW18631   2.800   3.354   9.106  0.8434 -0.1518  0.2386
 2333SOL    HW118632   2.862   3.312   9.048 -0.3171  0.1119 -1.1889
 2333SOL    HW218633   2.849   3.403   9.172 -0.9486  2.1337 -0.1172
 2334SOL     OW18634   2.357   3.050   1.281 -0.3060 -0.3572 -0.1379
 2334SOL    HW118635   2.398   2.977   1.328  0.4302  0.4721  0.4989
 2334SOL    HW218636   2.274   3.067   1.327  0.7339 -0.6256  1.8636
 2335SOL     OW18637   3.807   1.745  17.166  0.2022  0.5313 -0.9742
 2335SOL    HW118638   3.718   1.769  17.139 -0.0890 -0.9765 -1.3589
 2335SOL    HW218639   3.793   1.653  17.188 -0.2569  0.4812 -1.4713
 2336SOL     OW18640   3.057   2.196   2.000  0.0600  0.3250  0.3058
 2336SOL    HW118641   2.965   2.210   2.019  0.4815  1.1287  1.6906
 2336SOL    HW218642   3.072   2.181   1.906 -2.6851 -1.1475  0.1045
 2337SOL     OW18643   2.893   3.817  16.678 -0.1589  0.6625  0.6253
 2337SOL    HW118644   2.943   3.897  16.694  2.7410 -0.9104 -0.5688
 2337SOL    HW218645   2.933   3.781  16.599 -0.0175  0.2440  0.8885
 2338SOL     OW18646   3.048   3.758  14.469 -0.3573  0.2821 -0.3662
 2338SOL    HW118647   2.962   3.716  14.482  0.0969 -0.2321  0.9998
 2338SOL    HW218648   3.062   3.790  14.558 -1.7975 -3.5811  1.2687
 2339SOL     OW18649   1.893   3.552   6.246  0.4947 -0.1246 -0.4987
 2339SOL    HW118650   1.875   3.646   6.255 -0.3141 -0.3922  0.6480
 2339SOL    HW218651   1.829   3.521   6.310 -0.6919  0.5401 -1.3464
 2340SOL     OW18652   2.605   4.363   8.212 -0.4378 -0.3364  0.3431
 2340SOL    HW118653   2.623   4.420   8.287  1.7863  1.1921 -1.3729
 2340SOL    HW218654   2.667   4.293   8.232 -0.1542 -0.1733  0.0347
 2341SOL     OW18655   4.262   4.381  14.963  0.0941  0.1782 -0.1118
 2341SOL    HW118656   4.262   4.463  14.912  0.0997  1.2964  1.6828
 2341SOL    HW218657   4.242   4.326  14.887 -2.2906  0.1102  0.5818
 2342SOL     OW18658   1.681   0.578   4.148  0.3586  0.3460  0.0942
 2342SOL    HW118659   1.739   0.510   4.113 -0.3613 -0.4862  0.5119
 2342SOL    HW218660   1.634   0.615   4.074  0.2313 -1.8809 -0.9541
 2343SOL     OW18661   0.377   2.680   4.893  0.0235  0.2496 -0.1782
 2343SOL    HW118662   0.404   2.714   4.979 -0.0586 -1.6165  0.5911
 2343SOL    HW218663   0.319   2.608   4.917  0.2698 -0.4846 -1.8040
 2344SOL     OW18664   1.768   2.424   8.628  0.3755 -0.2793  0.7423
 2344SOL    HW118665   1.863   2.420   8.640  0.7062 -0.0926 -1.7541
 2344SOL    HW218666   1.761   2.373   8.547  0.6779  1.0565 -0.1242
 2345SOL     OW18667   4.446   3.153   7.337  0.3345 -0.4240  0.1815
 2345SOL    HW118668   4.475   3.173   7.248  0.6370  1.9457  0.8175
 2345SOL    HW218669   4.448   3.240   7.376  1.3277 -1.4600  2.4379
 2346SOL     OW18670   2.548   4.085   2.626  0.2639 -0.0140  0.1174
 2346SOL    HW118671   2.470   4.101   2.680 -0.0640 -0.1339 -0.3193
 2346SOL    HW218672   2.528   4.002   2.583 -0.0786  0.2609 -0.2543
 2347SOL     OW18673   3.607   0.456   3.417 -0.1782 -0.1238  0.5021
 2347SOL    HW118674   3.542   0.526   3.408 -0.5912 -0.2546  2.4909
 2347SOL    HW218675   3.595   0.406   3.336  1.3847  1.1488 -0.4875
 2348SOL     OW18676   0.105   2.436   0.107  0.4748  0.5797  0.4976
 2348SOL    HW118677   0.022   2.436   0.058  0.1684  0.3175  1.0205
 2348SOL    HW218678   0.071   2.424   0.196  1.0482 -2.0105  0.3672
 2349SOL     OW18679   3.320   1.802   2.463 -0.6586  0.1472 -0.1189
 2349SOL    HW118680   3.298   1.889   2.497  1.8580 -0.2210  2.4547
 2349SOL    HW218681   3.308   1.806   2.368 -1.8103 -1.7621 -0.0583
 2350SOL     OW18682   0.068   0.765   4.775  0.2231 -0.4684  0.2681
 2350SOL    HW118683   0.003   0.835   4.781  0.8415 -0.0110  1.7001
 2350SOL    HW218684   0.140   0.811   4.732 -0.9940  1.8646  0.7224
 2351SOL     OW18685   0.729   0.762   4.100  0.1307  0.2359 -0.1815
 2351SOL    HW118686   0.636   0.737   4.098  0.2281 -0.1208 -0.3335
 2351SOL    HW218687   0.760   0.731   4.015  0.5230 -0.4854  0.2180
 2352SOL     OW18688   0.556   3.932   8.512 -0.1376  0.5522 -0.6553
 2352SOL    HW118689   0.560   4.021   8.479 -0.4454  0.3215 -1.3071
 2352SOL    HW218690   0.465   3.908   8.499 -0.3768  0.0512  1.8808
 2353SOL     OW18691   3.023   0.585   6.615 -0.0263 -0.2413  0.4101
 2353SOL    HW118692   3.018   0.680   6.601  0.1074 -0.2462  0.3264
 2353SOL    HW218693   3.090   0.584   6.683  0.6982 -2.3153 -0.3171
 2354SOL     OW18694   1.326   1.913   0.088 -0.0719 -0.5953  0.0446
 2354SOL    HW118695   1.410   1.959   0.083 -1.1709  1.3997 -0.0592
 2354SOL    HW218696   1.259   1.980   0.103 -1.0518 -1.2332 -1.4905
 2355SOL     OW18697   1.351   1.535   6.538 -0.3217  0.6918 -0.7236
 2355SOL    HW118698   1.422   1.517   6.600 -2.4670  2.2123  2.1154
 2355SOL    HW218699   1.392   1.570   6.459  1.7691 -0.7838 -0.2929
 2356SOL     OW18700   1.152   4.421   9.660  0.4563  0.4536  0.0103
 2356SOL    HW118701   1.094   4.356   9.621 -1.2838  2.1884 -0.2698
 2356SOL    HW218702   1.171   4.475   9.583 -0.3658  0.2073 -0.3614
 2357SOL     OW18703   2.930   3.948   3.562  0.1849 -0.0792 -0.5229
 2357SOL    HW118704   2.878   3.941   3.482  0.8033  0.2434 -0.9521
 2357SOL    HW218705   2.900   3.870   3.608  0.4156  0.4058  0.4354
 2358SOL     OW18706   0.733   3.553   4.007 -0.1271 -0.2173  0.0239
 2358SOL    HW118707   0.713   3.552   4.101 -1.3272 -4.7074 -0.2846
 2358SOL    HW218708   0.647   3.534   3.970  1.1198 -1.1343 -2.3847
 2359SOL     OW18709   1.008   1.719   5.619 -0.7371 -0.7889 -0.5284
 2359SOL    HW118710   1.049   1.635   5.640 -2.2802 -1.3525  0.2865
 2359SOL    HW218711   0.953   1.699   5.544 -0.5735 -2.3185 -0.2300
 2360SOL     OW18712   2.607   4.448   9.227 -0.5733  0.2050 -0.3464
 2360SOL    HW118713   2.554   4.431   9.150  0.1451  1.5369 -1.1347
 2360SOL    HW218714   2.683   4.394   9.205 -0.8290 -0.8318  1.3166
 2361SOL     OW18715   1.757   1.059   4.155 -0.0908 -0.4082  0.0808
 2361SOL    HW118716   1.691   1.019   4.212  1.4457 -2.5301  0.3774
 2361SOL    HW218717   1.737   1.151   4.171  0.6676 -0.2549  0.1425
 2362SOL     OW18718   2.904   3.626   6.510  0.3417 -0.2593  0.4750
 2362SOL    HW118719   2.879   3.615   6.419  0.4848  0.5281  0.3410
 2362SOL    HW218720   2.999   3.635   6.498  0.1545 -0.3589 -1.0872
 2363SOL     OW18721   1.472   2.498   9.647  0.2048  0.0270  0.0281
 2363SOL    HW118722   1.529   2.438   9.695  0.3785  0.0318 -0.1706
 2363SOL    HW218723   1.475   2.571   9.709  0.2034 -0.4277  0.5627
 2364SOL     OW18724   0.111   3.472  12.530 -0.1358 -0.5742 -0.4284
 2364SOL    HW118725   0.159   3.514  12.602 -0.6852 -0.7569  0.0415
 2364SOL    HW218726   0.038   3.430  12.574 -0.6217  0.4506 -0.2510
 2365SOL     OW18727   4.006   4.589   7.974  0.2975 -0.3762 -0.6623
 2365SOL    HW118728   4.063   4.515   7.995  0.7133  0.3506  0.7932
 2365SOL    HW218729   3.981   4.558   7.887  0.6899  0.9501 -1.2536
 2366SOL     OW18730   2.032   1.151   6.243  0.4674 -0.6858 -0.5914
 2366SOL    HW118731   1.945   1.140   6.205  0.4314 -1.2118 -0.3466
 2366SOL    HW218732   2.090   1.114   6.176  2.6648  1.6304  0.0123
 2367SOL     OW18733   3.343   0.851  15.907 -0.2557 -0.3062 -0.6855
 2367SOL    HW118734   3.385   0.925  15.953 -0.3963  0.4328 -1.7452
 2367SOL    HW218735   3.253   0.855  15.938  0.2635 -3.4891  1.2228
 2368SOL     OW18736   1.753   4.266   2.872 -0.5716 -0.0584  0.0006
 2368SOL    HW118737   1.772   4.360   2.883 -1.4830 -0.1089  2.0459
 2368SOL    HW218738   1.657   4.263   2.870 -0.5786  1.4434 -2.3107
 2369SOL     OW18739   2.184   3.710   9.500  0.0892  0.1642  0.1621
 2369SOL    HW118740   2.225   3.648   9.440 -0.1877  0.6407 -0.5184
 2369SOL    HW218741   2.173   3.789   9.448 -0.4750 -0.9106 -1.3351
 2370SOL     OW18742   0.395   3.581  13.010  0.4198  0.2761 -0.0038
 2370SOL    HW118743   0.387   3.631  13.090 -0.5573 -0.7622  0.5574
 2370SOL    HW218744   0.403   3.495  13.052  0.0709  0.0656 -0.3651
 2371SOL     OW18745   4.512   3.219  12.323 -0.2660 -0.2026 -1.2458
 2371SOL    HW118746   4.481   3.223  12.413  0.3211  3.1301 -1.1689
 2371SOL    HW218747   4.441   3.173  12.278  0.7425  1.5505 -4.6339
 2372SOL     OW18748   2.930   1.442   8.552 -0.0473  0.2398  0.3731
 2372SOL    HW118749   2.876   1.381   8.502  1.7394 -1.7401  0.8528
 2372SOL    HW218750   2.862   1.501   8.583 -1.3461 -0.9834 -0.1159
 2373SOL     OW18751   1.276   3.396   8.768  0.0411  0.3360 -0.1165
 2373SOL    HW118752   1.348   3.437   8.720  0.3634 -0.9132 -0.7170
 2373SOL    HW218753   1.261   3.326   8.705  0.4510  0.3721 -0.2555
 2374SOL     OW18754   4.504   1.969   4.604 -0.0982 -0.2580  0.1911
 2374SOL    HW118755   4.548   2.016   4.675  0.1177 -0.7724  0.4021
 2374SOL    HW218756   4.424   2.019   4.591  0.9419  1.2507 -0.4024
 2375SOL     OW18757   2.023   3.659   5.939 -0.1295 -0.7759 -0.2469
 2375SOL    HW118758   2.089   3.603   5.898  1.0405 -0.7885  1.6585
 2375SOL    HW218759   1.938   3.620   5.918 -0.3101 -0.7882  0.4939
 2376SOL     OW18760   4.581   2.444   0.650 -0.5626 -0.1290 -0.0953
 2376SOL    HW118761   4.554   2.481   0.566 -0.2632  0.5377  0.1039
 2376SOL    HW218762   4.640   2.376   0.616  0.4152  0.6179  0.0993
 2377SOL     OW18763   2.797   0.312   5.272 -0.1057 -0.0143  0.0859
 2377SOL    HW118764   2.861   0.383   5.270 -1.2564  1.1164  2.4622
 2377SOL    HW218765   2.724   0.357   5.317  0.5578  0.3946  0.7588
 2378SOL     OW18766   1.495   3.537  11.219  0.5387  0.2897 -0.0965
 2378SOL    HW118767   1.423   3.475  11.212  1.5433 -1.0252  1.2519
 2378SOL    HW218768   1.442   3.611  11.250 -0.1165 -1.2028  2.3161
 2379SOL     OW18769   3.113   1.140   6.461 -0.4897  0.0662 -0.0143
 2379SOL    HW118770   3.049   1.208   6.485  1.0408  0.4856  2.8946
 2379SOL    HW218771   3.162   1.189   6.395  1.6645 -2.7870 -0.5124
 2380SOL     OW18772   4.075   2.578   8.618  0.0678 -0.2332 -0.3986
 2380SOL    HW118773   4.142   2.619   8.563  0.1827 -0.3250 -0.3282
 2380SOL    HW218774   3.999   2.568   8.562 -0.1788  1.1538 -0.2940
 2381SOL     OW18775   4.353   1.355   4.869  0.7557  0.3619 -0.2282
 2381SOL    HW118776   4.412   1.423   4.836 -0.8653  2.0864  0.4206
 2381SOL    HW218777   4.281   1.355   4.806  2.5256 -1.1403 -2.2743
 2382SOL     OW18778   1.124   4.370   9.230  0.7478  0.8490  0.2464
 2382SOL    HW118779   1.063   4.301   9.257  0.6001  1.1897  0.7917
 2382SOL    HW218780   1.053   4.421   9.191  0.0676  0.6506  1.2155
 2383SOL     OW18781   4.546   1.797  10.083  0.4857  0.3470  0.0290
 2383SOL    HW118782   4.545   1.702  10.093  0.7382  0.3488  0.0678
 2383SOL    HW218783   4.528   1.803   9.989 -0.0516 -1.1395  0.0388
 2384SOL     OW18784   4.313   4.507  17.004  0.5754  0.0567  0.1878
 2384SOL    HW118785   4.298   4.538  17.093  1.0509 -0.3159  0.4008
 2384SOL    HW218786   4.282   4.418  17.021 -1.7990  0.5890 -1.2571
 2385SOL     OW18787   0.452   0.951   9.395  0.0286  0.4968  0.4426
 2385SOL    HW118788   0.385   0.936   9.461  1.5949  3.0364  2.6051
 2385SOL    HW218789   0.402   0.958   9.314 -3.6186 -0.7289  2.5853
 2386SOL     OW18790   3.613   3.265   7.867 -0.7750  0.2738 -0.5283
 2386SOL    HW118791   3.534   3.317   7.882 -0.6451  0.2503  0.2249
 2386SOL    HW218792   3.673   3.323   7.913 -0.7123  0.2292 -0.5547
 2387SOL     OW18793   3.021   1.320  16.067  0.0642 -0.4994  0.0195
 2387SOL    HW118794   2.953   1.303  16.003 -0.1677  2.1570 -0.4484
 2387SOL    HW218795   3.064   1.395  16.026 -0.0069 -1.7009 -2.2265
 2388SOL     OW18796   3.152   0.795  16.488 -0.2526  0.4108  0.4673
 2388SOL    HW118797   3.143   0.889  16.472  0.2803  0.1459 -1.3705
 2388SOL    HW218798   3.176   0.791  16.580 -0.4961 -0.9722  0.4819
 2389SOL     OW18799   2.818   2.280  11.247  0.1519  0.3871  0.5624
 2389SOL    HW118800   2.795   2.200  11.295 -1.5446  1.6795  1.8811
 2389SOL    HW218801   2.746   2.341  11.259  0.9039  1.4753 -0.5394
 2390SOL     OW18802   0.671   1.275  12.003  0.1549 -0.6854  0.4278
 2390SOL    HW118803   0.745   1.267  11.942  0.0079  1.8665 -0.1073
 2390SOL    HW218804   0.724   1.281  12.082  1.0370 -2.4616 -0.0335
 2391SOL     OW18805   0.001   4.310   6.194  0.0726  0.0760  0.0694
 2391SOL    HW118806   0.038   4.396   6.213 -0.0176 -0.3000  1.9019
 2391SOL    HW218807   0.090   4.274   6.192  0.3862  0.8941 -0.7609
 2392SOL     OW18808   4.711   3.548   8.276  0.0706  0.4733  0.7100
 2392SOL    HW118809   4.731   3.614   8.210  0.7273  1.5659  1.9956
 2392SOL    HW218810   0.049   3.493   8.257  1.7917  3.3817 -0.8113
 2393SOL     OW18811   2.675   0.281   0.605 -0.2211 -0.5037 -0.6986
 2393SOL    HW118812   2.586   0.316   0.603 -0.0684  0.0998  3.1094
 2393SOL    HW218813   2.718   0.354   0.561  1.0399  1.1146  3.1874
 2394SOL     OW18814   1.660   2.446  17.166  0.0534 -0.0080 -0.0930
 2394SOL    HW118815   1.752   2.442  17.194 -0.2747 -0.8381  0.8462
 2394SOL    HW218816   1.631   2.522  17.216  1.3662 -0.7211  1.7556
 2395SOL     OW18817   1.255   2.718   9.260  0.1898 -0.0467 -0.0076
 2395SOL    HW118818   1.217   2.647   9.207  0.2623  1.2027 -1.7302
 2395SOL    HW218819   1.262   2.665   9.339 -1.9539 -0.2411  0.0684
 2396SOL     OW18820   0.459   0.922   3.285  0.6599 -0.0530  0.2738
 2396SOL    HW118821   0.452   0.985   3.214 -1.5781  2.1050  2.4131
 2396SOL    HW218822   0.366   0.905   3.303  0.9190 -0.3201  1.3553
 2397SOL     OW18823   0.327   0.083   8.871 -0.0490 -0.5168  0.3269
 2397SOL    HW118824   0.340   0.054   8.962 -1.0312 -0.5761  0.4425
 2397SOL    HW218825   0.274   0.159   8.892  1.0869  0.4002 -0.1209
 2398SOL     OW18826   1.568   4.712   7.847  0.0683 -1.1654 -0.0420
 2398SOL    HW118827   1.619   0.012   7.918  0.0218 -1.1238 -0.0308
 2398SOL    HW218828   1.646   4.682   7.799 -0.4612 -2.5283 -0.0308
 2399SOL     OW18829   3.351   3.671   7.347  0.0181 -0.0922  0.3354
 2399SOL    HW118830   3.329   3.731   7.275 -0.1528 -0.9909 -0.3595
 2399SOL    HW218831   3.386   3.593   7.304 -2.2756 -1.3810  0.7808
 2400SOL     OW18832   0.873   1.925   4.450 -0.5329 -0.4274 -0.2990
 2400SOL    HW118833   0.797   1.883   4.411 -2.0566  0.2151  1.9985
 2400SOL    HW218834   0.833   1.996   4.499 -0.6396 -1.0442  0.4968
 2401SOL     OW18835   1.377   4.070   7.649 -0.3724  0.2535  0.0191
 2401SOL    HW118836   1.416   3.985   7.627  2.6575  1.6949 -0.1589
 2401SOL    HW218837   1.415   4.130   7.586  0.6427  1.5401  1.8416
 2402SOL     OW18838   4.388   1.335   0.545  0.3435 -0.3712  0.3649
 2402SOL    HW118839   4.457   1.378   0.495 -1.9875  1.9108 -0.9211
 2402SOL    HW218840   4.323   1.350   0.476 -0.2763 -1.3303  0.7446
 2403SOL     OW18841   0.082   2.652  14.410  0.3023 -0.0974  0.1178
 2403SOL    HW118842   0.009   2.601  14.444  1.3515 -1.6629  0.0072
 2403SOL    HW218843   0.073   2.729  14.467  1.3913  0.1161  0.0121
 2404SOL     OW18844   3.931   1.188   0.133  0.9386 -0.0791  0.0498
 2404SOL    HW118845   3.968   1.100   0.121 -1.5198 -1.5067  2.9022
 2404SOL    HW218846   3.839   1.164   0.129  0.6960  1.0290 -0.9717
 2405SOL     OW18847   2.659   4.329  10.615 -0.1727  0.0038 -0.1628
 2405SOL    HW118848   2.738   4.334  10.563  1.2732 -0.9572  1.9368
 2405SOL    HW218849   2.589   4.288  10.565  0.9510  0.7940 -2.3783
 2406SOL     OW18850   0.473   4.319  12.313  0.0030  0.0198 -0.0304
 2406SOL    HW118851   0.429   4.395  12.351 -2.0771 -0.4650 -1.5200
 2406SOL    HW218852   0.550   4.313  12.370 -0.4365  0.2676  0.5962
 2407SOL     OW18853   3.526   2.208   9.043  0.2272  0.1393  0.1435
 2407SOL    HW118854   3.611   2.196   9.087  0.3055  1.1734  0.2643
 2407SOL    HW218855   3.496   2.289   9.084 -0.5386  0.8231 -1.8058
 2408SOL     OW18856   4.139   2.669   3.703  0.3971  0.4904  0.3662
 2408SOL    HW118857   4.138   2.705   3.792  1.5533 -1.3148  1.1100
 2408SOL    HW218858   4.134   2.573   3.711 -0.4469  0.3260 -2.2894
 2409SOL     OW18859   3.545   0.463   3.754  0.0269 -0.5012  0.5930
 2409SOL    HW118860   3.482   0.442   3.686  0.2071  1.8623 -0.3128
 2409SOL    HW218861   3.618   0.502   3.706 -0.2980 -2.0900 -1.1829
 2410SOL     OW18862   0.254   2.872  12.907  0.0162 -0.4596 -0.2152
 2410SOL    HW118863   0.314   2.841  12.975 -0.2467  1.7290  1.0274
 2410SOL    HW218864   0.181   2.810  12.908 -0.8946  0.6287  1.0027
 2411SOL     OW18865   4.064   2.669  17.269  0.0178  0.0858  0.8575
 2411SOL    HW118866   4.080   2.592  17.323  0.8521  1.6091  2.8035
 2411SOL    HW218867   3.972   2.681  17.292  0.1765 -0.0662  1.5661
 2412SOL     OW18868   1.230   0.841  15.725 -0.3211  0.4979 -0.6688
 2412SOL    HW118869   1.302   0.857  15.786 -1.3868 -1.4545  1.0872
 2412SOL    HW218870   1.207   0.927  15.690  1.3404  0.5304 -1.6939
 2413SOL     OW18871   2.177   2.677   2.698 -0.3768 -0.3215 -0.3400
 2413SOL    HW118872   2.246   2.693   2.763 -2.1033 -1.6500  1.8084
 2413SOL    HW218873   2.191   2.757   2.647  0.3574 -0.7510 -0.8175
 2414SOL     OW18874   2.737   0.320   7.399  0.1111  0.6053  0.0777
 2414SOL    HW118875   2.712   0.399   7.447  1.9598  2.1917 -1.5827
 2414SOL    HW218876   2.829   0.339   7.383  0.2986  0.1824  0.6430
 2415SOL     OW18877   1.168   1.081   1.969  0.0316  0.6463  0.5097
 2415SOL    HW118878   1.113   1.010   2.003  1.0020 -0.6670 -0.6582
 2415SOL    HW218879   1.234   1.027   1.925  0.6244 -0.3088  2.5644
 2416SOL     OW18880   0.225   2.664   7.303 -0.0515 -0.1880 -0.4521
 2416SOL    HW118881   0.177   2.736   7.343 -1.3310 -1.9757  1.2250
 2416SOL    HW218882   0.307   2.710   7.285  0.0056  0.9648  2.9114
 2417SOL     OW18883   2.685   4.610   2.177  0.1145 -0.3942 -0.1800
 2417SOL    HW118884   2.669   4.703   2.194  1.9033 -0.6553  2.8390
 2417SOL    HW218885   2.739   4.588   2.253  2.2945  0.4309 -1.4854
 2418SOL     OW18886   0.359   2.147   5.179  0.2073  0.3933  0.4793
 2418SOL    HW118887   0.272   2.184   5.197 -0.6799 -1.0243 -0.8077
 2418SOL    HW218888   0.362   2.154   5.083 -0.2107  0.0370  0.4385
 2419SOL     OW18889   2.911   1.091  16.642  0.6163  0.2857  0.1975
 2419SOL    HW118890   2.884   1.003  16.666  2.4961  0.2197  2.0623
 2419SOL    HW218891   3.007   1.085  16.639  0.6163 -0.1273  1.1996
 2420SOL     OW18892   2.004   0.663   8.873  0.1478  0.1113 -0.5696
 2420SOL    HW118893   1.958   0.675   8.790 -0.2985 -2.9413 -0.7689
 2420SOL    HW218894   2.009   0.567   8.876  2.7468  0.2359 -0.9898
 2421SOL     OW18895   0.030   4.556   3.407  0.1538 -0.4229  0.2706
 2421SOL    HW118896   0.067   4.553   3.319 -2.7456  0.7539 -1.0035
 2421SOL    HW218897   0.047   4.649   3.425 -0.9106 -0.3999  1.1821
 2422SOL     OW18898   0.296   2.122   3.342  0.3044  0.5556 -0.5969
 2422SOL    HW118899   0.295   2.217   3.354 -1.5692  0.5680 -0.8947
 2422SOL    HW218900   0.379   2.111   3.296 -0.2867 -1.3608 -1.2013
 2423SOL     OW18901   0.340   2.321   8.600  0.2420  0.4099  0.4189
 2423SOL    HW118902   0.293   2.345   8.520  0.4968 -1.2950 -0.2475
 2423SOL    HW218903   0.399   2.249   8.578  1.9745  1.4821  1.5969
 2424SOL     OW18904   3.364   2.888  17.160 -0.4155  0.3153  0.6451
 2424SOL    HW118905   3.446   2.840  17.156  0.2987  1.6622 -0.7042
 2424SOL    HW218906   3.346   2.871  17.253 -0.5292  1.4363  0.8202
 2425SOL     OW18907   0.656   0.642   3.111  0.3075  0.2144 -0.2023
 2425SOL    HW118908   0.656   0.564   3.167 -0.4279 -0.7705 -1.5697
 2425SOL    HW218909   0.690   0.709   3.171 -1.5827  1.4881 -0.5707
 2426SOL     OW18910   1.122   1.864   0.361 -1.3713  0.5203  0.4766
 2426SOL    HW118911   1.084   1.800   0.300 -0.8549  1.8819 -1.2588
 2426SOL    HW218912   1.089   1.818   0.438  1.5756 -0.6819  1.0172
 2427SOL     OW18913   2.006   1.893   3.474 -0.4407  0.4975 -0.1919
 2427SOL    HW118914   1.945   1.964   3.493  0.8330  1.4818  0.2658
 2427SOL    HW218915   2.092   1.932   3.493  0.5886 -1.2452 -1.2892
 2428SOL     OW18916   1.521   3.732   4.554  0.3469 -0.5791  0.1244
 2428SOL    HW118917   1.612   3.747   4.529 -0.5670 -1.3448 -3.7156
 2428SOL    HW218918   1.492   3.801   4.614  0.3707 -0.2175 -0.2793
 2429SOL     OW18919   0.172   2.873   5.630 -0.1931  0.4015 -0.5256
 2429SOL    HW118920   0.231   2.842   5.562  0.6495  1.2287 -0.1717
 2429SOL    HW218921   0.208   2.957   5.660  1.4946 -0.3179 -0.5077
 2430SOL     OW18922   4.050   1.894   4.016  0.1383 -0.1774  0.0778
 2430SOL    HW118923   4.016   1.920   4.102 -0.6787  1.0314 -0.6175
 2430SOL    HW218924   3.976   1.860   3.967  0.1082 -1.2189  0.8327
 2431SOL     OW18925   3.397   3.016   1.531  0.1045  0.1615  0.2718
 2431SOL    HW118926   3.358   2.935   1.563 -0.0051  0.3806  0.6905
 2431SOL    HW218927   3.400   3.009   1.436  0.5889 -2.0097  0.4521
 2432SOL     OW18928   1.285   3.313   4.721 -0.0582  0.0663 -0.0198
 2432SOL    HW118929   1.216   3.328   4.786 -2.0225 -0.9170 -1.8604
 2432SOL    HW218930   1.326   3.399   4.726 -0.2477  0.3346 -3.0937
 2433SOL     OW18931   0.716   3.073   1.892 -0.1647 -0.0686 -0.5017
 2433SOL    HW118932   0.662   3.134   1.842 -0.7645 -0.1435  0.0495
 2433SOL    HW218933   0.659   2.997   1.895  0.1491 -0.1870  2.2792
 2434SOL     OW18934   4.729   4.370   9.099  0.4220  0.1491  0.6309
 2434SOL    HW118935   0.032   4.303   9.044  0.7608 -0.6286  1.8209
 2434SOL    HW218936   4.636   4.350   9.089  0.5366  0.2863 -0.6132
 2435SOL     OW18937   3.069   1.946   7.329  0.1647 -0.3194 -0.6451
 2435SOL    HW118938   3.060   1.884   7.257  1.8215 -0.6228 -0.6047
 2435SOL    HW218939   2.978   1.974   7.334 -0.1042 -1.3979  0.4144
 2436SOL     OW18940   1.492   1.354  17.436 -0.0672  0.3009 -0.1080
 2436SOL    HW118941   1.497   1.432  17.381  0.9698  0.2944 -0.0156
 2436SOL    HW218942   1.490   1.397  17.522 -0.2901 -0.3832  0.2306
 2437SOL     OW18943   4.180   1.176   9.667 -0.1241 -0.3288 -0.0443
 2437SOL    HW118944   4.118   1.175   9.594 -1.5919  0.0520  1.1760
 2437SOL    HW218945   4.253   1.136   9.621  1.5599  1.1605  1.3350
 2438SOL     OW18946   2.999   4.323   4.216  0.3027 -0.2835 -0.1249
 2438SOL    HW118947   3.023   4.323   4.124 -1.1416 -1.2407 -0.4965
 2438SOL    HW218948   2.959   4.409   4.229  1.9654  0.5364 -0.4532
 2439SOL     OW18949   0.644   0.057   7.777  0.2810  0.1656  0.3428
 2439SOL    HW118950   0.727   0.019   7.806  1.0130  0.6907 -1.0753
 2439SOL    HW218951   0.626   0.002   7.701 -0.5149  0.6631  0.1781
 2440SOL     OW18952   0.141   0.677   4.187  0.2111 -0.0426 -0.3395
 2440SOL    HW118953   0.052   0.643   4.180  0.1455  0.2579 -1.0216
 2440SOL    HW218954   0.130   0.765   4.149  1.4103 -0.4984 -1.7593
 2441SOL     OW18955   2.286   1.908   9.124  0.1207 -0.2139  0.4593
 2441SOL    HW118956   2.234   1.829   9.143  0.4353 -0.7459 -0.8689
 2441SOL    HW218957   2.306   1.899   9.031 -0.7764  0.4176  0.2081
 2442SOL     OW18958   1.274   4.341  10.156 -0.2231  0.5189  0.4072
 2442SOL    HW118959   1.346   4.279  10.153  0.1274  0.9058  0.7125
 2442SOL    HW218960   1.224   4.318  10.078  1.7437 -1.9146 -0.1166
 2443SOL     OW18961   3.726   3.894   1.034  0.3155  0.1534  0.5172
 2443SOL    HW118962   3.815   3.863   1.047  0.1718  0.6270  2.5836
 2443SOL    HW218963   3.740   3.912   0.941 -2.5872 -1.5057 -0.2383
 2444SOL     OW18964   2.136   2.422  11.698  0.0459 -0.8625  0.3402
 2444SOL    HW118965   2.199   2.426  11.771  2.8774  2.6472 -2.2744
 2444SOL    HW218966   2.080   2.498  11.713  0.2503 -0.8129  0.8918
 2445SOL     OW18967   0.436   4.382   8.994  0.3737  0.1180  0.4438
 2445SOL    HW118968   0.502   4.313   9.002 -0.3491 -0.7646 -1.2146
 2445SOL    HW218969   0.399   4.386   9.082  4.8583  2.5230  2.2001
 2446SOL     OW18970   4.352   1.759   7.084  0.0923  0.2167 -0.0893
 2446SOL    HW118971   4.324   1.726   6.999  1.0761  2.6376 -1.3478
 2446SOL    HW218972   4.448   1.757   7.086  0.0595 -0.0080  1.5456
 2447SOL     OW18973   3.210   1.548   2.557 -0.8166  0.3967  0.6764
 2447SOL    HW118974   3.257   1.632   2.560  1.1703 -0.6439 -1.3781
 2447SOL    HW218975   3.124   1.565   2.518 -0.1100  0.0578 -1.0306
 2448SOL     OW18976   1.396   0.354  15.140 -0.0862 -0.8002 -0.1853
 2448SOL    HW118977   1.473   0.325  15.188 -0.6064  0.9293  1.7165
 2448SOL    HW218978   1.422   0.312  15.058 -0.3981 -0.2983 -0.5512
 2449SOL     OW18979   2.091   3.561   2.058  0.3128 -0.4372 -0.8668
 2449SOL    HW118980   2.070   3.550   1.966 -1.5816  1.1312 -0.6166
 2449SOL    HW218981   2.100   3.655   2.077  0.7066 -1.0715  2.0967
 2450SOL     OW18982   4.388   1.316   3.534 -0.2317  0.3128  0.1728
 2450SOL    HW118983   4.431   1.282   3.455 -0.4069  1.5515 -0.4578
 2450SOL    HW218984   4.370   1.231   3.575 -1.1164  1.4927  2.2238
 2451SOL     OW18985   1.911   3.673  13.598 -0.2966  0.2612 -0.1137
 2451SOL    HW118986   1.994   3.698  13.556  0.5653 -0.5771  1.0959
 2451SOL    HW218987   1.924   3.580  13.615 -1.1397 -0.0736 -1.2590
 2452SOL     OW18988   1.757   0.221   7.287 -0.0167  0.1207 -0.4461
 2452SOL    HW118989   1.766   0.306   7.245 -0.3993  1.3878  2.0545
 2452SOL    HW218990   1.689   0.241   7.351 -1.8064 -1.8336 -1.7366
 2453SOL     OW18991   2.515   3.083   2.925  0.2593  0.3977  0.3177
 2453SOL    HW118992   2.569   3.135   2.865 -0.3988 -0.5992 -1.1381
 2453SOL    HW218993   2.545   2.997   2.895 -0.9426  0.7869 -2.0620
 2454SOL     OW18994   4.559   1.345   7.678  0.1453  0.1214 -0.2292
 2454SOL    HW118995   4.556   1.411   7.747  3.6514  0.2925 -0.2594
 2454SOL    HW218996   4.466   1.339   7.655 -0.0618  0.3423  0.5287
 2455SOL     OW18997   3.682   0.139   8.753  0.6115  0.3123 -0.0885
 2455SOL    HW118998   3.767   0.172   8.783 -0.5981  2.5236  0.9663
 2455SOL    HW218999   3.638   0.116   8.834 -0.9502 -1.3414 -1.4074
 2456SOL     OW19000   2.329   3.898   4.893 -0.4275 -0.1202 -0.1128
 2456SOL    HW119001   2.304   3.986   4.922 -1.6270 -0.0937 -1.2085
 2456SOL    HW219002   2.244   3.856   4.909  0.0752 -0.0287  2.6961
 2457SOL     OW19003   3.844   4.302   1.708  0.1212  0.2996  0.0494
 2457SOL    HW119004   3.773   4.238   1.699  0.4383 -0.6021  3.8100
 2457SOL    HW219005   3.804   4.389   1.705 -1.8923 -0.5871  0.7475
 2458SOL     OW19006   1.573   0.506   8.275  0.2525  0.3198 -0.1629
 2458SOL    HW119007   1.639   0.490   8.342 -0.6168 -1.0012  0.3827
 2458SOL    HW219008   1.625   0.509   8.195 -2.5822 -0.9420 -2.0531
 2459SOL     OW19009   4.429   4.278   4.469 -0.2792  0.0340  0.2130
 2459SOL    HW119010   4.486   4.312   4.400 -0.7384  1.2781  0.4473
 2459SOL    HW219011   4.478   4.291   4.551 -0.7883  1.0140  0.3539
 2460SOL     OW19012   3.246   1.108   4.684 -0.2880  0.0449 -0.7897
 2460SOL    HW119013   3.152   1.111   4.666 -0.7759 -1.2169  1.6060
 2460SOL    HW219014   3.249   1.076   4.774 -0.0798 -3.2465 -1.9361
 2461SOL     OW19015   2.033   3.010  10.709 -0.2672 -0.0937  0.2151
 2461SOL    HW119016   2.043   2.982  10.618 -1.8020  0.4765 -0.1317
 2461SOL    HW219017   1.940   2.995  10.728 -0.5698  1.1952 -0.2097
 2462SOL     OW19018   2.637   0.485  15.327 -0.0976 -0.3218  0.5781
 2462SOL    HW119019   2.616   0.495  15.234 -0.7188  1.5633  0.9293
 2462SOL    HW219020   2.695   0.561  15.330 -1.4592  0.7116  0.8013
 2463SOL     OW19021   2.768   1.187   7.636  0.1047  0.1061 -0.0147
 2463SOL    HW119022   2.798   1.144   7.717 -1.0189  1.8886  1.3315
 2463SOL    HW219023   2.840   1.248   7.624 -1.8646  2.2838 -0.6759
 2464SOL     OW19024   0.081   0.338   8.629 -0.3650 -0.2823 -0.0771
 2464SOL    HW119025   0.128   0.360   8.548 -1.8424 -0.0229 -0.8845
 2464SOL    HW219026   0.015   0.284   8.585 -0.8678  1.0844 -1.0105
 2465SOL     OW19027   4.338   1.912   8.297 -0.5940  0.0442  0.0716
 2465SOL    HW119028   4.375   1.999   8.283 -2.8145  1.1345  1.0888
 2465SOL    HW219029   4.391   1.868   8.230 -0.2842  0.9593 -0.2782
 2466SOL     OW19030   2.841   0.106  16.363 -0.3202 -0.2645  0.3779
 2466SOL    HW119031   2.869   0.197  16.355 -2.2767  0.4428  1.5639
 2466SOL    HW219032   2.924   0.066  16.340 -2.0962 -4.0635  0.5537
 2467SOL     OW19033   3.173   4.670   8.321  0.5634 -0.2313  0.4199
 2467SOL    HW119034   3.154   0.025   8.326 -0.1246 -0.4560  1.7815
 2467SOL    HW219035   3.083   4.637   8.317  0.5016  0.1192 -1.3194
 2468SOL     OW19036   3.117   2.547  10.174 -0.5167 -0.4386 -0.2976
 2468SOL    HW119037   3.093   2.456  10.159  0.3468 -0.7462  0.2810
 2468SOL    HW219038   3.028   2.579  10.189  0.0273  0.7692  0.3260
 2469SOL     OW19039   4.569   0.194   8.237  0.2687  0.3588  0.3102
 2469SOL    HW119040   4.582   0.247   8.159  0.4054  1.0933  0.8333
 2469SOL    HW219041   4.653   0.146   8.230 -1.7092 -2.9562 -0.8510
 2470SOL     OW19042   3.718   2.952   2.167 -0.4692 -0.5088 -0.3419
 2470SOL    HW119043   3.717   2.884   2.099  0.2321  0.6300 -1.4875
 2470SOL    HW219044   3.673   2.910   2.240 -1.5161 -1.7661 -1.7160
 2471SOL     OW19045   1.076   4.714   3.793  0.3422 -0.1395 -0.0099
 2471SOL    HW119046   1.158   4.670   3.770  0.7323  0.0019  1.0905
 2471SOL    HW219047   1.004   4.657   3.766 -0.0931  0.3488  0.1104
 2472SOL     OW19048   2.030   3.508   3.477 -0.6707 -0.4009  0.9855
 2472SOL    HW119049   2.125   3.509   3.489 -0.6731 -0.4824  1.0130
 2472SOL    HW219050   2.021   3.588   3.425  0.4324 -0.5733  0.5314
 2473SOL     OW19051   1.337   3.758   5.942 -0.2671 -0.0781  0.0329
 2473SOL    HW119052   1.430   3.742   5.922 -0.3556 -1.4227  0.7054
 2473SOL    HW219053   1.311   3.669   5.920  2.4984 -1.2186  1.3730
 2474SOL     OW19054   4.294   3.867   9.848 -0.1500 -0.7502 -0.2482
 2474SOL    HW119055   4.373   3.916   9.870 -0.0876 -1.4065  0.9912
 2474SOL    HW219056   4.335   3.780   9.846 -1.1427 -1.2091 -0.7405
 2475SOL     OW19057   1.662   0.225   2.447 -0.0629  0.1841 -0.2603
 2475SOL    HW119058   1.737   0.165   2.451 -0.1699  0.1938  2.0059
 2475SOL    HW219059   1.633   0.216   2.357 -0.5997  0.5190 -0.1205
 2476SOL     OW19060   1.950   4.096  16.660 -0.3362  0.1045  0.3491
 2476SOL    HW119061   1.951   4.022  16.720 -1.5768  0.1888  0.4690
 2476SOL    HW219062   2.040   4.128  16.664 -0.3772  0.2850 -0.2153
 2477SOL     OW19063   1.617   3.402   7.936 -0.7026  0.1377 -0.6503
 2477SOL    HW119064   1.700   3.447   7.952 -0.6007 -0.4405  0.5010
 2477SOL    HW219065   1.624   3.411   7.841 -0.0718 -0.5258 -0.6708
 2478SOL     OW19066   2.552   3.014  12.734  0.5677  0.6999  0.7721
 2478SOL    HW119067   2.554   3.101  12.695  1.6934  0.4503  0.2793
 2478SOL    HW219068   2.462   3.016  12.766  0.3458  0.2129  0.1871
 2479SOL     OW19069   3.871   3.573   3.722 -0.3788 -0.8401 -0.2798
 2479SOL    HW119070   3.776   3.558   3.724 -0.5150 -0.3921 -2.8006
 2479SOL    HW219071   3.864   3.657   3.769  0.4920 -0.8153 -0.1942
 2480SOL     OW19072   4.164   0.415   7.266 -0.1403  0.4342 -0.1817
 2480SOL    HW119073   4.166   0.337   7.210  0.5034  1.1876 -1.2133
 2480SOL    HW219074   4.166   0.483   7.198  2.2915  0.2347 -0.2999
 2481SOL     OW19075   0.739   2.737   4.545  0.1165 -0.6928  0.4270
 2481SOL    HW119076   0.722   2.814   4.490 -2.2339 -1.3258  0.2759
 2481SOL    HW219077   0.691   2.763   4.623  1.2591 -2.3045  1.6524
 2482SOL     OW19078   1.323   0.183   4.296  0.3941 -0.0815  0.1804
 2482SOL    HW119079   1.395   0.185   4.359 -1.5400  0.3870  2.3980
 2482SOL    HW219080   1.276   0.101   4.311  0.2925 -0.5512 -2.6673
 2483SOL     OW19081   3.583   2.811  11.615 -0.2509 -0.2357 -0.1429
 2483SOL    HW119082   3.643   2.843  11.682 -0.2189  2.3619 -1.4122
 2483SOL    HW219083   3.632   2.747  11.563 -0.9994  0.8383 -2.1706
 2484SOL     OW19084   1.402   2.267  12.327 -0.1717  0.8761  0.0684
 2484SOL    HW119085   1.485   2.218  12.325 -0.3311  0.5709  0.7259
 2484SOL    HW219086   1.438   2.347  12.290  0.6151 -0.2668 -1.6099
 2485SOL     OW19087   2.262   1.001  12.653  0.5386  0.1727  0.5430
 2485SOL    HW119088   2.172   1.015  12.624  0.6629 -1.3709 -0.6066
 2485SOL    HW219089   2.291   0.969  12.568  0.6653  0.0077  0.6493
 2486SOL     OW19090   3.542   2.430   8.578  0.0757  0.8987  0.1192
 2486SOL    HW119091   3.528   2.373   8.502  1.2551  0.6703  0.0653
 2486SOL    HW219092   3.585   2.377   8.645  0.8387  1.7788  0.3264
 2487SOL     OW19093   3.992   0.424   4.537  0.4098  0.2880  0.4863
 2487SOL    HW119094   3.962   0.381   4.617 -0.9828 -1.5776 -1.0260
 2487SOL    HW219095   3.989   0.517   4.559 -3.0270  0.1859  0.4421
 2488SOL     OW19096   2.688   2.604   0.140 -0.6443 -0.1886 -0.1631
 2488SOL    HW119097   2.622   2.575   0.078  1.1467  0.7171 -2.4852
 2488SOL    HW219098   2.761   2.543   0.124 -0.1381 -0.2015  2.1362
 2489SOL     OW19099   1.121   4.719  14.234  0.4281  0.5923  0.4066
 2489SOL    HW119100   1.170   4.656  14.181 -0.0159 -1.4546  2.4617
 2489SOL    HW219101   1.036   4.724  14.190  0.8739 -0.3012 -0.5666
 2490SOL     OW19102   2.481   1.296   2.555 -0.0052  0.1148  0.1121
 2490SOL    HW119103   2.436   1.286   2.471 -0.2964  1.6648  0.0949
 2490SOL    HW219104   2.414   1.278   2.621 -0.4888 -0.8535 -0.6391
 2491SOL     OW19105   1.985   4.401   2.080  0.4260  0.5665  0.1961
 2491SOL    HW119106   2.001   4.365   2.168 -1.0766  2.1220  1.0971
 2491SOL    HW219107   2.071   4.389   2.040  0.3851  0.3179  0.1788
 2492SOL     OW19108   2.437   0.196   5.586 -0.2623  0.1425 -0.1126
 2492SOL    HW119109   2.439   0.127   5.520 -1.0162  0.3614 -0.3734
 2492SOL    HW219110   2.396   0.143   5.655  1.3119  1.8765  2.1388
 2493SOL     OW19111   3.887   0.224   3.112  0.8124 -0.0710  0.2062
 2493SOL    HW119112   3.890   0.313   3.147  3.5059  0.5852 -1.6740
 2493SOL    HW219113   3.944   0.180   3.175  0.5454 -1.2273 -0.3502
 2494SOL     OW19114   0.420   2.389   9.197 -0.1136  0.1218 -0.0415
 2494SOL    HW119115   0.414   2.303   9.239  0.6588  0.0684 -0.0396
 2494SOL    HW219116   0.457   2.445   9.265 -0.1723 -1.9264  1.6796
 2495SOL     OW19117   3.014   0.619   9.355  0.3015  0.1928  0.0990
 2495SOL    HW119118   2.963   0.599   9.433 -2.3057  0.4058 -1.5432
 2495SOL    HW219119   2.951   0.624   9.283  0.7628 -0.2885 -0.3429
 2496SOL     OW19120   3.139   0.814   7.088  0.1526 -0.4279  0.0939
 2496SOL    HW119121   3.094   0.899   7.087 -0.0134 -0.5520 -2.5750
 2496SOL    HW219122   3.093   0.765   7.156 -0.2538 -0.6282 -0.3307
 2497SOL     OW19123   3.350   2.048   4.790  0.0188 -0.6367 -0.1043
 2497SOL    HW119124   3.374   1.964   4.752 -0.7422 -0.9150  0.0390
 2497SOL    HW219125   3.419   2.059   4.856 -0.6374  0.7575  0.3679
 2498SOL     OW19126   3.196   2.694   8.211 -0.4739  0.3929 -0.3540
 2498SOL    HW119127   3.285   2.710   8.243 -1.0974  2.1611  0.4893
 2498SOL    HW219128   3.150   2.777   8.205  2.1154  1.8959  0.5525
 2499SOL     OW19129   2.841   1.978  11.118  0.4225  0.1806 -0.1409
 2499SOL    HW119130   2.916   1.963  11.175 -0.1717 -2.0081  0.0684
 2499SOL    HW219131   2.847   1.902  11.059 -1.5582 -0.4319  0.4546
 2500SOL     OW19132   2.443   3.426   1.720  0.1650 -0.1643  0.6466
 2500SOL    HW119133   2.384   3.437   1.794  0.3048 -0.8820  0.8598
 2500SOL    HW219134   2.526   3.435   1.766 -0.4466  0.9396  1.5135
 2501SOL     OW19135   3.016   4.246   6.992  0.3057 -0.1020  0.2953
 2501SOL    HW119136   2.924   4.240   6.965  0.1105 -0.1769  0.9775
 2501SOL    HW219137   3.005   4.274   7.083  0.7899  0.0531  0.3016
 2502SOL     OW19138   4.268   0.152   7.875  0.1668  0.6846 -0.2264
 2502SOL    HW119139   4.244   0.166   7.966 -0.4011 -0.8408 -0.1342
 2502SOL    HW219140   4.306   0.064   7.876 -2.1496 -0.3417 -1.5088
 2503SOL     OW19141   0.920   1.015   6.875  0.6373 -0.0457 -0.2185
 2503SOL    HW119142   1.005   0.991   6.913  2.5451  1.4853 -3.4959
 2503SOL    HW219143   0.952   1.096   6.836  1.7473 -0.4176 -0.0797
 2504SOL     OW19144   0.837   3.924   3.620  0.2525 -0.0733  0.0536
 2504SOL    HW119145   0.852   3.890   3.532  1.1797  0.2558  0.0926
 2504SOL    HW219146   0.828   3.844   3.672 -3.5533 -2.0134 -3.5238
 2505SOL     OW19147   0.940   0.342   8.371 -0.0777 -0.5500  0.6096
 2505SOL    HW119148   0.943   0.251   8.401  0.3974 -0.6684  0.1940
 2505SOL    HW219149   1.017   0.336   8.314  0.2025 -1.8691  1.1215
 2506SOL     OW19150   0.422   1.853   2.192  0.1516  0.1331 -0.2464
 2506SOL    HW119151   0.335   1.814   2.201  0.0203  0.2352 -1.0808
 2506SOL    HW219152   0.451   1.844   2.283  2.2989 -0.2643 -0.9765
 2507SOL     OW19153   2.172   0.620   7.588 -0.3852 -0.2581 -0.3352
 2507SOL    HW119154   2.112   0.560   7.632 -2.7409  2.0164 -0.4900
 2507SOL    HW219155   2.118   0.663   7.522  0.1008 -0.3960 -0.8280
 2508SOL     OW19156   3.272   4.551  15.035 -0.2873  0.4195 -0.3833
 2508SOL    HW119157   3.241   4.540  14.945 -1.9770 -1.6084  0.4615
 2508SOL    HW219158   3.332   4.621  15.008  0.6789  1.1126  3.4787
 2509SOL     OW19159   2.028   4.061   1.973  0.1861 -0.2003 -0.1029
 2509SOL    HW119160   2.026   4.146   1.929  2.8647  0.1697  0.4799
 2509SOL    HW219161   1.954   4.016   1.933 -1.7871  2.4580  0.5404
 2510SOL     OW19162   2.966   2.525  11.066  0.3906 -0.7566  0.1246
 2510SOL    HW119163   3.050   2.529  11.020 -1.0743  2.1603 -2.2905
 2510SOL    HW219164   2.907   2.507  10.992  0.8695  2.3154 -1.0178
 2511SOL     OW19165   0.651   0.571   3.866  0.0621 -0.0848 -0.1729
 2511SOL    HW119166   0.580   0.564   3.930  0.4690  1.4163  0.4336
 2511SOL    HW219167   0.696   0.490   3.891  4.2710  2.2812 -0.0573
 2512SOL     OW19168   0.446   0.278   6.388 -0.1685  0.1928 -0.2876
 2512SOL    HW119169   0.530   0.278   6.343 -1.3463 -1.7068 -2.5441
 2512SOL    HW219170   0.473   0.276   6.480  0.6126  0.3239 -0.5183
 2513SOL     OW19171   0.894   4.543   3.714  0.5299 -0.9758  0.2073
 2513SOL    HW119172   0.920   4.452   3.697 -0.2485 -1.2671  0.6047
 2513SOL    HW219173   0.838   4.565   3.640  2.7574 -2.0474 -1.7964
 2514SOL     OW19174   2.131   1.672   9.159  0.1021 -0.4756  0.5154
 2514SOL    HW119175   2.216   1.629   9.162  1.5489  2.3317  0.0800
 2514SOL    HW219176   2.100   1.685   9.248 -1.9736  1.2046 -0.4238
 2515SOL     OW19177   2.343   0.970   2.988  0.0371 -0.3031 -0.3623
 2515SOL    HW119178   2.270   0.911   3.004 -1.3148  0.9363 -1.9806
 2515SOL    HW219179   2.322   1.039   3.052 -0.5905 -2.1018  1.3894
 2516SOL     OW19180   2.118   4.643   5.602  0.2503 -0.1350 -0.1449
 2516SOL    HW119181   2.124   4.564   5.656  1.5785 -0.4494 -0.7453
 2516SOL    HW219182   2.129   4.602   5.516  1.3739  1.9888 -1.0059
 2517SOL     OW19183   0.415   4.059   5.645  0.2065 -0.0429  0.1883
 2517SOL    HW119184   0.511   4.059   5.643  0.1694  0.7886 -1.6006
 2517SOL    HW219185   0.403   4.147   5.678  1.5104  0.1451  0.1566
 2518SOL     OW19186   3.156   0.744   2.622  1.2070  0.3266 -0.3090
 2518SOL    HW119187   3.107   0.739   2.704 -0.3180  0.5439 -1.1984
 2518SOL    HW219188   3.091   0.758   2.553 -1.5381 -3.2015  1.5430
 2519SOL     OW19189   0.302   2.845   8.143 -0.3661  0.5690 -0.3072
 2519SOL    HW119190   0.212   2.816   8.159  0.5197 -2.6106 -1.0686
 2519SOL    HW219191   0.350   2.767   8.172 -1.2531  0.4535  0.8561
 2520SOL     OW19192   2.194   0.913   9.682  0.2453  0.2368 -0.2578
 2520SOL    HW119193   2.255   0.841   9.699 -3.7405 -2.6896  1.6786
 2520SOL    HW219194   2.199   0.925   9.587 -0.5475  1.5337 -0.1337
 2521SOL     OW19195   3.443   0.109   8.606 -0.4455 -0.7559 -0.1831
 2521SOL    HW119196   3.513   0.131   8.667 -1.0067 -1.3040  0.6612
 2521SOL    HW219197   3.445   0.013   8.610  0.1909 -0.7466 -0.3018
 2522SOL     OW19198   0.001   2.494   8.146 -0.0900  0.9999  0.0985
 2522SOL    HW119199   0.064   2.469   8.079  0.2198 -0.1360  0.8323
 2522SOL    HW219200   0.030   2.581   8.175 -0.1370  1.4374 -1.1357
 2523SOL     OW19201   0.536   0.399   2.412  0.0192  0.0058 -0.2425
 2523SOL    HW119202   0.569   0.398   2.502  1.4887 -1.4106 -0.7925
 2523SOL    HW219203   0.569   0.316   2.377  0.7174 -0.0337  0.4920
 2524SOL     OW19204   1.435   2.699  16.494 -0.1678  0.2265 -0.0520
 2524SOL    HW119205   1.372   2.672  16.426  0.0059 -0.2688 -0.0150
 2524SOL    HW219206   1.446   2.621  16.548 -1.9329  0.4129  0.5676
 2525SOL     OW19207   4.730   1.267   7.006 -0.3060  0.2492  0.1554
 2525SOL    HW119208   4.643   1.230   6.993 -0.0994  0.0760 -0.7582
 2525SOL    HW219209   0.034   1.184   7.028 -0.2551  0.8258  2.1881
 2526SOL     OW19210   4.080   3.137   4.057 -0.0855  0.3871  0.2816
 2526SOL    HW119211   4.124   3.176   4.132 -0.3587  0.8868  0.1791
 2526SOL    HW219212   3.993   3.178   4.060 -0.2860 -0.0564  0.5188
 2527SOL     OW19213   2.760   1.761   2.412  0.0565  0.0899 -0.3512
 2527SOL    HW119214   2.692   1.822   2.383  0.5403  0.9809  0.3588
 2527SOL    HW219215   2.719   1.676   2.399  0.3829 -0.5426  2.6165
 2528SOL     OW19216   2.556   1.672   7.345 -0.0558 -0.0668  0.0829
 2528SOL    HW119217   2.586   1.703   7.430  1.7200 -0.5875 -0.3381
 2528SOL    HW219218   2.470   1.643   7.373 -1.3388  1.3625 -2.3960
 2529SOL     OW19219   2.869   1.383   6.485 -0.0684  0.3508  0.0885
 2529SOL    HW119220   2.804   1.453   6.491  1.0861  1.3700  0.8171
 2529SOL    HW219221   2.937   1.435   6.443  1.3736  0.0137  1.9886
 2530SOL     OW19222   1.708   3.391   4.282  0.0924  0.1271  0.7068
 2530SOL    HW119223   1.777   3.421   4.341  1.2238  0.2101 -0.6527
 2530SOL    HW219224   1.728   3.304   4.248  2.3644  0.1600  1.9217
 2531SOL     OW19225   1.584   3.396   5.885 -0.0724  0.6001  0.0558
 2531SOL    HW119226   1.526   3.371   5.812  0.7200  2.4944 -1.2331
 2531SOL    HW219227   1.572   3.324   5.947 -0.4605  0.5854 -0.0342
 2532SOL     OW19228   2.868   3.420   6.712 -0.2353 -0.2287 -0.1465
 2532SOL    HW119229   2.814   3.354   6.668 -0.2791  0.3718 -0.9867
 2532SOL    HW219230   2.912   3.466   6.640  1.1167  1.0945  1.5320
 2533SOL     OW19231   2.282   4.124   5.873  0.7555 -0.1525  0.3936
 2533SOL    HW119232   2.299   4.215   5.899 -2.1527  0.2033  1.1008
 2533SOL    HW219233   2.189   4.119   5.899 -0.0308 -0.3481 -2.4783
 2534SOL     OW19234   4.312   4.580  17.266 -0.5834  0.1374  0.3338
 2534SOL    HW119235   4.393   4.530  17.259  2.1631  4.7967 -1.4577
 2534SOL    HW219236   4.263   4.555  17.344 -0.9341 -0.4809 -0.0856
 2535SOL     OW19237   3.075   1.801  17.148  0.4348  0.0394  0.3426
 2535SOL    HW119238   3.111   1.725  17.102 -0.9895  0.1006 -0.8705
 2535SOL    HW219239   3.126   1.864  17.097 -0.4859  1.7482  1.5384
 2536SOL     OW19240   3.675   2.680   5.293  0.4096 -0.0298  0.0761
 2536SOL    HW119241   3.635   2.713   5.212 -0.7091  1.1573  1.1082
 2536SOL    HW219242   3.769   2.671   5.279  0.4003 -1.2796  0.8385
 2537SOL     OW19243   2.120   0.960   2.424  0.0737 -0.6997  0.4077
 2537SOL    HW119244   2.055   0.906   2.378  0.8537 -1.1354 -0.1712
 2537SOL    HW219245   2.061   1.023   2.465 -0.7602 -0.2380 -1.5088
 2538SOL     OW19246   2.063   4.669  13.116 -0.5033 -1.0831 -0.4563
 2538SOL    HW119247   2.087   4.584  13.079  1.2005 -1.3377  1.2392
 2538SOL    HW219248   2.010   4.633  13.187 -3.0822 -2.9195 -3.3497
 2539SOL     OW19249   4.737   0.587   2.457  0.2120  0.2619  0.5000
 2539SOL    HW119250   0.093   0.571   2.457 -0.2572 -2.5522  0.2410
 2539SOL    HW219251   4.704   0.569   2.369 -1.7506 -0.1065  1.2902
 2540SOL     OW19252   4.523   3.355   6.555  0.2077 -0.3468 -0.0365
 2540SOL    HW119253   4.504   3.416   6.483 -0.0704 -0.5952 -0.1700
 2540SOL    HW219254   4.497   3.415   6.625  2.2037  2.1882 -1.4570
 2541SOL     OW19255   2.373   4.630  13.965  0.1106 -0.4224  0.4597
 2541SOL    HW119256   2.329   4.547  13.977  0.1566 -0.3776  0.9102
 2541SOL    HW219257   2.299   4.691  13.969  0.4204 -0.1129  1.4067
 2542SOL     OW19258   3.818   2.598  12.203  0.8025  0.3018  0.5889
 2542SOL    HW119259   3.776   2.680  12.175  1.0198  0.1475 -0.1947
 2542SOL    HW219260   3.856   2.613  12.290  1.2723  0.8352  0.2894
 2543SOL     OW19261   2.321   3.441  13.280 -0.5575 -0.9545 -0.0357
 2543SOL    HW119262   2.368   3.499  13.340  0.0933 -1.0077 -0.5009
 2543SOL    HW219263   2.256   3.399  13.336  0.6941 -0.6429  1.6184
 2544SOL     OW19264   2.679   3.346  14.342 -0.6743  0.3920  0.6810
 2544SOL    HW119265   2.644   3.339  14.431 -1.2848 -1.2632  0.3092
 2544SOL    HW219266   2.604   3.337  14.284 -0.1454  2.0441 -0.2386
 2545SOL     OW19267   3.127   2.371   4.907  0.1132  0.3353 -0.1676
 2545SOL    HW119268   3.045   2.413   4.932  0.1292 -0.3388  1.0418
 2545SOL    HW219269   3.178   2.452   4.899 -1.6073  1.6684  2.6081
 2546SOL     OW19270   0.528   1.557   9.390  0.3896  0.3164 -0.2347
 2546SOL    HW119271   0.596   1.560   9.457  0.6622 -2.5136 -0.3516
 2546SOL    HW219272   0.571   1.614   9.326 -1.6968  2.9618  0.7264
 2547SOL     OW19273   4.648   3.531  11.229 -0.1608  0.1956 -0.1303
 2547SOL    HW119274   4.633   3.447  11.186  0.6745 -1.8627  3.6089
 2547SOL    HW219275   0.005   3.523  11.235  0.2074  2.6760 -2.5744
 2548SOL     OW19276   3.097   2.432  16.775  0.2806 -0.0745  0.2130
 2548SOL    HW119277   3.132   2.383  16.701  1.2307  0.0902  0.5508
 2548SOL    HW219278   3.164   2.499  16.787 -1.5867  1.6765  0.8571
 2549SOL     OW19279   3.490   0.375   8.243 -0.3967  0.3250  0.0756
 2549SOL    HW119280   3.496   0.467   8.272  1.3094  0.2955 -0.1862
 2549SOL    HW219281   3.544   0.325   8.303  1.5329  1.4364 -0.7260
 2550SOL     OW19282   3.917   0.375   6.740  0.1509  0.6120 -0.4501
 2550SOL    HW119283   3.943   0.451   6.687  0.1408 -0.9293 -2.6384
 2550SOL    HW219284   4.005   0.356   6.772 -0.5670 -1.0589  0.5225
 2551SOL     OW19285   3.606   4.703   4.466 -0.4230 -0.1559  0.0282
 2551SOL    HW119286   3.532   4.650   4.494  0.1569 -0.2457  1.3871
 2551SOL    HW219287   3.581   0.047   4.508 -0.9554  0.4383 -1.4470
 2552SOL     OW19288   1.078   2.198   4.633 -0.0785 -0.0163 -0.1158
 2552SOL    HW119289   1.147   2.209   4.699  0.2678  3.9942 -1.1879
 2552SOL    HW219290   1.097   2.277   4.584  0.1292  1.5726  2.5307
 2553SOL     OW19291   0.560   0.122   4.030 -0.1285 -0.2665  0.3607
 2553SOL    HW119292   0.513   0.105   3.949 -1.9924 -1.0562  1.6190
 2553SOL    HW219293   0.647   0.101   3.996 -0.7947 -0.8047 -0.9866
 2554SOL     OW19294   3.700   1.864   3.200 -0.4548  0.2690  0.1257
 2554SOL    HW119295   3.713   1.770   3.188  2.4127  0.3323  2.4865
 2554SOL    HW219296   3.791   1.891   3.186  0.2677 -1.5603  1.2778
 2555SOL     OW19297   4.621   4.378  12.957  0.2004 -0.4090 -0.1460
 2555SOL    HW119298   4.675   4.315  13.005  1.4647  0.2920 -0.6217
 2555SOL    HW219299   4.568   4.327  12.896  0.0716 -1.9286  1.2466
 2556SOL     OW19300   3.564   0.242   8.031 -0.1336 -0.2387  0.1570
 2556SOL    HW119301   3.658   0.253   8.047  0.1871  0.2441 -2.1025
 2556SOL    HW219302   3.522   0.281   8.107 -0.6384 -1.1899  0.3633
 2557SOL     OW19303   4.000   0.247   7.557 -0.7051  0.0429 -0.7846
 2557SOL    HW119304   3.952   0.172   7.591  1.2696 -1.2310 -0.8170
 2557SOL    HW219305   3.929   0.307   7.532 -2.2948 -1.4389  0.2387
 2558SOL     OW19306   0.485   2.045   2.581 -0.4021  0.1036  0.3029
 2558SOL    HW119307   0.482   1.961   2.536  0.6911  1.4259 -2.2025
 2558SOL    HW219308   0.469   2.107   2.510  0.7918 -2.8674 -2.5395
 2559SOL     OW19309   4.142   0.730  10.931 -0.7173  0.0973 -0.1887
 2559SOL    HW119310   4.129   0.660  10.867  0.3974  0.3155 -0.6557
 2559SOL    HW219311   4.120   0.812  10.886  0.5695  1.2670  1.3166
 2560SOL     OW19312   2.496   0.885   9.489 -0.2684 -0.1190 -0.4222
 2560SOL    HW119313   2.476   0.819   9.556  1.3095 -3.2740 -3.0661
 2560SOL    HW219314   2.552   0.823   9.444  0.2897  0.8966 -1.1055
 2561SOL     OW19315   3.447   3.898   5.923  0.3338  0.5086 -0.1170
 2561SOL    HW119316   3.376   3.913   5.862 -0.2526  1.0220  0.6991
 2561SOL    HW219317   3.532   3.910   5.880 -0.5785 -0.5446 -2.2185
 2562SOL     OW19318   2.057   2.971   9.584 -0.0043 -0.1998  0.6651
 2562SOL    HW119319   2.089   3.045   9.534 -1.7406  0.8728  1.1085
 2562SOL    HW219320   2.137   2.930   9.617 -1.0090 -2.1817  0.6640
 2563SOL     OW19321   0.858   0.683   1.129  0.0600  0.1758 -0.0262
 2563SOL    HW119322   0.782   0.739   1.113 -1.2950 -1.6095  0.2624
 2563SOL    HW219323   0.887   0.664   1.039  1.2968 -0.9184  0.6114
 2564SOL     OW19324   2.069   3.358   5.642  0.3132 -0.1373 -0.3985
 2564SOL    HW119325   2.046   3.275   5.684  0.4740  0.5758  1.1139
 2564SOL    HW219326   1.979   3.392   5.633 -0.0943 -0.7993  1.1501
 2565SOL     OW19327   2.698   3.924   8.689  0.4623 -0.4659  0.4471
 2565SOL    HW119328   2.665   3.844   8.649 -1.0882  1.2683 -1.7149
 2565SOL    HW219329   2.709   3.904   8.782  2.8741  4.5721  1.2587
 2566SOL     OW19330   2.121   1.673   4.937 -0.2921 -0.2597  0.5765
 2566SOL    HW119331   2.028   1.692   4.930 -0.4321 -2.4168 -3.6455
 2566SOL    HW219332   2.159   1.739   4.994  0.6509 -1.1659  1.0158
 2567SOL     OW19333   3.594   3.011   8.044  0.2821 -0.2920  0.2617
 2567SOL    HW119334   3.574   3.045   8.131  4.5851  1.2346  0.6437
 2567SOL    HW219335   3.601   3.090   7.990 -2.4882 -1.3916 -1.7222
 2568SOL     OW19336   4.623   1.946   5.740 -1.3062  0.0377  0.0213
 2568SOL    HW119337   4.674   2.024   5.762  2.0218 -1.8944 -0.7641
 2568SOL    HW219338   4.692   1.880   5.744  0.4053  1.9239  1.5111
 2569SOL     OW19339   2.301   0.104   3.729  0.0209  0.6845 -0.4543
 2569SOL    HW119340   2.326   0.106   3.637 -1.2983 -0.1255 -0.8290
 2569SOL    HW219341   2.276   0.015   3.752 -0.6525  1.0901  0.3926
 2570SOL     OW19342   1.077   4.118  14.454 -0.0642 -0.0203  0.5550
 2570SOL    HW119343   1.077   4.040  14.508 -2.9806 -0.0882  0.4699
 2570SOL    HW219344   1.012   4.091  14.389  1.5525 -2.7681  0.0891
 2571SOL     OW19345   4.113   1.150   7.269  0.2341 -0.3741  0.1090
 2571SOL    HW119346   4.076   1.142   7.358 -2.5085 -1.1089 -1.0905
 2571SOL    HW219347   4.035   1.119   7.223  0.3905  1.2769 -1.2354
 2572SOL     OW19348   0.518   2.540   6.208 -0.1408  0.5228  0.0908
 2572SOL    HW119349   0.524   2.626   6.166 -0.0737 -0.5692 -2.1645
 2572SOL    HW219350   0.487   2.567   6.294  1.3394 -0.9417  1.0694
 2573SOL     OW19351   2.386   3.761   6.341  0.6482 -0.3515 -0.4407
 2573SOL    HW119352   2.340   3.743   6.259  0.4117 -1.3620 -0.0977
 2573SOL    HW219353   2.390   3.672   6.376  0.0453 -1.0218 -2.0696
 2574SOL     OW19354   0.752   4.638   9.343  0.2355 -0.1246 -0.6214
 2574SOL    HW119355   0.707   4.577   9.401  1.6944  0.8006  1.4521
 2574SOL    HW219356   0.691   4.712   9.343 -0.7409 -0.9228  0.8051
 2575SOL     OW19357   3.293   0.864   5.715  0.3378  0.0055  0.4155
 2575SOL    HW119358   3.352   0.879   5.642 -2.6700 -1.5772 -2.3473
 2575SOL    HW219359   3.220   0.926   5.708 -1.2551 -1.8287  0.7945
 2576SOL     OW19360   0.067   2.444   7.381  0.6005 -0.5279  0.2282
 2576SOL    HW119361   0.077   2.472   7.472  0.8239  1.9473 -0.5545
 2576SOL    HW219362   0.109   2.522   7.345 -1.7836 -0.2009 -1.8402
 2577SOL     OW19363   4.014   0.289   3.686  0.1131 -0.2308  0.1853
 2577SOL    HW119364   3.923   0.277   3.713  0.3647  1.4390  1.7844
 2577SOL    HW219365   4.033   0.197   3.669 -4.0733 -1.3267  1.2435
 2578SOL     OW19366   1.156   0.769   1.024  0.2852  0.1813 -0.1912
 2578SOL    HW119367   1.088   0.829   1.055 -0.8536  0.1530 -2.6063
 2578SOL    HW219368   1.100   0.701   0.985  1.0655 -0.4771 -0.1608
 2579SOL     OW19369   2.252   4.551   9.274  0.7788  0.3963  0.2887
 2579SOL    HW119370   2.261   4.492   9.349 -1.0736  1.9172  1.7125
 2579SOL    HW219371   2.261   4.487   9.203  0.6231  0.1463  0.4926
 2580SOL     OW19372   4.467   0.472   0.559 -0.2001  0.7505 -0.1384
 2580SOL    HW119373   4.429   0.483   0.472  0.3670 -1.1144 -0.6392
 2580SOL    HW219374   4.414   0.536   0.604  0.8257  1.0449  0.6491
 2581SOL     OW19375   3.843   1.177   8.222  0.2991 -0.0708 -0.4812
 2581SOL    HW119376   3.909   1.142   8.161  0.1063 -0.2676 -0.5745
 2581SOL    HW219377   3.768   1.186   8.163  0.7061  1.4386 -0.7747
 2582SOL     OW19378   1.654   4.037   2.968  0.1019 -0.3825 -0.1454
 2582SOL    HW119379   1.737   3.989   2.965 -0.2561 -0.9339 -1.3480
 2582SOL    HW219380   1.693   4.124   2.969  0.3186 -0.4933  0.4990
 2583SOL     OW19381   2.255   4.049   6.691 -0.3322 -0.0966 -0.6436
 2583SOL    HW119382   2.196   3.973   6.699  3.2467 -2.6978  1.0073
 2583SOL    HW219383   2.310   4.006   6.625  0.8578  1.3328 -0.5802
 2584SOL     OW19384   1.715   3.305   3.337 -0.1479  0.3626  0.4981
 2584SOL    HW119385   1.799   3.264   3.316  0.9482  1.7182  2.2675
 2584SOL    HW219386   1.702   3.278   3.428 -0.3947 -0.7287  0.1421
 2585SOL     OW19387   4.352   3.994  15.290  0.8249  0.0781 -0.7719
 2585SOL    HW119388   4.423   4.034  15.240  0.9825  0.6178 -0.1191
 2585SOL    HW219389   4.280   4.008  15.228  0.7694  0.8238 -0.5361
 2586SOL     OW19390   2.824   0.887   1.519 -0.6337  0.0563 -0.1154
 2586SOL    HW119391   2.791   0.809   1.474 -2.4884  0.5674  0.3451
 2586SOL    HW219392   2.842   0.947   1.447  3.4865  2.0171  2.5621
 2587SOL     OW19393   4.519   3.601  16.647 -0.2454  0.2835 -1.1236
 2587SOL    HW119394   4.605   3.638  16.629 -0.2931  1.0458  0.2450
 2587SOL    HW219395   4.489   3.646  16.726 -0.8939 -2.0685 -0.0238
 2588SOL     OW19396   1.523   2.991   1.771 -0.0866  0.1774  0.1520
 2588SOL    HW119397   1.453   2.927   1.759  0.3145 -0.0079 -1.2308
 2588SOL    HW219398   1.487   3.073   1.735 -0.8158  0.7588  2.2036
 2589SOL     OW19399   1.849   0.950   8.682 -0.5729  0.1261  0.2276
 2589SOL    HW119400   1.774   0.941   8.741 -1.1876  1.4848 -0.3661
 2589SOL    HW219401   1.866   0.859   8.657  0.6913 -0.2302  2.3856
 2590SOL     OW19402   0.760   0.128   9.710 -0.3720  0.5646 -0.4309
 2590SOL    HW119403   0.778   0.034   9.704 -1.8685  0.3336 -1.1877
 2590SOL    HW219404   0.844   0.169   9.687 -0.0462  0.4754  0.6022
 2591SOL     OW19405   3.568   2.770   5.072 -0.0129  0.0260 -0.4354
 2591SOL    HW119406   3.554   2.699   5.010 -0.5216 -2.4510  2.5261
 2591SOL    HW219407   3.504   2.835   5.043  1.0786  1.0162 -0.6340
 2592SOL     OW19408   3.605   2.792   6.373  0.0358  0.1137 -0.2450
 2592SOL    HW119409   3.542   2.836   6.431  0.6844 -0.2623  0.7352
 2592SOL    HW219410   3.631   2.867   6.319 -1.5256  2.7438  2.6863
 2593SOL     OW19411   1.662   2.836   6.047  0.0218 -0.2396  0.0695
 2593SOL    HW119412   1.607   2.779   5.993 -0.5088  0.4262 -0.0859
 2593SOL    HW219413   1.632   2.810   6.134 -0.0055  0.9468  0.4032
 2594SOL     OW19414   3.015   2.095   2.755 -0.0050 -0.0000 -0.0743
 2594SOL    HW119415   3.023   2.144   2.837 -0.0804  1.6908 -1.0879
 2594SOL    HW219416   2.928   2.057   2.761 -0.2108  0.1861 -1.9041
 2595SOL     OW19417   2.097   1.677   9.769  0.2955 -0.3318 -0.6768
 2595SOL    HW119418   2.016   1.699   9.817 -0.2488  0.6818 -2.0579
 2595SOL    HW219419   2.089   1.584   9.748 -0.1515 -1.0362  2.5310
 2596SOL     OW19420   0.798   4.683  12.683 -0.2958 -0.6520 -0.3728
 2596SOL    HW119421   0.841   0.030  12.684 -1.8176  0.0782  2.4511
 2596SOL    HW219422   0.719   4.715  12.640 -0.7670 -0.2309  0.8053
 2597SOL     OW19423   1.349   0.094  15.877 -0.0090  0.0703 -0.3985
 2597SOL    HW119424   1.415   0.090  15.946  1.5958  3.7772 -1.7116
 2597SOL    HW219425   1.367   0.022  15.817  2.7547 -0.0236  0.5463
 2598SOL     OW19426   3.393   3.830   3.139  0.3696 -0.1996  0.0986
 2598SOL    HW119427   3.426   3.896   3.199 -0.2488 -0.0294  0.2529
 2598SOL    HW219428   3.442   3.754   3.170  0.6716  0.1830  0.5592
 2599SOL     OW19429   3.474   1.070   3.326 -0.8265  0.5103  0.4933
 2599SOL    HW119430   3.502   1.157   3.295  1.2241 -0.3951 -0.2357
 2599SOL    HW219431   3.435   1.033   3.247 -1.0812  1.8017  0.0150
 2600SOL     OW19432   4.387   1.019  11.242  0.1073  0.0005 -0.4151
 2600SOL    HW119433   4.405   0.951  11.177 -3.0742  0.5466 -1.8459
 2600SOL    HW219434   4.337   1.076  11.184 -0.9191 -1.3120 -0.8134
 2601SOL     OW19435   4.533   1.958   2.939  0.0959  0.1170  0.2959
 2601SOL    HW119436   4.538   1.876   2.988  1.7060 -1.4021 -2.3958
 2601SOL    HW219437   4.451   1.945   2.890 -0.0803  2.1551  0.0411
 2602SOL     OW19438   0.201   3.475   8.707  0.2304 -0.0448  0.1337
 2602SOL    HW119439   0.116   3.491   8.666  0.1870  0.4066  0.3987
 2602SOL    HW219440   0.172   3.428   8.786  0.3542  0.1311  0.2816
 2603SOL     OW19441   4.544   0.313  12.641 -0.2323 -0.2719 -0.3532
 2603SOL    HW119442   4.611   0.267  12.589  2.2857  2.0852  0.8178
 2603SOL    HW219443   4.571   0.268  12.721 -0.7729 -0.1027 -0.0842
 2604SOL     OW19444   1.423   3.717   4.294  0.3477 -0.2924  0.1489
 2604SOL    HW119445   1.349   3.657   4.307  1.3815 -0.9837  2.7762
 2604SOL    HW219446   1.442   3.737   4.385  0.9623  2.2167 -0.5210
 2605SOL     OW19447   3.194   1.405  13.973  0.3231  0.1385  0.4608
 2605SOL    HW119448   3.275   1.391  14.022 -0.2383 -1.2794  0.9732
 2605SOL    HW219449   3.130   1.384  14.041  0.3641 -1.2285  0.0662
 2606SOL     OW19450   3.905   4.401   3.492  0.1675  1.2330 -0.0288
 2606SOL    HW119451   3.868   4.354   3.418  1.9875  0.9910 -0.7914
 2606SOL    HW219452   3.920   4.488   3.453  1.3033  1.1106  0.1463
 2607SOL     OW19453   3.223   1.311   3.963 -0.3119 -0.1820  0.2940
 2607SOL    HW119454   3.129   1.304   3.979 -0.5609  1.1310 -0.6055
 2607SOL    HW219455   3.239   1.236   3.906 -3.0168 -0.4721 -0.0789
 2608SOL     OW19456   3.141   1.057  14.591  0.1302  0.5117  0.4675
 2608SOL    HW119457   3.185   1.031  14.510 -0.0741 -0.9003  0.8125
 2608SOL    HW219458   3.061   1.009  14.569  0.3564  1.8798 -3.3294
 2609SOL     OW19459   0.178   0.172   3.208  0.1453 -0.5125 -0.3945
 2609SOL    HW119460   0.082   0.173   3.210  0.1207 -0.6635 -1.3547
 2609SOL    HW219461   0.186   0.249   3.151  3.8210 -1.6411 -1.4094
 2610SOL     OW19462   0.003   0.359   6.827 -0.5123 -0.1572  0.5189
 2610SOL    HW119463   4.702   0.312   6.753  0.4188  0.7407 -0.5587
 2610SOL    HW219464   4.703   0.447   6.832  0.0058  0.1411 -0.6400
 2611SOL     OW19465   3.721   4.084  13.070 -0.1455  0.0347 -0.3055
 2611SOL    HW119466   3.712   4.023  12.997  0.2184 -0.2039 -0.1505
 2611SOL    HW219467   3.759   4.159  13.025  0.2130  0.7271  1.1704
 2612SOL     OW19468   4.624   0.847   6.330 -0.0643  0.4796  0.1925
 2612SOL    HW119469   4.529   0.858   6.323 -0.0657 -0.7163 -1.4872
 2612SOL    HW219470   4.657   0.936   6.319 -0.1510  0.6246  1.0790
 2613SOL     OW19471   1.712   4.719   8.970 -0.0362  0.1199 -0.2252
 2613SOL    HW119472   1.786   4.703   9.028 -0.1032  1.2191  0.1571
 2613SOL    HW219473   1.680   4.629   8.961 -1.4008  0.5231  0.5380
 2614SOL     OW19474   0.703   1.862  17.143 -0.1462  0.1946 -0.3508
 2614SOL    HW119475   0.697   1.776  17.101 -1.7772  0.0957  0.0744
 2614SOL    HW219476   0.744   1.912  17.073 -1.2073  1.7126  0.1066
 2615SOL     OW19477   3.316   3.345   7.849 -0.1309 -0.1137  0.3927
 2615SOL    HW119478   3.239   3.396   7.874  1.0240  1.4177  0.8260
 2615SOL    HW219479   3.350   3.397   7.776  1.8703 -0.0945  1.3533
 2616SOL     OW19480   3.578   3.222  17.531 -0.6334  0.1699 -0.5144
 2616SOL    HW119481   3.593   3.299  17.476  1.2833  0.2164  0.0756
 2616SOL    HW219482   3.489   3.191  17.512 -1.1337  1.4046 -0.2046
 2617SOL     OW19483   3.408   2.835   1.030  0.0376  0.1405  0.0301
 2617SOL    HW119484   3.398   2.925   1.000  1.8280  0.6981  1.1462
 2617SOL    HW219485   3.317   2.829   1.060 -0.0866  3.4053  0.2808
 2618SOL     OW19486   0.657   1.733  17.516  0.2322  0.7697  0.2931
 2618SOL    HW119487   0.598   1.659  17.511 -2.6260  2.9775  1.4960
 2618SOL    HW219488   0.622   1.779  17.440 -0.7362 -1.4716 -0.6136
 2619SOL     OW19489   4.313   3.973   7.442  0.0823  0.0737  0.1592
 2619SOL    HW119490   4.353   4.008   7.521 -0.9326 -0.1186  0.7488
 2619SOL    HW219491   4.245   4.037   7.424  1.4987  1.0752 -1.6887
 2620SOL     OW19492   1.926   3.117   2.660 -0.6339  0.0122 -0.1335
 2620SOL    HW119493   1.885   3.149   2.740  0.2204 -0.8264  0.6436
 2620SOL    HW219494   1.900   3.025   2.659 -0.6258  0.0215 -2.2660
 2621SOL     OW19495   3.555   4.447   6.149  0.1336 -0.2892 -0.2064
 2621SOL    HW119496   3.473   4.421   6.192 -0.0207  0.5517  0.0003
 2621SOL    HW219497   3.584   4.518   6.207  0.8644  1.2048 -2.3976
 2622SOL     OW19498   1.271   3.685   9.086  0.4019 -0.6753  0.2673
 2622SOL    HW119499   1.245   3.622   9.154  1.2455 -0.1123  1.1109
 2622SOL    HW219500   1.232   3.770   9.108 -0.3914 -1.5177  2.1821
 2623SOL     OW19501   0.251   0.992  16.543  0.0389 -0.4636 -0.0484
 2623SOL    HW119502   0.198   1.034  16.611 -0.4733 -0.6634 -0.3220
 2623SOL    HW219503   0.314   0.945  16.597 -0.9095 -1.5804  0.1063
 2624SOL     OW19504   0.630   1.037  15.728 -0.3223 -0.2254  0.3993
 2624SOL    HW119505   0.597   1.006  15.812 -0.5973 -1.9870 -0.3674
 2624SOL    HW219506   0.681   0.959  15.709 -0.8455 -0.4306 -0.1314
 2625SOL     OW19507   1.183   3.154  11.511  0.8014 -0.5522  0.0698
 2625SOL    HW119508   1.150   3.238  11.544 -1.1586 -0.8448 -1.1306
 2625SOL    HW219509   1.107   3.116  11.467  0.2242  3.4135 -2.2801
 2626SOL     OW19510   0.182   3.484  11.241 -0.0580 -0.1815  0.0113
 2626SOL    HW119511   0.258   3.536  11.267 -0.4819  0.6995 -0.5306
 2626SOL    HW219512   0.223   3.414  11.190  1.5300  0.5670  0.2430
 2627SOL     OW19513   0.131   0.019   5.636 -0.1380 -0.4002 -0.3367
 2627SOL    HW119514   0.154   0.047   5.547 -1.9257 -3.3672 -1.7425
 2627SOL    HW219515   0.039   4.734   5.624 -0.1565  0.9284 -2.7205
 2628SOL     OW19516   2.021   4.260   1.165  0.2290 -0.0061  0.2774
 2628SOL    HW119517   2.062   4.174   1.157 -0.7052 -0.1457 -2.7495
 2628SOL    HW219518   1.995   4.262   1.258 -2.4973  2.1174 -0.5264
 2629SOL     OW19519   2.476   4.698  10.633 -0.2265  0.2204  0.6533
 2629SOL    HW119520   2.530   4.641  10.688 -2.3623 -1.0605  1.3943
 2629SOL    HW219521   2.483   0.046  10.674  1.1901  0.0129  0.8439
 2630SOL     OW19522   3.126   4.329  14.454 -0.0077  0.1247 -0.4226
 2630SOL    HW119523   3.067   4.309  14.381  1.4133  0.1196 -1.5634
 2630SOL    HW219524   3.062   4.352  14.521  0.0932 -1.1863  0.1236
 2631SOL     OW19525   3.404   2.930  11.910 -0.1117  0.2979 -0.3409
 2631SOL    HW119526   3.329   2.926  11.850  1.0208  2.5253 -1.8780
 2631SOL    HW219527   3.372   2.967  11.992  1.0705  0.0397  0.2279
 2632SOL     OW19528   1.157   1.872   5.309  0.0772  0.0423 -0.0156
 2632SOL    HW119529   1.199   1.791   5.339 -0.8933  0.3827  2.2996
 2632SOL    HW219530   1.072   1.827   5.306 -0.2212  0.5681  0.4707
 2633SOL     OW19531   3.398   0.685   1.771  0.2149 -0.1508  0.0362
 2633SOL    HW119532   3.426   0.595   1.783 -0.0552 -0.3624 -0.9934
 2633SOL    HW219533   3.458   0.713   1.702 -3.4367  0.2705 -2.9768
 2634SOL     OW19534   0.713   0.592   8.991  0.1111  0.0289 -0.3926
 2634SOL    HW119535   0.729   0.580   8.898 -3.0100 -0.3210 -0.8966
 2634SOL    HW219536   0.702   0.687   8.987  0.8211 -0.0143 -3.4184
 2635SOL     OW19537   3.497   3.384   1.140  0.0157 -0.5850 -0.1739
 2635SOL    HW119538   3.506   3.461   1.085  0.2656 -0.7721 -0.3922
 2635SOL    HW219539   3.410   3.353   1.114 -1.5567  0.3713  3.8933
 2636SOL     OW19540   1.224   0.999  16.970  0.2773  0.3914  0.5665
 2636SOL    HW119541   1.294   1.000  16.904  0.9550  0.0732  1.2710
 2636SOL    HW219542   1.176   1.068  16.925  1.0514 -0.0265 -0.9149
 2637SOL     OW19543   3.165   4.735   3.564 -0.7023  0.0299  0.0937
 2637SOL    HW119544   3.232   0.036   3.509 -0.7529 -0.9582 -0.6792
 2637SOL    HW219545   3.184   0.028   3.652  1.7679 -2.3816  0.4198
 2638SOL     OW19546   0.619   4.357   8.529 -0.5604 -0.2604  0.3559
 2638SOL    HW119547   0.596   4.448   8.508 -0.7757 -0.4490 -0.2251
 2638SOL    HW219548   0.713   4.364   8.547 -0.5243  1.6548 -0.5790
 2639SOL     OW19549   2.448   0.508  16.570 -0.1099  0.3020 -0.5829
 2639SOL    HW119550   2.404   0.592  16.579 -2.1858 -0.7667 -0.7564
 2639SOL    HW219551   2.378   0.450  16.538 -1.2579  0.5283  1.5139
 2640SOL     OW19552   1.255   0.473   0.869 -0.4630  0.6222  0.6925
 2640SOL    HW119553   1.191   0.455   0.800 -0.8112  0.4310  1.0607
 2640SOL    HW219554   1.212   0.421   0.937  1.8261 -1.6915  0.3519
 2641SOL     OW19555   0.548   3.037   6.086  0.6001 -0.1852 -0.3192
 2641SOL    HW119556   0.530   3.059   6.177 -0.7923  2.2173 -1.1721
 2641SOL    HW219557   0.576   3.119   6.045 -1.0037  0.3671 -0.2890
 2642SOL     OW19558   1.007   3.673  13.017 -0.6717  0.0005 -0.2327
 2642SOL    HW119559   0.940   3.678  13.084  0.5633 -1.9360  1.1510
 2642SOL    HW219560   0.954   3.660  12.938  1.1212  0.7255 -1.5571
 2643SOL     OW19561   4.058   1.432   8.611  0.4499 -0.4520 -0.0457
 2643SOL    HW119562   3.993   1.375   8.570 -0.4006  0.4093  0.1088
 2643SOL    HW219563   4.072   1.402   8.700  1.2528  0.6337  0.1989
 2644SOL     OW19564   3.087   3.069   3.597 -0.0794  0.0021  0.2337
 2644SOL    HW119565   3.114   3.126   3.669 -2.4063  0.3522  0.8076
 2644SOL    HW219566   3.156   3.002   3.603 -0.3412 -0.3445 -0.5577
 2645SOL     OW19567   3.105   1.127   4.175  0.0932  0.3700 -0.7751
 2645SOL    HW119568   3.020   1.146   4.134 -0.2587 -0.5663 -0.4776
 2645SOL    HW219569   3.159   1.145   4.098  0.8877  1.7521  0.0929
 2646SOL     OW19570   0.888   0.613   3.338 -0.1810  0.2088  0.4187
 2646SOL    HW119571   0.814   0.673   3.348 -0.8913 -0.3488 -1.4393
 2646SOL    HW219572   0.938   0.661   3.272  1.6613  0.6340  2.1585
 2647SOL     OW19573   0.001   4.394   2.975 -0.0033  0.6934  0.7544
 2647SOL    HW119574   0.020   4.301   2.985 -2.0395  0.3758  1.6620
 2647SOL    HW219575   0.019   4.435   3.060  1.1307 -1.7467  1.6813
 2648SOL     OW19576   3.327   3.507   9.954  0.0164 -0.1234 -0.0681
 2648SOL    HW119577   3.294   3.466  10.034  3.0846 -0.7851  0.8319
 2648SOL    HW219578   3.359   3.432   9.904  0.1343  1.0182 -1.7128
 2649SOL     OW19579   4.344   2.822   7.162  0.8112 -0.2525 -0.6520
 2649SOL    HW119580   4.393   2.743   7.185  0.2210  0.0591  1.6275
 2649SOL    HW219581   4.259   2.810   7.204  1.1586  0.3355  0.2327
 2650SOL     OW19582   2.442   4.221  17.130 -0.0786  0.2818 -0.1478
 2650SOL    HW119583   2.410   4.136  17.161  0.1667 -0.1731 -1.1139
 2650SOL    HW219584   2.389   4.246  17.054 -1.4857 -0.3861  0.6227
 2651SOL     OW19585   0.271   4.497   6.980  0.4253 -0.0907  0.3169
 2651SOL    HW119586   0.353   4.482   6.932  0.6578  1.6430  0.1712
 2651SOL    HW219587   0.207   4.480   6.911  2.3250 -1.3292 -1.1596
 2652SOL     OW19588   4.708   4.087   3.224  0.0269  0.0492  0.1241
 2652SOL    HW119589   4.618   4.112   3.200 -0.5599 -1.5240  0.6739
 2652SOL    HW219590   4.704   3.994   3.242  0.6169  0.2105  1.0654
 2653SOL     OW19591   1.183   4.041  11.975  0.5882  0.0887 -0.3282
 2653SOL    HW119592   1.134   3.992  12.040 -1.0979  3.5427  1.0486
 2653SOL    HW219593   1.136   4.053  11.893 -0.3844  1.3803  0.4068
 2654SOL     OW19594   4.020   0.013  10.531  0.2925  0.6072  0.0289
 2654SOL    HW119595   4.022   0.101  10.495 -0.1241  0.9712  0.9061
 2654SOL    HW219596   4.061   0.031  10.615  1.6504  0.0703 -0.5253
 2655SOL     OW19597   3.099   2.825  10.967 -0.5740  0.2664 -0.6797
 2655SOL    HW119598   3.160   2.888  11.005  0.0885 -0.9513  0.2720
 2655SOL    HW219599   3.128   2.744  11.008  0.1266  0.7996 -0.1140
 2656SOL     OW19600   0.634   0.255  10.358 -0.1156  0.0135 -0.1619
 2656SOL    HW119601   0.667   0.249  10.268 -0.8912  1.3590 -0.5302
 2656SOL    HW219602   0.540   0.242  10.348 -0.0146 -0.7082 -0.1979
 2657SOL     OW19603   0.438   2.418  13.562 -0.5842  0.4133 -0.3493
 2657SOL    HW119604   0.520   2.409  13.514 -0.5141 -0.9320  0.0128
 2657SOL    HW219605   0.413   2.326  13.577 -1.1063  0.5813 -0.2020
 2658SOL     OW19606   0.740   1.466   7.213 -0.1763  0.0041  0.4417
 2658SOL    HW119607   0.723   1.490   7.304  0.0587  2.2022 -0.0859
 2658SOL    HW219608   0.650   1.439   7.194  0.4071  0.4129 -2.8710
 2659SOL     OW19609   4.451   3.998   7.850 -0.3437 -0.6631 -0.2648
 2659SOL    HW119610   4.527   3.959   7.806  0.7920  1.2543  0.0205
 2659SOL    HW219611   4.430   4.068   7.787  1.0143 -1.0952 -1.1979
 2660SOL     OW19612   2.199   1.404  16.640 -0.5069 -0.1559  0.1502
 2660SOL    HW119613   2.231   1.370  16.723  0.5759 -1.2619 -0.7090
 2660SOL    HW219614   2.277   1.432  16.592  0.1839  1.3075  2.1192
 2661SOL     OW19615   0.877   2.444   8.817 -0.0103  0.3058 -0.0431
 2661SOL    HW119616   0.966   2.432   8.849  0.4121 -0.2362 -1.4217
 2661SOL    HW219617   0.810   2.407   8.874 -0.0866  0.8039  0.1962
 2662SOL     OW19618   0.176   0.037   2.709  0.0152 -0.3813 -0.1725
 2662SOL    HW119619   0.265   0.009   2.691  0.5154  0.5866  0.7622
 2662SOL    HW219620   0.161   0.026   2.803  0.5506 -4.1293 -0.5452
 2663SOL     OW19621   4.059   4.319   3.039  0.0681  1.0866  0.0900
 2663SOL    HW119622   4.144   4.361   3.046  1.4725 -1.2393 -2.6527
 2663SOL    HW219623   4.004   4.389   3.004 -0.3667  0.7583  0.1177
 2664SOL     OW19624   0.404   2.726  12.271 -0.0374  0.7566  0.7009
 2664SOL    HW119625   0.404   2.700  12.179  0.1840 -0.1335  0.9455
 2664SOL    HW219626   0.337   2.792  12.254 -2.1079 -1.4725  0.1259
 2665SOL     OW19627   0.257   0.613  14.010 -0.0883 -0.3670  0.6973
 2665SOL    HW119628   0.179   0.565  13.983  0.5903  0.0544 -2.0116
 2665SOL    HW219629   0.232   0.705  14.019 -0.9549 -0.5244 -0.1543
 2666SOL     OW19630   3.222   4.183   7.557 -0.1961  0.0265 -0.5459
 2666SOL    HW119631   3.249   4.092   7.555  1.5437  0.4802  2.4711
 2666SOL    HW219632   3.252   4.207   7.645 -0.2740 -1.2177 -0.1866
 2667SOL     OW19633   3.258   0.710   3.237  0.2600  0.3362  0.3067
 2667SOL    HW119634   3.249   0.632   3.182  1.4076  1.2793 -1.2236
 2667SOL    HW219635   3.308   0.676   3.311 -0.3092  2.0008  1.4422
 2668SOL     OW19636   1.373   1.878   4.523  0.0836  0.1246 -0.6151
 2668SOL    HW119637   1.440   1.918   4.578  1.3521 -1.1816 -1.2150
 2668SOL    HW219638   1.408   1.907   4.439  3.2451 -0.1846  0.6133
 2669SOL     OW19639   0.716   4.509  12.950 -0.2220 -0.1191 -0.5858
 2669SOL    HW119640   0.665   4.547  12.878  0.5999  1.7202 -0.2101
 2669SOL    HW219641   0.756   4.591  12.979  0.8271 -0.2507 -1.6512
 2670SOL     OW19642   2.587   2.574   3.053 -0.4738  0.5532  0.0692
 2670SOL    HW119643   2.682   2.585   3.049 -0.2532  0.0362  4.7997
 2670SOL    HW219644   2.575   2.658   3.096  1.0387  0.9059 -0.1963
 2671SOL     OW19645   3.431   4.720   1.767  0.0016 -0.5968 -0.4799
 2671SOL    HW119646   3.502   0.000   1.705 -1.7848  3.5813 -1.3034
 2671SOL    HW219647   3.472   0.021   1.844 -0.5416 -1.7005  0.3635
 2672SOL     OW19648   0.471   4.534  12.814 -0.3988  0.4286  0.4423
 2672SOL    HW119649   0.394   4.489  12.780 -0.6377  0.3180  1.1371
 2672SOL    HW219650   0.444   4.564  12.900  0.9553 -1.4663  1.5294
 2673SOL     OW19651   4.080   2.909  12.305  0.1251 -0.1502 -0.0738
 2673SOL    HW119652   3.992   2.909  12.343  0.6687  0.7014  1.1705
 2673SOL    HW219653   4.074   2.973  12.234 -0.6330 -1.8774 -1.5874
 2674SOL     OW19654   3.631   0.118   2.476 -0.3198  0.0003  0.7891
 2674SOL    HW119655   3.657   0.070   2.555 -1.6445 -0.7467  0.7620
 2674SOL    HW219656   3.540   0.134   2.500 -0.5079  2.3280 -1.4153
 2675SOL     OW19657   2.233   3.989   5.428 -0.8196  0.0218  0.4358
 2675SOL    HW119658   2.295   3.924   5.461  1.1604  1.0751 -1.2394
 2675SOL    HW219659   2.160   3.980   5.491 -0.3324 -0.1824  0.9764
 2676SOL     OW19660   0.434   1.599   5.704  0.2918  0.0929  0.4208
 2676SOL    HW119661   0.484   1.583   5.624  1.7635 -0.0133  1.3599
 2676SOL    HW219662   0.467   1.536   5.767  2.6098  2.3569  1.4485
 2677SOL     OW19663   0.668   1.096  14.289 -0.5267  0.4628 -0.6761
 2677SOL    HW119664   0.748   1.068  14.244 -0.7574 -0.2064 -0.6647
 2677SOL    HW219665   0.606   1.090  14.216 -1.9786 -1.5997  0.7307
 2678SOL     OW19666   2.900   1.062   1.315 -0.8189  0.3498  0.2383
 2678SOL    HW119667   2.918   1.003   1.242 -1.7988  1.6333 -1.0418
 2678SOL    HW219668   2.957   1.132   1.283 -0.8813  0.0879 -0.4346
 2679SOL     OW19669   1.051   1.987   5.992  0.6056  0.1839 -0.6890
 2679SOL    HW119670   1.133   1.939   5.981 -0.3114 -0.9826 -2.6273
 2679SOL    HW219671   1.063   2.026   6.078 -2.4877 -0.3909  0.0061
 2680SOL     OW19672   3.569   3.461   5.371 -0.0394  0.4460 -0.1132
 2680SOL    HW119673   3.479   3.450   5.340  0.1518  1.6788 -1.1118
 2680SOL    HW219674   3.619   3.481   5.292 -0.6243 -1.5190 -0.9638
 2681SOL     OW19675   1.686   4.326   7.564 -0.1192 -0.5430  0.2250
 2681SOL    HW119676   1.759   4.322   7.502  0.7001  0.0082  1.1588
 2681SOL    HW219677   1.696   4.246   7.616  1.1494 -1.5226 -1.5112
 2682SOL     OW19678   4.200   3.199   6.781  0.2016 -0.5755 -0.2180
 2682SOL    HW119679   4.241   3.172   6.699  0.1394 -1.6967  0.1267
 2682SOL    HW219680   4.171   3.112   6.809 -1.6327 -0.4818 -1.8005
 2683SOL     OW19681   0.563   2.080   2.833  0.1471 -0.1398  0.2770
 2683SOL    HW119682   0.534   2.067   2.743  0.3518  1.3413  0.0009
 2683SOL    HW219683   0.655   2.104   2.821 -1.3553  2.6642 -5.3206
 2684SOL     OW19684   0.597   3.250   7.645  0.5278  0.1120  0.6927
 2684SOL    HW119685   0.515   3.258   7.695  0.2130 -0.1160  0.2106
 2684SOL    HW219686   0.628   3.161   7.660 -1.4412 -0.6425  0.3341
 2685SOL     OW19687   2.590   1.331   2.211 -0.1382  0.0435 -0.3175
 2685SOL    HW119688   2.577   1.425   2.219 -1.0794 -0.1902  1.0501
 2685SOL    HW219689   2.516   1.312   2.154 -1.5748  1.8921  0.9183
 2686SOL     OW19690   2.419   0.871   5.490 -0.1510 -0.7623 -0.1255
 2686SOL    HW119691   2.370   0.898   5.567  0.5583 -0.6527  0.2799
 2686SOL    HW219692   2.410   0.775   5.487 -0.5200 -0.7612  1.3784
 2687SOL     OW19693   3.274   1.057   4.946  0.0133  0.4684  0.4475
 2687SOL    HW119694   3.288   0.988   5.010 -0.6023  0.6193  0.7483
 2687SOL    HW219695   3.350   1.113   4.955 -0.2678  1.4548 -3.3551
 2688SOL     OW19696   0.569   3.790   6.474 -0.7026 -0.1151 -0.1175
 2688SOL    HW119697   0.527   3.796   6.388  2.2102 -1.1153 -1.6183
 2688SOL    HW219698   0.566   3.696   6.491 -1.4806 -0.5860 -2.8632
 2689SOL     OW19699   3.559   3.723  10.358  0.0095  0.1336 -0.1900
 2689SOL    HW119700   3.646   3.685  10.348  0.2505  0.6623 -0.1307
 2689SOL    HW219701   3.501   3.648  10.348 -0.8575  0.7423  0.1960
 2690SOL     OW19702   4.303   4.648   5.215 -0.0027 -0.0735 -0.6049
 2690SOL    HW119703   4.250   4.728   5.215  2.9678  1.8838 -1.4194
 2690SOL    HW219704   4.314   4.625   5.123  0.3695  1.8218 -1.0355
 2691SOL     OW19705   1.092   1.947   2.754  0.4986  0.2705  0.2548
 2691SOL    HW119706   1.015   1.995   2.725  0.4188 -0.0094 -0.0047
 2691SOL    HW219707   1.073   1.957   2.847 -0.0519 -0.5956  0.2338
 2692SOL     OW19708   2.065   4.358   6.472  0.3951  0.0618 -0.3934
 2692SOL    HW119709   1.977   4.324   6.457  0.2338 -0.9662  3.0344
 2692SOL    HW219710   2.123   4.290   6.438 -0.5432 -0.8341 -0.1947
 2693SOL     OW19711   1.526   2.455  12.635 -0.3421 -0.2635 -0.5297
 2693SOL    HW119712   1.447   2.480  12.683  0.2255 -0.4751  0.5027
 2693SOL    HW219713   1.532   2.523  12.568  3.5460  1.3110  1.4489
 2694SOL     OW19714   3.519   3.593   4.671  0.1807  0.2720  0.3136
 2694SOL    HW119715   3.505   3.569   4.763 -0.5361 -0.3925  0.0339
 2694SOL    HW219716   3.440   3.643   4.653 -0.1421 -0.7844 -1.2033
 2695SOL     OW19717   2.643   2.075  17.216 -0.0642  0.4656  0.6185
 2695SOL    HW119718   2.576   2.088  17.150  1.3302 -1.2053 -1.1181
 2695SOL    HW219719   2.703   2.023  17.162 -0.2291  0.6852  0.2325
 2696SOL     OW19720   2.244   1.107   0.601 -0.4947 -0.0373 -0.1434
 2696SOL    HW119721   2.231   1.201   0.615  1.7205  0.2467 -0.0741
 2696SOL    HW219722   2.159   1.092   0.559 -0.1719  2.1207 -1.5711
 2697SOL     OW19723   1.129   3.732   7.536 -0.0525 -0.5813  0.5960
 2697SOL    HW119724   1.099   3.780   7.460  1.3380  0.4946  0.7235
 2697SOL    HW219725   1.224   3.743   7.538  0.0272 -1.2202  0.2829
 2698SOL     OW19726   3.037   1.116   9.057  0.5494 -0.2021  0.6621
 2698SOL    HW119727   3.090   1.091   8.982 -2.1576 -1.5598 -0.7836
 2698SOL    HW219728   3.068   1.205   9.073  0.3691  0.2072 -1.3743
 2699SOL     OW19729   0.159   4.672  12.644  0.3398 -0.0012  0.1761
 2699SOL    HW119730   0.092   4.619  12.687 -1.6267  0.8108 -1.8932
 2699SOL    HW219731   0.213   4.601  12.609 -1.5280 -0.3726 -1.9633
 2700SOL     OW19732   1.721   3.322   1.644  0.5505 -0.8026 -0.0769
 2700SOL    HW119733   1.714   3.387   1.574 -1.6457 -1.6540 -0.6527
 2700SOL    HW219734   1.816   3.326   1.657  0.7819 -1.6017 -1.5276
 2701SOL     OW19735   0.394   2.124   6.724 -0.0401 -0.2401  0.0664
 2701SOL    HW119736   0.429   2.163   6.805 -0.4406  2.6327 -1.1418
 2701SOL    HW219737   0.461   2.157   6.664 -0.3818  1.0425  0.3893
 2702SOL     OW19738   4.291   3.702   6.446  0.7348 -0.2845  0.2235
 2702SOL    HW119739   4.365   3.718   6.504 -0.8054 -2.3151  2.7599
 2702SOL    HW219740   4.328   3.653   6.372  0.0341 -0.9501  0.3054
 2703SOL     OW19741   4.226   1.393   7.329 -0.5855  0.2587 -0.5178
 2703SOL    HW119742   4.233   1.374   7.423 -1.8036  2.4444  0.0156
 2703SOL    HW219743   4.197   1.311   7.289  0.8391 -1.0409  1.0945
 2704SOL     OW19744   0.286   4.237   4.761  0.0945 -0.5681 -0.0573
 2704SOL    HW119745   0.237   4.204   4.685  0.4670 -2.2529  0.4347
 2704SOL    HW219746   0.375   4.239   4.728  0.0775 -0.6914 -0.1122
 2705SOL     OW19747   0.034   3.703   5.738  0.0053  0.2424  0.0331
 2705SOL    HW119748   0.076   3.750   5.666  1.5513  0.6091  1.1720
 2705SOL    HW219749   0.085   3.733   5.814 -1.4927 -2.1962  1.9886
 2706SOL     OW19750   1.570   3.234   2.765  0.9953  0.2712  0.2715
 2706SOL    HW119751   1.561   3.142   2.741 -1.2276  0.8878 -1.2588
 2706SOL    HW219752   1.536   3.286   2.692  0.9369 -0.1386  0.0069
 2707SOL     OW19753   0.543   3.986   3.432 -0.2676 -0.2494  0.0804
 2707SOL    HW119754   0.543   4.038   3.513  1.0335 -2.4076  1.4523
 2707SOL    HW219755   0.595   3.909   3.455  0.1330  0.2694  0.9100
 2708SOL     OW19756   1.693   3.119   6.669 -0.2998 -0.3961  0.1082
 2708SOL    HW119757   1.724   3.115   6.578 -0.7782 -0.0282 -0.0725
 2708SOL    HW219758   1.603   3.150   6.656 -0.4681 -0.2495  1.6568
 2709SOL     OW19759   1.213   2.398   4.051 -0.0913  0.4630  0.0407
 2709SOL    HW119760   1.259   2.482   4.060  1.1848 -0.1507 -0.7067
 2709SOL    HW219761   1.281   2.333   4.068 -1.4700 -1.0934 -0.3781
 2710SOL     OW19762   1.029   1.677   7.398 -0.0160 -0.1337 -0.6810
 2710SOL    HW119763   0.972   1.606   7.425 -2.2804  2.2721  0.9298
 2710SOL    HW219764   1.030   1.670   7.303  0.0728 -0.7697 -0.6343
 2711SOL     OW19765   1.986   1.142   3.846  0.5251 -0.1852 -0.0258
 2711SOL    HW119766   2.030   1.219   3.809  0.0222  1.0303  1.9024
 2711SOL    HW219767   1.992   1.168   3.938 -1.3174  0.7685 -0.1805
 2712SOL     OW19768   1.869   2.598  15.756 -0.2154  0.2095 -0.1707
 2712SOL    HW119769   1.841   2.507  15.762  1.8696 -0.4153  0.2475
 2712SOL    HW219770   1.807   2.636  15.694  0.8977  1.7692 -0.3282
 2713SOL     OW19771   3.881   2.891   3.369 -0.5858  0.2179  1.1944
 2713SOL    HW119772   3.915   2.893   3.279 -2.2112 -0.0595  0.5645
 2713SOL    HW219773   3.894   2.983   3.393 -1.0970  0.3133  1.1100
 2714SOL     OW19774   1.765   2.850   7.847 -0.2825 -0.5261  0.1188
 2714SOL    HW119775   1.794   2.886   7.931 -1.4455  2.7100 -0.8596
 2714SOL    HW219776   1.758   2.931   7.798  0.5929  0.0978  1.0224
 2715SOL     OW19777   4.466   3.568   4.199  0.4500 -1.0195 -0.4045
 2715SOL    HW119778   4.493   3.659   4.185 -1.3933 -0.3091  0.5915
 2715SOL    HW219779   4.487   3.521   4.119  1.2980 -1.5719  0.1369
 2716SOL     OW19780   3.540   4.397  12.610  0.0497 -0.1748 -0.6554
 2716SOL    HW119781   3.513   4.467  12.551  0.5110  0.8746  0.3923
 2716SOL    HW219782   3.486   4.423  12.684  2.1167 -1.5724  1.3403
 2717SOL     OW19783   2.834   3.875  13.885 -0.0166 -0.0263 -0.0536
 2717SOL    HW119784   2.825   3.823  13.805  0.2549 -1.2089  0.6755
 2717SOL    HW219785   2.749   3.846  13.919  0.7955 -0.7822  1.3099
 2718SOL     OW19786   1.013   1.394   7.181 -0.0859 -0.2498 -0.2161
 2718SOL    HW119787   0.924   1.407   7.214 -0.2906 -0.9686 -0.4830
 2718SOL    HW219788   1.042   1.483   7.163  0.7823 -0.6083 -0.5434
 2719SOL     OW19789   3.078   4.644   7.526  0.7049 -0.3709 -0.1708
 2719SOL    HW119790   2.983   4.648   7.535  0.6977 -0.4745 -0.1961
 2719SOL    HW219791   3.104   4.734   7.507 -0.1243 -0.1304 -0.1479
 2720SOL     OW19792   4.421   4.124   3.841  0.0464 -0.0808 -0.5689
 2720SOL    HW119793   4.469   4.112   3.759  0.1168  0.9318 -0.6790
 2720SOL    HW219794   4.492   4.117   3.905  1.0382 -0.5218 -1.7003
 2721SOL     OW19795   2.924   0.367   2.740  0.2424 -0.4640  0.0645
 2721SOL    HW119796   3.017   0.390   2.732  0.8556 -2.6157  1.0248
 2721SOL    HW219797   2.885   0.454   2.730 -2.8465 -1.9494 -0.6472
 2722SOL     OW19798   1.596   3.591   7.073  0.0046 -0.4297  0.3396
 2722SOL    HW119799   1.555   3.660   7.021 -0.0012 -1.4541 -1.0223
 2722SOL    HW219800   1.519   3.548   7.112 -1.0961  1.7152  0.5417
 2723SOL     OW19801   0.028   1.673   7.951 -0.3627 -0.2825 -0.3671
 2723SOL    HW119802   0.078   1.603   7.909 -0.0102 -0.3855  0.2256
 2723SOL    HW219803   4.730   1.630   8.029  0.0993  1.1684  0.6558
 2724SOL     OW19804   4.592   0.515   2.238  0.2606 -0.4840  0.4412
 2724SOL    HW119805   4.510   0.537   2.282  0.4539  0.3121  0.4063
 2724SOL    HW219806   4.578   0.555   2.152 -1.1782 -0.3168  0.7460
 2725SOL     OW19807   3.952   1.557  11.829 -0.4088 -0.3759 -0.2211
 2725SOL    HW119808   3.857   1.549  11.829 -0.1776 -2.8056 -1.5404
 2725SOL    HW219809   3.979   1.471  11.799  2.1607  0.5024 -0.4098
 2726SOL     OW19810   2.059   4.425   8.106 -0.4390 -0.0060  0.7507
 2726SOL    HW119811   1.993   4.403   8.040  1.8795 -1.0717 -1.2538
 2726SOL    HW219812   2.132   4.375   8.069 -1.5695 -1.4955  0.5176
 2727SOL     OW19813   1.704   4.174   7.034  0.0108  0.0323  0.2192
 2727SOL    HW119814   1.754   4.248   7.000  0.2007  0.0466  0.5268
 2727SOL    HW219815   1.713   4.122   6.954 -2.4937  0.7067 -0.5070
 2728SOL     OW19816   1.715   3.565   8.316  0.2699 -0.0192  0.1487
 2728SOL    HW119817   1.685   3.475   8.303  2.0158 -0.1646 -2.7908
 2728SOL    HW219818   1.631   3.606   8.338  0.7933  1.1871 -0.1375
 2729SOL     OW19819   1.580   0.206   4.441  0.1390  0.2149  0.1461
 2729SOL    HW119820   1.592   0.244   4.354 -0.1670  1.6110  0.7147
 2729SOL    HW219821   1.617   0.279   4.492 -0.4832  0.4182  0.3110
 2730SOL     OW19822   2.719   0.117  13.093  0.5064 -0.0543  0.3400
 2730SOL    HW119823   2.671   0.184  13.142  1.0205 -0.7607  1.8097
 2730SOL    HW219824   2.711   0.152  13.004 -1.5634 -0.4230  0.3785
 2731SOL     OW19825   3.603   1.222   6.932  0.0374  0.4628 -0.2026
 2731SOL    HW119826   3.520   1.239   6.886 -0.6659 -0.9159  0.5534
 2731SOL    HW219827   3.644   1.158   6.874 -1.4103 -1.3335  0.7565
 2732SOL     OW19828   1.395   3.720   8.089  0.1215 -0.3668 -0.5258
 2732SOL    HW119829   1.314   3.674   8.065 -1.4426  1.6240  0.9695
 2732SOL    HW219830   1.442   3.712   8.006 -1.3584  0.3201 -1.4212
 2733SOL     OW19831   1.749   0.142   5.352 -0.0673  1.0793 -0.4480
 2733SOL    HW119832   1.838   0.138   5.388 -1.3438  1.0561  2.7365
 2733SOL    HW219833   1.697   0.141   5.432  0.4050 -1.1360 -0.1807
 2734SOL     OW19834   2.948   4.511   8.238  0.2081 -0.1286  0.1369
 2734SOL    HW119835   2.868   4.539   8.281  2.0320  4.0644  0.8255
 2734SOL    HW219836   2.918   4.429   8.198 -0.7234 -0.3295  1.2505
 2735SOL     OW19837   0.143   1.821   5.353  0.4142  0.0750  0.8156
 2735SOL    HW119838   0.229   1.816   5.312 -0.5921 -1.1174 -1.0898
 2735SOL    HW219839   0.104   1.735   5.343 -0.8676  0.7574 -0.0636
 2736SOL     OW19840   0.252   2.716   1.555 -0.1873  0.3520  0.5876
 2736SOL    HW119841   0.347   2.719   1.564 -0.1490 -0.0625  0.3061
 2736SOL    HW219842   0.239   2.629   1.519 -0.6031  1.1094 -1.1257
 2737SOL     OW19843   2.451   3.984  12.089  0.4255  0.1996 -0.6061
 2737SOL    HW119844   2.374   4.023  12.131  1.1507  0.5997  0.3612
 2737SOL    HW219845   2.509   4.014  12.159 -1.5625 -0.9725  1.5514
 2738SOL     OW19846   2.062   2.946  13.075 -0.9613  0.1964 -0.1437
 2738SOL    HW119847   2.118   2.918  13.148  0.7511 -0.1639 -1.6013
 2738SOL    HW219848   2.035   3.033  13.104  0.9587 -0.1690  2.7831
 2739SOL     OW19849   1.738   1.071   6.425 -0.5492 -0.0217  0.1139
 2739SOL    HW119850   1.687   1.025   6.359  0.1414 -2.4073  1.2222
 2739SOL    HW219851   1.808   1.009   6.448  1.5399  2.1369 -0.3999
 2740SOL     OW19852   3.977   2.938   7.468 -0.0290 -0.1832  0.3275
 2740SOL    HW119853   3.897   2.977   7.503 -0.9377 -0.4565 -1.4402
 2740SOL    HW219854   4.019   2.892   7.540 -1.5818 -0.9733  0.7251
 2741SOL     OW19855   3.251   3.946  14.354 -0.4265 -0.1847  0.2311
 2741SOL    HW119856   3.170   3.895  14.360  0.0933 -1.0034  0.3017
 2741SOL    HW219857   3.262   3.935  14.260 -3.0032  0.0214 -0.0915
 2742SOL     OW19858   3.979   1.424   4.709 -0.0143 -0.3310 -0.6729
 2742SOL    HW119859   3.922   1.361   4.754  0.4067 -3.1863 -4.0785
 2742SOL    HW219860   3.925   1.436   4.630 -1.7903  1.7810  0.8681
 2743SOL     OW19861   2.533   3.344   9.078  0.5078  0.3824  0.6397
 2743SOL    HW119862   2.528   3.352   9.174 -2.1606  1.6003  0.3954
 2743SOL    HW219863   2.627   3.359   9.068  0.3920 -0.1190 -1.2290
 2744SOL     OW19864   2.375   2.853   5.883 -0.1508  0.2357  0.0008
 2744SOL    HW119865   2.331   2.850   5.798 -0.2382  1.9080  0.0008
 2744SOL    HW219866   2.464   2.884   5.863 -0.3448  0.3697 -0.6395
 2745SOL     OW19867   0.600   2.832  17.485 -1.0158 -0.5204  0.0347
 2745SOL    HW119868   0.514   2.792  17.472 -1.7012  1.0194 -0.2059
 2745SOL    HW219869   0.611   2.843  17.580  1.1938  0.1095 -0.3088
 2746SOL     OW19870   4.466   0.117   1.910  0.2163 -0.0366  0.1312
 2746SOL    HW119871   4.378   0.082   1.926  1.1557 -0.7686  3.5971
 2746SOL    HW219872   4.493   0.161   1.990  0.5064 -0.5474  0.3105
 2747SOL     OW19873   3.855   2.985  14.308 -0.1672  0.0146 -0.0979
 2747SOL    HW119874   3.768   3.024  14.305  0.4058  1.3859  1.1476
 2747SOL    HW219875   3.850   2.920  14.237  1.7555 -0.4495  0.1815
 2748SOL     OW19876   4.639   2.616  17.571 -0.1618 -0.1760  0.5077
 2748SOL    HW119877   4.615   2.539  17.624 -0.0188  0.0389  0.8871
 2748SOL    HW219878   4.573   2.611  17.502 -0.0094 -1.6473  0.4603
 2749SOL     OW19879   2.693   0.961   3.816  0.3026  0.2695  0.2409
 2749SOL    HW119880   2.695   0.931   3.725 -1.2317 -1.0877  0.6521
 2749SOL    HW219881   2.645   0.889   3.858 -0.6435 -0.4355 -2.0578
 2750SOL     OW19882   0.130   2.166   2.014 -0.1437  0.5660  0.5286
 2750SOL    HW119883   0.093   2.078   2.024  1.0866 -0.1534 -1.2841
 2750SOL    HW219884   0.215   2.156   1.971  0.1490 -1.2027  1.5102
 2751SOL     OW19885   2.739   4.497   5.624 -0.2496  0.2504 -0.0499
 2751SOL    HW119886   2.762   4.579   5.667  1.4364 -0.1916 -0.0939
 2751SOL    HW219887   2.691   4.523   5.545 -0.9895  0.3173  0.4236
 2752SOL     OW19888   1.274   0.631   2.871 -0.0911  0.2623  1.0478
 2752SOL    HW119889   1.210   0.702   2.860  2.5078  2.3850 -0.3827
 2752SOL    HW219890   1.310   0.653   2.957  1.2142  1.5472  0.1739
 2753SOL     OW19891   4.095   4.734   4.384  0.5919  0.4108 -0.5801
 2753SOL    HW119892   4.124   4.649   4.416 -0.2401  0.3363 -0.0385
 2753SOL    HW219893   4.058   0.042   4.459 -0.6562  1.6480 -1.9756
 2754SOL     OW19894   2.983   1.925  11.334 -0.3888 -0.0732  0.1807
 2754SOL    HW119895   2.896   1.926  11.372 -0.1719 -2.4241  0.7755
 2754SOL    HW219896   3.011   1.834  11.347  2.2367  1.0668  2.5653
 2755SOL     OW19897   1.942   4.695   3.108  0.5147  0.4623 -0.4827
 2755SOL    HW119898   1.948   0.044   3.068  0.4527  0.0986 -1.2833
 2755SOL    HW219899   2.033   4.672   3.126  0.4742  1.2564  0.7578
 2756SOL     OW19900   4.468   3.838   0.980 -0.1141  0.1364 -0.5979
 2756SOL    HW119901   4.513   3.755   0.969  1.3500  0.4027  3.3424
 2756SOL    HW219902   4.527   3.882   1.041  1.0870 -2.4909  0.1048
 2757SOL     OW19903   2.192   2.748   3.075  1.0403 -0.1691 -0.5669
 2757SOL    HW119904   2.232   2.834   3.084  1.9117 -0.8152  1.8820
 2757SOL    HW219905   2.257   2.711   3.016  0.3372 -0.1252 -1.3600
 2758SOL     OW19906   3.502   2.132  11.055  0.0411  0.3555  0.8986
 2758SOL    HW119907   3.464   2.137  10.967  1.5223  0.0024  0.2485
 2758SOL    HW219908   3.443   2.164  11.123  0.3562  2.5159  0.1476
 2759SOL     OW19909   3.395   1.868   8.879 -0.0901  0.1252 -0.0357
 2759SOL    HW119910   3.438   1.892   8.796 -0.3448  1.2929  0.1800
 2759SOL    HW219911   3.348   1.945   8.909  1.3435  0.9325  0.1582
 2760SOL     OW19912   0.062   2.669  12.902  0.0559 -0.1868  0.3283
 2760SOL    HW119913   0.070   2.608  12.976 -0.3359 -1.9487 -1.0873
 2760SOL    HW219914   0.064   2.597  12.839 -1.4335 -0.0063  0.0877
 2761SOL     OW19915   2.308   3.893  13.403  0.0927  1.1844  0.6164
 2761SOL    HW119916   2.338   3.976  13.367  0.7595  2.1289  3.3420
 2761SOL    HW219917   2.276   3.854  13.322 -1.0001 -0.6966  1.9463
 2762SOL     OW19918   0.074   1.400  16.587 -0.3470  0.2758  0.5808
 2762SOL    HW119919   0.110   1.366  16.669  0.1066 -1.9402 -0.5474
 2762SOL    HW219920   0.155   1.430  16.545 -0.5665  0.4929  0.3133
 2763SOL     OW19921   1.019   3.484   6.838  0.1701 -0.2067 -0.4958
 2763SOL    HW119922   0.993   3.392   6.830  1.0968 -0.3245 -2.2773
 2763SOL    HW219923   0.941   3.526   6.801 -0.8752  0.6816  2.7302
 2764SOL     OW19924   1.798   4.578   5.542  0.0056  0.0555  0.3638
 2764SOL    HW119925   1.855   4.653   5.530  1.5558 -1.1376  0.2467
 2764SOL    HW219926   1.804   4.526   5.462 -0.3009 -0.5959  0.7589
 2765SOL     OW19927   0.382   3.387   5.659 -0.2978 -0.3302  0.4256
 2765SOL    HW119928   0.343   3.438   5.588 -0.1727 -0.7436  0.0564
 2765SOL    HW219929   0.474   3.413   5.651 -0.6730  0.8295 -0.1696
 2766SOL     OW19930   1.631   0.622   2.845 -0.2550 -0.5325  0.1679
 2766SOL    HW119931   1.710   0.665   2.812 -0.5400 -1.5262 -1.7952
 2766SOL    HW219932   1.607   0.562   2.774 -1.3231  0.2189 -0.1103
 2767SOL     OW19933   2.279   3.196   8.208  0.3430 -0.6236 -0.1190
 2767SOL    HW119934   2.371   3.221   8.207  0.8948 -2.7335 -1.1710
 2767SOL    HW219935   2.250   3.229   8.123 -1.5452 -2.0659 -0.0292
 2768SOL     OW19936   2.042   1.469   8.063 -0.4732  0.2872  0.4226
 2768SOL    HW119937   2.076   1.507   8.143  1.7524 -1.2490  0.1965
 2768SOL    HW219938   2.102   1.496   7.993 -0.0951  0.7278  0.9251
 2769SOL     OW19939   3.718   2.793   1.957  0.2995 -0.0766  0.0013
 2769SOL    HW119940   3.625   2.808   1.940 -0.0305 -1.0770  0.9582
 2769SOL    HW219941   3.751   2.787   1.867 -0.6239 -0.2671 -0.3228
 2770SOL     OW19942   0.831   0.258  10.074  0.0585 -0.0078  0.1883
 2770SOL    HW119943   0.920   0.292  10.087 -0.5605  1.4092  0.6553
 2770SOL    HW219944   0.841   0.170  10.039  0.3395 -0.5872  1.6975
 2771SOL     OW19945   0.753   3.524   7.089 -0.5161  0.1774  0.3372
 2771SOL    HW119946   0.715   3.542   7.175  0.9663 -1.8930  1.4234
 2771SOL    HW219947   0.845   3.513   7.114 -0.6285  1.3522  1.2957
 2772SOL     OW19948   1.032   2.375   7.992 -0.1128 -0.2442 -0.3712
 2772SOL    HW119949   1.008   2.461   7.956 -1.7603 -0.1549  0.9667
 2772SOL    HW219950   1.123   2.395   8.013 -0.4210 -1.3540  1.9944
 2773SOL     OW19951   3.083   0.013   5.346 -0.0529  0.0210 -0.2326
 2773SOL    HW119952   3.163   0.053   5.377 -0.5380 -0.1732  1.2575
 2773SOL    HW219953   3.060   0.052   5.261  1.3786  2.0422  0.3391
 2774SOL     OW19954   0.220   3.832  17.571  0.0089  0.1624  0.0761
 2774SOL    HW119955   0.195   3.920  17.544 -0.5795 -0.2011 -0.5774
 2774SOL    HW219956   0.155   3.826  17.642  2.3886  0.5595  2.2968
 2775SOL     OW19957   2.590   1.544  12.636 -0.9425 -0.3466 -0.0964
 2775SOL    HW119958   2.627   1.459  12.611 -0.5359 -0.2190  0.0817
 2775SOL    HW219959   2.654   1.602  12.596 -0.5095 -1.0555 -0.4343
 2776SOL     OW19960   4.325   2.461   4.517  0.6458 -0.3426 -0.0352
 2776SOL    HW119961   4.283   2.474   4.602  1.7701 -0.4429  0.5460
 2776SOL    HW219962   4.267   2.389   4.493  3.8189 -3.3822  1.3383
 2777SOL     OW19963   2.076   2.302   8.102 -0.2890  0.2231 -0.6580
 2777SOL    HW119964   2.040   2.390   8.109  0.3756  0.5689 -1.6354
 2777SOL    HW219965   2.011   2.262   8.044 -0.5131  0.0258 -0.2715
 2778SOL     OW19966   0.954   2.009   5.634 -0.0457  0.4748  0.0006
 2778SOL    HW119967   0.868   2.002   5.593  0.2561 -0.8502 -0.4020
 2778SOL    HW219968   0.991   1.921   5.629 -0.3187  0.2328  2.3618
 2779SOL     OW19969   0.809   2.852   2.937  0.1898 -0.2148  0.1908
 2779SOL    HW119970   0.716   2.863   2.957  0.2943  1.0496 -0.0292
 2779SOL    HW219971   0.805   2.772   2.884  0.4562  0.7397 -1.2534
 2780SOL     OW19972   0.596   4.017   0.901  0.2270 -1.1896 -0.1048
 2780SOL    HW119973   0.625   3.977   0.983  2.2947 -0.2712 -0.3922
 2780SOL    HW219974   0.508   3.980   0.904 -0.5222  0.5108 -1.3419
 2781SOL     OW19975   0.734   0.497   7.527  0.5634 -0.4119 -0.3479
 2781SOL    HW119976   0.731   0.566   7.460 -0.6485  0.5485  0.6859
 2781SOL    HW219977   0.657   0.525   7.576  0.2387 -0.7138 -0.6801
 2782SOL     OW19978   1.205   3.436   3.244 -0.4609 -0.2445  0.1849
 2782SOL    HW119979   1.294   3.403   3.239 -0.6630 -0.9315  1.2012
 2782SOL    HW219980   1.173   3.401   3.161  0.0095 -2.2408  0.8378
 2783SOL     OW19981   3.146   3.745  11.688  0.1986  0.5936  0.3950
 2783SOL    HW119982   3.178   3.834  11.677 -0.4339  0.7848  0.1120
 2783SOL    HW219983   3.220   3.718  11.742  0.8958 -0.6629 -1.1751
 2784SOL     OW19984   1.982   1.533  12.485  0.0946  0.1984 -0.4620
 2784SOL    HW119985   1.963   1.624  12.510  1.2850  0.1120  0.7426
 2784SOL    HW219986   2.052   1.521  12.549 -0.1130 -0.7411 -0.4175
 2785SOL     OW19987   2.108   4.035  11.328  0.1820 -0.9361  0.2488
 2785SOL    HW119988   2.082   4.060  11.417  0.8640  0.4583  0.0499
 2785SOL    HW219989   2.188   4.085  11.319  0.7978 -2.0424 -0.5209
 2786SOL     OW19990   4.054   0.541  11.870 -0.3505  0.0439 -0.4871
 2786SOL    HW119991   4.115   0.556  11.942  1.7707  1.2353 -2.5233
 2786SOL    HW219992   4.039   0.632  11.843  2.1009 -0.4037 -3.3728
 2787SOL     OW19993   1.917   2.030   9.244  0.1036 -0.1362 -0.4969
 2787SOL    HW119994   1.870   1.949   9.227 -0.7175  0.3172 -0.3827
 2787SOL    HW219995   1.852   2.092   9.211 -1.4719 -1.8117 -0.5644
 2788SOL     OW19996   4.019   4.507   8.518  0.1560 -0.1583 -0.6154
 2788SOL    HW119997   4.112   4.492   8.534 -0.0286  2.1802  2.5388
 2788SOL    HW219998   4.002   4.458   8.437 -0.1174  0.4062 -0.8941
 2789SOL     OW19999   4.492   1.054   6.724 -0.4152  0.5620 -0.1177
 2789SOL    HW120000   4.507   0.960   6.713 -0.5947  0.4341  0.7150
 2789SOL    HW220001   4.573   1.082   6.682  1.0396 -0.8838  1.7393
 2790SOL     OW20002   3.140   0.646   5.046 -0.2971 -0.2490 -0.2435
 2790SOL    HW120003   3.212   0.595   5.007  0.1305 -0.7487  1.1935
 2790SOL    HW220004   3.106   0.699   4.974 -0.3491 -1.5105 -1.1441
 2791SOL     OW20005   1.762   1.042   8.168 -0.0780  0.2628 -0.5690
 2791SOL    HW120006   1.670   1.055   8.145  0.6625  0.8138 -3.3215
 2791SOL    HW220007   1.754   0.952   8.200  1.5855 -0.4244 -2.0183
 2792SOL     OW20008   1.894   1.925   8.682  0.1238 -0.3275  0.1182
 2792SOL    HW120009   1.849   2.001   8.644 -0.4212 -0.3822  0.6528
 2792SOL    HW220010   1.895   1.942   8.776  1.6420 -0.7337  0.1687
 2793SOL     OW20011   2.113   4.620   0.037 -0.0348  0.5048 -0.3534
 2793SOL    HW120012   2.178   4.555   0.064 -0.4856 -1.3215 -3.7045
 2793SOL    HW220013   2.144   4.648  17.701 -1.6012  0.3801 -0.9444
 2794SOL     OW20014   1.284   4.036   3.962 -0.3188  0.1621  0.1350
 2794SOL    HW120015   1.307   3.943   3.965  2.2549  0.8370  1.3569
 2794SOL    HW220016   1.221   4.037   3.890  0.2777 -2.7169 -0.4587
 2795SOL     OW20017   3.120   3.119   4.393 -0.1157  0.0468 -0.2411
 2795SOL    HW120018   3.127   3.041   4.338 -0.6578 -0.0765 -0.1419
 2795SOL    HW220019   3.174   3.180   4.343 -0.7175 -0.4094 -1.4525
 2796SOL     OW20020   2.525   3.291  13.243  0.5433 -0.0056 -1.0100
 2796SOL    HW120021   2.555   3.367  13.193  0.4576 -0.8129 -2.2780
 2796SOL    HW220022   2.439   3.328  13.266  1.2061  2.0543 -1.8382
 2797SOL     OW20023   1.675   0.642   5.242  0.2953  0.6831 -0.0587
 2797SOL    HW120024   1.645   0.640   5.151 -0.2762  1.1089  0.1211
 2797SOL    HW220025   1.595   0.630   5.293  0.9490  0.2227  0.8628
 2798SOL     OW20026   4.535   3.952   9.283 -0.4022 -0.1118  0.4205
 2798SOL    HW120027   4.440   3.942   9.294 -0.6459  2.1674  0.2664
 2798SOL    HW220028   4.529   3.990   9.195  0.1009 -1.1426 -0.0559
 2799SOL     OW20029   0.614   0.952   8.290  0.0832  0.1316 -0.1987
 2799SOL    HW120030   0.603   0.881   8.353  1.6970  0.1012  0.0335
 2799SOL    HW220031   0.709   0.950   8.280 -0.1388 -0.6038 -2.1393
 2800SOL     OW20032   1.263   1.084   8.245 -0.1236  0.3104  0.5740
 2800SOL    HW120033   1.293   1.153   8.186  0.3976  2.6384  3.5441
 2800SOL    HW220034   1.195   1.040   8.194  1.5454 -1.6298  0.0307
 2801SOL     OW20035   3.602   0.908   5.973  0.1841  0.2496 -0.3515
 2801SOL    HW120036   3.591   1.000   5.950  2.3912  0.2552 -1.4287
 2801SOL    HW220037   3.666   0.899   5.902  0.9102 -2.3964  0.6444
 2802SOL     OW20038   1.881   4.296  11.409 -0.2660 -0.4008 -0.1519
 2802SOL    HW120039   1.815   4.363  11.389  0.4748  0.3685 -0.0153
 2802SOL    HW220040   1.900   4.283  11.316  0.8826  0.8146 -0.0826
 2803SOL     OW20041   0.215   1.173   3.633  0.1633 -0.0445 -0.1719
 2803SOL    HW120042   0.192   1.172   3.726  2.4331 -0.7425  0.3765
 2803SOL    HW220043   0.303   1.211   3.645  1.2669 -2.1775 -1.5224
 2804SOL     OW20044   0.004   0.893  16.949 -0.0700 -0.0549  0.1240
 2804SOL    HW120045   0.094   0.861  16.955  0.1461  0.7066  0.8627
 2804SOL    HW220046   4.690   0.815  16.968 -0.6730  0.5988  1.1457
 2805SOL     OW20047   1.009   4.517   8.223 -0.1032  0.3339 -0.3580
 2805SOL    HW120048   0.991   4.572   8.300  1.0344  2.8404 -1.8837
 2805SOL    HW220049   1.063   4.582   8.177  1.5306 -0.9600 -0.2583
 2806SOL     OW20050   0.275   2.322  13.314 -0.5110  0.4970 -0.4126
 2806SOL    HW120051   0.305   2.256  13.376 -0.6810  0.5503 -0.2765
 2806SOL    HW220052   0.334   2.309  13.239  0.5792  1.2317  0.3176
 2807SOL     OW20053   1.341   1.832  16.230  0.2234  0.3625 -0.7197
 2807SOL    HW120054   1.405   1.776  16.185  1.7739  0.9850  0.7220
 2807SOL    HW220055   1.263   1.819  16.175  1.1976 -1.6179 -1.6551
 2808SOL     OW20056   1.719   3.809  12.226 -0.0006 -0.1895 -0.3154
 2808SOL    HW120057   1.680   3.818  12.139 -0.0582  1.8257 -0.0990
 2808SOL    HW220058   1.643   3.809  12.283  0.4073 -1.8708  0.2274
 2809SOL     OW20059   0.464   3.782   3.753 -0.2946 -0.1352  0.3017
 2809SOL    HW120060   0.413   3.754   3.677 -1.4978  0.7886  0.7750
 2809SOL    HW220061   0.548   3.795   3.710  0.4147  0.2841  1.8096
 2810SOL     OW20062   0.933   3.128  11.134  0.2123 -0.0065  0.0645
 2810SOL    HW120063   0.989   3.088  11.201 -0.2309  0.9474  1.0181
 2810SOL    HW220064   0.864   3.065  11.154  1.7892 -0.5472  3.7745
 2811SOL     OW20065   3.660   1.721   9.489 -0.0395  0.0209 -0.1732
 2811SOL    HW120066   3.589   1.682   9.541  1.0040 -1.3587  0.1907
 2811SOL    HW220067   3.604   1.725   9.411 -1.1305  2.2641  0.7002
 2812SOL     OW20068   3.002   4.279  10.557 -0.2513  0.3038 -0.0452
 2812SOL    HW120069   2.996   4.184  10.562 -0.8606  0.2516 -1.8354
 2812SOL    HW220070   3.082   4.297  10.607 -0.1457 -1.2249  0.3467
 2813SOL     OW20071   1.829   4.732   3.951  0.9255  0.9157 -0.0579
 2813SOL    HW120072   1.826   0.008   4.046 -1.9959  0.5687 -0.0896
 2813SOL    HW220073   1.920   0.021   3.941  0.8438  1.4060  0.5405
 2814SOL     OW20074   1.431   2.109  16.246  0.1656  0.7046 -0.2241
 2814SOL    HW120075   1.437   2.137  16.155  3.0156  0.0074 -0.2467
 2814SOL    HW220076   1.398   2.020  16.234 -2.0710  1.5138 -0.1042
 2815SOL     OW20077   4.641   1.519   7.494 -0.5635  0.1511  0.6357
 2815SOL    HW120078   4.630   1.475   7.410 -1.8497 -0.6995  1.2456
 2815SOL    HW220079   4.618   1.452   7.558 -1.1535  0.3606  0.6391
 2816SOL     OW20080   4.171   3.474  15.172 -0.2474 -0.3100  0.4131
 2816SOL    HW120081   4.173   3.389  15.128 -1.0262 -0.3892  0.5395
 2816SOL    HW220082   4.204   3.524  15.098  2.3211 -1.3180  0.8506
 2817SOL     OW20083   1.823   1.211   9.235 -0.5127  0.2036 -0.1434
 2817SOL    HW120084   1.913   1.180   9.244 -0.5273  0.1273 -0.2596
 2817SOL    HW220085   1.826   1.238   9.143  0.4451 -0.2487 -0.2515
 2818SOL     OW20086   2.962   3.109   2.583  0.2498 -0.1059  0.1569
 2818SOL    HW120087   2.946   3.043   2.516 -0.0434 -0.9329  1.0359
 2818SOL    HW220088   3.053   3.137   2.580 -0.0174  0.6658 -0.8959
 2819SOL     OW20089   0.682   0.591   6.922 -0.3571  0.4910  0.0811
 2819SOL    HW120090   0.668   0.678   6.883  2.3271  0.7887 -0.2806
 2819SOL    HW220091   0.634   0.604   7.003  0.4635 -2.7067  1.0724
 2820SOL     OW20092   1.808   0.160   4.683 -0.5031 -0.1957  0.1380
 2820SOL    HW120093   1.846   0.117   4.759  2.8387  2.0416 -0.2744
 2820SOL    HW220094   1.792   0.247   4.721 -0.7986 -0.7877  1.3752
 2821SOL     OW20095   4.416   4.487   3.991 -0.2996  0.1839 -0.1936
 2821SOL    HW120096   4.477   4.542   3.943 -0.1596  1.6353  1.6626
 2821SOL    HW220097   4.329   4.515   3.962  0.1583  0.8107 -0.9443
 2822SOL     OW20098   0.651   0.427   3.297  0.2020 -0.2483  0.2549
 2822SOL    HW120099   0.706   0.426   3.375 -0.1557 -3.8355  0.4897
 2822SOL    HW220100   0.589   0.361   3.329  0.1796 -0.3388  0.0280
 2823SOL     OW20101   0.056   0.724   7.140  0.2056  0.2705 -0.2036
 2823SOL    HW120102   0.110   0.670   7.198  1.0815  0.1709 -1.1124
 2823SOL    HW220103   4.712   0.676   7.139 -0.2591  1.0498  0.4907
 2824SOL     OW20104   4.364   2.313   6.066 -0.1900 -0.2983 -0.0359
 2824SOL    HW120105   4.349   2.239   6.125  0.2803  0.1178  0.5997
 2824SOL    HW220106   4.287   2.369   6.079  0.5458  1.1112 -1.8378
 2825SOL     OW20107   0.478   1.424   9.729 -0.0076  1.1783  0.0810
 2825SOL    HW120108   0.408   1.477   9.767  0.9956  2.0212  0.7635
 2825SOL    HW220109   0.527   1.413   9.811  0.7638  2.9723 -0.1484
 2826SOL     OW20110   3.397   1.231   6.049  0.3168 -0.1928 -0.0075
 2826SOL    HW120111   3.361   1.202   5.965 -0.5592  3.6970 -1.0001
 2826SOL    HW220112   3.412   1.325   6.036 -0.0057 -0.1648 -0.1955
 2827SOL     OW20113   1.737   4.045  10.967 -0.2632  0.0861  0.1084
 2827SOL    HW120114   1.731   3.992  10.888 -0.3331  0.3638 -0.0713
 2827SOL    HW220115   1.827   4.037  10.999  0.2652  2.5999 -0.7758
 2828SOL     OW20116   0.957   1.447   4.912 -0.1374 -0.0679 -0.1407
 2828SOL    HW120117   1.040   1.444   4.959 -0.9547  0.9963  1.3545
 2828SOL    HW220118   0.912   1.516   4.961  0.1371  0.5051 -0.6758
 2829SOL     OW20119   2.304   2.992   3.069 -0.3808 -0.4228  0.2216
 2829SOL    HW120120   2.369   3.003   3.000 -0.6135  0.4421  0.1405
 2829SOL    HW220121   2.231   3.046   3.041 -0.0902 -0.4907 -0.6589
 2830SOL     OW20122   1.039   2.378   9.542  0.2317  0.4955  0.1569
 2830SOL    HW120123   1.100   2.304   9.545 -2.1278 -1.3636  1.7947
 2830SOL    HW220124   1.105   2.441   9.514 -0.7187  1.1890 -0.5428
 2831SOL     OW20125   4.388   2.583   6.281 -0.2807  0.2409 -0.0336
 2831SOL    HW120126   4.469   2.556   6.325 -0.8234  0.6520  1.1860
 2831SOL    HW220127   4.358   2.503   6.238 -0.4844  0.8070 -0.9512
 2832SOL     OW20128   0.367   4.513   3.361 -0.0289  0.2729 -0.0159
 2832SOL    HW120129   0.413   4.440   3.321  0.5488 -0.0680  1.2782
 2832SOL    HW220130   0.400   4.514   3.451  0.8092 -1.1594 -0.3231
 2833SOL     OW20131   0.274   2.418   3.288 -0.0539  0.4717 -0.0852
 2833SOL    HW120132   0.291   2.474   3.211  0.0063 -0.9925 -1.1391
 2833SOL    HW220133   0.183   2.400   3.264  0.9749 -3.2219 -1.2038
 2834SOL     OW20134   3.747   0.783   8.335  0.1400 -0.6182  0.0193
 2834SOL    HW120135   3.725   0.869   8.373  1.8251 -1.0305  1.9033
 2834SOL    HW220136   3.698   0.719   8.387 -0.1780 -1.3015 -1.1348
 2835SOL     OW20137   2.342   4.343   1.484 -0.2347 -0.0770 -0.0052
 2835SOL    HW120138   2.332   4.270   1.545  1.3632 -0.0347  0.3005
 2835SOL    HW220139   2.375   4.415   1.537 -1.0169  0.7297 -0.6267
 2836SOL     OW20140   4.225   2.647  14.528 -0.0588 -0.3197 -0.5218
 2836SOL    HW120141   4.305   2.676  14.485  1.2284 -0.2031  1.9150
 2836SOL    HW220142   4.155   2.686  14.476 -0.1607  0.8900  0.5104
 2837SOL     OW20143   2.934   0.953  14.875 -0.1074  0.0028  0.3888
 2837SOL    HW120144   2.842   0.964  14.899  0.1795  0.5023  1.2685
 2837SOL    HW220145   2.955   0.863  14.902 -0.4350 -0.2640 -0.2410
 2838SOL     OW20146   3.912   4.689   3.508  0.4507  0.7473  0.1359
 2838SOL    HW120147   3.857   4.644   3.571  0.8402  1.2233  0.8109
 2838SOL    HW220148   3.972   0.005   3.560  0.2280  0.8182  0.3180
 2839SOL     OW20149   4.018   4.484   5.185  0.1373  0.3290 -0.0914
 2839SOL    HW120150   3.953   4.548   5.155 -1.5390 -1.4822 -0.3403
 2839SOL    HW220151   3.985   4.476   5.274  1.2006 -1.2475  0.1610
 2840SOL     OW20152   0.926   4.375   8.474  0.4617 -0.1940 -0.1384
 2840SOL    HW120153   1.021   4.374   8.462  0.2838  4.1376 -1.6663
 2840SOL    HW220154   0.928   4.290   8.519 -1.5840 -0.4880 -0.5857
 2841SOL     OW20155   0.629   4.397   9.812 -0.1608 -0.0983 -0.1214
 2841SOL    HW120156   0.705   4.340   9.823 -0.6667 -0.5980  0.8544
 2841SOL    HW220157   0.575   4.348   9.750 -0.3875 -0.1162  0.0894
 2842SOL     OW20158   0.874   2.095   2.652 -0.2731  0.2057 -0.4627
 2842SOL    HW120159   0.921   2.150   2.589  0.2774 -1.3192 -1.3648
 2842SOL    HW220160   0.819   2.031   2.607 -0.1385  1.0964 -1.9028
 2843SOL     OW20161   3.051   4.263   2.153  0.0077  0.1067  0.3647
 2843SOL    HW120162   3.018   4.351   2.173 -1.2359 -0.9059  2.6507
 2843SOL    HW220163   3.141   4.291   2.135  0.2177 -0.3565  0.6977
 2844SOL     OW20164   3.536   2.714  17.282  0.1316 -0.2802 -0.4034
 2844SOL    HW120165   3.627   2.683  17.282  0.4379  0.6666  0.8119
 2844SOL    HW220166   3.521   2.686  17.372  1.2877 -4.5999 -1.5426
 2845SOL     OW20167   0.813   3.752  13.186  0.4794 -0.3740  0.0075
 2845SOL    HW120168   0.788   3.814  13.254 -1.8876 -2.2939  0.8739
 2845SOL    HW220169   0.751   3.680  13.199  0.0352  0.5178  2.8259
 2846SOL     OW20170   2.354   0.004  14.323 -0.0388 -0.2991  0.4457
 2846SOL    HW120171   2.381   0.093  14.303 -0.0650 -0.0024  1.6910
 2846SOL    HW220172   2.258   0.003  14.320 -0.0220 -0.0446 -0.1062
 2847SOL     OW20173   0.251   3.309   4.052  0.1613  0.1044  0.0739
 2847SOL    HW120174   0.305   3.277   3.979 -2.5188 -0.9851 -1.4550
 2847SOL    HW220175   0.294   3.258   4.121 -0.3449  0.3122  0.5408
 2848SOL     OW20176   2.952   3.352   0.619  0.5546 -0.1402  0.3471
 2848SOL    HW120177   2.869   3.346   0.572  0.6375  0.5724  0.1159
 2848SOL    HW220178   3.012   3.286   0.584 -0.3177 -0.2796 -0.8720
 2849SOL     OW20179   0.801   3.485   5.772 -0.1239  0.1883  0.2064
 2849SOL    HW120180   0.707   3.498   5.774 -0.1636  0.0119 -0.4663
 2849SOL    HW220181   0.842   3.571   5.787  0.0680 -0.0019  0.7857
 2850SOL     OW20182   2.170   2.677   9.394  0.0596  0.1030 -0.0422
 2850SOL    HW120183   2.223   2.620   9.449  1.4775  0.4086 -1.0940
 2850SOL    HW220184   2.092   2.624   9.379 -1.2587  2.2852 -0.8588
 2851SOL     OW20185   3.903   4.325  15.259  0.1077 -0.2574 -0.1521
 2851SOL    HW120186   3.940   4.276  15.332  1.4468  0.8069 -0.1166
 2851SOL    HW220187   3.954   4.286  15.188  1.5985  3.2155 -1.0071
 2852SOL     OW20188   3.304   4.249   0.215 -0.2729 -0.4078  0.5818
 2852SOL    HW120189   3.334   4.338   0.199 -1.2442 -0.4033 -1.2999
 2852SOL    HW220190   3.244   4.234   0.142  0.2628  1.2610 -0.2025
 2853SOL     OW20191   4.182   4.497   1.937  0.1701  0.0314 -0.0675
 2853SOL    HW120192   4.211   4.585   1.963  2.2768 -0.4103 -0.9580
 2853SOL    HW220193   4.089   4.517   1.927  0.1692 -0.1673 -0.4375
 2854SOL     OW20194   3.887   1.495   7.675  0.3708  0.2133  0.3995
 2854SOL    HW120195   3.968   1.539   7.650 -0.4525  1.4529 -0.0833
 2854SOL    HW220196   3.820   1.562   7.663  1.1571  0.7257 -1.1478
 2855SOL     OW20197   0.651   1.578   3.416  0.1502 -0.0600 -0.4027
 2855SOL    HW120198   0.742   1.578   3.447 -0.6703  0.9234  2.0760
 2855SOL    HW220199   0.659   1.542   3.328  0.4012  0.5848 -0.6484
 2856SOL     OW20200   2.981   0.503   4.620 -0.1566 -0.0788  0.2442
 2856SOL    HW120201   3.043   0.573   4.599 -2.0657  2.2199  2.3724
 2856SOL    HW220202   2.920   0.555   4.672 -1.2716  0.4029 -1.5355
 2857SOL     OW20203   1.243   2.987   9.219 -0.0404  0.4619  0.6763
 2857SOL    HW120204   1.230   3.050   9.290  1.9736  1.3339  0.2720
 2857SOL    HW220205   1.239   2.901   9.260 -2.7225  0.0406 -0.4812
 2858SOL     OW20206   0.368   2.589   5.310 -0.6310 -0.4239  0.1876
 2858SOL    HW120207   0.366   2.652   5.238  3.2799 -0.0135  0.4587
 2858SOL    HW220208   0.443   2.534   5.290 -1.2038 -1.6104  1.2880
 2859SOL     OW20209   3.467   4.730   9.569 -0.2236 -0.3221 -0.4199
 2859SOL    HW120210   3.484   4.664   9.502 -3.5534 -1.1347 -0.4991
 2859SOL    HW220211   3.545   0.047   9.567  0.3440 -1.1885 -1.9894
 2860SOL     OW20212   1.400   0.633   6.775  0.2584 -0.5119 -0.5812
 2860SOL    HW120213   1.414   0.540   6.761  1.8687 -0.6062  1.6072
 2860SOL    HW220214   1.471   0.669   6.722  0.9591 -0.4861  0.3731
 2861SOL     OW20215   0.736   1.526   8.763  0.1285 -0.6657  0.0985
 2861SOL    HW120216   0.767   1.612   8.737 -0.9795  0.5920  2.9087
 2861SOL    HW220217   0.645   1.533   8.734 -0.4810 -0.3013  2.1239
 2862SOL     OW20218   1.184   0.899   9.770  0.1548 -0.3953 -0.2168
 2862SOL    HW120219   1.110   0.898   9.710 -0.2902  2.9150  0.2843
 2862SOL    HW220220   1.124   0.905   9.844 -0.0910 -1.0215 -0.3663
 2863SOL     OW20221   3.976   2.123   4.828  0.0782  0.1747  0.2923
 2863SOL    HW120222   3.893   2.166   4.808 -0.3621 -0.4980  0.6775
 2863SOL    HW220223   3.940   2.037   4.851 -0.7949  0.1254 -1.2596
 2864SOL     OW20224   0.103   4.453   4.585  0.0161 -0.5088 -0.1814
 2864SOL    HW120225   0.160   4.443   4.661  0.8168  4.1386 -0.1916
 2864SOL    HW220226   0.115   4.366   4.546 -1.6296 -1.3621  1.2237
 2865SOL     OW20227   4.291   1.389   9.100  0.4882 -0.2456  0.2506
 2865SOL    HW120228   4.248   1.474   9.114 -0.0238 -0.3982 -0.4128
 2865SOL    HW220229   4.278   1.353   9.188  1.7672  1.0574  1.0011
 2866SOL     OW20230   0.260   0.965   4.951  0.1980  0.1214  0.1841
 2866SOL    HW120231   0.236   0.951   4.859 -1.1569  1.1710  0.3828
 2866SOL    HW220232   0.303   0.882   4.969  0.7360  0.0174 -1.5518
 2867SOL     OW20233   0.102   3.014   4.444 -0.5144  0.4797 -0.4254
 2867SOL    HW120234   0.040   3.085   4.460  1.1184  1.9953 -0.8302
 2867SOL    HW220235   0.071   2.945   4.504  2.3659  0.2120  0.7418
 2868SOL     OW20236   3.479   1.645   5.774  0.8855 -0.2727 -0.3242
 2868SOL    HW120237   3.412   1.710   5.755  1.0211 -0.6576 -2.1486
 2868SOL    HW220238   3.481   1.593   5.694  0.5464 -0.0037 -0.5075
 2869SOL     OW20239   4.008   3.057   4.844 -0.7299  0.3266  0.3330
 2869SOL    HW120240   4.024   2.979   4.789 -0.7182  0.2201  0.4871
 2869SOL    HW220241   4.096   3.093   4.845 -1.3966  1.9097  1.6594
 2870SOL     OW20242   4.118   0.116   4.665 -0.1343  0.9215  0.5958
 2870SOL    HW120243   4.122   0.211   4.654  0.9022  1.0394  1.9674
 2870SOL    HW220244   4.072   0.117   4.749 -1.6718  0.7136 -0.2610
 2871SOL     OW20245   1.180   4.243   1.862  0.9002 -0.0097 -0.1111
 2871SOL    HW120246   1.109   4.270   1.919  1.0639 -0.2693  0.2180
 2871SOL    HW220247   1.258   4.269   1.911  1.0835 -3.4012  1.4137
 2872SOL     OW20248   2.837   4.405  16.092 -0.3474  0.2946 -0.0045
 2872SOL    HW120249   2.928   4.430  16.072  0.0404 -1.5851 -0.6493
 2872SOL    HW220250   2.853   4.321  16.135 -1.1680  0.1851  0.0776
 2873SOL     OW20251   2.050   3.362   9.029  0.8202 -0.1860  0.2579
 2873SOL    HW120252   2.073   3.271   9.047  2.1797  0.0988 -0.0748
 2873SOL    HW220253   1.990   3.347   8.956  0.5554 -0.4607  0.5333
 2874SOL     OW20254   1.918   1.190  16.157  0.3447 -0.2603  0.1070
 2874SOL    HW120255   1.832   1.228  16.177  1.5519  1.8170  1.3270
 2874SOL    HW220256   1.901   1.100  16.185 -1.7269 -0.0596 -0.5439
 2875SOL     OW20257   2.441   0.456   3.525 -0.3124 -0.3143  0.3101
 2875SOL    HW120258   2.503   0.448   3.597 -1.1667  1.9000  1.2866
 2875SOL    HW220259   2.480   0.516   3.461 -0.7508  0.5477  0.8537
 2876SOL     OW20260   1.917   2.483   1.626 -0.0575  0.1154 -0.6295
 2876SOL    HW120261   1.855   2.437   1.683  1.1873 -1.2561 -0.3934
 2876SOL    HW220262   1.862   2.539   1.571  0.0603 -1.5120 -2.4021
 2877SOL     OW20263   1.286   0.094   9.608  0.2694 -0.0321  0.5339
 2877SOL    HW120264   1.263   0.001   9.617  1.3578 -0.3710 -0.2053
 2877SOL    HW220265   1.263   0.122   9.697  1.5910  2.6195  0.0350
 2878SOL     OW20266   0.047   1.632  11.815  0.1463 -0.6532 -0.0464
 2878SOL    HW120267   0.066   1.539  11.804  0.3829 -0.3449 -2.3842
 2878SOL    HW220268   0.108   1.644  11.888  1.4536 -2.8481 -0.7867
 2879SOL     OW20269   4.101   1.927  17.298 -0.1982 -0.1612  0.3750
 2879SOL    HW120270   4.130   1.861  17.234 -0.4993 -2.7836  2.9637
 2879SOL    HW220271   4.153   1.916  17.377 -0.6506 -1.6173  0.4640
 2880SOL     OW20272   0.715   1.149   7.511 -0.2372 -0.3190 -0.1475
 2880SOL    HW120273   0.798   1.171   7.470 -0.3863 -1.0917 -0.8600
 2880SOL    HW220274   0.684   1.227   7.559  0.9036 -0.3212  0.5873
 2881SOL     OW20275   1.720   1.540   3.041  0.0966  0.5007  0.0309
 2881SOL    HW120276   1.672   1.459   3.028  0.8985 -0.3885  2.4803
 2881SOL    HW220277   1.762   1.517   3.124  0.8909 -0.3132 -0.6086
 2882SOL     OW20278   3.843   2.514   2.096  0.3010 -0.2242 -0.1757
 2882SOL    HW120279   3.780   2.468   2.040 -1.5703 -0.6572  2.2840
 2882SOL    HW220280   3.924   2.472   2.065 -0.2279 -0.8742 -0.6728
 2883SOL     OW20281   1.702   2.042  16.091 -0.1693 -0.1884  0.4621
 2883SOL    HW120282   1.708   1.965  16.036 -0.6263  0.5017 -0.5503
 2883SOL    HW220283   1.625   2.085  16.053  0.8182  1.0487 -0.1228
 2884SOL     OW20284   0.782   4.204   2.571 -0.2287 -0.0276  0.7846
 2884SOL    HW120285   0.699   4.243   2.598  0.1293  1.6508 -0.5471
 2884SOL    HW220286   0.784   4.250   2.487 -0.2783 -2.0640 -0.3207
 2885SOL     OW20287   4.494   2.426   8.842 -0.0266 -0.8256 -0.2735
 2885SOL    HW120288   4.496   2.415   8.937 -0.1844  1.9265  0.0305
 2885SOL    HW220289   4.401   2.431   8.821  0.1351  2.6350 -0.0265
 2886SOL     OW20290   3.998   3.604   7.146  0.1127 -0.4290  0.5392
 2886SOL    HW120291   3.991   3.541   7.074 -0.7827  1.0119 -0.6310
 2886SOL    HW220292   4.028   3.686   7.108  0.4495 -0.9595 -0.3211
 2887SOL     OW20293   3.987   1.508   2.811  0.0806 -0.1306  0.2465
 2887SOL    HW120294   3.925   1.577   2.787  0.2228 -0.0512  0.1017
 2887SOL    HW220295   4.000   1.544   2.899 -0.3198  0.6788 -0.0254
 2888SOL     OW20296   0.366   1.321  13.220 -0.6182 -0.2880 -0.3994
 2888SOL    HW120297   0.392   1.291  13.307  0.7606  0.5045 -0.5498
 2888SOL    HW220298   0.301   1.385  13.249 -1.7616 -0.6514 -2.0902
 2889SOL     OW20299   3.674   3.593  17.064  0.5877  0.2476  0.1137
 2889SOL    HW120300   3.713   3.594  16.977 -0.9997  1.2542 -0.5772
 2889SOL    HW220301   3.583   3.618  17.049  1.1780  3.1408  1.2711
 2890SOL     OW20302   2.735   3.157  13.062 -0.5825  0.0436 -0.0706
 2890SOL    HW120303   2.653   3.186  13.101 -1.6900 -2.2282 -0.6946
 2890SOL    HW220304   2.719   3.197  12.977  0.4995 -0.6081 -0.5892
 2891SOL     OW20305   3.101   3.922   8.140  0.2629 -0.0013  0.1453
 2891SOL    HW120306   3.071   3.920   8.048 -0.7663 -2.2733  0.5105
 2891SOL    HW220307   3.188   3.957   8.122  0.5163  0.3863  2.2323
 2892SOL     OW20308   3.550   0.958  14.995 -0.3569  0.3820  0.0716
 2892SOL    HW120309   3.578   0.880  15.043 -0.6244  0.2191 -0.0317
 2892SOL    HW220310   3.613   0.964  14.924 -1.8246  0.6647 -1.1978
 2893SOL     OW20311   1.076   2.935   7.038 -0.3571 -0.2176 -0.2180
 2893SOL    HW120312   1.043   3.022   7.060  2.4371  0.3163  1.9085
 2893SOL    HW220313   1.037   2.891   7.114 -0.3050  1.0828  0.5667
 2894SOL     OW20314   1.851   2.090   7.005 -0.2624  0.3530  0.2548
 2894SOL    HW120315   1.786   2.124   7.066 -1.1013  2.3266 -1.7622
 2894SOL    HW220316   1.816   2.002   6.989  0.1574  0.3164 -0.4355
 2895SOL     OW20317   1.131   1.598  16.308  0.1208  0.0411 -0.1495
 2895SOL    HW120318   1.211   1.568  16.351  0.1653 -1.2203 -1.1201
 2895SOL    HW220319   1.071   1.595  16.382  2.8474 -1.0812  2.0310
 2896SOL     OW20320   4.573   1.735   3.115  0.6037 -0.1304  0.1168
 2896SOL    HW120321   4.561   1.769   3.203 -0.2370 -0.5218  0.1584
 2896SOL    HW220322   4.647   1.675   3.124  0.5478 -0.0725  0.9338
 2897SOL     OW20323   1.669   4.031   8.947  0.5068 -0.8121  0.2040
 2897SOL    HW120324   1.680   4.012   8.854 -0.0578 -0.6511  0.1073
 2897SOL    HW220325   1.608   3.966   8.980 -1.6726  0.4534 -1.2976
 2898SOL     OW20326   0.744   0.384  17.401 -0.1215  0.2166 -0.0581
 2898SOL    HW120327   0.797   0.317  17.444 -1.6037 -2.6598 -2.7135
 2898SOL    HW220328   0.783   0.469  17.422  0.8616 -0.5768  1.2937
 2899SOL     OW20329   3.662   0.223  15.141  0.0276 -0.3625  0.5527
 2899SOL    HW120330   3.584   0.198  15.092 -0.0688 -0.2847  0.6666
 2899SOL    HW220331   3.715   0.281  15.086  0.8568  0.9813  2.7595
 2900SOL     OW20332   3.228   0.642   9.124 -0.1439 -0.8464  0.1880
 2900SOL    HW120333   3.207   0.565   9.177  0.7652 -0.3832  1.2112
 2900SOL    HW220334   3.202   0.715   9.180 -1.1468  0.6479 -2.2354
 2901SOL     OW20335   4.511   1.660   9.125 -0.4558  0.5337 -0.6474
 2901SOL    HW120336   4.516   1.742   9.174  2.5489  0.6356 -1.0909
 2901SOL    HW220337   4.454   1.607   9.180  0.6941  0.3554  0.3852
 2902SOL     OW20338   2.826   1.189  10.096  0.5526  0.5578  0.1513
 2902SOL    HW120339   2.773   1.154  10.167 -0.1346  1.2639 -0.0083
 2902SOL    HW220340   2.840   1.108  10.048 -3.3405  0.6411 -1.1575
 2903SOL     OW20341   0.553   4.422  16.767 -0.3146 -0.3539  0.2785
 2903SOL    HW120342   0.467   4.381  16.753 -1.5625  1.6023  2.2803
 2903SOL    HW220343   0.589   4.409  16.679 -0.2983 -0.5432  0.3137
 2904SOL     OW20344   3.239   1.973   7.561 -0.1791 -0.4966 -0.0517
 2904SOL    HW120345   3.317   1.956   7.507  0.8434  1.7987  0.6863
 2904SOL    HW220346   3.170   1.973   7.494 -2.6662 -0.0946  2.5542
 2905SOL     OW20347   0.829   4.299   5.010 -0.6461 -0.0803  0.4754
 2905SOL    HW120348   0.892   4.255   5.068  0.2595 -0.5121 -0.8344
 2905SOL    HW220349   0.845   4.390   5.035 -2.2038  0.2995  0.0276
 2906SOL     OW20350   0.048   2.661   4.468 -0.3230 -0.0948  0.4739
 2906SOL    HW120351   0.064   2.607   4.391  0.9565  0.4358  0.3687
 2906SOL    HW220352   4.725   2.604   4.514 -0.6251  1.4476  2.0137
 2907SOL     OW20353   1.138   3.823  16.626 -0.2848  0.1239  0.0366
 2907SOL    HW120354   1.181   3.738  16.626  1.8709  1.1973  0.3638
 2907SOL    HW220355   1.091   3.801  16.546 -1.4264 -3.6857  1.7968
 2908SOL     OW20356   4.120   3.661   2.170 -0.3638 -0.6159  0.2256
 2908SOL    HW120357   4.037   3.627   2.202 -0.3822 -1.3893 -0.6537
 2908SOL    HW220358   4.158   3.573   2.167 -1.2951 -0.9858 -0.4180
 2909SOL     OW20359   4.373   0.983   6.296 -0.2180 -0.1617  0.3947
 2909SOL    HW120360   4.378   1.075   6.323 -0.7857 -0.5070  1.6556
 2909SOL    HW220361   4.337   0.983   6.207  1.5675  0.0691 -0.3288
 2910SOL     OW20362   0.444   4.158  17.319  0.6315 -0.1992 -0.6392
 2910SOL    HW120363   0.530   4.141  17.359 -1.1745 -2.8427  2.1683
 2910SOL    HW220364   0.469   4.238  17.274  1.2834 -0.5376 -0.8845
 2911SOL     OW20365   3.752   4.483   7.594  0.0858 -0.3576  0.3995
 2911SOL    HW120366   3.844   4.465   7.575 -0.2752  0.5870 -2.0913
 2911SOL    HW220367   3.709   4.529   7.523  1.4934  1.9509  1.0106
 2912SOL     OW20368   0.043   0.434   5.236  0.1338  0.2518 -0.0845
 2912SOL    HW120369   0.063   0.503   5.172  0.3422 -0.8696 -1.2428
 2912SOL    HW220370   0.010   0.487   5.308 -0.3955 -1.3250  0.8327
 2913SOL     OW20371   1.520   0.913  11.849  0.4037 -0.0155 -0.3594
 2913SOL    HW120372   1.506   1.007  11.841 -2.8535 -0.4192  0.6382
 2913SOL    HW220373   1.452   0.888  11.912 -0.3322 -2.3435 -2.0197
 2914SOL     OW20374   4.152   2.498   3.018 -0.1348  0.6746  0.4410
 2914SOL    HW120375   4.180   2.557   3.087 -2.0118  1.6393  0.3977
 2914SOL    HW220376   4.089   2.552   2.969  0.9678  1.1357 -0.4822
 2915SOL     OW20377   0.947   2.556   6.589 -0.2189 -0.2881  0.1195
 2915SOL    HW120378   0.870   2.571   6.535  0.4233  0.4786 -0.5604
 2915SOL    HW220379   1.017   2.537   6.527  0.2224  0.5742  0.3546
 2916SOL     OW20380   3.007   4.111  15.777 -0.2214  0.6445  0.2094
 2916SOL    HW120381   2.973   4.201  15.777  0.8629  1.0567 -2.7363
 2916SOL    HW220382   3.101   4.133  15.778  0.4856 -2.4913  1.3594
 2917SOL     OW20383   1.133   0.262   7.555  0.2800 -0.4459 -0.3261
 2917SOL    HW120384   1.150   0.275   7.648 -3.2655 -1.5348  0.4991
 2917SOL    HW220385   1.195   0.318   7.509 -1.3003  0.2254 -1.6278
 2918SOL     OW20386   2.073   1.734   9.466 -0.2713 -0.4480 -0.3189
 2918SOL    HW120387   1.981   1.715   9.451 -0.0935 -1.1212 -0.5963
 2918SOL    HW220388   2.112   1.650   9.494 -1.6738 -1.1619 -0.5244
 2919SOL     OW20389   1.299   2.423  15.593  0.2381  0.0901  0.4304
 2919SOL    HW120390   1.209   2.397  15.574  0.5912 -0.0677 -0.9705
 2919SOL    HW220391   1.302   2.384  15.681 -0.3087 -0.9646 -0.0155
 2920SOL     OW20392   2.073   1.083   7.227  0.5099 -0.2832 -0.0331
 2920SOL    HW120393   2.034   1.025   7.161 -1.5059 -0.2323  1.1088
 2920SOL    HW220394   1.995   1.131   7.254  1.2516  1.2283 -0.5969
 2921SOL     OW20395   4.563   0.620   3.101  0.3809  0.0224  0.2413
 2921SOL    HW120396   4.508   0.555   3.144  2.5364 -2.4763 -0.8192
 2921SOL    HW220397   4.512   0.641   3.023 -0.5219 -0.6554  0.6467
 2922SOL     OW20398   3.627   0.193   8.391 -0.5543 -0.1678  0.2166
 2922SOL    HW120399   3.624   0.110   8.344  0.3704  0.4085 -0.8527
 2922SOL    HW220400   3.573   0.173   8.468 -0.7999  0.3445  0.1784
 2923SOL     OW20401   3.708   1.187   1.980  0.0982  0.8078 -0.0348
 2923SOL    HW120402   3.727   1.119   2.046  0.2300 -0.6903 -1.6175
 2923SOL    HW220403   3.745   1.135   1.908 -2.0262 -0.1462 -0.4316
 2924SOL     OW20404   2.876   2.787  13.753  0.0857 -0.4286 -0.4644
 2924SOL    HW120405   2.804   2.759  13.811 -0.1079  0.6627 -0.1669
 2924SOL    HW220406   2.863   2.730  13.678  2.3257 -2.3418  0.6292
 2925SOL     OW20407   1.226   3.497   6.672  0.5221  0.1230  0.1418
 2925SOL    HW120408   1.159   3.486   6.739  0.6487  0.8473  0.3871
 2925SOL    HW220409   1.198   3.584   6.643  0.2717 -0.1283 -0.3814
 2926SOL     OW20410   4.547   4.729   4.812 -0.2853 -0.4938 -0.0970
 2926SOL    HW120411   4.504   4.678   4.744  0.2849 -2.5573  1.0771
 2926SOL    HW220412   4.637   4.726   4.780  0.2999  3.8284  1.0598
 2927SOL     OW20413   2.807   3.608   7.194 -0.0438 -0.8726 -0.2536
 2927SOL    HW120414   2.835   3.582   7.106 -1.4912 -1.2896 -0.5893
 2927SOL    HW220415   2.778   3.529   7.239 -0.8985  0.0534  0.8145
 2928SOL     OW20416   3.127   2.632   3.934  0.4100 -0.4207  0.3637
 2928SOL    HW120417   3.189   2.637   4.006 -0.4247  0.8185  0.9853
 2928SOL    HW220418   3.159   2.553   3.889  1.0311 -0.2058  0.4263
 2929SOL     OW20419   0.407   2.136   9.327  0.1056 -0.6871 -0.3402
 2929SOL    HW120420   0.377   2.066   9.269  0.0723 -0.8952 -0.0713
 2929SOL    HW220421   0.378   2.094   9.408 -0.5228 -1.4733 -0.9718
 2930SOL     OW20422   3.481   2.659   9.971  0.4169 -0.1069 -0.2438
 2930SOL    HW120423   3.504   2.744   9.933 -1.9315 -0.5347 -2.5767
 2930SOL    HW220424   3.531   2.615   9.902 -0.7571 -1.2397 -0.3607
 2931SOL     OW20425   2.915   1.918   4.472  0.4984 -0.0224  0.6975
 2931SOL    HW120426   2.834   1.874   4.496  0.9376 -0.6735  0.9953
 2931SOL    HW220427   2.879   1.980   4.409  0.8021 -1.1622 -0.5941
 2932SOL     OW20428   1.190   3.035   8.752 -0.6951 -0.0981 -0.4108
 2932SOL    HW120429   1.121   3.071   8.697 -1.8495 -1.3563  0.2206
 2932SOL    HW220430   1.144   3.020   8.834  0.2016  2.4916  0.5719
 2933SOL     OW20431   2.869   0.526   3.509  0.0370 -0.4508 -0.1609
 2933SOL    HW120432   2.900   0.615   3.525 -1.9386  0.1797  0.2268
 2933SOL    HW220433   2.835   0.532   3.420  3.0545 -0.8824 -1.3393
 2934SOL     OW20434   0.234   0.815   5.390 -0.0854  0.0060 -0.5559
 2934SOL    HW120435   0.192   0.773   5.465  0.1852  0.2513 -0.2693
 2934SOL    HW220436   0.166   0.860   5.340  0.3436 -0.3994 -1.5043
 2935SOL     OW20437   3.391   1.740   5.031  0.3764 -0.6236  0.0424
 2935SOL    HW120438   3.309   1.777   4.998  1.0728  2.6183  1.9424
 2935SOL    HW220439   3.453   1.786   4.974 -0.8123 -0.2981 -0.9934
 2936SOL     OW20440   2.488   0.720   4.689 -0.4146 -0.4484  0.4391
 2936SOL    HW120441   2.546   0.648   4.713 -0.3450 -0.1252  1.2180
 2936SOL    HW220442   2.540   0.769   4.625 -1.0177 -0.6801 -0.2250
 2937SOL     OW20443   2.397   0.200   2.136  0.0513  0.3098  0.1688
 2937SOL    HW120444   2.375   0.265   2.069 -0.9019  0.8751  1.0407
 2937SOL    HW220445   2.398   0.124   2.078  0.0149  0.6692 -0.3072
 2938SOL     OW20446   4.299   0.025  11.107  0.2389  0.0169 -0.3702
 2938SOL    HW120447   4.341   0.034  11.021 -2.0791 -0.9973 -1.6233
 2938SOL    HW220448   4.221   0.078  11.092 -1.0045 -1.6498  0.1904
 2939SOL     OW20449   0.037   2.239  13.441 -0.3234 -0.7004  0.3469
 2939SOL    HW120450   4.699   2.247  13.498 -0.7260  2.1293 -0.5782
 2939SOL    HW220451   0.116   2.254  13.494  0.1492 -1.8116 -0.0483
 2940SOL     OW20452   0.377   1.339  12.045  0.6103  0.1387 -0.1046
 2940SOL    HW120453   0.470   1.315  12.043  0.9080  1.2959 -0.2971
 2940SOL    HW220454   0.359   1.277  11.975  0.3405  1.7154 -1.4203
 2941SOL     OW20455   4.710   0.110   2.310 -0.3746 -0.6902 -0.5623
 2941SOL    HW120456   0.061   0.103   2.277  0.1736  3.1087  0.1647
 2941SOL    HW220457   4.726   0.091   2.402  0.7297  0.1794 -0.5768
 2942SOL     OW20458   3.870   2.688   6.751  0.0068  0.4775  0.2240
 2942SOL    HW120459   3.793   2.741   6.774 -0.8276 -1.2336  1.3593
 2942SOL    HW220460   3.905   2.667   6.837 -0.6587  0.4825  0.4953
 2943SOL     OW20461   2.855   2.899   4.086 -0.5308 -0.0327  0.4632
 2943SOL    HW120462   2.841   2.848   4.006  1.4638 -1.8489  1.2591
 2943SOL    HW220463   2.853   2.829   4.151 -2.6882 -0.6124 -0.2330
 2944SOL     OW20464   1.395   1.076  17.232  0.2778  0.4186  0.1936
 2944SOL    HW120465   1.365   1.047  17.146  1.3083  1.1238 -0.4050
 2944SOL    HW220466   1.344   1.157  17.231  1.6123  1.2518 -0.9881
 2945SOL     OW20467   1.872   1.189   8.359 -0.1747  0.4791  0.4131
 2945SOL    HW120468   1.820   1.140   8.294  0.4341  0.2434  0.1022
 2945SOL    HW220469   1.962   1.179   8.328 -0.3584 -0.8272  0.2978
 2946SOL     OW20470   0.877   0.645  15.133 -0.1158 -0.2430  0.1944
 2946SOL    HW120471   0.872   0.549  15.125  1.9406 -0.1906 -1.7606
 2946SOL    HW220472   0.793   0.667  15.174 -0.2833  0.1392 -0.3528
 2947SOL     OW20473   3.172   0.228   8.823 -0.5427 -0.2161 -0.1098
 2947SOL    HW120474   3.201   0.172   8.895  0.4561 -1.3328 -1.3741
 2947SOL    HW220475   3.111   0.273   8.881 -0.3099  1.1259 -0.9053
 2948SOL     OW20476   3.479   2.188   7.649 -0.3177  0.5928  0.1527
 2948SOL    HW120477   3.526   2.254   7.699  1.2907 -1.0768  0.8600
 2948SOL    HW220478   3.460   2.236   7.569  1.0095 -1.8745 -1.6748
 2949SOL     OW20479   1.002   3.301   6.285 -0.4714 -0.3791 -0.1533
 2949SOL    HW120480   1.083   3.321   6.238 -0.1038  0.0148  0.6559
 2949SOL    HW220481   1.034   3.325   6.372  1.6460  0.3040 -1.1241
 2950SOL     OW20482   2.454   1.412  15.339 -0.0679  0.4886  0.0374
 2950SOL    HW120483   2.442   1.336  15.395  1.7728  0.7688  0.8056
 2950SOL    HW220484   2.443   1.486  15.399  1.7605 -0.1774  1.1694
 2951SOL     OW20485   0.666   4.354   7.814 -0.0025 -0.5660 -0.3868
 2951SOL    HW120486   0.608   4.430   7.811  0.6781 -0.1370 -2.9337
 2951SOL    HW220487   0.612   4.284   7.778  0.4418 -0.1162 -1.9547
 2952SOL     OW20488   3.594   2.441   7.700  0.1271  0.1572 -0.1974
 2952SOL    HW120489   3.646   2.452   7.780  2.6139  1.3599 -1.9769
 2952SOL    HW220490   3.531   2.511   7.715 -0.0475 -0.1729  0.5842
 2953SOL     OW20491   2.558   3.250   8.286  0.7341  0.4288  0.6917
 2953SOL    HW120492   2.529   3.171   8.331  0.8222  0.8532  1.5048
 2953SOL    HW220493   2.652   3.232   8.288  0.3416 -1.7605 -0.3398
 2954SOL     OW20494   4.326   0.659  12.545  0.2761  0.3803 -0.4178
 2954SOL    HW120495   4.288   0.641  12.631 -0.4906  0.4722 -0.7355
 2954SOL    HW220496   4.419   0.645  12.558 -0.4955 -1.6717  2.9829
 2955SOL     OW20497   1.134   0.424   2.280  0.7558 -0.1223 -0.0866
 2955SOL    HW120498   1.098   0.511   2.263 -0.1865 -0.2713  1.1100
 2955SOL    HW220499   1.110   0.418   2.373 -2.4602 -0.6375 -0.9593
 2956SOL     OW20500   4.396   1.038   3.121  0.3391  0.0502 -0.4027
 2956SOL    HW120501   4.382   1.116   3.067 -0.2908  1.2282  1.4517
 2956SOL    HW220502   4.305   1.025   3.148  0.2651  3.2450  0.9975
 2957SOL     OW20503   4.737   0.915   4.286  0.4825  0.3343 -0.8169
 2957SOL    HW120504   0.010   0.828   4.326 -0.6465 -0.4808 -2.2440
 2957SOL    HW220505   4.642   0.917   4.292  0.4760  0.6441 -1.0677
 2958SOL     OW20506   2.247   3.122   3.449 -0.3430 -0.3959  0.0407
 2958SOL    HW120507   2.305   3.068   3.397 -0.0903  0.2515 -0.3474
 2958SOL    HW220508   2.214   3.181   3.381  0.9956  1.4355  0.9644
 2959SOL     OW20509   0.049   2.915   3.245 -0.3711 -0.4045  0.2204
 2959SOL    HW120510   4.738   2.866   3.311 -0.2905  0.9437  1.2789
 2959SOL    HW220511   0.030   2.878   3.159  2.5735 -0.4023 -0.4438
 2960SOL     OW20512   1.877   3.109   7.944  0.5602 -0.0043  0.4153
 2960SOL    HW120513   1.957   3.092   7.895 -0.3468 -1.5019 -0.5287
 2960SOL    HW220514   1.903   3.186   7.995  1.0076  0.7669 -0.9764
 2961SOL     OW20515   3.706   0.127   5.891 -0.4255  0.1648  0.0794
 2961SOL    HW120516   3.728   0.117   5.983  1.1786  1.8656 -0.1419
 2961SOL    HW220517   3.611   0.138   5.892 -0.1845  1.8034  2.6641
 2962SOL     OW20518   1.173   0.090   9.866  0.0140  0.4167  1.0927
 2962SOL    HW120519   1.240   0.046   9.919  0.3091 -3.1961 -2.2564
 2962SOL    HW220520   1.095   0.065   9.915  0.9519  0.2008  2.4641
 2963SOL     OW20521   3.122   0.931   2.957  0.1650 -0.5736 -0.4576
 2963SOL    HW120522   3.044   0.879   2.938 -1.0362  0.8292  0.6604
 2963SOL    HW220523   3.131   0.995   2.887  3.0121 -0.5416 -0.0481
 2964SOL     OW20524   0.045   1.006   7.102  0.7784 -0.2190 -0.0287
 2964SOL    HW120525   0.043   0.912   7.085  0.0104 -0.2872  0.4242
 2964SOL    HW220526   0.040   0.999   7.198 -2.3360  2.9049  0.0284
 2965SOL     OW20527   1.644   0.145  12.288  0.1892  0.4363  0.2752
 2965SOL    HW120528   1.612   0.133  12.378 -0.4225  1.0382  0.1314
 2965SOL    HW220529   1.712   0.078  12.294 -0.7571 -0.5304  0.1570
 2966SOL     OW20530   3.764   3.725   8.288 -0.2599  0.4428  0.0613
 2966SOL    HW120531   3.788   3.781   8.214 -3.1295  2.4037  0.6360
 2966SOL    HW220532   3.669   3.723   8.286 -0.2473  0.7173 -0.7009
 2967SOL     OW20533   0.263   2.726   6.862  0.2460  0.0184 -0.7330
 2967SOL    HW120534   0.198   2.707   6.794 -0.4470  1.7509 -0.5564
 2967SOL    HW220535   0.212   2.794   6.907 -1.5715 -2.3128  0.7312
 2968SOL     OW20536   1.599   1.554   7.353 -0.0496  0.0878 -0.2883
 2968SOL    HW120537   1.606   1.648   7.369  1.4251 -0.4051  1.9137
 2968SOL    HW220538   1.596   1.534   7.446  0.6322  0.8497 -0.1010
 2969SOL     OW20539   3.814   0.276  11.089  0.0192 -0.3432 -0.0535
 2969SOL    HW120540   3.797   0.366  11.063 -1.9854  0.1779  2.9748
 2969SOL    HW220541   3.724   0.250  11.112 -0.0173  0.4997  0.7519
 2970SOL     OW20542   2.825   3.128  14.394 -0.3081 -0.3956 -0.4265
 2970SOL    HW120543   2.820   3.143  14.488  1.4978  0.1637 -0.4353
 2970SOL    HW220544   2.762   3.196  14.371  0.3794 -0.3025 -2.0001
 2971SOL     OW20545   1.506   3.929  13.172 -0.1414 -0.4088 -0.4036
 2971SOL    HW120546   1.511   3.956  13.264 -0.7557  0.0260 -0.5042
 2971SOL    HW220547   1.465   4.003  13.128 -0.1997  0.5300  1.2315
 2972SOL     OW20548   3.657   3.384   1.971  0.3134  0.0945 -0.0417
 2972SOL    HW120549   3.569   3.417   1.990  0.5577  0.4193  0.5128
 2972SOL    HW220550   3.646   3.347   1.884 -2.0353  2.3082 -0.6854
 2973SOL     OW20551   4.350   2.880   9.613  0.1071  0.3634  0.0849
 2973SOL    HW120552   4.302   2.799   9.633  0.9896  0.0474  0.9322
 2973SOL    HW220553   4.323   2.902   9.524  2.6310  2.2167 -0.2220
 2974SOL     OW20554   0.161   4.500   3.160 -0.1332  0.3927 -0.0873
 2974SOL    HW120555   0.220   4.497   3.235 -2.0189  1.5649  1.4491
 2974SOL    HW220556   0.211   4.436   3.109 -1.3882 -0.8871  0.2943
 2975SOL     OW20557   2.886   3.412   5.822 -0.8425 -0.1601  0.3188
 2975SOL    HW120558   2.833   3.482   5.860 -1.6663 -0.6187  0.0153
 2975SOL    HW220559   2.971   3.456   5.817 -2.3518  2.5853 -1.2377
 2976SOL     OW20560   4.093   3.210   6.416 -0.3252 -0.3145  0.1651
 2976SOL    HW120561   4.025   3.202   6.483  1.2204 -1.1931  1.6554
 2976SOL    HW220562   4.162   3.158   6.458 -0.9388 -0.3954  1.0764
 2977SOL     OW20563   3.543   3.645   6.977 -0.0030  0.6247 -0.7473
 2977SOL    HW120564   3.560   3.739   6.975  2.9070  0.1023 -1.5943
 2977SOL    HW220565   3.482   3.647   6.904 -2.1372 -1.4384  0.9988
 2978SOL     OW20566   0.460   4.543   7.802  0.3021  0.1259 -0.1387
 2978SOL    HW120567   0.473   4.569   7.710 -1.8626 -3.0678 -1.3469
 2978SOL    HW220568   0.380   4.593   7.821 -0.3399 -0.4930 -1.2015
 2979SOL     OW20569   3.684   2.751  11.140 -0.1394 -0.1128  0.1634
 2979SOL    HW120570   3.654   2.665  11.171 -1.3511  0.2369 -0.0684
 2979SOL    HW220571   3.715   2.785  11.224  0.1192 -2.1729  0.9223
 2980SOL     OW20572   3.881   1.346   5.598  0.0934 -0.2838  0.0652
 2980SOL    HW120573   3.863   1.416   5.536  2.1170  0.6411  0.5045
 2980SOL    HW220574   3.974   1.358   5.614 -0.3158  2.2954  0.4165
 2981SOL     OW20575   0.049   4.125   1.067 -0.3271  0.3624  0.3910
 2981SOL    HW120576   0.064   4.141   0.974  2.0487 -1.6894  0.4253
 2981SOL    HW220577   4.695   4.100   1.077 -0.8990  3.1448  2.0070
 2982SOL     OW20578   2.112   3.175  11.536 -0.3565  0.0503 -0.1449
 2982SOL    HW120579   2.124   3.086  11.503  0.6899  0.1215  0.0253
 2982SOL    HW220580   2.172   3.180  11.610 -0.6929 -0.0463  0.1321
 2983SOL     OW20581   4.547   2.985   2.744  0.0972  0.2036 -0.4648
 2983SOL    HW120582   4.554   2.890   2.740  1.1043  0.2244  0.7145
 2983SOL    HW220583   4.597   3.008   2.823  0.3286  0.0318 -0.5600
 2984SOL     OW20584   4.505   2.139   1.071 -0.1304  0.1383  0.0527
 2984SOL    HW120585   4.458   2.058   1.051  0.5281  0.3137 -2.3088
 2984SOL    HW220586   4.579   2.133   1.010 -0.4858  4.4082 -0.8024
 2985SOL     OW20587   4.206   3.104   4.642  0.4538 -0.0114  0.6387
 2985SOL    HW120588   4.270   3.086   4.573 -0.0363  1.3868 -0.1803
 2985SOL    HW220589   4.247   3.071   4.722 -0.9058 -1.1389  0.8599
 2986SOL     OW20590   3.930   0.407   8.609 -0.2506 -0.5460  1.0789
 2986SOL    HW120591   3.980   0.464   8.550 -2.1407  0.2332  0.2562
 2986SOL    HW220592   3.960   0.455   8.687 -0.8636 -1.5080  1.9028
 2987SOL     OW20593   0.892   3.337   3.433  0.5735  0.3169  0.1666
 2987SOL    HW120594   0.828   3.378   3.491 -1.6296 -0.2503 -1.8621
 2987SOL    HW220595   0.970   3.392   3.447 -0.0056  1.5868 -1.5419
 2988SOL     OW20596   2.244   4.530  14.533  0.0106  0.1798  0.1394
 2988SOL    HW120597   2.294   4.466  14.482  0.1523 -0.2619  0.8294
 2988SOL    HW220598   2.169   4.546  14.476 -1.6157 -1.9307  1.6791
 2989SOL     OW20599   2.358   2.820   4.470 -0.4109  0.0650 -0.1378
 2989SOL    HW120600   2.310   2.883   4.524 -2.5536 -0.7150 -1.1394
 2989SOL    HW220601   2.420   2.782   4.532 -0.3376  1.3000  0.5520
 2990SOL     OW20602   1.415   2.868   5.601  0.1690 -0.0167  0.2548
 2990SOL    HW120603   1.487   2.824   5.647 -1.3511 -2.2202  0.5032
 2990SOL    HW220604   1.462   2.881   5.519  2.3602  0.0167  1.5123
 2991SOL     OW20605   2.180   1.808   5.887 -0.7258 -0.3451  0.2189
 2991SOL    HW120606   2.239   1.874   5.925 -1.3028  0.8088 -0.8797
 2991SOL    HW220607   2.095   1.839   5.917 -0.6893 -0.1058  0.0788
 2992SOL     OW20608   0.794   2.487   1.926  0.2683 -0.5045 -0.2485
 2992SOL    HW120609   0.804   2.477   1.832 -2.1975  1.1290 -0.6740
 2992SOL    HW220610   0.836   2.411   1.965 -0.3307  0.0779  1.5532
 2993SOL     OW20611   1.815   4.387   7.912  0.0017  0.0754 -0.2270
 2993SOL    HW120612   1.806   4.451   7.842  1.9317  1.7848  1.0705
 2993SOL    HW220613   1.771   4.308   7.881  0.2994 -0.0482 -0.3272
 2994SOL     OW20614   1.512   1.090   0.573  0.1243 -0.1833 -0.1939
 2994SOL    HW120615   1.516   1.151   0.646 -0.9930 -0.7309  0.3202
 2994SOL    HW220616   1.486   1.011   0.621 -0.6738  0.9367  1.2017
 2995SOL     OW20617   3.405   0.124   7.221  0.2829 -0.1953 -0.2474
 2995SOL    HW120618   3.428   0.069   7.296 -0.2629 -2.6654 -1.8985
 2995SOL    HW220619   3.387   0.056   7.156 -2.1217  0.5020 -0.3215
 2996SOL     OW20620   2.976   3.438   8.179 -0.2376  0.5059  0.1369
 2996SOL    HW120621   3.059   3.395   8.197 -0.6478 -0.2512  0.2387
 2996SOL    HW220622   2.961   3.487   8.261  1.2108 -0.9790  1.2948
 2997SOL     OW20623   3.942   4.029   4.785  0.2829  0.5778 -0.1676
 2997SOL    HW120624   3.974   3.986   4.706 -0.3572  0.0160 -0.1205
 2997SOL    HW220625   3.857   3.986   4.797  1.5128 -1.4372  1.2912
 2998SOL     OW20626   2.272   4.363  14.930 -0.9578  0.2588 -0.1584
 2998SOL    HW120627   2.209   4.409  14.875 -2.3010 -0.5443  0.6946
 2998SOL    HW220628   2.349   4.366  14.873  0.3530 -1.7847  1.4968
 2999SOL     OW20629   4.576   2.514   9.775 -0.1470  0.0692 -0.1158
 2999SOL    HW120630   4.613   2.436   9.814 -2.7062 -0.6407  0.9189
 2999SOL    HW220631   4.612   2.497   9.688 -1.4057 -1.5884 -0.3159
 3000SOL     OW20632   0.630   1.348   4.607 -0.2777 -0.2714  0.4301
 3000SOL    HW120633   0.719   1.378   4.620  0.3048 -1.1159 -1.5924
 3000SOL    HW220634   0.607   1.309   4.692  0.9781 -1.2821  0.2952
 3001SOL     OW20635   2.876   2.119   4.096  0.3031 -0.5560 -0.0486
 3001SOL    HW120636   2.801   2.177   4.107  0.8912 -0.1564  1.7478
 3001SOL    HW220637   2.926   2.161   4.026  0.1280 -0.5856 -0.1925
 3002SOL     OW20638   1.432   3.210   4.998  0.0875  0.0499 -0.1527
 3002SOL    HW120639   1.518   3.178   5.025 -0.1412 -0.7525 -0.3822
 3002SOL    HW220640   1.417   3.175   4.910 -0.5483 -0.6061  0.2191
 3003SOL     OW20641   2.492   2.517   1.642  0.4769  0.4946 -0.0932
 3003SOL    HW120642   2.464   2.597   1.687  0.1605  0.6795 -0.6140
 3003SOL    HW220643   2.410   2.479   1.612  0.0805 -0.4079  2.1292
 3004SOL     OW20644   4.477   2.217   3.425  0.4612 -0.9490 -0.2573
 3004SOL    HW120645   4.390   2.211   3.385  0.7260  2.8828 -1.3706
 3004SOL    HW220646   4.478   2.146   3.489 -0.0830  0.0798  0.8769
 3005SOL     OW20647   4.359   0.550   2.360  0.1146  0.2450  0.4700
 3005SOL    HW120648   4.316   0.634   2.379 -1.3527 -0.9641  2.5676
 3005SOL    HW220649   4.314   0.519   2.282  0.2450 -1.3669  1.0351
 3006SOL     OW20650   1.587   0.297   5.201 -0.4737  0.5572 -0.4271
 3006SOL    HW120651   1.643   0.230   5.239 -1.2994  0.2823  0.3129
 3006SOL    HW220652   1.504   0.292   5.249 -2.3820 -0.1811 -3.7882
 3007SOL     OW20653   1.909   1.926   9.646 -0.3077  0.0148 -0.6321
 3007SOL    HW120654   1.913   1.871   9.724  1.3501  0.5340 -0.3636
 3007SOL    HW220655   1.959   1.871   9.585  1.0682  0.2998  0.2431
 3008SOL     OW20656   1.917   1.859   5.922  0.2707  0.7235  0.4140
 3008SOL    HW120657   1.892   1.806   5.998  0.9911  0.1655  0.2580
 3008SOL    HW220658   1.848   1.824   5.866 -1.6172  2.0361  1.9104
 3009SOL     OW20659   0.502   2.838   5.757  0.1952 -0.1477 -0.0095
 3009SOL    HW120660   0.419   2.848   5.804  0.6697 -0.9117  1.0164
 3009SOL    HW220661   0.478   2.788   5.679  0.8423 -0.9922  0.3232
 3010SOL     OW20662   4.452   2.502   3.235  0.3150  0.7310  0.1694
 3010SOL    HW120663   4.400   2.423   3.222 -1.4048  1.5637  1.9927
 3010SOL    HW220664   4.461   2.533   3.145 -0.4428  1.5714  0.3849
 3011SOL     OW20665   0.079   4.228  17.315 -0.0176  0.2070 -0.2170
 3011SOL    HW120666   0.135   4.267  17.248  0.3952  0.5017  0.3026
 3011SOL    HW220667   0.000   4.206  17.264 -1.4877  2.9378  0.8688
 3012SOL     OW20668   0.576   4.309   8.129  0.0140  0.1403  0.4298
 3012SOL    HW120669   0.562   4.399   8.100  0.4802 -0.3527 -1.3353
 3012SOL    HW220670   0.664   4.287   8.099  0.2966 -1.5779  2.5347
 3013SOL     OW20671   0.505   3.847  14.227 -0.3434  0.4898 -0.3950
 3013SOL    HW120672   0.485   3.930  14.270  0.5715  0.2888  0.4127
 3013SOL    HW220673   0.590   3.861  14.186 -0.1093 -0.2384 -0.1720
 3014SOL     OW20674   2.894   4.307   2.514 -0.1702 -0.2287  0.0531
 3014SOL    HW120675   2.889   4.333   2.606  0.4362  0.6460 -0.1551
 3014SOL    HW220676   2.977   4.259   2.507  0.5141  1.2558 -2.0934
 3015SOL     OW20677   1.140   3.603   8.070 -0.5093 -0.4661  0.7025
 3015SOL    HW120678   1.094   3.526   8.034 -1.7451  0.2297  0.7818
 3015SOL    HW220679   1.101   3.674   8.019  1.8269  0.7201  0.5673
 3016SOL     OW20680   3.849   0.968   9.410 -0.2434 -0.0155 -0.4105
 3016SOL    HW120681   3.823   0.885   9.371 -1.5145  0.3569 -0.3599
 3016SOL    HW220682   3.784   0.977   9.480  0.4357  0.0288  0.2136
 3017SOL     OW20683   2.676   3.143   0.659 -0.4426 -0.2366  0.0075
 3017SOL    HW120684   2.701   3.208   0.593  0.0248 -0.1064  0.3140
 3017SOL    HW220685   2.601   3.104   0.613 -0.1696 -0.6642 -0.0716
 3018SOL     OW20686   3.283   3.372   4.862  0.3917  0.2162 -0.0968
 3018SOL    HW120687   3.335   3.352   4.783  2.6088  1.5219  1.0180
 3018SOL    HW220688   3.322   3.449   4.905  1.0373 -1.0221  1.5343
 3019SOL     OW20689   0.548   2.775   6.108  0.0610 -0.7650 -0.7261
 3019SOL    HW120690   0.616   2.777   6.176  0.1799 -1.1914 -0.8299
 3019SOL    HW220691   0.541   2.869   6.091 -1.0955 -0.8226 -0.5506
 3020SOL     OW20692   0.360   3.581  16.441 -0.0584  0.1933  0.2126
 3020SOL    HW120693   0.409   3.630  16.376 -2.3819  1.9360 -0.2188
 3020SOL    HW220694   0.417   3.582  16.518  0.1006  1.1185  0.0782
 3021SOL     OW20695   1.541   2.699   5.212  0.4648 -0.0220 -0.0929
 3021SOL    HW120696   1.632   2.686   5.240  1.6214 -0.1702 -4.0022
 3021SOL    HW220697   1.543   2.713   5.118 -0.6711  1.9352  0.1815
 3022SOL     OW20698   2.130   2.105   8.577 -0.3166  0.3283 -0.3611
 3022SOL    HW120699   2.202   2.139   8.524 -1.0891  1.4754 -0.6746
 3022SOL    HW220700   2.174   2.073   8.656  0.8192  0.5399 -0.9171
 3023SOL     OW20701   1.595   2.843   6.896  0.1893  0.1953 -0.1192
 3023SOL    HW120702   1.502   2.863   6.906  0.3833  2.1960 -2.3926
 3023SOL    HW220703   1.585   2.779   6.825 -0.0267  0.1073 -0.0101
 3024SOL     OW20704   3.812   2.801   4.775 -0.1057  0.3392  0.6162
 3024SOL    HW120705   3.749   2.813   4.704  2.0074 -0.6835 -1.4206
 3024SOL    HW220706   3.899   2.828   4.745  0.3912 -2.1161 -0.1693
 3025SOL     OW20707   2.355   0.434   1.054 -0.0498  0.1166  0.0308
 3025SOL    HW120708   2.370   0.362   0.992 -0.5226 -1.5520  1.8631
 3025SOL    HW220709   2.419   0.498   1.023 -0.5131 -0.7011 -2.6467
 3026SOL     OW20710   3.580   0.823   2.242 -0.2645  0.1667 -0.2442
 3026SOL    HW120711   3.592   0.754   2.307  0.0409 -0.1780 -0.6582
 3026SOL    HW220712   3.511   0.791   2.184 -2.3294  0.3465  2.1322
 3027SOL     OW20713   2.564   1.047   6.146 -0.3941 -0.1692  0.0888
 3027SOL    HW120714   2.608   0.962   6.133  2.2955  0.5743  4.3318
 3027SOL    HW220715   2.575   1.097   6.065 -2.2609 -2.3660 -1.5293
 3028SOL     OW20716   4.499   2.448   0.210  0.4458 -0.6401 -0.3560
 3028SOL    HW120717   4.476   2.526   0.262 -0.3953 -1.1740  0.0796
 3028SOL    HW220718   4.585   2.443   0.251  1.2048  1.3524 -1.6993
 3029SOL     OW20719   0.819   1.607   3.750  0.1229 -0.4348 -0.4177
 3029SOL    HW120720   0.813   1.557   3.668 -1.3367  0.1659 -0.6757
 3029SOL    HW220721   0.777   1.543   3.807  1.3766 -1.5956 -0.7952
 3030SOL     OW20722   4.309   3.569   2.416 -0.2251 -0.6687 -0.1513
 3030SOL    HW120723   4.322   3.496   2.356 -2.8179 -1.4481  0.2318
 3030SOL    HW220724   4.370   3.630   2.374 -2.9575  2.0591 -0.1943
 3031SOL     OW20725   1.655   0.976  12.637 -0.3543 -0.1069 -0.4076
 3031SOL    HW120726   1.667   0.988  12.731 -1.9969 -0.1486 -0.2025
 3031SOL    HW220727   1.748   0.968  12.615 -0.4564 -1.9385 -0.1208
 3032SOL     OW20728   0.947   1.004  10.672  0.6877 -0.4751 -0.1400
 3032SOL    HW120729   0.982   0.917  10.694  2.9402  0.6042  0.5492
 3032SOL    HW220730   1.005   1.058  10.725 -2.5850  1.9168  1.0045
 3033SOL     OW20731   1.768   2.423  16.584  0.1232  0.1191  1.0237
 3033SOL    HW120732   1.675   2.439  16.569  0.0387 -0.4316  0.9507
 3033SOL    HW220733   1.811   2.505  16.610 -0.7085  1.2365 -1.1558
 3034SOL     OW20734   1.858   0.775   5.646  0.5104 -0.2239 -0.0041
 3034SOL    HW120735   1.833   0.867   5.640  0.4230 -0.3112 -0.9315
 3034SOL    HW220736   1.921   0.782   5.718  0.9656 -0.1820 -0.4035
 3035SOL     OW20737   3.931   3.400   5.848 -0.2542  0.7232  0.1855
 3035SOL    HW120738   3.915   3.457   5.923  1.7066  1.0629  0.3455
 3035SOL    HW220739   3.975   3.471   5.802 -0.7412  1.3896  0.7528
 3036SOL     OW20740   1.533   3.871   5.775 -0.6553  0.0829 -0.1184
 3036SOL    HW120741   1.455   3.866   5.720  0.0820 -1.5445 -1.0285
 3036SOL    HW220742   1.500   3.908   5.857 -0.3284  1.0056 -0.4022
 3037SOL     OW20743   2.716   2.687   6.351 -0.3990 -0.0245 -0.6739
 3037SOL    HW120744   2.778   2.758   6.367  1.8992 -1.4912 -3.0205
 3037SOL    HW220745   2.668   2.721   6.426  0.9736 -0.4686  0.4036
 3038SOL     OW20746   2.791   0.545   6.468  0.2001 -0.1352  0.0486
 3038SOL    HW120747   2.720   0.550   6.532 -0.6952 -2.3314 -0.7567
 3038SOL    HW220748   2.867   0.573   6.518  0.4777 -1.1114  0.1748
 3039SOL     OW20749   1.096   0.777  17.072 -0.2361 -0.2900  0.8555
 3039SOL    HW120750   1.144   0.856  17.047 -1.4336  0.3023  0.4295
 3039SOL    HW220751   1.053   0.812  17.150 -0.7394 -0.5564  0.6971
 3040SOL     OW20752   0.207   0.997   4.690 -0.0901  0.0061 -0.3506
 3040SOL    HW120753   0.132   1.017   4.634  0.6491 -0.6326 -1.5988
 3040SOL    HW220754   0.260   1.068   4.653  0.7957 -0.5666 -0.1950
 3041SOL     OW20755   3.436   3.351   1.503 -0.3926 -0.2526  0.5746
 3041SOL    HW120756   3.474   3.300   1.431  0.6670 -0.0407  0.9928
 3041SOL    HW220757   3.350   3.307   1.505 -1.5904  2.1199  0.7747
 3042SOL     OW20758   2.472   3.187   9.966  0.1385  0.4484  0.3495
 3042SOL    HW120759   2.454   3.130  10.040  0.3598  0.4717  0.4208
 3042SOL    HW220760   2.381   3.213   9.948 -0.3565  0.5679  3.1096
 3043SOL     OW20761   0.128   4.488  14.058 -0.6379 -0.7246  0.0477
 3043SOL    HW120762   0.092   4.433  13.988  0.8608 -1.0490 -0.4656
 3043SOL    HW220763   0.070   4.472  14.132  0.1261 -0.8122  0.6220
 3044SOL     OW20764   4.610   4.532   6.511  0.3956 -0.3296  0.4937
 3044SOL    HW120765   4.591   4.599   6.445  0.5186 -1.6003 -0.8420
 3044SOL    HW220766   4.704   4.520   6.496  0.5389  0.9634  0.3688
 3045SOL     OW20767   4.274   1.802   3.012  0.1998 -0.5891  0.0415
 3045SOL    HW120768   4.269   1.834   2.922  0.5330  0.7857  0.5098
 3045SOL    HW220769   4.202   1.739   3.023 -0.5666 -0.1678 -2.5866
 3046SOL     OW20770   2.226   4.542   6.255  0.1242 -0.2280  0.1126
 3046SOL    HW120771   2.284   4.583   6.319  0.3420 -0.2699 -0.0553
 3046SOL    HW220772   2.148   4.520   6.305 -0.1559 -0.2881 -0.3572
 3047SOL     OW20773   0.818   2.750  17.361  0.7612  0.5252  0.3353
 3047SOL    HW120774   0.811   2.660  17.393  2.7045  1.5297  3.6288
 3047SOL    HW220775   0.728   2.773  17.381 -0.5446 -3.4762 -0.9535
 3048SOL     OW20776   4.227   0.122   4.152 -0.3644 -0.0590  0.8458
 3048SOL    HW120777   4.156   0.175   4.117 -1.3033 -1.4467  0.6355
 3048SOL    HW220778   4.198   0.069   4.227  3.8832 -0.8200  1.9520
 3049SOL     OW20779   0.371   4.569  12.380  0.8776 -0.0886  0.3669
 3049SOL    HW120780   0.372   4.627  12.456  2.1677  0.5676 -0.1534
 3049SOL    HW220781   0.397   4.639  12.320 -0.2468  0.7228  0.8150
 3050SOL     OW20782   2.774   2.325  16.476 -0.1148  0.3619 -0.0229
 3050SOL    HW120783   2.741   2.241  16.445  0.7152 -0.1047  0.3497
 3050SOL    HW220784   2.725   2.383  16.418  1.0136 -0.8352 -2.1960
 3051SOL     OW20785   2.286   4.565   2.336 -0.1813 -0.2208 -0.1560
 3051SOL    HW120786   2.315   4.654   2.357  0.7095 -0.4443 -0.4094
 3051SOL    HW220787   2.326   4.529   2.415  0.9456  1.0974 -0.1236
 3052SOL     OW20788   0.679   3.843  12.268 -0.6524  0.3175  0.1521
 3052SOL    HW120789   0.706   3.886  12.187 -0.4127  0.2543  0.2016
 3052SOL    HW220790   0.635   3.769  12.226  0.5260 -0.0552 -0.4110
 3053SOL     OW20791   4.334   0.109  17.289 -0.0949 -0.4189  0.6773
 3053SOL    HW120792   4.422   0.143  17.273 -0.3089 -0.8423 -1.3815
 3053SOL    HW220793   4.337   0.014  17.277  0.4244 -0.3123 -0.0870
 3054SOL     OW20794   0.815   1.410   2.258 -0.3586 -0.0625  0.5217
 3054SOL    HW120795   0.809   1.494   2.212  1.0778  0.1711  0.7633
 3054SOL    HW220796   0.812   1.448   2.346  0.2521  0.0832  0.4795
 3055SOL     OW20797   1.844   0.298   6.814 -0.3944 -0.0814  1.0211
 3055SOL    HW120798   1.874   0.331   6.899  2.0607  0.6812 -0.1402
 3055SOL    HW220799   1.877   0.209   6.803 -1.7149 -0.3709 -0.5660
 3056SOL     OW20800   3.577   4.187   8.003  0.5708  0.5010 -0.2188
 3056SOL    HW120801   3.522   4.249   7.956  0.9278  1.2060  0.2951
 3056SOL    HW220802   3.646   4.185   7.937  1.2033  0.1308  0.4488
 3057SOL     OW20803   1.978   2.139   6.765 -0.6342 -0.0968  0.3278
 3057SOL    HW120804   1.901   2.174   6.718 -0.1318  2.1806  1.2018
 3057SOL    HW220805   1.936   2.102   6.843  0.0083 -0.7979  0.3334
 3058SOL     OW20806   3.333   0.827   8.937 -0.1706 -0.2982 -0.4266
 3058SOL    HW120807   3.319   0.753   8.878 -1.8481  0.1725 -0.6125
 3058SOL    HW220808   3.315   0.785   9.021 -1.0569  2.2224  0.6475
 3059SOL     OW20809   1.870   2.160  17.018 -0.4394 -0.3576  0.4604
 3059SOL    HW120810   1.839   2.161  17.108 -2.2360 -0.5833 -0.1409
 3059SOL    HW220811   1.803   2.101  16.982 -0.9860  0.5345  0.0139
 3060SOL     OW20812   1.155   0.807   4.409 -0.3625 -0.7625 -0.8841
 3060SOL    HW120813   1.180   0.872   4.343  0.9287 -2.0996 -1.7088
 3060SOL    HW220814   1.061   0.814   4.389 -0.8578  1.1445  2.0315
 3061SOL     OW20815   1.771   3.625  15.670  0.0332 -0.1506 -0.5470
 3061SOL    HW120816   1.676   3.632  15.664  0.1056  0.6997 -0.8142
 3061SOL    HW220817   1.791   3.549  15.615  2.7197 -0.8676  1.3954
 3062SOL     OW20818   4.684   0.403   3.888  0.1438 -0.0439 -0.1918
 3062SOL    HW120819   4.631   0.326   3.907  0.7292 -0.2583  0.5864
 3062SOL    HW220820   0.023   0.394   3.944  0.7352  0.2691 -0.9537
 3063SOL     OW20821   3.139   3.575   5.306 -0.4563 -0.0405  0.1346
 3063SOL    HW120822   3.074   3.550   5.372 -0.4299  1.2767  0.6736
 3063SOL    HW220823   3.083   3.611   5.237 -0.6296 -2.1715 -0.8423
 3064SOL     OW20824   2.240   4.485  10.464  0.5960 -0.5782 -0.0531
 3064SOL    HW120825   2.173   4.542  10.503  1.1979  0.1606 -0.0986
 3064SOL    HW220826   2.214   4.495  10.373  0.2481 -2.9292 -0.2018
 3065SOL     OW20827   1.435   4.616   1.754  0.7171 -0.3267  0.3923
 3065SOL    HW120828   1.417   4.598   1.846 -4.3025 -0.5963 -0.6506
 3065SOL    HW220829   1.447   4.525   1.726  2.1173 -1.0367  3.2592
 3066SOL     OW20830   1.073   4.701  14.503  0.5206 -0.7970  0.6084
 3066SOL    HW120831   1.101   4.710  14.412  0.0857  1.2009  0.6731
 3066SOL    HW220832   1.152   4.660  14.536  0.0488 -1.7936  0.5086
 3067SOL     OW20833   1.467   0.655  15.356  0.2841  0.0354  0.3530
 3067SOL    HW120834   1.406   0.619  15.421 -0.1763  2.3938  1.2152
 3067SOL    HW220835   1.549   0.632  15.399 -1.2660 -0.7011  2.9074
 3068SOL     OW20836   4.236   0.121  12.836 -0.3541  0.7257  0.7412
 3068SOL    HW120837   4.326   0.090  12.823 -0.4005  0.8141  0.2064
 3068SOL    HW220838   4.185   0.048  12.799  1.2011 -0.0760  0.1884
 3069SOL     OW20839   3.201   4.299   8.987  0.2699  0.1408 -0.6020
 3069SOL    HW120840   3.133   4.295   8.920  0.3722 -0.0128 -0.6967
 3069SOL    HW220841   3.279   4.266   8.943  1.4841  1.3974  0.6449
 3070SOL     OW20842   4.109   1.715   8.068  0.1853 -0.0817 -1.1200
 3070SOL    HW120843   4.168   1.656   8.115 -0.8451 -1.1886 -1.2043
 3070SOL    HW220844   4.080   1.769   8.141  2.2595 -2.1471  1.2457
 3071SOL     OW20845   1.858   0.044   8.733  0.0034 -0.0031 -0.0707
 3071SOL    HW120846   1.832   4.701   8.689 -0.7566  1.7757 -2.9018
 3071SOL    HW220847   1.812   0.028   8.815 -1.9981  1.5791 -0.8945
 3072SOL     OW20848   1.462   4.231   7.886 -0.0485 -0.1200 -0.6162
 3072SOL    HW120849   1.461   4.176   7.807 -0.5783 -1.3893  0.2706
 3072SOL    HW220850   1.465   4.160   7.950 -1.4482  0.0981 -0.3072
 3073SOL     OW20851   2.984   3.110  12.668 -0.1854 -0.3967 -0.6297
 3073SOL    HW120852   3.071   3.148  12.664  0.8434 -2.5877  1.4139
 3073SOL    HW220853   2.944   3.155  12.593 -0.1613 -0.8778 -0.9373
 3074SOL     OW20854   1.161   0.861   8.572  0.2523  0.4344 -0.0753
 3074SOL    HW120855   1.102   0.835   8.501  0.5127 -0.7162  0.1337
 3074SOL    HW220856   1.164   0.956   8.562 -0.9848  0.3605 -1.2345
 3075SOL     OW20857   4.355   4.027   5.154  0.0430 -0.2521 -0.1100
 3075SOL    HW120858   4.390   4.041   5.067  2.2179 -0.4977  0.7335
 3075SOL    HW220859   4.379   4.107   5.201  0.8603 -0.4780 -0.1395
 3076SOL     OW20860   2.778   1.160   2.294  0.1278 -0.1713 -0.2967
 3076SOL    HW120861   2.721   1.233   2.272  0.4915 -0.3154 -1.7180
 3076SOL    HW220862   2.722   1.096   2.251 -3.4475  2.8840 -0.1364
 3077SOL     OW20863   4.559   3.314   6.062  0.1986 -0.3211 -0.3845
 3077SOL    HW120864   4.546   3.349   5.974 -4.4365  0.2971  0.5724
 3077SOL    HW220865   4.527   3.224   6.057 -0.0298 -0.2404 -0.3518
 3078SOL     OW20866   2.953   3.785   8.660 -0.1000  0.2748  0.1801
 3078SOL    HW120867   3.005   3.814   8.585  1.1267  0.4054  1.0743
 3078SOL    HW220868   2.881   3.844   8.638  1.4601  2.3531  0.6151
 3079SOL     OW20869   3.655   0.432   8.662 -0.6399 -0.4062  0.3798
 3079SOL    HW120870   3.733   0.383   8.635 -1.4578 -0.9410 -0.9938
 3079SOL    HW220871   3.604   0.371   8.716 -2.0748  0.1100 -0.4052
 3080SOL     OW20872   0.541   3.684   3.218 -0.4741  0.4199 -0.1244
 3080SOL    HW120873   0.593   3.717   3.144  0.2941 -1.8797 -0.5901
 3080SOL    HW220874   0.452   3.685   3.184 -0.1619  0.6029 -0.9399
 3081SOL     OW20875   0.985   0.486  11.863 -0.1997  0.2156 -0.4537
 3081SOL    HW120876   0.906   0.440  11.889 -0.2900  1.7364  1.9709
 3081SOL    HW220877   0.974   0.577  11.891 -1.2467  0.0268 -0.2377
 3082SOL     OW20878   0.864   0.169   7.540 -0.2704  0.7994 -0.3142
 3082SOL    HW120879   0.947   0.217   7.539 -0.5219  1.2293 -0.3646
 3082SOL    HW220880   0.884   0.076   7.528 -1.4758  0.6781 -1.3766
 3083SOL     OW20881   4.454   3.445   7.420 -0.4365 -0.6238 -0.3494
 3083SOL    HW120882   4.418   3.519   7.370 -1.7378 -1.6620 -0.9273
 3083SOL    HW220883   4.383   3.455   7.483  1.5900 -2.6014  2.1929
 3084SOL     OW20884   4.312   1.619   9.956 -0.7624  0.9306  0.0628
 3084SOL    HW120885   4.264   1.562   9.896 -0.7590 -0.2229  1.1785
 3084SOL    HW220886   4.388   1.654   9.910 -0.5814  0.2453 -0.1499
 3085SOL     OW20887   3.120   0.027   2.728  0.2979  0.1393  0.9412
 3085SOL    HW120888   3.133   4.705   2.801 -1.0434 -0.1543  0.9397
 3085SOL    HW220889   3.202   0.006   2.683 -0.0972 -0.1690  0.3737
 3086SOL     OW20890   3.503   3.798   0.726 -0.1240  0.3657 -0.1123
 3086SOL    HW120891   3.472   3.808   0.636  2.3859  2.1556 -0.7696
 3086SOL    HW220892   3.573   3.733   0.721 -0.5432 -0.1285  0.4243
 3087SOL     OW20893   3.728   2.434  17.367  0.3257  0.4329  0.4375
 3087SOL    HW120894   3.709   2.432  17.461 -0.7337 -2.8027  0.1614
 3087SOL    HW220895   3.793   2.503  17.362 -0.8766  1.4940 -0.5506
 3088SOL     OW20896   4.390   1.697   5.103 -0.4483  0.9817 -0.7765
 3088SOL    HW120897   4.343   1.728   5.026 -0.7474  1.9621 -0.2017
 3088SOL    HW220898   4.318   1.694   5.165  0.3251  0.8809  0.1226
 3089SOL     OW20899   3.807   2.715   1.185  0.3098 -0.9278 -0.0358
 3089SOL    HW120900   3.848   2.800   1.197  1.0728 -1.2211 -0.5858
 3089SOL    HW220901   3.795   2.722   1.090 -0.2636 -0.9914  0.0313
 3090SOL     OW20902   4.688   0.553   5.465 -0.0877  0.2144 -0.4712
 3090SOL    HW120903   0.037   0.574   5.498 -0.2391 -0.4318  0.3483
 3090SOL    HW220904   4.624   0.574   5.533  2.5909  0.1472  2.0795
 3091SOL     OW20905   3.018   1.347   3.574 -0.1356  0.4074 -0.1933
 3091SOL    HW120906   3.084   1.306   3.518 -0.7875  0.3953 -0.9544
 3091SOL    HW220907   2.949   1.283   3.593 -1.0362  1.0326 -1.3429
 3092SOL     OW20908   1.851   0.593  11.310 -0.6487 -0.4935 -0.5396
 3092SOL    HW120909   1.866   0.647  11.387 -0.8931 -0.6261 -0.4009
 3092SOL    HW220910   1.766   0.633  11.297 -0.4588  0.2533  0.5251
 3093SOL     OW20911   3.955   2.958  11.522 -0.4280  1.1196 -0.4201
 3093SOL    HW120912   4.017   2.891  11.492 -0.0178  0.3064  2.3110
 3093SOL    HW220913   4.002   3.039  11.504 -0.9075  1.1409 -1.6337
 3094SOL     OW20914   2.970   2.097   5.315 -0.0861  0.2651  0.4755
 3094SOL    HW120915   2.936   2.186   5.310  0.6144  0.5161  0.1652
 3094SOL    HW220916   3.043   2.107   5.255 -1.4844 -0.2446 -1.3048
 3095SOL     OW20917   1.865   3.805  16.743  0.1558 -0.0845 -0.2687
 3095SOL    HW120918   1.892   3.720  16.707 -0.8421 -0.7411  0.5372
 3095SOL    HW220919   1.879   3.801  16.837 -3.1575  4.2145  0.3939
 3096SOL     OW20920   3.643   4.627   6.310  0.0494  0.6375  0.3216
 3096SOL    HW120921   3.589   4.619   6.389 -2.9801  0.2139 -1.8095
 3096SOL    HW220922   3.623   4.720   6.293  0.7886  0.5249 -1.1122
 3097SOL     OW20923   1.064   0.515  10.964  0.1802  0.3552  0.9635
 3097SOL    HW120924   1.145   0.516  10.913 -0.7139  0.0855 -0.4826
 3097SOL    HW220925   1.077   0.582  11.031 -1.9222  1.3963  0.3562
 3098SOL     OW20926   3.347   3.095   0.957 -0.2623  0.1459  0.7783
 3098SOL    HW120927   3.359   3.103   0.862 -1.4843 -2.3039  0.4287
 3098SOL    HW220928   3.292   3.173   0.963  0.4833  0.8242 -1.0310
 3099SOL     OW20929   4.131   1.120  13.262  0.7451 -0.3283  0.0568
 3099SOL    HW120930   4.178   1.197  13.293 -1.8154  1.1236  0.2869
 3099SOL    HW220931   4.054   1.127  13.318  0.0136  0.4279 -1.0488
 3100SOL     OW20932   2.205   4.534   5.317  0.0401  0.3960  0.1641
 3100SOL    HW120933   2.213   4.447   5.357  1.4951  1.0398  1.2819
 3100SOL    HW220934   2.220   4.527   5.223 -1.6913 -3.0448  0.1617
 3101SOL     OW20935   2.944   2.853   6.329 -0.2878 -0.2540 -0.4132
 3101SOL    HW120936   3.025   2.812   6.359  0.6506  0.8870 -1.4314
 3101SOL    HW220937   2.966   2.935   6.374 -1.3905  0.5162 -1.2989
 3102SOL     OW20938   0.378   3.860  13.074 -0.5050 -1.1610 -0.5769
 3102SOL    HW120939   0.461   3.873  13.029 -1.2644 -0.4584 -1.7751
 3102SOL    HW220940   0.309   3.900  13.020 -1.7577 -1.6027  0.7077
 3103SOL     OW20941   4.368   2.399   3.771  0.1907 -0.4174  0.0608
 3103SOL    HW120942   4.441   2.445   3.814  1.6897 -1.8148 -0.9987
 3103SOL    HW220943   4.396   2.428   3.684 -0.2056  0.1601  0.1249
 3104SOL     OW20944   1.403   3.287  13.330 -0.1263 -0.4273  0.1508
 3104SOL    HW120945   1.461   3.349  13.286  0.7573 -0.0708  1.7960
 3104SOL    HW220946   1.357   3.244  13.258  1.3084  2.0220 -2.1962
 3105SOL     OW20947   1.425   2.547   7.349  0.3706 -0.7238 -0.2530
 3105SOL    HW120948   1.520   2.558   7.361 -0.1743  2.1987  1.6181
 3105SOL    HW220949   1.394   2.525   7.437 -0.3962  0.9554 -0.0876
 3106SOL     OW20950   2.851   1.847  13.292  0.0649 -0.2562 -0.1732
 3106SOL    HW120951   2.938   1.837  13.331  0.4210 -0.8958 -1.1307
 3106SOL    HW220952   2.868   1.816  13.203  4.2775 -0.0490  0.5684
 3107SOL     OW20953   1.192   2.034   8.372 -0.5197 -0.1848  0.1939
 3107SOL    HW120954   1.132   2.108   8.380 -1.4263 -0.6531 -2.4651
 3107SOL    HW220955   1.276   2.078   8.363 -0.9320  0.5696  0.0705
 3108SOL     OW20956   4.472   2.561   1.943 -1.2512  0.1503 -0.2923
 3108SOL    HW120957   4.519   2.480   1.965  0.7050  1.0372 -1.1587
 3108SOL    HW220958   4.462   2.588   2.034  1.5946 -1.0767  0.3832
 3109SOL     OW20959   1.604   1.561   5.101 -0.0128 -0.5321  0.0522
 3109SOL    HW120960   1.605   1.631   5.166 -0.3372  0.1755 -0.7002
 3109SOL    HW220961   1.572   1.485   5.150 -0.4943  0.9497  2.0398
 3110SOL     OW20962   4.160   4.635   3.148 -0.0885  0.2370  0.4278
 3110SOL    HW120963   4.216   4.589   3.086  1.6820 -0.9541  2.9279
 3110SOL    HW220964   4.172   4.583   3.228  0.5080 -0.6757 -0.2631
 3111SOL     OW20965   1.531   1.699   4.214 -0.1748 -0.1764 -0.2811
 3111SOL    HW120966   1.517   1.781   4.262 -1.8685 -0.9286  0.5121
 3111SOL    HW220967   1.544   1.636   4.284  2.1827 -0.2899 -0.8123
 3112SOL     OW20968   3.760   2.202   4.683  0.5954 -0.1899  0.1433
 3112SOL    HW120969   3.771   2.220   4.589 -3.4037  1.5836 -0.0309
 3112SOL    HW220970   3.720   2.285   4.711  0.6945 -0.2656  0.5020
 3113SOL     OW20971   3.403   2.599   6.499 -0.3291 -0.2223  0.1348
 3113SOL    HW120972   3.337   2.548   6.547  1.1597 -2.3638 -0.1132
 3113SOL    HW220973   3.414   2.669   6.563 -1.1931  1.3256 -1.4048
 3114SOL     OW20974   3.210   3.225   1.870 -0.2024 -0.5884 -0.4326
 3114SOL    HW120975   3.290   3.175   1.885 -0.1949 -0.4328  0.0282
 3114SOL    HW220976   3.157   3.180   1.804  1.7650  0.1466 -2.5191
 3115SOL     OW20977   0.669   0.760   5.900 -0.4915  0.1973  0.0822
 3115SOL    HW120978   0.654   0.788   5.990 -1.4077 -0.1360  0.0321
 3115SOL    HW220979   0.710   0.677   5.921  1.3434  0.5304 -2.1491
 3116SOL     OW20980   1.684   3.446   6.782 -0.1148 -0.5930  0.5104
 3116SOL    HW120981   1.668   3.392   6.859  0.3180  0.7497  1.5492
 3116SOL    HW220982   1.592   3.455   6.755  0.0047  1.2206  0.6754
 3117SOL     OW20983   0.122   0.195   6.995 -0.0261 -0.1672  0.3314
 3117SOL    HW120984   0.095   0.132   6.928  1.1191  0.1179 -0.3977
 3117SOL    HW220985   0.057   0.264   6.980 -0.7149 -0.7646  0.5969
 3118SOL     OW20986   0.709   1.734   2.589  0.2773  0.3118  0.5203
 3118SOL    HW120987   0.723   1.641   2.603  0.6970  0.3396  0.3010
 3118SOL    HW220988   0.740   1.770   2.673  1.0279 -0.9955  0.7960
 3119SOL     OW20989   2.718   4.058   1.230 -0.6918  0.2428 -0.4418
 3119SOL    HW120990   2.663   3.983   1.209 -0.0222 -0.4081  0.1541
 3119SOL    HW220991   2.661   4.122   1.273 -2.5287 -0.9613 -1.0676
 3120SOL     OW20992   3.256   3.746   2.034  0.0293 -0.0721  0.0971
 3120SOL    HW120993   3.178   3.802   2.042 -0.2772 -0.2828 -1.3770
 3120SOL    HW220994   3.212   3.664   2.015  1.3928 -0.1319 -2.7850
 3121SOL     OW20995   2.892   3.700   1.901 -0.1181 -0.3488 -0.1706
 3121SOL    HW120996   2.968   3.646   1.880 -0.2482 -1.4874  2.2891
 3121SOL    HW220997   2.859   3.715   1.812 -1.2216  2.2467  0.6540
 3122SOL     OW20998   0.602   1.226  17.726 -0.1806 -0.5512 -0.8430
 3122SOL    HW120999   0.660   1.277   0.031  0.1037 -1.9308  0.1276
 3122SOL    HW221000   0.666   1.158  17.705  2.0179  1.2813  0.0166
 3123SOL     OW21001   2.193   3.485   2.496 -0.6493  0.4936 -0.1553
 3123SOL    HW121002   2.135   3.414   2.468  0.4458 -0.2077 -0.6570
 3123SOL    HW221003   2.154   3.511   2.579 -0.2679  1.1891 -0.1902
 3124SOL     OW21004   2.850   3.791   7.911 -0.4561  0.9893  0.2714
 3124SOL    HW121005   2.765   3.747   7.911  0.2100 -0.2736 -0.7726
 3124SOL    HW221006   2.907   3.715   7.924  1.4402  2.2106 -0.9675
 3125SOL     OW21007   2.032   3.133   8.649  0.0708 -0.4132  0.3887
 3125SOL    HW121008   2.098   3.120   8.581 -0.8062  1.7434 -0.8636
 3125SOL    HW221009   1.982   3.051   8.643  0.5452 -0.6767  0.0052
 3126SOL     OW21010   1.414   3.589   1.953  0.3801 -0.7331 -0.3761
 3126SOL    HW121011   1.325   3.615   1.979  0.9775  0.0761  0.8819
 3126SOL    HW221012   1.388   3.531   1.881 -2.3071 -1.0938  0.8529
 3127SOL     OW21013   3.809   3.865   1.794  0.0878 -1.1701 -0.2090
 3127SOL    HW121014   3.796   3.814   1.714  3.0065 -0.2254 -1.2929
 3127SOL    HW221015   3.724   3.861   1.839 -0.1570  3.2774 -0.2758
 3128SOL     OW21016   0.482   0.801  12.389 -0.1042 -0.0143 -0.2969
 3128SOL    HW121017   0.444   0.717  12.412 -1.4096 -0.0307 -2.5972
 3128SOL    HW221018   0.436   0.831  12.311 -0.9421  1.0503  0.5981
 3129SOL     OW21019   1.251   2.898   5.190  0.3150  0.3965 -0.3891
 3129SOL    HW121020   1.327   2.895   5.133 -0.2645 -0.0684 -1.1443
 3129SOL    HW221021   1.225   2.986   5.163 -1.2066 -0.6687 -2.4116
 3130SOL     OW21022   2.326   3.330  12.615 -0.3211 -0.3405  0.1673
 3130SOL    HW121023   2.308   3.394  12.546  0.5089  0.5549  0.7832
 3130SOL    HW221024   2.421   3.320  12.606  0.0128  2.6529  0.4831
 3131SOL     OW21025   1.647   1.850  16.350 -0.2418 -0.3010  0.3626
 3131SOL    HW121026   1.625   1.850  16.257  0.7624  2.8831  0.1336
 3131SOL    HW221027   1.740   1.872  16.356 -0.8218  2.7967 -1.8537
 3132SOL     OW21028   1.438   4.725  13.698 -0.0006  0.3219  0.4846
 3132SOL    HW121029   1.441   4.642  13.652 -0.1513  1.0679 -0.8497
 3132SOL    HW221030   1.479   4.721  13.785 -1.8272 -2.2110  1.2520
 3133SOL     OW21031   2.554   3.776   8.518 -0.2482  0.3579 -0.1353
 3133SOL    HW121032   2.505   3.697   8.496  3.2913 -1.0010 -3.0934
 3133SOL    HW221033   2.486   3.845   8.520  0.3230  0.9520 -0.9796
 3134SOL     OW21034   4.573   3.831   5.634  0.2098 -0.5480  0.4237
 3134SOL    HW121035   4.625   3.906   5.607 -1.2386 -0.0965 -1.1393
 3134SOL    HW221036   4.644   3.789   5.683  0.2506 -2.2558 -1.1010
 3135SOL     OW21037   4.409   2.493  16.884  0.4848 -0.6909  0.2072
 3135SOL    HW121038   4.455   2.577  16.872  1.7207 -1.1926  1.3645
 3135SOL    HW221039   4.323   2.529  16.906  0.8694  1.0471 -1.1141
 3136SOL     OW21040   1.084   2.004   1.049 -0.0148  0.5210  0.7036
 3136SOL    HW121041   1.101   2.098   1.043 -1.5774  0.7867  0.5440
 3136SOL    HW221042   1.048   1.982   0.963 -0.5105  1.8183  0.5765
 3137SOL     OW21043   4.719   1.001   5.912 -0.3824  0.2752 -0.0435
 3137SOL    HW121044   4.631   1.027   5.884 -0.0229  1.6020  0.0831
 3137SOL    HW221045   0.031   1.081   5.923 -0.5706  0.4613 -0.5443
 3138SOL     OW21046   2.490   1.092  14.498 -0.5141 -0.4976 -0.1370
 3138SOL    HW121047   2.408   1.128  14.464 -0.1458  0.8826  0.4188
 3138SOL    HW221048   2.502   1.155  14.570  0.1268 -0.8429  0.0567
 3139SOL     OW21049   1.105   2.300   9.938 -0.0028  0.3258  0.5788
 3139SOL    HW121050   1.063   2.310   9.853 -2.4564 -0.2837  1.7241
 3139SOL    HW221051   1.048   2.228   9.962 -0.1476  0.4785  0.6941
 3140SOL     OW21052   2.577   2.498   3.411 -0.0917 -0.2927 -0.2999
 3140SOL    HW121053   2.541   2.550   3.338  1.0482  0.7064 -0.1512
 3140SOL    HW221054   2.612   2.563   3.472 -0.1549  1.5152 -2.1483
 3141SOL     OW21055   0.056   3.796  12.125  0.0814  0.3692 -0.0359
 3141SOL    HW121056   0.099   3.865  12.175  0.2758  0.9882 -1.0593
 3141SOL    HW221057   0.095   3.716  12.162  0.6258  0.7786  0.2739
 3142SOL     OW21058   3.636   1.724   2.502 -0.3133  0.2798 -0.1827
 3142SOL    HW121059   3.566   1.758   2.447 -1.3152  0.2325  1.0517
 3142SOL    HW221060   3.691   1.690   2.432 -1.4927 -1.6347 -0.1818
 3143SOL     OW21061   2.667   0.462   6.250  0.6044 -0.1871  0.5628
 3143SOL    HW121062   2.607   0.537   6.254  1.1177  0.2648 -0.2849
 3143SOL    HW221063   2.711   0.488   6.331 -0.2254  1.5176  0.4621
 3144SOL     OW21064   3.378   0.958   3.115  0.5583  0.7714 -0.0914
 3144SOL    HW121065   3.300   0.976   3.063 -0.4738 -1.7443  0.5906
 3144SOL    HW221066   3.351   0.875   3.154 -0.0984  0.0244 -2.1132
 3145SOL     OW21067   1.968   3.843   2.631 -0.1556  0.5733  1.0045
 3145SOL    HW121068   1.911   3.860   2.556 -0.0753 -1.6964  0.4253
 3145SOL    HW221069   2.037   3.890   2.583 -0.3958 -1.2868 -1.1814
 3146SOL     OW21070   0.407   1.785   5.257 -0.0430  0.2065  0.2858
 3146SOL    HW121071   0.432   1.859   5.202  0.5879 -0.2999 -0.1064
 3146SOL    HW221072   0.433   1.718   5.195  3.0087  0.0637  1.7403
 3147SOL     OW21073   3.668   3.446   3.931  0.2855  0.3014 -0.0743
 3147SOL    HW121074   3.582   3.475   3.901  0.4628  1.6018  0.6905
 3147SOL    HW221075   3.654   3.416   4.020  0.3584 -0.2038 -0.2308
 3148SOL     OW21076   1.302   1.437  16.476 -0.2917 -0.6941  0.1213
 3148SOL    HW121077   1.369   1.418  16.541 -1.7035 -3.5150  0.7542
 3148SOL    HW221078   1.232   1.380  16.506 -1.4525  1.7759  2.1629
 3149SOL     OW21079   0.087   1.221   3.247  0.7016  0.5792 -0.1584
 3149SOL    HW121080   0.035   1.197   3.170 -1.7261  2.7808  0.8323
 3149SOL    HW221081   0.137   1.295   3.212  0.9310  0.9523  0.9741
 3150SOL     OW21082   3.984   4.704   2.695  0.1869 -0.0687 -0.1629
 3150SOL    HW121083   4.005   4.613   2.674  1.8341  0.4183 -0.5794
 3150SOL    HW221084   4.069   0.008   2.682 -0.4606  2.0251  2.2790
 3151SOL     OW21085   2.736   3.278   6.522 -0.0038  0.1234 -0.2805
 3151SOL    HW121086   2.734   3.331   6.442 -1.0245 -2.0546 -1.6968
 3151SOL    HW221087   2.642   3.275   6.542  0.0989  0.8954  0.3162
 3152SOL     OW21088   2.368   3.513   5.227 -0.1634  0.2752  0.5522
 3152SOL    HW121089   2.322   3.595   5.244  2.0220  1.0470  2.6504
 3152SOL    HW221090   2.363   3.510   5.132 -1.9617  2.2225  0.5861
 3153SOL     OW21091   3.628   2.192  17.392 -0.2251  0.4203 -0.0242
 3153SOL    HW121092   3.681   2.256  17.343  1.4656 -0.8015  0.2111
 3153SOL    HW221093   3.563   2.250  17.431 -0.8614 -0.9147  0.8763
 3154SOL     OW21094   3.829   2.649  15.938 -0.9831  0.1339  0.0302
 3154SOL    HW121095   3.896   2.588  15.968 -0.3960 -0.0994 -1.7613
 3154SOL    HW221096   3.804   2.618  15.851 -0.3770 -1.5760  0.4572
 3155SOL     OW21097   2.224   0.331  17.221 -0.6217  0.0483  0.0930
 3155SOL    HW121098   2.263   0.297  17.140 -0.8633  3.5322 -1.5008
 3155SOL    HW221099   2.245   0.423  17.203 -0.8358 -0.0046 -0.4373
 3156SOL     OW21100   3.022   3.924   2.615  0.1936 -0.2392  0.5327
 3156SOL    HW121101   3.092   3.909   2.678  1.4463  1.8093 -0.3388
 3156SOL    HW221102   3.043   4.017   2.602 -1.1000 -0.2970 -1.9525
 3157SOL     OW21103   2.390   2.801   1.706 -0.1304  0.2687 -0.3310
 3157SOL    HW121104   2.441   2.849   1.772 -0.2177  0.2287 -0.2345
 3157SOL    HW221105   2.305   2.845   1.711  0.3089  1.2123 -1.1190
 3158SOL     OW21106   1.990   0.481  16.852 -0.0825 -0.1838 -0.6094
 3158SOL    HW121107   1.967   0.407  16.909  0.8460  0.6918  0.8873
 3158SOL    HW221108   1.914   0.482  16.794  0.5680 -0.5254 -1.4785
 3159SOL     OW21109   3.889   4.423   5.437 -0.3677  0.5739 -0.4794
 3159SOL    HW121110   3.856   4.354   5.380  1.4238 -0.5636 -0.1393
 3159SOL    HW221111   3.903   4.378   5.521 -2.2615 -0.9383 -0.9701
 3160SOL     OW21112   2.617   0.118   3.619  0.0461  0.1143 -0.3957
 3160SOL    HW121113   2.672   0.131   3.542  0.3286  0.6583 -0.1020
 3160SOL    HW221114   2.535   0.135   3.572  1.8357  0.1737 -3.4665
 3161SOL     OW21115   1.447   0.452   3.589 -0.1804 -0.1103 -0.2998
 3161SOL    HW121116   1.481   0.484   3.505  0.1285  2.1050  0.6505
 3161SOL    HW221117   1.364   0.414   3.562  0.1389 -1.0980  0.1146
 3162SOL     OW21118   1.795   3.536   5.734  0.1137 -0.3052  0.0655
 3162SOL    HW121119   1.729   3.506   5.797 -0.6879 -0.9838 -1.0915
 3162SOL    HW221120   1.778   3.469   5.667  0.7279  0.1296 -0.5174
 3163SOL     OW21121   3.094   4.012   2.259  0.3113  0.6127 -0.0959
 3163SOL    HW121122   3.077   4.098   2.221 -0.6443 -0.5259 -2.2489
 3163SOL    HW221123   3.050   3.954   2.196 -0.8483  2.2201 -0.7526
 3164SOL     OW21124   3.754   1.801   1.021  0.0200 -0.6777 -0.3189
 3164SOL    HW121125   3.830   1.842   1.062 -0.4797 -0.1863  0.1202
 3164SOL    HW221126   3.712   1.865   0.963  2.0116  0.5701 -0.3791
 3165SOL     OW21127   0.987   0.241   1.495 -0.1771  0.0336  0.2484
 3165SOL    HW121128   0.907   0.240   1.548  1.2159 -0.5033  2.3088
 3165SOL    HW221129   1.041   0.217   1.570  0.0037 -0.0361  0.0971
 3166SOL     OW21130   1.205   2.531   5.156  0.3941 -0.4841  0.2485
 3166SOL    HW121131   1.127   2.585   5.173  0.6106 -0.6747  1.8370
 3166SOL    HW221132   1.238   2.568   5.074  0.2029  0.0812  0.4299
 3167SOL     OW21133   3.800   0.505   6.120  0.1336 -0.1619 -0.1038
 3167SOL    HW121134   3.789   0.567   6.191 -2.6747 -1.5212  0.6629
 3167SOL    HW221135   3.878   0.460   6.154 -0.2579 -1.6186 -1.1227
 3168SOL     OW21136   3.708   1.139  10.548 -0.0015 -0.0279 -0.1324
 3168SOL    HW121137   3.749   1.076  10.608  0.8380 -0.3192 -1.0199
 3168SOL    HW221138   3.776   1.205  10.530 -1.2085  0.7867 -1.7132
 3169SOL     OW21139   2.217   2.369  14.266  0.8030  0.1881  0.4221
 3169SOL    HW121140   2.184   2.422  14.339  1.7434  0.0665  0.9430
 3169SOL    HW221141   2.166   2.406  14.194 -0.7560  0.3981  1.6388
 3170SOL     OW21142   4.459   2.776  15.118  0.6364  0.1389  0.1028
 3170SOL    HW121143   4.461   2.760  15.213 -1.4512  0.3368  0.1965
 3170SOL    HW221144   4.547   2.798  15.090  0.3701  0.2779 -0.6149
 3171SOL     OW21145   2.954   0.586   7.280 -0.1148 -0.6746 -0.1834
 3171SOL    HW121146   3.017   0.624   7.340  0.4367  1.4734 -2.1396
 3171SOL    HW221147   2.953   0.495   7.311 -0.1076 -1.2237 -1.7942
 3172SOL     OW21148   1.356   3.136   2.541  0.0470  0.2229 -0.2384
 3172SOL    HW121149   1.423   3.193   2.503 -2.0619  1.6004 -1.8879
 3172SOL    HW221150   1.404   3.053   2.541  2.3925  1.5877 -0.1971
 3173SOL     OW21151   0.248   3.831   3.379  0.6742  0.2026  0.5431
 3173SOL    HW121152   0.316   3.894   3.356 -1.1301  1.5726 -0.9313
 3173SOL    HW221153   0.238   3.792   3.293  2.7006 -0.2090  0.4796
 3174SOL     OW21154   4.276   4.398   2.171 -0.1890 -0.0047 -0.4511
 3174SOL    HW121155   4.236   4.435   2.092 -2.8132  1.6031  1.6550
 3174SOL    HW221156   4.300   4.309   2.146 -0.8257 -0.0871 -0.7828
 3175SOL     OW21157   3.434   2.933   7.541 -0.6873 -0.4405 -0.2358
 3175SOL    HW121158   3.359   2.919   7.484  0.2837  2.6620 -2.2505
 3175SOL    HW221159   3.392   2.937   7.628 -0.9209  1.5414 -0.4390
 3176SOL     OW21160   1.287   1.630   7.447 -0.5942 -0.2886  0.3291
 3176SOL    HW121161   1.194   1.631   7.425  0.2725 -0.7563 -3.3090
 3176SOL    HW221162   1.301   1.546   7.405 -3.1746  0.0732 -1.2320
 3177SOL     OW21163   4.326   4.620   1.672 -0.2234 -0.9494 -0.5813
 3177SOL    HW121164   4.238   4.590   1.650 -0.6536  0.8459 -1.3397
 3177SOL    HW221165   4.303   4.706   1.706  0.5756 -2.3561  3.5399
 3178SOL     OW21166   0.094   1.818   1.150  0.1093  0.8715  0.9478
 3178SOL    HW121167   0.049   1.812   1.234 -1.4158  1.4011  0.1477
 3178SOL    HW221168   0.098   1.726   1.123 -1.2977  0.6771  1.3833
 3179SOL     OW21169   0.312   3.277  12.792  0.0131  0.2723 -0.0545
 3179SOL    HW121170   0.408   3.280  12.797  0.0461 -0.4312 -0.2945
 3179SOL    HW221171   0.292   3.187  12.765  1.6243  0.3977 -1.6544
 3180SOL     OW21172   4.177   4.427  11.160  0.5506 -0.4541 -0.3233
 3180SOL    HW121173   4.218   4.492  11.217  2.4103 -2.0106  0.1296
 3180SOL    HW221174   4.105   4.389  11.210  1.0289 -0.9307 -0.0017
 3181SOL     OW21175   3.982   3.822  13.020 -0.0394  0.3693 -0.0225
 3181SOL    HW121176   4.037   3.772  13.082  1.7077  0.3340 -1.6006
 3181SOL    HW221177   3.898   3.784  13.045  0.0397 -0.4014 -0.9344
 3182SOL     OW21178   4.683   2.075  17.447  0.2838  0.3697  0.0527
 3182SOL    HW121179   4.642   2.104  17.529 -0.3696  0.6617 -0.3786
 3182SOL    HW221180   4.631   2.127  17.387 -2.0970 -0.8501  1.0442
 3183SOL     OW21181   2.156   3.237  15.761 -0.0616  0.9809  0.5509
 3183SOL    HW121182   2.124   3.296  15.693  2.7086  1.1829 -0.6013
 3183SOL    HW221183   2.077   3.241  15.815  0.2388  1.9603  0.9203
 3184SOL     OW21184   0.318   3.707   8.497 -0.5800  0.0202  0.3978
 3184SOL    HW121185   0.365   3.634   8.456 -1.7912 -0.0495 -0.8889
 3184SOL    HW221186   0.250   3.722   8.430 -0.6981 -2.3660  0.0026
 3185SOL     OW21187   2.039   0.834   5.845 -0.3941  0.1922  0.5030
 3185SOL    HW121188   2.111   0.772   5.861 -0.7795 -0.4655 -0.3233
 3185SOL    HW221189   2.009   0.866   5.930 -2.2088  0.5337 -0.2868
 3186SOL     OW21190   2.134   3.900  15.966  0.3302 -0.5143  0.2431
 3186SOL    HW121191   2.108   3.984  15.929 -3.4164 -1.0994  1.4984
 3186SOL    HW221192   2.081   3.834  15.921  1.1208 -1.2274  0.3570
 3187SOL     OW21193   4.482   0.809   8.659  0.2766  0.0253  0.0103
 3187SOL    HW121194   4.526   0.736   8.702  1.7010  0.5607 -0.5530
 3187SOL    HW221195   4.446   0.855   8.735  0.5109 -1.3302  0.9338
 3188SOL     OW21196   4.698   2.215   4.762  0.2259  0.0105  0.3615
 3188SOL    HW121197   4.727   2.230   4.852  0.0579 -0.4577  0.4949
 3188SOL    HW221198   4.604   2.228   4.776 -0.1653 -1.9935 -0.3164
 3189SOL     OW21199   2.243   1.873   2.871 -0.1399  0.1938  0.5129
 3189SOL    HW121200   2.153   1.875   2.841  0.2967 -0.5782 -0.8351
 3189SOL    HW221201   2.252   1.968   2.877  1.2729  0.1306 -0.4564
 3190SOL     OW21202   4.713   3.145   6.521 -0.5925  0.1397 -0.4978
 3190SOL    HW121203   4.663   3.226   6.520 -0.6690  0.0841 -2.2962
 3190SOL    HW221204   4.737   3.126   6.430  0.0418 -1.8451  0.0944
 3191SOL     OW21205   4.079   2.862  14.378 -0.0583  0.5015 -0.0938
 3191SOL    HW121206   4.009   2.923  14.356 -1.5636 -1.7758 -1.5779
 3191SOL    HW221207   4.145   2.892  14.316  2.3735 -2.6576  1.0155
 3192SOL     OW21208   2.176   0.732   4.431 -0.4215  0.0043  0.1757
 3192SOL    HW121209   2.117   0.672   4.477  1.1090 -0.0097  2.1155
 3192SOL    HW221210   2.260   0.686   4.440  0.4395  0.6700 -3.9540
 3193SOL     OW21211   2.996   1.388   0.586 -0.1347  0.7056 -0.0929
 3193SOL    HW121212   3.061   1.445   0.627 -0.2686 -1.5184  3.1420
 3193SOL    HW221213   2.983   1.339   0.667  1.3739  1.9598  0.9167
 3194SOL     OW21214   4.631   2.615   6.403 -0.3910 -0.0059  0.8717
 3194SOL    HW121215   4.684   2.695   6.401  0.4923 -0.5638  2.3437
 3194SOL    HW221216   4.648   2.578   6.489  1.2638 -0.5953  0.2791
 3195SOL     OW21217   3.050   0.507   2.292  0.2802  0.2178  0.4348
 3195SOL    HW121218   3.113   0.501   2.364 -1.1594  0.5919  1.7293
 3195SOL    HW221219   3.008   0.591   2.311 -2.1991 -1.2944  1.5302
 3196SOL     OW21220   3.741   2.178  15.819  0.1775  0.5314 -0.2023
 3196SOL    HW121221   3.790   2.216  15.746  1.4798  0.3257  0.5526
 3196SOL    HW221222   3.702   2.256  15.856 -1.1042  0.1057 -0.6623
 3197SOL     OW21223   3.388   3.018   1.250  0.2952  0.5380  0.2963
 3197SOL    HW121224   3.307   3.063   1.227 -0.6963 -0.8279  1.1310
 3197SOL    HW221225   3.437   3.036   1.170 -2.9295  1.1031 -1.5525
 3198SOL     OW21226   4.235   1.360  13.402  0.0371  0.2646 -0.3154
 3198SOL    HW121227   4.279   1.319  13.476 -1.4583  0.2755  0.5676
 3198SOL    HW221228   4.165   1.409  13.444 -0.9731 -0.2736 -1.3769
 3199SOL     OW21229   1.950   1.208  11.159  0.0056  0.0963  0.7770
 3199SOL    HW121230   2.009   1.178  11.229  0.6486  0.8068  0.5402
 3199SOL    HW221231   2.011   1.256  11.103  0.7341  0.5917  2.0024
 3200SOL     OW21232   2.284   0.411  16.206  0.0399  0.1439  0.0700
 3200SOL    HW121233   2.266   0.505  16.210  0.8600  0.3349 -0.6824
 3200SOL    HW221234   2.309   0.393  16.115  2.7067  1.0849  0.6242
 3201SOL     OW21235   0.737   2.633   2.769 -0.2199 -0.5389  0.5481
 3201SOL    HW121236   0.750   2.655   2.676  0.3811  0.0347  0.7670
 3201SOL    HW221237   0.814   2.579   2.786  0.8013  1.0469  1.0346
 3202SOL     OW21238   2.623   1.165  15.551  0.2408 -0.3587 -0.1822
 3202SOL    HW121239   2.676   1.216  15.489 -1.2818  0.2382 -0.9896
 3202SOL    HW221240   2.636   1.216  15.631 -1.3602  2.0169 -1.4554
 3203SOL     OW21241   3.419   4.515   4.549 -0.2823  0.0913 -0.0345
 3203SOL    HW121242   3.366   4.503   4.629 -0.8196  1.2384 -0.2142
 3203SOL    HW221243   3.359   4.566   4.494  0.1210  0.0779 -0.4799
 3204SOL     OW21244   0.078   3.642   4.972 -0.0094  0.2289 -0.2707
 3204SOL    HW121245   0.075   3.547   4.969  1.8276  0.1354  0.9311
 3204SOL    HW221246   0.063   3.664   5.064 -1.9533  2.4274 -1.0995
 3205SOL     OW21247   3.773   1.793   4.608  0.2951  0.4048  0.5129
 3205SOL    HW121248   3.708   1.856   4.577 -1.0329 -0.7625  0.8839
 3205SOL    HW221249   3.830   1.779   4.532 -0.6676 -1.4583  0.1162
 3206SOL     OW21250   0.092   0.763   7.928  0.5751  0.1642 -0.0835
 3206SOL    HW121251   0.028   0.815   7.976  0.0339  0.8725 -1.5570
 3206SOL    HW221252   0.164   0.770   7.990 -0.0408 -0.2976  0.6859
 3207SOL     OW21253   1.072   4.057   8.973  0.3978 -0.2172  0.8426
 3207SOL    HW121254   1.101   4.148   8.971 -0.9215  0.2962  4.6723
 3207SOL    HW221255   1.116   4.015   8.900 -0.9634 -1.7477  0.8990
 3208SOL     OW21256   4.382   0.762   4.924 -0.0533  0.1126  0.4262
 3208SOL    HW121257   4.413   0.672   4.911  0.2230  0.1762  0.6586
 3208SOL    HW221258   4.441   0.812   4.867  1.9244 -0.6227  1.8370
 3209SOL     OW21259   0.784   1.138  10.476  0.0459  0.1626  0.3560
 3209SOL    HW121260   0.844   1.091  10.534  0.4484 -0.0157 -0.2088
 3209SOL    HW221261   0.838   1.151  10.398 -2.1709 -2.5765 -1.6839
 3210SOL     OW21262   2.565   4.588   1.847  0.0152  0.7725 -0.1922
 3210SOL    HW121263   2.577   4.531   1.771  0.2607  0.8121 -0.1844
 3210SOL    HW221264   2.535   4.527   1.915  3.3417 -0.9220 -0.2458
 3211SOL     OW21265   1.132   1.461   5.620 -0.5150  0.5298  0.2598
 3211SOL    HW121266   1.218   1.443   5.582  0.6558  0.7888  2.8528
 3211SOL    HW221267   1.087   1.380   5.594  1.0640  0.5917 -2.6521
 3212SOL     OW21268   3.892   2.000   9.323 -0.2126  0.3777 -0.3117
 3212SOL    HW121269   3.968   1.976   9.270  1.1707  2.9624  0.4972
 3212SOL    HW221270   3.904   1.950   9.404 -1.3378 -0.6787 -0.8006
 3213SOL     OW21271   3.478   2.980   6.505 -0.8486  0.4025  0.1943
 3213SOL    HW121272   3.444   3.019   6.424 -1.4507  0.1303  0.3162
 3213SOL    HW221273   3.568   3.013   6.509  0.1111 -1.9793 -1.5428
 3214SOL     OW21274   4.090   2.226  17.523  0.0091 -0.2066 -0.3689
 3214SOL    HW121275   4.014   2.187  17.481  0.7191 -1.7980 -0.2044
 3214SOL    HW221276   4.122   2.145  17.564  3.8516  1.8073  0.6163
 3215SOL     OW21277   1.987   2.962  10.400  0.2850  0.7071  0.5158
 3215SOL    HW121278   2.051   2.893  10.420 -0.7114 -0.1718  0.6638
 3215SOL    HW221279   2.005   2.984  10.309  0.2703 -3.3504 -0.4472
 3216SOL     OW21280   2.892   0.950  14.561 -0.0871 -0.1325 -0.4232
 3216SOL    HW121281   2.868   0.916  14.647  0.4310  1.3094  0.2932
 3216SOL    HW221282   2.822   0.918  14.504  1.4256 -3.3655 -0.4194
 3217SOL     OW21283   3.222   3.023  13.798 -0.2017 -0.1941  0.4546
 3217SOL    HW121284   3.215   3.096  13.736 -0.0007  0.2824  1.0039
 3217SOL    HW221285   3.145   3.034  13.853 -0.2939 -0.8973  0.4675
 3218SOL     OW21286   3.911   2.769  16.601 -0.4322  0.0806  0.1008
 3218SOL    HW121287   3.995   2.808  16.574 -0.3970  0.7663  1.2205
 3218SOL    HW221288   3.849   2.772  16.528 -2.0631 -0.8188  1.4718
 3219SOL     OW21289   3.322   4.320   2.109  0.3585 -0.0390 -0.2783
 3219SOL    HW121290   3.380   4.380   2.062 -1.6542 -0.7785 -3.6770
 3219SOL    HW221291   3.371   4.239   2.092 -0.6814  0.0779 -3.6409
 3220SOL     OW21292   1.293   2.415  10.264  0.4151 -0.0839 -0.3547
 3220SOL    HW121293   1.233   2.469  10.212  1.2724  0.7579 -0.4724
 3220SOL    HW221294   1.303   2.337  10.211 -0.2526 -0.8882  0.7132
 3221SOL     OW21295   3.744   3.486   6.108  0.5795  0.2672 -1.0929
 3221SOL    HW121296   3.766   3.562   6.163  2.3664 -1.2874  0.3162
 3221SOL    HW221297   3.680   3.527   6.050  0.6348 -0.6589 -1.8105
 3222SOL     OW21298   3.514   0.575   6.493  0.2127  1.0246  0.0714
 3222SOL    HW121299   3.609   0.575   6.509  0.0905  0.3042  0.7979
 3222SOL    HW221300   3.513   0.653   6.437  0.6204  0.7781 -0.2851
 3223SOL     OW21301   1.001   0.838   5.073 -0.3521  0.2707 -0.0146
 3223SOL    HW121302   0.914   0.860   5.107 -0.6429 -1.9491  0.7086
 3223SOL    HW221303   1.020   0.923   5.034  0.3567  0.4863  0.8185
 3224SOL     OW21304   1.890   1.448   3.920 -0.3537 -0.1390 -0.0849
 3224SOL    HW121305   1.811   1.475   3.874  0.3419  1.8532 -0.1050
 3224SOL    HW221306   1.958   1.501   3.877  0.4235  1.0773  2.6355
 3225SOL     OW21307   0.150   4.615  10.478  0.0172 -0.6386  0.0247
 3225SOL    HW121308   0.164   4.636  10.570  0.5815  1.3815 -0.5233
 3225SOL    HW221309   0.064   4.652  10.458  0.2528  0.4829  1.0839
 3226SOL     OW21310   0.365   3.746   0.744 -0.1910 -0.6372  0.4808
 3226SOL    HW121311   0.338   3.808   0.813  0.5307 -0.2905  0.4500
 3226SOL    HW221312   0.278   3.723   0.710 -0.5072 -0.8546  1.4204
 3227SOL     OW21313   0.162   2.197   9.649  0.2433 -0.0005  0.5361
 3227SOL    HW121314   0.237   2.153   9.609 -0.5018 -1.0286  0.2547
 3227SOL    HW221315   0.134   2.136   9.717  0.3031 -3.0520 -2.1982
 3228SOL     OW21316   2.762   2.210   3.136 -0.2115 -0.2687  0.2416
 3228SOL    HW121317   2.773   2.123   3.174 -1.7077 -0.2348  0.7327
 3228SOL    HW221318   2.739   2.262   3.213 -0.1386 -1.1851  0.8817
 3229SOL     OW21319   0.780   0.395  12.384 -0.4584  0.8902  0.7340
 3229SOL    HW121320   0.700   0.358  12.346  1.3381 -1.6000 -0.5649
 3229SOL    HW221321   0.844   0.375  12.316  0.5130 -1.4582  2.3902
 3230SOL     OW21322   2.115   3.999  15.610  0.2386  0.6224  0.5400
 3230SOL    HW121323   2.123   4.045  15.527  0.7850  1.4047  1.0206
 3230SOL    HW221324   2.146   3.914  15.580 -0.2452  0.5873  0.1495
 3231SOL     OW21325   3.020   3.377   4.700 -0.5437  0.2380  0.4504
 3231SOL    HW121326   3.036   3.357   4.792 -0.0645  1.7269  0.6985
 3231SOL    HW221327   2.937   3.422   4.716  0.6155  2.3543  0.5753
 3232SOL     OW21328   0.034   2.183   5.824  0.3415 -0.6246 -0.2436
 3232SOL    HW121329   4.724   2.265   5.827  0.5954 -0.5093  0.6443
 3232SOL    HW221330   0.054   2.179   5.917  3.5625 -1.1046 -0.9388
 3233SOL     OW21331   0.515   2.943   0.649  0.1365 -0.3801 -0.1953
 3233SOL    HW121332   0.450   3.013   0.644 -1.6462 -2.0295  0.0398
 3233SOL    HW221333   0.598   2.988   0.664  1.1519 -2.2342 -0.2542
 3234SOL     OW21334   3.886   1.073  17.097 -0.1307  0.2774  0.0186
 3234SOL    HW121335   3.849   1.081  17.009  1.9824 -0.9080 -0.9790
 3234SOL    HW221336   3.803   1.083  17.144  0.4702  0.7498  0.9582
 3235SOL     OW21337   1.457   0.237   7.151  0.2200  0.1856  0.2233
 3235SOL    HW121338   1.481   0.174   7.220 -1.3231 -0.0089  0.6060
 3235SOL    HW221339   1.363   0.218   7.143 -0.2664  2.2998  0.9632
 3236SOL     OW21340   0.083   4.363  13.207 -0.4035  0.3305  0.3004
 3236SOL    HW121341   0.174   4.364  13.237  0.7270  1.3372 -3.1965
 3236SOL    HW221342   0.084   4.278  13.163 -1.2794 -0.1713  1.2254
 3237SOL     OW21343   1.935   4.310  10.126 -0.2150 -0.2490  0.1257
 3237SOL    HW121344   1.873   4.369  10.168  1.6224 -0.1416  2.6825
 3237SOL    HW221345   1.905   4.220  10.144 -0.1767  0.0809  1.8656
 3238SOL     OW21346   2.283   1.236   7.188 -0.1152 -0.1080 -0.0965
 3238SOL    HW121347   2.194   1.213   7.214  0.0981 -0.9015 -0.0818
 3238SOL    HW221348   2.279   1.253   7.093 -0.8111  1.6743  0.2587
 3239SOL     OW21349   0.880   3.354   1.317  0.0898 -0.1521 -0.0131
 3239SOL    HW121350   0.887   3.366   1.223  0.5766 -1.4866 -0.1447
 3239SOL    HW221351   0.940   3.420   1.351  0.1399  0.2522 -0.8940
 3240SOL     OW21352   2.988   3.171   0.031  0.0978  0.3315 -0.0911
 3240SOL    HW121353   3.019   3.142  17.696 -0.1665  0.5435 -0.2581
 3240SOL    HW221354   2.907   3.208  17.748 -1.4225 -1.9611  1.0251
 3241SOL     OW21355   0.643   0.300   2.816  0.2148  0.0176  0.8478
 3241SOL    HW121356   0.663   0.266   2.903 -0.8927  0.0076  1.0882
 3241SOL    HW221357   0.733   0.312   2.783  0.6069  2.5925  2.9394
 3242SOL     OW21358   3.366   2.341  11.210  0.1683 -0.0512  0.1570
 3242SOL    HW121359   3.309   2.356  11.134  1.9050 -1.8378 -1.5007
 3242SOL    HW221360   3.305   2.303  11.274  0.7920  1.6212  1.7447
 3243SOL     OW21361   3.112   4.155   2.496  0.6538  0.2238  0.4414
 3243SOL    HW121362   3.101   4.126   2.406  3.9377 -1.1680  0.4761
 3243SOL    HW221363   3.207   4.169   2.499  0.5937  0.9031 -0.9493
 3244SOL     OW21364   2.998   2.716   8.718 -0.9765  0.0244  0.3949
 3244SOL    HW121365   2.956   2.733   8.633 -2.2445  1.1424  1.2538
 3244SOL    HW221366   2.925   2.741   8.774 -0.5814  0.4304  0.7319
 3245SOL     OW21367   1.136   2.428   1.954  0.0846 -0.5519  0.0842
 3245SOL    HW121368   1.059   2.389   1.996  0.6299 -0.9013  0.7464
 3245SOL    HW221369   1.179   2.343   1.946  0.5373 -0.1520 -1.7126
 3246SOL     OW21370   1.169   3.878  12.936 -0.9894 -0.0520 -0.3206
 3246SOL    HW121371   1.128   3.819  12.999 -2.3054 -2.5064 -3.4718
 3246SOL    HW221372   1.106   3.951  12.944 -2.9794 -1.8339  0.2189
 3247SOL     OW21373   2.160   2.090   9.276  0.5955 -0.3585 -0.1016
 3247SOL    HW121374   2.067   2.071   9.268  0.4251  0.2112  0.4836
 3247SOL    HW221375   2.199   2.048   9.199 -1.9730 -2.8633 -0.0194
 3248SOL     OW21376   4.233   3.431  11.931 -0.0893  1.2043  0.7236
 3248SOL    HW121377   4.323   3.442  11.901  0.3015 -1.1661  1.0859
 3248SOL    HW221378   4.258   3.448  12.022  1.2738  1.6057  0.2746
 3249SOL     OW21379   3.765   0.278   4.341 -0.3541  0.0611  0.0049
 3249SOL    HW121380   3.687   0.318   4.381 -0.6802  0.9877 -1.5715
 3249SOL    HW221381   3.838   0.325   4.381  1.4040 -1.1063 -1.8425
 3250SOL     OW21382   0.813   0.305   8.642  0.3458 -0.8351  0.5603
 3250SOL    HW121383   0.721   0.323   8.622  1.6944  0.8213 -4.0566
 3250SOL    HW221384   0.830   0.244   8.570  1.5117 -0.4453  0.5038
 3251SOL     OW21385   2.522   1.805  15.718  0.3818  0.0496 -0.2666
 3251SOL    HW121386   2.515   1.833  15.627 -0.5081 -0.8054 -0.4605
 3251SOL    HW221387   2.548   1.890  15.755  0.0223  0.1680 -0.2858
 3252SOL     OW21388   2.922   1.416   4.534  0.1866 -0.0446  0.1296
 3252SOL    HW121389   2.863   1.405   4.609  1.0693  1.3001  1.0268
 3252SOL    HW221390   2.934   1.511   4.536  1.5761 -0.2118 -0.1870
 3253SOL     OW21391   1.563   1.531   3.578 -0.3836 -0.5048 -0.4640
 3253SOL    HW121392   1.577   1.480   3.498 -0.0530 -2.4655  0.8486
 3253SOL    HW221393   1.468   1.538   3.577 -0.2980  1.0281  1.3492
 3254SOL     OW21394   4.670   0.553   7.800 -0.1299 -0.0160 -0.5438
 3254SOL    HW121395   4.629   0.561   7.713  0.2202 -1.7078 -0.8713
 3254SOL    HW221396   4.699   0.643   7.815 -0.3595 -0.2038  0.9681
 3255SOL     OW21397   3.132   3.752  10.069 -0.6817  0.5742 -0.5019
 3255SOL    HW121398   3.058   3.708  10.111 -0.0392 -1.7701 -1.8172
 3255SOL    HW221399   3.081   3.803  10.005 -1.9324  1.6084  1.3027
 3256SOL     OW21400   3.237   2.957   6.040  0.4987  0.1421  0.1191
 3256SOL    HW121401   3.148   2.928   6.022  1.4505 -1.8101 -1.4725
 3256SOL    HW221402   3.281   2.873   6.025  1.0601  0.1656  1.6315
 3257SOL     OW21403   2.752   1.731   7.941 -0.1259  0.0614  0.5480
 3257SOL    HW121404   2.775   1.677   8.016  0.2330  0.3140  0.6183
 3257SOL    HW221405   2.725   1.815   7.980  2.3326  1.2209 -0.2297
 3258SOL     OW21406   2.787   1.189   3.577 -0.0135  0.1553 -0.5564
 3258SOL    HW121407   2.777   1.115   3.637 -0.2341  0.3752 -0.3208
 3258SOL    HW221408   2.701   1.180   3.537  1.4319  3.2052 -4.2308
 3259SOL     OW21409   1.721   0.825   9.167  0.1278  0.0217 -0.0285
 3259SOL    HW121410   1.712   0.731   9.181  1.4841  0.0728  1.2142
 3259SOL    HW221411   1.806   0.833   9.210  0.3393  0.1525 -0.4733
 3260SOL     OW21412   1.684   1.160   8.556 -0.6739 -0.7119 -0.2341
 3260SOL    HW121413   1.719   1.081   8.599 -1.1945 -1.6458 -1.5194
 3260SOL    HW221414   1.738   1.159   8.477 -1.4057 -0.4945 -0.7381
 3261SOL     OW21415   4.719   0.589   5.001  0.7982 -0.2780  0.1017
 3261SOL    HW121416   0.044   0.531   4.959  1.0178 -0.6541  0.9441
 3261SOL    HW221417   4.672   0.604   4.919  0.7472  2.3064  0.6027
 3262SOL     OW21418   3.953   1.193   1.362 -0.2494 -0.7126  0.1813
 3262SOL    HW121419   3.997   1.275   1.341  1.5345 -1.6054  0.4426
 3262SOL    HW221420   3.919   1.208   1.450 -2.5286 -1.4612 -0.5521
 3263SOL     OW21421   0.291   4.238   6.219  0.5123 -0.1709 -0.1920
 3263SOL    HW121422   0.339   4.240   6.136  2.2112 -0.2434  0.7803
 3263SOL    HW221423   0.324   4.316   6.265 -0.8933  0.2225  0.1583
 3264SOL     OW21424   2.547   0.958   8.354 -0.0332 -0.0625  0.2123
 3264SOL    HW121425   2.548   0.871   8.313 -0.5200  0.9417 -1.9223
 3264SOL    HW221426   2.585   1.014   8.286 -0.2364  2.6278  2.3245
 3265SOL     OW21427   0.286   4.082   4.989 -0.2231 -0.0103 -0.0377
 3265SOL    HW121428   0.233   4.142   5.042  0.2290  0.7502 -0.4525
 3265SOL    HW221429   0.294   4.129   4.906 -2.7396  0.3222 -0.1018
 3266SOL     OW21430   2.860   0.890   8.173  0.1153  0.5088 -0.3734
 3266SOL    HW121431   2.929   0.884   8.239 -1.1590 -0.2952  0.9059
 3266SOL    HW221432   2.820   0.973   8.200 -0.5536 -0.6189  2.1649
 3267SOL     OW21433   1.002   3.365  11.583 -0.3510 -0.8933  0.0413
 3267SOL    HW121434   0.954   3.298  11.536  0.9637 -1.2434 -0.8159
 3267SOL    HW221435   0.950   3.438  11.548 -0.2599  0.0201  1.8160
 3268SOL     OW21436   0.675   2.466   5.843  0.0623  0.1900 -0.2381
 3268SOL    HW121437   0.635   2.418   5.770  0.7266 -1.2810  0.3620
 3268SOL    HW221438   0.699   2.392   5.898  1.3707  1.1567  0.4737
 3269SOL     OW21439   0.536   3.082   3.538 -0.1017  0.1463  0.2136
 3269SOL    HW121440   0.506   3.027   3.611 -3.1510  1.7328  0.1508
 3269SOL    HW221441   0.494   3.166   3.555  1.0145  0.3600  1.9400
 3270SOL     OW21442   1.030   1.415  14.958 -0.8016 -0.0716  0.3575
 3270SOL    HW121443   0.958   1.352  14.956 -2.0168  1.2407  2.3153
 3270SOL    HW221444   1.092   1.376  14.897 -0.4766  0.5976  0.2540
 3271SOL     OW21445   0.709   0.575  12.667  0.2996 -0.6083  0.1166
 3271SOL    HW121446   0.747   0.532  12.744  0.2207 -0.9658 -0.0414
 3271SOL    HW221447   0.781   0.602  12.611 -1.7420 -1.0100 -2.7192
 3272SOL     OW21448   1.049   2.732   5.243  0.4004 -0.2313 -0.6119
 3272SOL    HW121449   1.123   2.790   5.223 -0.7031  1.2245 -0.4894
 3272SOL    HW221450   0.978   2.796   5.247  1.4354  0.9040  0.0992
 3273SOL     OW21451   2.530   1.800   6.931 -0.4651 -0.1936 -0.4204
 3273SOL    HW121452   2.485   1.723   6.965 -0.4911 -0.9113 -2.0535
 3273SOL    HW221453   2.607   1.800   6.988  0.5769 -2.9647 -1.8134
 3274SOL     OW21454   2.143   2.971   5.586  0.2395  0.2994  0.0985
 3274SOL    HW121455   2.195   2.894   5.607  1.3624  0.9385 -0.3070
 3274SOL    HW221456   2.153   2.969   5.491  1.4839  1.4387  0.2014
 3275SOL     OW21457   3.762   3.245   4.749 -0.1961  0.1367 -0.2220
 3275SOL    HW121458   3.784   3.167   4.697 -0.0303  0.5897 -0.8267
 3275SOL    HW221459   3.816   3.236   4.828 -1.0989  3.4810  0.7578
 3276SOL     OW21460   2.759   1.056   6.949 -0.2784  0.0247 -0.0588
 3276SOL    HW121461   2.670   1.036   6.976 -0.0482 -0.6231  0.2294
 3276SOL    HW221462   2.742   1.108   6.871 -1.5222 -0.7663 -0.3106
 3277SOL     OW21463   4.400   2.508   3.516 -0.4088  0.5765 -0.3216
 3277SOL    HW121464   4.461   2.509   3.442 -0.5721  0.5213 -0.4562
 3277SOL    HW221465   4.392   2.603   3.530 -2.3604  0.0749  1.9152
 3278SOL     OW21466   1.140   0.185  13.243  0.2924  0.1307  0.1277
 3278SOL    HW121467   1.192   0.126  13.296  0.6374  1.8213  1.6896
 3278SOL    HW221468   1.052   0.157  13.268 -0.4879  1.7963 -0.6800
 3279SOL     OW21469   3.946   4.253  16.960 -0.3930  0.5729  1.1418
 3279SOL    HW121470   3.896   4.181  16.920  1.2438 -1.0026  1.9402
 3279SOL    HW221471   3.993   4.197  17.022 -0.9142  0.8123  1.7536
 3280SOL     OW21472   2.255   1.997  15.678 -0.7812 -0.3476  0.2883
 3280SOL    HW121473   2.245   2.049  15.758 -1.2713 -0.7002  0.4577
 3280SOL    HW221474   2.299   2.054  15.615 -2.9009  0.6641 -0.3005
 3281SOL     OW21475   3.358   4.047   0.548 -0.0531 -0.0765 -0.2328
 3281SOL    HW121476   3.362   3.952   0.538  0.9261  0.1212 -1.6750
 3281SOL    HW221477   3.299   4.051   0.623  0.3911  1.8344  0.0050
 3282SOL     OW21478   1.729   3.059   5.655 -0.0463  0.0824 -0.2399
 3282SOL    HW121479   1.702   2.971   5.629  1.4876 -1.0974  2.1740
 3282SOL    HW221480   1.668   3.119   5.611  1.0335  0.9982 -0.4942
 3283SOL     OW21481   2.635   4.077   6.908 -0.2700  0.0655 -0.5035
 3283SOL    HW121482   2.543   4.089   6.930 -0.3750 -1.7758  0.1221
 3283SOL    HW221483   2.640   3.981   6.902  1.6497  0.1931 -1.0678
 3284SOL     OW21484   3.466   1.197   8.276  0.1886 -0.0822 -0.2639
 3284SOL    HW121485   3.484   1.242   8.193  2.0824  0.7122  0.5858
 3284SOL    HW221486   3.451   1.104   8.258 -3.4679  0.0874  2.0062
 3285SOL     OW21487   3.117   0.878   8.009  0.1004 -0.2223  0.3222
 3285SOL    HW121488   3.138   0.788   8.033 -1.0242 -0.2400  1.2691
 3285SOL    HW221489   3.039   0.901   8.060  1.0074  0.6514  1.3017
 3286SOL     OW21490   2.801   2.392  16.742 -0.2771 -0.4590 -0.7605
 3286SOL    HW121491   2.887   2.428  16.764 -0.9538 -0.0107  1.1697
 3286SOL    HW221492   2.811   2.379  16.647 -2.7817  0.0178 -1.0959
 3287SOL     OW21493   4.646   4.366   5.746  0.1311 -0.0403 -0.8809
 3287SOL    HW121494   4.602   4.288   5.780  1.1432  0.2746  1.1177
 3287SOL    HW221495   4.721   4.377   5.804 -0.9887  0.9883  0.3619
 3288SOL     OW21496   1.125   2.610   1.731 -0.2444 -0.3821 -0.3374
 3288SOL    HW121497   1.150   2.532   1.781 -0.5739  0.7201  1.5083
 3288SOL    HW221498   1.149   2.577   1.644  3.3218 -1.7440  1.1660
 3289SOL     OW21499   2.547   2.945   1.927 -0.3896 -0.3918 -0.0198
 3289SOL    HW121500   2.505   2.888   1.991 -0.8773  1.7089  1.5174
 3289SOL    HW221501   2.626   2.969   1.975 -1.1952  0.9021  0.6561
 3290SOL     OW21502   0.034   2.192   8.454 -0.4072 -0.1287 -0.3161
 3290SOL    HW121503   4.734   2.109   8.425  0.2625 -0.2484 -0.8553
 3290SOL    HW221504   4.723   2.212   8.533 -1.7426 -2.1633 -0.6421
 3291SOL     OW21505   3.314   1.925   2.907  0.4199  0.9567 -0.1876
 3291SOL    HW121506   3.342   1.888   2.991 -1.2523 -0.9592 -0.4751
 3291SOL    HW221507   3.399   1.930   2.863  1.8558  0.4471  2.5471
 3292SOL     OW21508   4.676   0.205  16.892 -0.4758  0.2473 -0.6667
 3292SOL    HW121509   0.007   0.187  16.828  0.2052  1.9394 -0.4269
 3292SOL    HW221510   4.621   0.127  16.894  0.1545 -0.1875 -0.5221
 3293SOL     OW21511   1.992   3.262   0.412 -0.0655 -0.8475 -0.0147
 3293SOL    HW121512   2.064   3.325   0.407 -0.3270 -0.6324 -0.9805
 3293SOL    HW221513   1.919   3.302   0.366  0.1499 -1.0182 -0.5020
 3294SOL     OW21514   0.722   1.349  16.217  0.2342  0.2568 -0.2946
 3294SOL    HW121515   0.739   1.380  16.129  0.4922  0.1460 -0.2824
 3294SOL    HW221516   0.659   1.417  16.242  0.2786  0.0148  0.4748
 3295SOL     OW21517   4.625   1.364  16.912  0.4248  0.1630 -0.2827
 3295SOL    HW121518   4.557   1.404  16.965 -0.4502 -0.4882 -0.9172
 3295SOL    HW221519   4.671   1.306  16.973  1.5615  0.8595 -0.4721
 3296SOL     OW21520   0.782   2.731   8.178  1.0592  0.0252 -0.1129
 3296SOL    HW121521   0.797   2.637   8.188 -1.2294 -0.3002  0.2422
 3296SOL    HW221522   0.702   2.748   8.227  1.9595  1.8849  0.7093
 3297SOL     OW21523   3.244   1.202   3.450  0.0455  0.3000 -0.3327
 3297SOL    HW121524   3.226   1.113   3.419 -0.3429  0.3303 -0.1887
 3297SOL    HW221525   3.316   1.173   3.507 -0.8366  1.3135  1.2785
 3298SOL     OW21526   2.011   3.040   7.324 -0.0136 -0.1106  0.2605
 3298SOL    HW121527   1.993   3.058   7.416  2.5250  1.5477  0.4329
 3298SOL    HW221528   2.072   2.966   7.328  1.2265  0.9067  0.3278
 3299SOL     OW21529   4.675   2.731   7.019 -0.9372  0.1933 -0.2141
 3299SOL    HW121530   4.681   2.636   7.006 -1.7264  0.2528 -1.0555
 3299SOL    HW221531   4.607   2.730   7.087 -2.4767  0.8587 -1.7405
 3300SOL     OW21532   0.551   2.104  10.859 -0.0800 -0.5730  0.5001
 3300SOL    HW121533   0.509   2.085  10.943  1.6948 -0.6157  1.3675
 3300SOL    HW221534   0.608   2.029  10.844 -0.4642 -0.7881  0.0883
 3301SOL     OW21535   0.478   0.127   7.985 -0.4367 -0.4493  0.2735
 3301SOL    HW121536   0.523   0.100   7.905  0.7856  1.7839  0.2084
 3301SOL    HW221537   0.415   0.190   7.950  0.1625  0.4863  0.8774
 3302SOL     OW21538   1.597   0.191  10.187  0.6124  0.3218  0.1814
 3302SOL    HW121539   1.668   0.245  10.220  0.9867  0.5496 -1.0048
 3302SOL    HW221540   1.564   0.151  10.268 -0.9580  1.2970  0.0355
 3303SOL     OW21541   3.894   1.444  14.491  0.2043  0.2458  0.0715
 3303SOL    HW121542   3.971   1.397  14.524  0.0219  0.4766  0.8432
 3303SOL    HW221543   3.831   1.377  14.465  0.4595  1.2446 -3.0029
 3304SOL     OW21544   4.041   0.383   2.339 -0.2650 -0.4050 -0.4215
 3304SOL    HW121545   4.126   0.348   2.310 -0.0561  0.0071 -0.2982
 3304SOL    HW221546   4.051   0.371   2.433  2.9910  1.6135 -0.5257
 3305SOL     OW21547   3.330   1.607   0.431  0.3371 -0.2218 -0.3999
 3305SOL    HW121548   3.321   1.639   0.520  0.0102 -1.5561  0.0510
 3305SOL    HW221549   3.298   1.683   0.383 -2.1579 -0.0988  1.4902
 3306SOL     OW21550   3.980   4.005   2.649 -0.4130  0.5978  0.3192
 3306SOL    HW121551   4.046   4.043   2.592  0.5443  0.9453  1.6767
 3306SOL    HW221552   3.958   4.077   2.709 -0.6645  1.5629 -0.9391
 3307SOL     OW21553   4.062   2.720   1.382 -1.0330 -0.0207  0.4357
 3307SOL    HW121554   4.024   2.773   1.312  1.5982 -1.3685 -2.0350
 3307SOL    HW221555   4.010   2.640   1.368 -0.4448 -0.3284 -0.0137
 3308SOL     OW21556   2.797   3.489   4.232 -0.0765 -0.3037 -0.3741
 3308SOL    HW121557   2.712   3.505   4.272 -1.1672 -2.1492 -1.9537
 3308SOL    HW221558   2.818   3.578   4.201 -0.2315 -0.6108 -1.3592
 3309SOL     OW21559   1.648   0.631   5.755  0.3357  0.0709 -1.0420
 3309SOL    HW121560   1.722   0.676   5.713 -0.6620  1.4743 -1.3048
 3309SOL    HW221561   1.578   0.695   5.741  1.4149  1.8859  1.9662
 3310SOL     OW21562   4.066   2.662  12.461 -0.8203 -0.4197 -0.3492
 3310SOL    HW121563   4.076   2.740  12.407 -0.2908 -0.9106 -0.9560
 3310SOL    HW221564   4.027   2.712  12.533 -0.4812 -0.1094 -0.3851
 3311SOL     OW21565   4.613   0.181   3.543  0.1106  0.4433  0.2871
 3311SOL    HW121566   4.624   0.271   3.572 -1.4584  0.1529  1.8267
 3311SOL    HW221567   4.693   0.167   3.492  0.6744  1.1466  0.9944
 3312SOL     OW21568   2.538   0.280  15.490  1.0180 -0.2639 -0.1792
 3312SOL    HW121569   2.608   0.300  15.552  0.2046  3.2661 -0.3962
 3312SOL    HW221570   2.566   0.338  15.419  0.6045  2.0995  1.5879
 3313SOL     OW21571   0.913   2.929   6.544  0.2658  0.2282 -0.3481
 3313SOL    HW121572   0.849   2.965   6.605  0.0824 -3.3536  1.5893
 3313SOL    HW221573   0.919   2.991   6.472  0.8405  2.1427  1.3418
 3314SOL     OW21574   1.013   1.781   9.527  0.1561  1.0839  0.6337
 3314SOL    HW121575   1.009   1.830   9.609 -0.1329 -0.8087  1.7487
 3314SOL    HW221576   1.009   1.844   9.455  2.0777 -2.5041 -2.6157
 3315SOL     OW21577   1.720   3.458   6.451  0.0279 -0.4780  0.2566
 3315SOL    HW121578   1.767   3.377   6.470 -0.5494 -0.7193  0.6354
 3315SOL    HW221579   1.635   3.424   6.479 -0.3904  0.1174 -0.2804
 3316SOL     OW21580   4.060   2.857   4.673 -0.1602  0.7887  0.1822
 3316SOL    HW121581   4.086   2.936   4.625 -0.8541 -0.9032 -2.9323
 3316SOL    HW221582   4.117   2.796   4.627  2.1344  1.4324  2.1736
 3317SOL     OW21583   2.625   3.551   5.658 -0.1253 -0.2562  0.6406
 3317SOL    HW121584   2.671   3.610   5.598  0.6498 -2.0136 -0.4964
 3317SOL    HW221585   2.564   3.616   5.691 -1.4439 -1.2094  0.0560
 3318SOL     OW21586   3.350   3.277  17.146  0.1547  0.0976  0.1321
 3318SOL    HW121587   3.301   3.355  17.119  0.2159 -0.1561 -0.7166
 3318SOL    HW221588   3.429   3.303  17.194  1.3968 -2.0138 -0.7781
 3319SOL     OW21589   0.259   0.766   3.619 -0.7661 -0.5979 -0.5033
 3319SOL    HW121590   0.220   0.770   3.531  0.6139 -0.1823 -1.1009
 3319SOL    HW221591   0.314   0.844   3.618  0.0624 -1.1797  0.3437
 3320SOL     OW21592   2.195   0.411   5.766 -0.4856 -0.2902  0.4300
 3320SOL    HW121593   2.253   0.348   5.725  1.6847  2.6118 -0.9790
 3320SOL    HW221594   2.166   0.378   5.851 -0.9707 -0.0956  0.3461
 3321SOL     OW21595   2.861   2.254  10.947 -0.2584  0.0218  0.0459
 3321SOL    HW121596   2.839   2.237  11.039 -1.4522  2.5340  0.2166
 3321SOL    HW221597   2.775   2.282  10.916  0.7032  2.5157 -0.3143
 3322SOL     OW21598   1.460   3.626  11.589  0.1198  0.6024 -0.5283
 3322SOL    HW121599   1.417   3.638  11.504  0.7813 -3.2118 -1.3887
 3322SOL    HW221600   1.441   3.533  11.602 -0.2442  0.7942  0.2879
 3323SOL     OW21601   0.325   1.277   5.477  0.6360 -0.0266  0.0662
 3323SOL    HW121602   0.414   1.260   5.508  0.8736  0.5315 -0.3014
 3323SOL    HW221603   0.279   1.290   5.560 -1.1569 -1.8052 -0.6596
 3324SOL     OW21604   1.817   0.543   9.253  0.2487  0.1023 -0.7422
 3324SOL    HW121605   1.790   0.490   9.178  2.5756 -2.2442  0.0633
 3324SOL    HW221606   1.770   0.499   9.324  3.3717  1.2438  1.9907
 3325SOL     OW21607   2.197   2.075   7.225  0.0618  0.0648  0.1386
 3325SOL    HW121608   2.269   2.046   7.168  1.3296 -0.8088  2.1723
 3325SOL    HW221609   2.166   1.994   7.265 -0.1467  0.4114  0.6711
 3326SOL     OW21610   4.541   0.368  11.346  0.5886  0.0878  0.0561
 3326SOL    HW121611   4.525   0.274  11.342 -2.4087  0.6755 -1.7859
 3326SOL    HW221612   4.615   0.377  11.286 -0.4336 -0.5379 -1.2905
 3327SOL     OW21613   3.688   1.780  16.925 -0.0050 -0.2306  0.0262
 3327SOL    HW121614   3.625   1.753  16.858  0.8647 -2.4170  0.0947
 3327SOL    HW221615   3.767   1.789  16.872  0.7036 -2.4059  0.7039
 3328SOL     OW21616   2.610   2.126   4.175  0.3691  0.2016 -0.2444
 3328SOL    HW121617   2.515   2.132   4.183  0.3967 -0.8462  0.8652
 3328SOL    HW221618   2.632   2.033   4.184  1.5714  0.7171  2.0921
 3329SOL     OW21619   1.699   3.171   8.700  0.6432 -0.4718 -0.0623
 3329SOL    HW121620   1.608   3.168   8.671  1.0923 -1.2905 -1.4129
 3329SOL    HW221621   1.740   3.097   8.655 -3.8001 -2.4845 -0.8422
 3330SOL     OW21622   1.608   0.985   2.154  0.1258 -0.1491  0.1306
 3330SOL    HW121623   1.569   1.067   2.184  0.9828 -0.0576  0.9911
 3330SOL    HW221624   1.633   1.011   2.065  0.3867  0.3509  0.3516
 3331SOL     OW21625   0.653   4.584   4.874  0.0958 -0.2566  0.2162
 3331SOL    HW121626   0.626   4.664   4.920 -1.2963 -1.3482  1.3119
 3331SOL    HW221627   0.745   4.596   4.894  0.1960 -0.7943  0.0787
 3332SOL     OW21628   0.589   4.305   9.232  0.1451  0.1989  0.3130
 3332SOL    HW121629   0.632   4.283   9.149 -0.4218 -1.1365  0.3621
 3332SOL    HW221630   0.517   4.242   9.231  0.8397 -0.6507  3.4169
 3333SOL     OW21631   1.421   4.542   9.115  0.4603 -0.2535 -0.7360
 3333SOL    HW121632   1.355   4.502   9.171  0.1267  0.1253 -0.8550
 3333SOL    HW221633   1.377   4.601   9.053 -0.2093  0.2222  0.1895
 3334SOL     OW21634   0.169   2.393   2.571 -0.1712  0.1717 -0.3167
 3334SOL    HW121635   0.256   2.400   2.610 -0.5520  1.0461  0.3669
 3334SOL    HW221636   0.143   2.482   2.548  2.9283  1.1675  0.0375
 3335SOL     OW21637   1.907   1.318   1.503 -0.1499  0.2873  0.4186
 3335SOL    HW121638   1.933   1.338   1.413 -0.0696  0.0795  0.3955
 3335SOL    HW221639   1.870   1.402   1.529  0.7914  1.2299 -1.3238
 3336SOL     OW21640   0.573   2.413   6.574  0.7194  0.1583 -0.1134
 3336SOL    HW121641   0.545   2.323   6.559  0.1728  0.0170  1.7016
 3336SOL    HW221642   0.527   2.465   6.508  1.8514  1.1077 -0.1627
 3337SOL     OW21643   1.185   4.685   8.422  0.7733  0.2304  0.4052
 3337SOL    HW121644   1.266   4.652   8.383 -0.9591 -2.4795 -0.9279
 3337SOL    HW221645   1.208   4.660   8.511  3.3195 -1.3658 -0.6883
 3338SOL     OW21646   3.448   2.729   5.459 -0.1003  0.4503 -0.7226
 3338SOL    HW121647   3.533   2.710   5.420 -0.2117 -2.0675  0.3029
 3338SOL    HW221648   3.483   2.720   5.548  1.0597  1.9019 -1.0199
 3339SOL     OW21649   1.716   2.330   1.750  0.0084 -0.2841  0.4483
 3339SOL    HW121650   1.668   2.292   1.824 -3.1101  1.6580 -0.5638
 3339SOL    HW221651   1.637   2.349   1.700  1.3427  0.9383 -1.1969
 3340SOL     OW21652   2.742   3.260  17.671 -0.3770  0.3277  0.1803
 3340SOL    HW121653   2.672   3.195  17.673 -0.1291  0.0184 -1.3066
 3340SOL    HW221654   2.705   3.331  17.618 -1.9236 -0.7247 -0.1510
 3341SOL     OW21655   2.130   3.466   8.258 -0.0742 -1.0295 -0.0462
 3341SOL    HW121656   2.210   3.465   8.310 -0.4482 -0.1963  0.5432
 3341SOL    HW221657   2.074   3.511   8.321  0.1745 -0.8536  0.0466
 3342SOL     OW21658   0.035   1.884  11.008 -0.2307 -0.3258 -0.3294
 3342SOL    HW121659   4.713   1.955  10.984 -2.2668 -1.6899  0.6962
 3342SOL    HW221660   4.717   1.836  11.070  1.1773 -1.6610 -0.0869
 3343SOL     OW21661   3.443   3.619   6.376  0.1290 -0.2183  0.1486
 3343SOL    HW121662   3.524   3.578   6.406  1.3584  1.7143 -0.5298
 3343SOL    HW221663   3.416   3.552   6.314  3.2963 -2.2172  0.9416
 3344SOL     OW21664   2.122   0.814   2.705  0.0774  1.0156  0.1355
 3344SOL    HW121665   2.213   0.844   2.701  1.0760 -1.9468  0.3930
 3344SOL    HW221666   2.103   0.797   2.613 -0.5867 -1.1050  0.6585
 3345SOL     OW21667   2.209   3.762   6.122 -0.4774 -0.4200 -0.2097
 3345SOL    HW121668   2.139   3.771   6.056 -2.0503  1.5122  1.7244
 3345SOL    HW221669   2.282   3.793   6.068  0.1159 -0.9889  0.2726
 3346SOL     OW21670   4.021   1.395   8.187 -0.5342 -0.2002  0.0550
 3346SOL    HW121671   4.059   1.427   8.269 -1.5178 -2.1003  1.2796
 3346SOL    HW221672   3.943   1.351   8.222 -0.7209  1.0106  1.1632
 3347SOL     OW21673   0.275   1.403   5.103 -0.3735  0.0706 -0.2239
 3347SOL    HW121674   0.254   1.389   5.011 -0.1185  3.1591 -0.7717
 3347SOL    HW221675   0.285   1.311   5.126  1.7472 -0.3820 -3.0400
 3348SOL     OW21676   3.834   2.838  12.429  0.1743 -0.3495  0.5242
 3348SOL    HW121677   3.740   2.829  12.446  0.5238 -0.6209  2.3281
 3348SOL    HW221678   3.864   2.818  12.517  2.3687  1.2895  0.1348
 3349SOL     OW21679   0.438   4.691   9.364  0.6642 -0.5117  0.2454
 3349SOL    HW121680   0.462   4.716   9.454  2.2066  0.2345 -0.3648
 3349SOL    HW221681   0.380   4.618   9.382  0.4813 -0.8342 -1.6726
 3350SOL     OW21682   1.791   0.875  17.460 -0.1089 -0.1236 -0.1591
 3350SOL    HW121683   1.811   0.799  17.515 -0.4408 -0.9793 -1.2061
 3350SOL    HW221684   1.695   0.883  17.460 -0.0803  0.1290  2.5418
 3351SOL     OW21685   0.070   3.621   2.387  0.0845  0.1678 -0.2208
 3351SOL    HW121686   0.125   3.623   2.309  0.4487  0.1497  0.0338
 3351SOL    HW221687   0.133   3.579   2.447  0.0590  1.7341  0.9126
 3352SOL     OW21688   2.331   2.290   1.815  0.3538  0.0523 -0.4301
 3352SOL    HW121689   2.279   2.334   1.749  2.4311 -0.4538 -2.4169
 3352SOL    HW221690   2.392   2.239   1.761  0.9869  0.3096  0.0348
 3353SOL     OW21691   0.804   0.353  14.687  0.6562  0.6052 -0.5028
 3353SOL    HW121692   0.720   0.372  14.729 -0.2248 -2.9205 -0.6643
 3353SOL    HW221693   0.795   0.258  14.691  3.3473  0.3260 -1.0611
 3354SOL     OW21694   4.643   1.406  15.742 -0.1246 -0.2422  0.0615
 3354SOL    HW121695   4.723   1.408  15.690 -1.3487  0.2172 -1.8022
 3354SOL    HW221696   4.612   1.317  15.727 -0.2739  0.0371 -1.2867
 3355SOL     OW21697   2.925   0.284   0.079  0.9990 -0.2827 -0.3902
 3355SOL    HW121698   2.914   0.298  17.736  1.7941 -3.6302 -0.9908
 3355SOL    HW221699   2.962   0.195   0.074 -1.6839 -1.2661 -2.5829
 3356SOL     OW21700   1.111   1.419  12.446 -0.1410 -0.1323 -0.1090
 3356SOL    HW121701   1.197   1.412  12.406  0.3395 -1.7568  1.1798
 3356SOL    HW221702   1.126   1.441  12.538 -2.7218 -0.1548  0.3267
 3357SOL     OW21703   4.724   0.123  12.720 -0.2042 -0.0727 -0.0076
 3357SOL    HW121704   0.043   0.187  12.762 -0.9356  0.2586  0.5041
 3357SOL    HW221705   0.054   0.059  12.701 -0.0369  0.2476 -0.4875
 3358SOL     OW21706   0.124   1.823   8.420  0.5516 -0.1474 -0.3330
 3358SOL    HW121707   0.070   1.872   8.358 -2.0683 -0.4452  1.7278
 3358SOL    HW221708   0.063   1.799   8.490  0.5151 -1.4783 -0.8293
 3359SOL     OW21709   3.238   3.375   3.482 -0.2548 -0.2347  0.0532
 3359SOL    HW121710   3.327   3.344   3.499 -0.5683 -0.7909  0.6626
 3359SOL    HW221711   3.234   3.341   3.393 -0.6934 -0.5325  0.1848
 3360SOL     OW21712   0.557   3.999   9.069  0.3751 -0.4760  0.2403
 3360SOL    HW121713   0.617   3.986   9.143  1.3839  1.7356 -0.2072
 3360SOL    HW221714   0.483   3.949   9.105  0.8867  0.3128  2.4053
 3361SOL     OW21715   1.941   2.282   7.647  0.3620  0.2474 -0.2495
 3361SOL    HW121716   2.033   2.261   7.629  0.1827 -0.8596  0.1658
 3361SOL    HW221717   1.906   2.225   7.579  1.4366  1.1913 -1.5975
 3362SOL     OW21718   2.474   4.510   4.722 -0.4233  0.5516  0.1680
 3362SOL    HW121719   2.511   4.583   4.772  0.1505  0.2815  0.1414
 3362SOL    HW221720   2.411   4.550   4.663 -0.3700 -1.4294 -1.2239
 3363SOL     OW21721   2.181   2.548   6.218 -0.4874 -0.1226  0.0847
 3363SOL    HW121722   2.196   2.631   6.174 -1.1216 -1.1487 -2.0820
 3363SOL    HW221723   2.232   2.557   6.299 -0.6997 -0.2771  0.2372
 3364SOL     OW21724   1.446   2.001   3.000  0.4446 -0.2201  0.0940
 3364SOL    HW121725   1.514   1.935   2.988  1.7791  1.0230  0.8493
 3364SOL    HW221726   1.494   2.078   2.969  0.4391 -0.4285 -0.4308
 3365SOL     OW21727   3.376   0.776   2.040  0.5298  0.0622 -0.0626
 3365SOL    HW121728   3.419   0.691   2.046 -1.5168 -0.9548 -0.0196
 3365SOL    HW221729   3.285   0.749   2.028  0.8839 -0.8749 -0.5717
 3366SOL     OW21730   3.570   0.242   9.277 -0.2882  0.1612  0.5509
 3366SOL    HW121731   3.520   0.161   9.285 -1.1162  0.5430 -0.8343
 3366SOL    HW221732   3.550   0.293   9.355  0.0770  3.8013 -1.7253
 3367SOL     OW21733   2.497   2.145   1.638 -0.3925  0.6155  0.1886
 3367SOL    HW121734   2.468   2.054   1.649 -0.1054  0.9213  3.4912
 3367SOL    HW221735   2.478   2.168   1.547 -1.3246  2.2396  0.8030
 3368SOL     OW21736   4.353   4.594  11.301  0.5750  0.2386  0.0445
 3368SOL    HW121737   4.446   4.572  11.299  0.8122  1.2398  0.3704
 3368SOL    HW221738   4.346   4.664  11.237 -1.3673 -0.0513 -0.0628
 3369SOL     OW21739   3.051   3.666  17.303  0.3171 -0.0783 -0.2346
 3369SOL    HW121740   3.028   3.759  17.304  1.1611  0.1181  1.7655
 3369SOL    HW221741   3.101   3.664  17.384  0.8497 -0.3527 -0.5719
 3370SOL     OW21742   4.587   0.667  16.999  0.0999 -0.9812 -0.1321
 3370SOL    HW121743   4.495   0.688  17.012 -0.0167 -1.1944 -0.6037
 3370SOL    HW221744   4.593   0.581  16.958 -1.3637 -0.5433 -1.2530
 3371SOL     OW21745   4.043   2.666   0.512 -0.2963 -0.1431 -0.0011
 3371SOL    HW121746   4.105   2.609   0.466  1.2287 -0.0284  1.9603
 3371SOL    HW221747   4.047   2.630   0.600 -2.3732 -0.1409  0.0890
 3372SOL     OW21748   3.658   1.530   8.839 -0.0969 -0.2050  0.5920
 3372SOL    HW121749   3.717   1.527   8.764  0.3736 -0.2747  0.9654
 3372SOL    HW221750   3.678   1.609   8.889 -0.7806  1.6432 -2.0505
 3373SOL     OW21751   4.361   0.315  14.667 -0.4196  0.1618 -0.0698
 3373SOL    HW121752   4.356   0.370  14.745 -0.7611  3.5983 -2.4660
 3373SOL    HW221753   4.390   0.377  14.600  1.2928  0.6389  1.1387
 3374SOL     OW21754   2.172   3.455   0.386 -0.1891 -0.6659  0.1758
 3374SOL    HW121755   2.259   3.421   0.408  0.2643 -0.6184 -1.5741
 3374SOL    HW221756   2.185   3.544   0.420 -3.4751 -0.6373  1.3388
 3375SOL     OW21757   4.008   3.784  16.946  0.3461 -0.4496  0.4727
 3375SOL    HW121758   4.042   3.712  17.000 -0.0353  0.3828  1.8247
 3375SOL    HW221759   4.054   3.859  16.983  0.2792  0.3245 -0.9913
 3376SOL     OW21760   1.950   0.264   4.479 -0.5152  0.3936 -0.2118
 3376SOL    HW121761   1.897   0.214   4.541 -0.3182  1.9420  1.1955
 3376SOL    HW221762   1.990   0.191   4.432  0.8045  0.8024  0.2690
 3377SOL     OW21763   3.997   4.195   6.634 -0.3596  0.4414 -0.9503
 3377SOL    HW121764   4.038   4.236   6.558  1.1468  0.9272  0.1091
 3377SOL    HW221765   3.954   4.120   6.593 -0.9069  1.6961 -2.6575
 3378SOL     OW21766   3.322   1.411   6.607  0.3534 -0.1821  0.0590
 3378SOL    HW121767   3.322   1.398   6.701  1.1020  1.2020  0.2543
 3378SOL    HW221768   3.398   1.469   6.606  1.2822 -1.4049 -0.4600
 3379SOL     OW21769   3.805   3.635  16.838  0.5495 -0.0399  0.3265
 3379SOL    HW121770   3.865   3.699  16.875  0.2218  0.6893 -0.4164
 3379SOL    HW221771   3.775   3.667  16.754 -0.9877 -1.0729  0.4655
 3380SOL     OW21772   4.570   4.250  15.414  0.5805  0.1580  0.5636
 3380SOL    HW121773   4.534   4.320  15.360  1.7963  1.5960  1.6269
 3380SOL    HW221774   4.569   4.181  15.347 -1.3495  0.6327  0.0836
 3381SOL     OW21775   4.314   3.450   3.518  0.2411 -0.3383  0.0116
 3381SOL    HW121776   4.232   3.492   3.542  0.6242 -0.0643  0.8301
 3381SOL    HW221777   4.370   3.477   3.591 -1.6364 -0.1186  1.3680
 3382SOL     OW21778   4.735   4.048   3.801 -0.3855 -0.7249  0.4166
 3382SOL    HW121779   4.733   3.958   3.768 -0.9345  1.3719 -5.1518
 3382SOL    HW221780   0.068   4.090   3.752  0.5186  1.6177  3.6883
 3383SOL     OW21781   2.051   3.865   6.645 -0.6243 -0.2752  0.1977
 3383SOL    HW121782   1.972   3.812   6.640 -1.5669  1.2496 -0.8042
 3383SOL    HW221783   2.026   3.958   6.644  2.0496  0.4534  0.5776
 3384SOL     OW21784   0.222   2.539   3.573 -0.1352 -0.9656  0.1496
 3384SOL    HW121785   0.244   2.471   3.509  1.3190  1.5115 -1.9875
 3384SOL    HW221786   0.132   2.514   3.590 -0.3948 -0.5232 -0.5658
 3385SOL     OW21787   2.987   3.301   7.504 -0.0469  0.5363 -0.1772
 3385SOL    HW121788   3.072   3.264   7.479 -0.5619 -0.4365 -0.4910
 3385SOL    HW221789   2.940   3.290   7.422  0.7082 -1.0708 -0.4017
 3386SOL     OW21790   2.372   0.615   8.887  0.3954  0.1420  0.0705
 3386SOL    HW121791   2.435   0.678   8.922 -0.2230  0.1410  1.2050
 3386SOL    HW221792   2.295   0.667   8.860  1.0562  0.9743 -0.2202
 3387SOL     OW21793   1.296   1.650   5.932 -0.3288  0.5792  0.1827
 3387SOL    HW121794   1.365   1.684   5.988  0.5397 -1.9619  0.6688
 3387SOL    HW221795   1.316   1.697   5.852  1.0087 -0.1696  0.0699
 3388SOL     OW21796   2.467   2.216  11.557  0.4246  0.1253  0.0135
 3388SOL    HW121797   2.460   2.222  11.652  0.1049  1.0096 -0.0639
 3388SOL    HW221798   2.487   2.305  11.526  3.5585 -0.0571  1.4679
 3389SOL     OW21799   0.184   3.920  12.911  0.6604 -0.5844  0.7699
 3389SOL    HW121800   0.220   3.885  12.829 -2.5027 -0.9439 -0.4609
 3389SOL    HW221801   0.091   3.900  12.898  1.1415 -0.9984 -2.0391
 3390SOL     OW21802   1.722   4.720   4.496 -0.0275 -0.3007 -0.0591
 3390SOL    HW121803   1.667   0.057   4.474 -1.3414 -0.8673  1.2951
 3390SOL    HW221804   1.748   0.022   4.578  0.6725 -2.1285  0.6219
 3391SOL     OW21805   0.002   2.266   2.339  0.1498  0.0110 -0.1899
 3391SOL    HW121806   4.725   2.226   2.425  0.1399  0.2135 -0.0973
 3391SOL    HW221807   4.664   2.247   2.284 -0.7386  0.6452  0.8128
 3392SOL     OW21808   2.169   0.569  15.533  0.1185  0.0763  0.8893
 3392SOL    HW121809   2.195   0.525  15.452  2.0587  0.5418  1.2359
 3392SOL    HW221810   2.117   0.642  15.500 -0.5575 -0.5416  0.6043
 3393SOL     OW21811   4.094   3.661  11.903  0.1348  0.2311  0.5617
 3393SOL    HW121812   4.129   3.572  11.902  2.1816  1.0473  1.4008
 3393SOL    HW221813   4.021   3.646  11.963 -0.3625  0.4703  0.0145
 3394SOL     OW21814   1.038   4.473   2.843  0.0923  0.1083 -0.0005
 3394SOL    HW121815   1.001   4.556   2.873  2.4883  0.3350  2.3518
 3394SOL    HW221816   1.129   4.497   2.823  0.6403 -1.6150  0.3963
 3395SOL     OW21817   4.580   0.902   4.790 -0.2143 -0.1089 -0.7054
 3395SOL    HW121818   4.613   0.943   4.710  4.3760 -2.5551 -0.0405
 3395SOL    HW221819   4.584   0.976   4.852  0.0944  0.9308 -1.9574
 3396SOL     OW21820   0.820   2.433   5.426 -0.3482 -0.7018 -0.5956
 3396SOL    HW121821   0.758   2.476   5.367  0.0050 -1.2834 -1.4038
 3396SOL    HW221822   0.842   2.357   5.371  0.5107 -1.3397  0.6361
 3397SOL     OW21823   1.658   3.026   6.270 -0.5637  0.4595 -0.0351
 3397SOL    HW121824   1.571   2.987   6.268  0.2932 -1.3366 -2.0139
 3397SOL    HW221825   1.681   3.015   6.178  0.7324  1.7994  0.1249
 3398SOL     OW21826   3.389   1.670   7.802 -0.2038 -0.2291 -0.4082
 3398SOL    HW121827   3.431   1.636   7.724  0.1292  0.2677 -0.4502
 3398SOL    HW221828   3.311   1.711   7.763 -1.3624 -0.9765  1.1110
 3399SOL     OW21829   1.864   3.865  11.900 -0.2182  0.0683  0.0630
 3399SOL    HW121830   1.795   3.930  11.885  0.1151  1.1240  3.1146
 3399SOL    HW221831   1.811   3.788  11.878  0.0553  0.7126 -2.9275
 3400SOL     OW21832   1.598   4.366   1.934 -0.4075  0.0181  0.4606
 3400SOL    HW121833   1.663   4.409   1.878 -0.5179 -0.1684  0.1871
 3400SOL    HW221834   1.600   4.279   1.893 -1.1684 -1.5780  3.8368
 3401SOL     OW21835   0.540   2.245   7.894  0.1090 -0.1765 -0.4113
 3401SOL    HW121836   0.619   2.191   7.882 -0.1532 -0.8989  1.2075
 3401SOL    HW221837   0.470   2.186   7.867 -0.1809  0.8837 -1.9629
 3402SOL     OW21838   0.923   2.992  12.740  0.3312 -0.2050  0.0505
 3402SOL    HW121839   0.837   3.003  12.700  1.3526  1.4554 -1.6634
 3402SOL    HW221840   0.918   2.918  12.800  0.0115  0.6167  1.0523
 3403SOL     OW21841   0.512   4.731  12.601  0.1603 -0.5989  0.3669
 3403SOL    HW121842   0.514   4.668  12.673 -1.8087 -2.1870 -0.9969
 3403SOL    HW221843   0.470   0.066  12.647 -4.3100 -0.6444 -3.6662
 3404SOL     OW21844   2.063   3.152   0.625 -0.7517 -0.1406 -0.7754
 3404SOL    HW121845   2.016   3.193   0.552  2.0093  1.6388 -1.5449
 3404SOL    HW221846   2.145   3.198   0.609 -0.9983  0.3834 -0.5459
 3405SOL     OW21847   4.143   1.456   6.694  0.9877  0.2723 -0.1111
 3405SOL    HW121848   4.058   1.497   6.706 -0.0809 -2.4313  1.5576
 3405SOL    HW221849   4.141   1.427   6.603  0.0742 -1.0734  0.3469
 3406SOL     OW21850   2.916   0.762   2.863  0.3951  0.1671 -0.7800
 3406SOL    HW121851   2.909   0.785   2.770  0.7472  0.0826 -0.8292
 3406SOL    HW221852   2.825   0.752   2.889  0.9266  1.4788  1.6290
 3407SOL     OW21853   1.069   3.348   4.901  0.1335  0.1037 -0.1109
 3407SOL    HW121854   1.090   3.439   4.923 -2.6866  1.1177 -1.6662
 3407SOL    HW221855   0.974   3.347   4.888 -0.0051  0.5208  0.8287
 3408SOL     OW21856   0.649   4.116   7.009 -0.1920  0.0064  0.1878
 3408SOL    HW121857   0.731   4.102   6.962 -0.2405  0.9851 -0.1990
 3408SOL    HW221858   0.667   4.060   7.084 -0.0888 -0.4379 -0.1719
 3409SOL     OW21859   1.523   4.654  15.065  0.3490 -0.0934 -0.0548
 3409SOL    HW121860   1.524   4.591  15.137 -3.2139 -0.1777 -0.0581
 3409SOL    HW221861   1.460   4.605  15.011 -1.8453 -0.4701  2.8114
 3410SOL     OW21862   1.998   1.641   2.670 -0.0391  0.0307  0.6719
 3410SOL    HW121863   1.905   1.636   2.692  0.3355  1.6491  2.6539
 3410SOL    HW221864   2.034   1.726   2.696  1.9416 -0.4593 -0.4948
 3411SOL     OW21865   3.932   0.565   2.155  0.9875 -0.3837 -0.0049
 3411SOL    HW121866   3.971   0.652   2.165 -0.4513  0.0766  1.5459
 3411SOL    HW221867   3.955   0.523   2.238 -1.3618  1.0676  1.3756
 3412SOL     OW21868   1.559   3.418  13.566  0.3756 -0.2450  0.2814
 3412SOL    HW121869   1.631   3.370  13.606 -0.2539  0.2209  1.9934
 3412SOL    HW221870   1.502   3.347  13.536  1.5003 -0.7663 -0.5786
 3413SOL     OW21871   1.126   3.161   5.990 -0.1125  0.5016 -1.2013
 3413SOL    HW121872   1.104   3.072   5.963  0.5506 -0.0656  0.1364
 3413SOL    HW221873   1.060   3.213   5.944  0.9093  1.2270 -1.8656
 3414SOL     OW21874   1.181   1.640  12.654  0.1264  0.6531 -0.2188
 3414SOL    HW121875   1.252   1.701  12.677  2.3781 -1.0828 -2.5426
 3414SOL    HW221876   1.122   1.636  12.729 -1.3468 -1.1608 -1.4678
 3415SOL     OW21877   3.026   2.250   5.685 -0.0230  0.0524 -0.3406
 3415SOL    HW121878   2.971   2.313   5.637  0.9021 -0.0897 -1.6029
 3415SOL    HW221879   2.970   2.182   5.721  0.4737 -0.0455  0.2511
 3416SOL     OW21880   0.480   0.680   6.301  0.2774  0.0476 -0.7187
 3416SOL    HW121881   0.461   0.710   6.212  0.2094  0.8279 -0.4345
 3416SOL    HW221882   0.575   0.682   6.306  0.2481  3.2044 -1.4773
 3417SOL     OW21883   1.163   3.461  13.080 -0.4208  0.5437 -0.0285
 3417SOL    HW121884   1.104   3.525  13.041  0.1137  0.4341 -1.0145
 3417SOL    HW221885   1.237   3.458  13.019 -0.3294  2.6044 -0.0109
 3418SOL     OW21886   1.105   1.827   4.914 -0.2293  0.1236  0.3386
 3418SOL    HW121887   1.112   1.834   4.818  0.4782 -0.5112  0.3420
 3418SOL    HW221888   1.013   1.833   4.938 -0.3643  0.6127 -0.2835
 3419SOL     OW21889   3.928   3.405   8.636 -0.1364  0.4237 -0.0758
 3419SOL    HW121890   3.906   3.490   8.599 -0.3117  0.3601 -0.1166
 3419SOL    HW221891   3.997   3.378   8.575 -1.7720  2.4190 -2.7406
 3420SOL     OW21892   0.693   3.092   2.803  0.4523 -0.3870 -0.0413
 3420SOL    HW121893   0.757   3.125   2.741 -0.3929  0.6978 -0.3279
 3420SOL    HW221894   0.723   3.001   2.809 -1.1145 -0.8100  1.7847
 3421SOL     OW21895   1.120   0.228   2.598 -0.8017  0.5345 -1.1476
 3421SOL    HW121896   1.171   0.308   2.590 -0.5415  0.3068 -1.8038
 3421SOL    HW221897   1.173   0.162   2.554  1.3346  1.2713  0.3464
 3422SOL     OW21898   0.276   0.847   3.913  0.1732  0.0683 -0.0310
 3422SOL    HW121899   0.350   0.834   3.853 -0.5416 -1.5880 -0.5370
 3422SOL    HW221900   0.208   0.863   3.848  0.9713 -0.4318 -0.9962
 3423SOL     OW21901   1.978   2.509   7.432 -0.6255 -0.8812  0.1869
 3423SOL    HW121902   2.068   2.485   7.411 -0.5441 -1.4920  1.2213
 3423SOL    HW221903   1.966   2.469   7.518  0.5401 -1.8729 -0.1100
 3424SOL     OW21904   3.713   2.109  11.244 -0.6057  0.2582 -0.2807
 3424SOL    HW121905   3.668   2.113  11.160 -0.4821  0.6487 -0.3285
 3424SOL    HW221906   3.642   2.074  11.299 -0.9178  0.7913 -0.3486
 3425SOL     OW21907   2.738   2.373   1.643 -0.3861  0.0553  0.1033
 3425SOL    HW121908   2.775   2.459   1.665  2.2048 -0.3621 -2.6643
 3425SOL    HW221909   2.649   2.409   1.642 -0.5649 -0.4063 -1.6321
 3426SOL     OW21910   0.076   3.667   7.822 -0.1118 -0.3426 -0.4144
 3426SOL    HW121911   0.049   3.684   7.912  0.3137 -1.0572 -0.1521
 3426SOL    HW221912   0.165   3.701   7.818 -0.4029  0.4143 -0.6840
 3427SOL     OW21913   0.519   0.058   4.977  0.0886 -0.1596 -0.5719
 3427SOL    HW121914   0.561   0.058   5.063  1.2268  1.5499 -1.1187
 3427SOL    HW221915   0.500   0.151   4.968 -1.4950 -0.3658  0.6633
 3428SOL     OW21916   4.282   0.938   5.377 -0.1731 -0.1724  0.1904
 3428SOL    HW121917   4.349   1.003   5.401  0.9123 -1.9550  2.0278
 3428SOL    HW221918   4.336   0.870   5.338  0.0733 -0.5258  1.1507
 3429SOL     OW21919   1.156   2.512   9.083  0.3633 -0.4195 -0.4225
 3429SOL    HW121920   1.118   2.428   9.058  1.0904 -0.9084  0.1076
 3429SOL    HW221921   1.249   2.496   9.063  0.0893 -2.8628  0.2357
 3430SOL     OW21922   2.104   0.060  15.637 -0.6816  0.0623  0.0255
 3430SOL    HW121923   2.050   0.025  15.567 -0.4056  1.9408 -1.1435
 3430SOL    HW221924   2.154   0.122  15.584 -0.7663 -1.7377 -2.1541
 3431SOL     OW21925   3.256   4.396   1.383  0.4708 -0.8015  0.3202
 3431SOL    HW121926   3.167   4.382   1.417  0.3444  3.5211  1.7490
 3431SOL    HW221927   3.308   4.445   1.446  0.9604 -3.4034  1.9138
 3432SOL     OW21928   3.667   0.744   5.597 -0.2835  0.6312 -0.4779
 3432SOL    HW121929   3.689   0.792   5.676 -0.2027 -0.7897  0.3531
 3432SOL    HW221930   3.639   0.658   5.627  0.6070  0.5222  0.0381
 3433SOL     OW21931   0.151   4.626   0.239  0.1102  0.1092  0.3245
 3433SOL    HW121932   0.226   4.678   0.266 -0.2257  1.1476 -0.7866
 3433SOL    HW221933   0.101   4.693   0.192 -0.0552 -1.6156 -1.9232
 3434SOL     OW21934   3.899   3.452   0.727  0.2719  0.7864  1.1199
 3434SOL    HW121935   3.928   3.409   0.808  1.2967  2.3749  1.5917
 3434SOL    HW221936   3.886   3.374   0.673 -1.3405  0.6687  1.6810
 3435SOL     OW21937   2.181   2.340  14.714 -0.4710  0.0811  0.2957
 3435SOL    HW121938   2.221   2.405  14.772  0.4543  1.5919 -2.0526
 3435SOL    HW221939   2.267   2.309  14.683 -0.2991  0.7180  0.1410
 3436SOL     OW21940   0.147   2.524  11.863 -0.1222 -0.2120  0.1342
 3436SOL    HW121941   0.058   2.555  11.852  0.4710  1.0208 -1.1801
 3436SOL    HW221942   0.131   2.429  11.862 -0.3487 -0.1727  0.0888
 3437SOL     OW21943   3.485   4.225   1.894 -0.3637  0.0034 -0.5151
 3437SOL    HW121944   3.485   4.150   1.954  2.9968  0.5221  0.1449
 3437SOL    HW221945   3.531   4.184   1.820 -0.8198 -1.4975  0.0176
 3438SOL     OW21946   2.843   1.104   7.385  0.1215  0.0014  0.0442
 3438SOL    HW121947   2.864   1.013   7.405 -0.2779  0.0778  0.8383
 3438SOL    HW221948   2.802   1.132   7.467  0.4533  2.1344 -0.5054
 3439SOL     OW21949   4.536   0.302  13.271 -0.0168 -0.3491  0.1765
 3439SOL    HW121950   4.470   0.234  13.259 -1.7072  0.9593  2.0796
 3439SOL    HW221951   4.613   0.253  13.240  0.2982 -0.4478  1.1125
 3440SOL     OW21952   2.824   0.586   1.048 -0.9041 -0.4779 -0.1170
 3440SOL    HW121953   2.906   0.572   1.001 -0.1132 -3.1058  2.0487
 3440SOL    HW221954   2.842   0.519   1.114 -0.7799 -1.4496 -1.1262
 3441SOL     OW21955   0.384   0.628  15.666 -0.5142  0.1877  0.6308
 3441SOL    HW121956   0.451   0.656  15.728 -0.2756  2.0394 -0.4552
 3441SOL    HW221957   0.386   0.532  15.661 -3.3875  0.0220  2.7603
 3442SOL     OW21958   1.715   3.975   8.031  0.3869 -0.3544 -0.8264
 3442SOL    HW121959   1.781   3.906   8.043  1.3411  1.4152  3.7482
 3442SOL    HW221960   1.751   4.052   8.075  0.5635 -2.1317  2.1657
 3443SOL     OW21961   3.418   2.641  17.517  0.4008 -0.4692 -0.2912
 3443SOL    HW121962   3.407   2.561  17.465  0.0166 -0.7620  0.2485
 3443SOL    HW221963   3.466   2.605  17.591  0.8877 -0.0386 -0.3995
 3444SOL     OW21964   2.472   4.719  10.370 -0.0414  0.0837 -0.3258
 3444SOL    HW121965   2.456   4.726  10.464  0.5102  0.8540 -0.2951
 3444SOL    HW221966   2.567   4.723  10.369 -0.0679  0.7579 -0.2797
 3445SOL     OW21967   3.092   1.896   5.065 -0.0427 -0.6383 -0.3959
 3445SOL    HW121968   3.129   1.979   5.096  1.1588 -0.7581 -1.5141
 3445SOL    HW221969   3.007   1.934   5.044 -0.0240  0.2339  1.0835
 3446SOL     OW21970   2.778   4.293   6.854 -0.5388 -0.0295 -0.2973
 3446SOL    HW121971   2.744   4.206   6.875 -0.5248  0.7675  2.9428
 3446SOL    HW221972   2.704   4.331   6.808 -2.1867 -1.3836  1.2540
 3447SOL     OW21973   1.930   3.534   4.375 -0.2820 -0.5663  0.2481
 3447SOL    HW121974   1.995   3.586   4.329 -0.6518 -0.6764 -0.3941
 3447SOL    HW221975   1.983   3.520   4.453  1.4609 -2.0520 -1.2345
 3448SOL     OW21976   3.852   0.604  10.033 -0.5996  0.0891 -0.0612
 3448SOL    HW121977   3.858   0.555   9.951 -1.0323  0.4523 -0.3142
 3448SOL    HW221978   3.756   0.603  10.043 -0.6019  1.1941  0.0543
 3449SOL     OW21979   1.620   2.634   6.427 -0.1306 -0.3985 -0.1950
 3449SOL    HW121980   1.689   2.698   6.442 -0.9305  0.8659 -1.8209
 3449SOL    HW221981   1.555   2.684   6.378  0.9739  1.3875  0.1625
 3450SOL     OW21982   4.152   1.783   6.111  0.1291  0.1458  0.4117
 3450SOL    HW121983   4.171   1.792   6.017 -1.7831 -0.3009 -0.0260
 3450SOL    HW221984   4.062   1.817   6.112 -0.7121 -1.9979 -0.2822
 3451SOL     OW21985   3.645   4.108   4.403  0.1359 -0.2595  0.4610
 3451SOL    HW121986   3.596   4.026   4.405  1.4492 -1.0676 -0.0366
 3451SOL    HW221987   3.727   4.071   4.435  0.9315  1.2345  0.1539
 3452SOL     OW21988   4.303   3.473   6.145 -0.8399  0.7174 -0.4373
 3452SOL    HW121989   4.272   3.383   6.150  0.8662  0.2074  0.8668
 3452SOL    HW221990   4.396   3.470   6.166 -0.5203 -0.7902 -2.0586
 3453SOL     OW21991   0.885   3.285   5.939 -0.3417  0.3456 -0.0601
 3453SOL    HW121992   0.791   3.287   5.958 -0.2591 -1.6457  0.5843
 3453SOL    HW221993   0.899   3.352   5.873  1.8638 -0.6110 -0.5508
 3454SOL     OW21994   3.725   0.601   3.631  0.2720  0.1410 -0.9778
 3454SOL    HW121995   3.818   0.624   3.620  0.5650 -0.4660  0.2768
 3454SOL    HW221996   3.707   0.562   3.545 -0.4207 -1.7863  0.0528
 3455SOL     OW21997   4.205   3.682  14.990  0.1805 -0.3307  0.3986
 3455SOL    HW121998   4.143   3.742  14.948  0.9175 -1.6383 -2.4884
 3455SOL    HW221999   4.285   3.711  14.948  2.4872  0.1448  5.1118
 3456SOL     OW22000   2.994   3.491  17.593  0.4850 -0.0896  0.1450
 3456SOL    HW122001   2.989   3.403  17.631 -0.2484 -0.4972 -0.9087
 3456SOL    HW222002   3.087   3.505  17.609  0.4225  2.4026 -1.6235
 3457SOL     OW22003   1.283   4.171   5.659  0.2748  0.5574  0.3590
 3457SOL    HW122004   1.352   4.107   5.644  0.2108  0.1986  1.5786
 3457SOL    HW222005   1.339   4.248   5.672  0.6225  0.2446  0.6940
 3458SOL     OW22006   4.489   1.898  17.232  0.2544 -0.2888 -0.5031
 3458SOL    HW122007   4.448   1.835  17.173 -2.6868  0.6200  0.5964
 3458SOL    HW222008   4.463   1.866  17.318  0.3843  1.8344  0.3396
 3459SOL     OW22009   3.670   3.068   6.965 -0.0060  0.2341  0.0535
 3459SOL    HW122010   3.757   3.069   7.005  0.0671 -2.9646 -0.0275
 3459SOL    HW222011   3.673   3.162   6.944 -1.1575  0.2398 -0.0544
 3460SOL     OW22012   4.602   4.217   2.603 -0.4886  0.0440  0.4092
 3460SOL    HW122013   4.561   4.268   2.533  1.7394 -0.3656 -1.1825
 3460SOL    HW222014   4.695   4.222   2.584 -0.4943  1.1863  0.6968
 3461SOL     OW22015   1.881   3.247   4.099 -0.1521 -0.3028 -0.4979
 3461SOL    HW122016   1.949   3.306   4.068  0.7745 -0.6895  0.8079
 3461SOL    HW222017   1.827   3.234   4.021 -1.0067 -0.8597  0.1747
 3462SOL     OW22018   3.637   4.204   3.088 -0.4748  0.0288 -0.1900
 3462SOL    HW122019   3.580   4.276   3.115 -0.4231 -0.3192  0.8681
 3462SOL    HW222020   3.646   4.209   2.993  4.1966  0.2542  0.2494
 3463SOL     OW22021   1.368   1.157   8.900  0.8074 -0.4378  0.0171
 3463SOL    HW122022   1.305   1.084   8.892 -0.5898  1.1035 -3.2700
 3463SOL    HW222023   1.442   1.101   8.925  1.8918  0.8800 -0.2507
 3464SOL     OW22024   2.126   3.250  11.073  0.2128 -0.6528  0.0870
 3464SOL    HW122025   2.108   3.272  11.165  2.6031 -1.2462  0.7213
 3464SOL    HW222026   2.219   3.275  11.068 -0.4546  1.6606 -0.4674
 3465SOL     OW22027   1.223   4.589   7.575  0.3382 -0.0907  0.1595
 3465SOL    HW122028   1.212   4.496   7.595  0.0656 -0.0253  0.3079
 3465SOL    HW222029   1.315   4.596   7.549 -0.6653  0.0560 -3.3426
 3466SOL     OW22030   3.467   1.590   5.499  0.6906  0.1516 -0.1579
 3466SOL    HW122031   3.484   1.512   5.446  1.4900  0.3280 -0.1569
 3466SOL    HW222032   3.441   1.655   5.434  2.8501 -1.3762 -2.5723
 3467SOL     OW22033   2.335   3.226   5.174  0.4063  0.1011 -0.3211
 3467SOL    HW122034   2.390   3.255   5.247  0.5495 -0.8183 -0.0594
 3467SOL    HW222035   2.376   3.274   5.103 -0.3121 -0.2839 -0.9906
 3468SOL     OW22036   4.200   0.645  12.783 -0.3358 -0.2383 -0.3191
 3468SOL    HW122037   4.114   0.604  12.774 -0.2205 -0.7529  0.9227
 3468SOL    HW222038   4.182   0.690  12.866  2.9554 -0.5863  0.5927
 3469SOL     OW22039   3.824   4.557   4.508  0.0051  0.4778  0.0133
 3469SOL    HW122040   3.841   4.599   4.593 -1.6625  0.3053  0.4417
 3469SOL    HW222041   3.738   4.592   4.483  0.7469  1.1618 -1.5806
 3470SOL     OW22042   0.318   0.421   6.214  0.0579  0.3358 -0.0730
 3470SOL    HW122043   0.380   0.364   6.260  0.8589  0.7640 -0.6365
 3470SOL    HW222044   0.331   0.511   6.243  2.0729  0.3019 -0.9296
 3471SOL     OW22045   0.942   4.089   8.573  0.0793  0.0427 -0.5867
 3471SOL    HW122046   1.007   4.043   8.520 -1.1918  0.4942 -2.5242
 3471SOL    HW222047   0.904   4.022   8.630  2.1711  0.0758  0.8354
 3472SOL     OW22048   3.863   3.719   2.991 -0.0931 -0.0775 -0.2059
 3472SOL    HW122049   3.820   3.642   3.029 -1.2366  0.1559 -1.0565
 3472SOL    HW222050   3.785   3.757   2.952  0.7432  1.4071 -0.4348
 3473SOL     OW22051   1.167   0.039  12.931 -0.0642 -0.3421 -0.3479
 3473SOL    HW122052   1.169   0.059  12.838  1.2472 -0.0568 -0.2575
 3473SOL    HW222053   1.254   0.067  12.960 -0.0251  1.0678 -1.8230
 3474SOL     OW22054   4.100   2.806   7.258  0.5534 -0.0577 -0.3429
 3474SOL    HW122055   4.064   2.869   7.320  1.3808  1.1709 -1.1049
 3474SOL    HW222056   4.092   2.727   7.312 -1.2534  0.7898  0.5956
 3475SOL     OW22057   0.403   4.203  16.874  0.7912  0.3483  0.1861
 3475SOL    HW122058   0.341   4.268  16.908 -0.7190 -0.2787 -1.3582
 3475SOL    HW222059   0.489   4.238  16.896  0.6217  1.0127 -0.1956
 3476SOL     OW22060   4.104   2.172   2.038 -0.1208  0.0859  0.1494
 3476SOL    HW122061   4.023   2.148   1.994 -0.3523 -0.0838  0.6698
 3476SOL    HW222062   4.161   2.122   1.979 -0.8424 -1.8368  1.0809
 3477SOL     OW22063   0.114   3.421   6.022  0.1473 -0.3439 -0.0471
 3477SOL    HW122064   0.096   3.327   6.030 -0.7973 -0.0351  1.4095
 3477SOL    HW222065   0.039   3.444   5.968 -0.8997  0.2175  1.6574
 3478SOL     OW22066   4.181   2.571  17.030  0.4920  0.2590 -0.3973
 3478SOL    HW122067   4.118   2.584  16.959 -2.6679 -0.6718  2.1904
 3478SOL    HW222068   4.135   2.596  17.110 -1.4587 -1.2193 -1.0367
 3479SOL     OW22069   2.350   3.374   7.461 -0.0976  0.2003 -0.0474
 3479SOL    HW122070   2.391   3.400   7.379  1.1957 -2.9154 -0.4058
 3479SOL    HW222071   2.369   3.450   7.515 -0.6572  0.5001 -0.2775
 3480SOL     OW22072   1.324   2.431   8.238  0.3637  0.9707  0.3744
 3480SOL    HW122073   1.389   2.469   8.298 -1.5572  2.0337  1.7564
 3480SOL    HW222074   1.346   2.340   8.255  3.2253  1.4740 -0.6205
 3481SOL     OW22075   3.190   0.143   3.784 -0.0990  0.1855  0.1072
 3481SOL    HW122076   3.152   0.225   3.752 -1.9535 -0.6472  0.1623
 3481SOL    HW222077   3.273   0.170   3.823 -0.2529 -2.6793  2.3317
 3482SOL     OW22078   2.210   0.004   7.498  0.2817 -0.1205 -0.2784
 3482SOL    HW122079   2.186   0.047   7.416  2.8281 -0.4683 -1.1932
 3482SOL    HW222080   2.192   0.068   7.567 -0.9771  0.2591 -0.9503
 3483SOL     OW22081   2.761   1.128   4.200 -0.1399 -0.2143 -0.2362
 3483SOL    HW122082   2.726   1.147   4.113 -1.5165  1.8208  0.7483
 3483SOL    HW222083   2.768   1.217   4.235 -1.3629  0.5141 -1.8788
 3484SOL     OW22084   2.815   1.323   4.773 -0.4409  0.4052  0.1487
 3484SOL    HW122085   2.833   1.277   4.856  0.5909 -1.6331 -1.2051
 3484SOL    HW222086   2.720   1.317   4.773 -0.5791  2.4477 -1.6073
 3485SOL     OW22087   1.503   4.385   1.570  0.1844 -0.0238  0.0240
 3485SOL    HW122088   1.477   4.420   1.485  2.5245  0.8498 -0.3146
 3485SOL    HW222089   1.592   4.418   1.580 -0.4769  1.3385  1.4191
 3486SOL     OW22090   2.121   1.445   9.393  0.2960 -0.0938  0.0358
 3486SOL    HW122091   2.197   1.457   9.449  1.1018 -0.2587 -1.0227
 3486SOL    HW222092   2.161   1.399   9.319 -0.2812  1.1877 -1.0761
 3487SOL     OW22093   4.380   0.212   5.719 -0.1344 -0.1380  0.2674
 3487SOL    HW122094   4.447   0.248   5.777  2.0681  0.1572 -2.4770
 3487SOL    HW222095   4.415   0.226   5.631  0.3826  3.2418  1.0415
 3488SOL     OW22096   3.416   2.804  14.958 -0.2492 -0.1406 -0.1932
 3488SOL    HW122097   3.388   2.833  14.871 -3.0176 -2.2389  0.0032
 3488SOL    HW222098   3.353   2.741  14.994  0.4687 -1.0375 -0.5151
 3489SOL     OW22099   2.387   2.811   5.055 -0.0584  0.0804  0.1526
 3489SOL    HW122100   2.360   2.725   5.087  2.8101 -0.2740  1.6085
 3489SOL    HW222101   2.470   2.820   5.102 -0.3650  0.7966  0.5558
 3490SOL     OW22102   2.190   0.193   4.665 -0.0105  0.7068  0.1584
 3490SOL    HW122103   2.170   0.198   4.759  3.2457 -1.3732  0.9387
 3490SOL    HW222104   2.137   0.263   4.627 -0.1544 -0.4550 -1.7557
 3491SOL     OW22105   2.340   4.142   8.200  0.4553 -0.1800  0.2419
 3491SOL    HW122106   2.307   4.107   8.283  2.2404 -3.0248 -0.2666
 3491SOL    HW222107   2.430   4.111   8.211  0.0032 -1.9472 -1.1531
 3492SOL     OW22108   0.767   1.135   5.329 -0.5582 -0.1474 -0.2480
 3492SOL    HW122109   0.758   1.094   5.244  3.0301  1.0429 -1.2024
 3492SOL    HW222110   0.802   1.066   5.386  1.1748  1.0266  0.1303
 3493SOL     OW22111   2.148   3.240  10.800 -0.6391  0.1864  0.2517
 3493SOL    HW122112   2.094   3.162  10.792 -0.1931 -0.1914  0.8516
 3493SOL    HW222113   2.124   3.248  10.892  3.0222  0.8600  1.1842
 3494SOL     OW22114   3.780   0.895   4.319 -0.0156 -0.0154  0.1896
 3494SOL    HW122115   3.778   0.904   4.415  0.0985  1.0100  0.0961
 3494SOL    HW222116   3.871   0.871   4.304  0.1229  1.6799 -1.6735
 3495SOL     OW22117   0.845   1.557   1.908 -0.3529  0.0497  0.0460
 3495SOL    HW122118   0.871   1.473   1.945  0.2514  1.3986  2.7125
 3495SOL    HW222119   0.931   1.585   1.877 -0.8596 -0.8168 -2.1394
 3496SOL     OW22120   1.171   4.514   4.634 -0.4201  0.2515 -0.4032
 3496SOL    HW122121   1.152   4.550   4.721 -0.2813 -3.3274  1.1435
 3496SOL    HW222122   1.082   4.511   4.601 -0.8633  3.8034  0.4538
 3497SOL     OW22123   2.945   4.108   5.769 -0.5770 -0.2266  0.2307
 3497SOL    HW122124   2.934   4.200   5.746 -1.5772  0.0834  1.8965
 3497SOL    HW222125   3.024   4.068   5.734 -0.8734 -2.2548  1.9105
 3498SOL     OW22126   1.185   2.170   5.640 -0.0279  0.4389  0.2822
 3498SOL    HW122127   1.155   2.258   5.663  0.3789  0.5554  0.3755
 3498SOL    HW222128   1.104   2.120   5.651  0.4241 -0.2527  0.4790
 3499SOL     OW22129   0.862   1.158   3.915  0.2304  0.2249  0.0430
 3499SOL    HW122130   0.879   1.069   3.883 -1.4408 -0.0008 -0.1941
 3499SOL    HW222131   0.950   1.166   3.952  0.7535 -0.4026 -1.0439
 3500SOL     OW22132   4.430   0.282   4.130 -0.7150  0.3754 -0.2897
 3500SOL    HW122133   4.467   0.250   4.212 -0.3611 -1.6464 -1.2335
 3500SOL    HW222134   4.345   0.240   4.138 -1.9620  2.2798 -3.2699
 3501SOL     OW22135   1.225   0.108   9.270  0.3639 -0.1884  0.0377
 3501SOL    HW122136   1.216   0.203   9.263 -2.1781 -0.2147  2.8558
 3501SOL    HW222137   1.140   0.087   9.308 -0.2076 -0.4663 -1.4162
 3502SOL     OW22138   2.280   3.006   0.296 -0.3401 -0.0773  0.3474
 3502SOL    HW122139   2.200   3.040   0.256  0.6036  2.5794  0.7290
 3502SOL    HW222140   2.256   2.915   0.314  2.6434 -1.1154 -0.8262
 3503SOL     OW22141   3.638   0.360   1.074 -0.3741  0.3721  0.5085
 3503SOL    HW122142   3.626   0.448   1.037 -0.9192  1.8488  4.1693
 3503SOL    HW222143   3.733   0.356   1.082 -0.5307  0.8853  2.6413
 3504SOL     OW22144   0.701   4.684   8.988  0.4038 -0.0758 -0.6744
 3504SOL    HW122145   0.771   0.006   8.965 -1.0038  1.6252 -0.4626
 3504SOL    HW222146   0.654   4.736   9.053 -1.1525 -0.6531 -1.3284
 3505SOL     OW22147   1.302   0.928   6.233 -0.3250  0.2158 -0.3713
 3505SOL    HW122148   1.300   0.993   6.163  0.8439 -0.2703 -0.8550
 3505SOL    HW222149   1.261   0.857   6.185  1.0530 -1.0918  0.3820
 3506SOL     OW22150   1.138   2.411   7.531 -0.6779  0.1980 -1.0751
 3506SOL    HW122151   1.184   2.341   7.484  0.4183 -1.0526  1.8727
 3506SOL    HW222152   1.202   2.433   7.598 -0.3238 -0.6160 -1.1430
 3507SOL     OW22153   0.004   3.777   3.996 -0.0344 -0.5216  0.6390
 3507SOL    HW122154   0.027   3.772   3.903 -0.1098 -1.8287  0.7005
 3507SOL    HW222155   0.042   3.701   4.040  0.7289  0.9330  2.5288
 3508SOL     OW22156   4.135   1.521   3.753 -0.0154  0.1170 -0.6986
 3508SOL    HW122157   4.065   1.571   3.795  0.8826  0.2544  0.6372
 3508SOL    HW222158   4.090   1.440   3.731  0.4901 -0.9094  2.0040
 3509SOL     OW22159   1.450   0.709   1.782  0.2370  0.4573 -0.4882
 3509SOL    HW122160   1.536   0.665   1.778  1.0210  1.8285  1.2533
 3509SOL    HW222161   1.401   0.646   1.835 -0.5784 -0.8649 -2.8102
 3510SOL     OW22162   3.219   4.175  11.935  0.3549 -0.1717  0.1802
 3510SOL    HW122163   3.302   4.183  11.888  0.5629  3.9928  1.2270
 3510SOL    HW222164   3.252   4.202  12.021 -1.9399  2.3695  0.2780
 3511SOL     OW22165   0.568   1.199   7.806  0.2790 -0.4249 -0.2193
 3511SOL    HW122166   0.662   1.189   7.792  0.4479 -0.0720  0.6816
 3511SOL    HW222167   0.564   1.228   7.897  0.2555  0.9851 -0.6731
 3512SOL     OW22168   4.379   1.437  13.167 -0.1911  0.1530 -0.0780
 3512SOL    HW122169   4.330   1.415  13.246  2.2683 -2.3406  0.7503
 3512SOL    HW222170   4.322   1.489  13.109  0.4520 -1.3271 -2.0471
 3513SOL     OW22171   4.396   0.058   8.991  0.0335 -0.1799 -0.5045
 3513SOL    HW122172   4.311   0.099   9.007 -0.5544 -0.8030 -2.0258
 3513SOL    HW222173   4.416   0.042   9.083 -1.4395 -2.4130 -0.5839
 3514SOL     OW22174   2.254   3.297   1.067 -0.4842 -0.0837 -0.5611
 3514SOL    HW122175   2.173   3.274   1.021 -0.0536 -0.6962 -0.9963
 3514SOL    HW222176   2.262   3.231   1.136 -2.9766 -0.0230 -0.2170
 3515SOL     OW22177   1.936   3.193   6.856 -0.3545  0.0204 -0.3671
 3515SOL    HW122178   1.942   3.215   6.949  1.9083 -0.1729 -0.4586
 3515SOL    HW222179   2.019   3.232   6.828 -1.3621  1.4101 -1.3489
 3516SOL     OW22180   4.447   2.166   8.256 -0.0057 -0.3200 -0.4109
 3516SOL    HW122181   4.405   2.188   8.172 -1.4097  2.1284  0.9169
 3516SOL    HW222182   4.527   2.218   8.257  0.2952 -0.7557 -1.3957
 3517SOL     OW22183   3.894   4.715   5.138 -0.3516 -0.6185 -0.0437
 3517SOL    HW122184   3.932   0.028   5.209 -1.2144  0.7150 -0.5334
 3517SOL    HW222185   3.802   4.703   5.164 -0.8860  3.2635 -0.0488
 3518SOL     OW22186   0.651   3.803   2.599  0.2588  0.2412  0.3991
 3518SOL    HW122187   0.736   3.808   2.642  1.6519  0.3508 -2.3558
 3518SOL    HW222188   0.624   3.895   2.600  1.1991  0.5275 -0.2280
 3519SOL     OW22189   0.383   2.573   4.288  0.3176  0.2389  0.8693
 3519SOL    HW122190   0.453   2.579   4.223  0.1299 -0.9291  0.5720
 3519SOL    HW222191   0.394   2.655   4.338 -0.1444  0.4005  0.7003
 3520SOL     OW22192   3.576   2.212  16.797  0.2432  0.2896 -0.0922
 3520SOL    HW122193   3.534   2.145  16.744 -2.8233  2.9551 -1.0148
 3520SOL    HW222194   3.640   2.158  16.842 -0.7491  0.3216  1.3317
 3521SOL     OW22195   3.919   3.027  15.801 -0.1913 -0.0060 -0.5941
 3521SOL    HW122196   3.843   3.084  15.806  1.1229  1.7953 -1.3266
 3521SOL    HW222197   3.904   2.960  15.868 -2.2792  2.7850  1.7251
 3522SOL     OW22198   3.539   1.874  11.783  0.2800 -0.4704  0.4434
 3522SOL    HW122199   3.574   1.813  11.847 -1.3652  0.5304  2.2779
 3522SOL    HW222200   3.621   1.879  11.734 -1.2530  0.3291 -2.0558
 3523SOL     OW22201   1.489   0.892   5.747  0.7476 -0.8683 -0.2270
 3523SOL    HW122202   1.455   0.955   5.810 -0.2573 -1.0546 -0.5775
 3523SOL    HW222203   1.559   0.934   5.698  1.0891 -2.5763 -1.2037
 3524SOL     OW22204   1.214   0.496   5.897  0.8830 -0.0259 -0.1563
 3524SOL    HW122205   1.157   0.523   5.969 -0.8849  0.0734 -1.6298
 3524SOL    HW222206   1.283   0.562   5.901  3.2055 -2.6347  3.7413
 3525SOL     OW22207   4.540   1.787   8.886 -0.7854  0.5449 -0.2317
 3525SOL    HW122208   4.482   1.739   8.827  1.4033 -3.3012  0.7151
 3525SOL    HW222209   4.518   1.744   8.968 -1.0437  3.6571  1.3311
 3526SOL     OW22210   3.142   2.807  13.512 -0.7409  0.2562  0.4512
 3526SOL    HW122211   3.123   2.754  13.435  1.3570 -1.5001  1.1708
 3526SOL    HW222212   3.071   2.778  13.568 -0.3662  0.6454  1.1298
 3527SOL     OW22213   2.236   2.931   3.680 -0.6309  0.1222  0.2275
 3527SOL    HW122214   2.178   2.980   3.738 -0.7572 -0.2437  0.4105
 3527SOL    HW222215   2.231   2.991   3.605 -0.6239  2.2999  1.9689
 3528SOL     OW22216   3.754   1.431  12.068  0.0860  0.2766 -0.1572
 3528SOL    HW122217   3.685   1.386  12.118  0.0729 -1.4047 -1.7196
 3528SOL    HW222218   3.824   1.367  12.062  1.9335  2.6410 -3.5935
 3529SOL     OW22219   3.197   3.227   1.508  0.0134 -0.4341 -0.2192
 3529SOL    HW122220   3.240   3.149   1.542  0.8873 -0.0820 -0.5124
 3529SOL    HW222221   3.104   3.214   1.527  0.3139 -2.2813 -0.0813
 3530SOL     OW22222   0.538   0.529   5.623 -0.2382  0.6453 -0.4321
 3530SOL    HW122223   0.459   0.530   5.677 -0.6132 -0.9351 -0.9386
 3530SOL    HW222224   0.502   0.589   5.557 -0.3708  0.8277 -0.1941
 3531SOL     OW22225   3.402   1.244  14.393  0.0595 -0.6679  0.3812
 3531SOL    HW122226   3.420   1.210  14.480  1.2596 -1.9019 -0.3481
 3531SOL    HW222227   3.318   1.288  14.407  0.6440  0.8868 -1.0148
 3532SOL     OW22228   4.375   1.468   6.209 -0.4320  0.0905  0.3818
 3532SOL    HW122229   4.288   1.497   6.237 -0.4203 -0.1212  0.6361
 3532SOL    HW222230   4.412   1.545   6.166 -0.3671 -0.1410  0.0227
 3533SOL     OW22231   1.511   0.249  14.309  0.9058 -0.4670  0.1434
 3533SOL    HW122232   1.547   0.225  14.224 -1.8264 -2.2516 -0.5337
 3533SOL    HW222233   1.465   0.330  14.286 -2.9673 -2.2336  1.7380
 3534SOL     OW22234   2.897   3.445   7.709 -0.3267  0.7536  0.0802
 3534SOL    HW122235   2.846   3.390   7.769 -0.4898  1.5905  0.7052
 3534SOL    HW222236   2.914   3.395   7.629 -2.5842 -0.3533  0.3070
 3535SOL     OW22237   2.714   3.466   1.326  0.5344  0.3252 -0.1789
 3535SOL    HW122238   2.677   3.507   1.248  1.1405  0.1168 -0.5845
 3535SOL    HW222239   2.647   3.402   1.349 -0.6434  1.0454 -1.6206
 3536SOL     OW22240   2.428   4.001   9.246 -0.3434  0.2355  0.6088
 3536SOL    HW122241   2.407   4.069   9.311 -1.0248  0.7995 -0.2062
 3536SOL    HW222242   2.386   4.042   9.171  2.5407  0.5473 -0.8503
 3537SOL     OW22243   0.807   0.835   2.894  0.5026 -0.1643 -0.0447
 3537SOL    HW122244   0.809   0.910   2.953  0.6543  0.9447 -1.4595
 3537SOL    HW222245   0.857   0.870   2.820 -4.5986 -0.8750 -3.8258
 3538SOL     OW22246   2.914   2.724   8.448 -0.0326  0.1865 -0.2561
 3538SOL    HW122247   2.852   2.658   8.481  0.5544  0.3639  1.2042
 3538SOL    HW222248   2.896   2.729   8.354  2.9973 -0.5083 -0.8629
 3539SOL     OW22249   0.874   1.401  14.341  0.6096  0.1361 -0.1056
 3539SOL    HW122250   0.885   1.315  14.301 -0.1149 -0.3048  0.6424
 3539SOL    HW222251   0.964   1.397  14.373 -0.3232  0.8099  2.5966
 3540SOL     OW22252   3.440   3.596   4.981  0.2619 -0.8018  0.1731
 3540SOL    HW122253   3.524   3.617   5.021 -1.3297 -0.3405  3.2129
 3540SOL    HW222254   3.383   3.660   5.023  1.6099 -0.8316  2.0481
 3541SOL     OW22255   0.032   4.016   5.611  0.1415 -0.0743 -0.0936
 3541SOL    HW122256   0.116   4.007   5.567 -0.1827 -4.4038  0.1476
 3541SOL    HW222257   0.058   4.015   5.703 -0.1161 -2.1755 -0.0308
 3542SOL     OW22258   2.438   3.077   7.431  0.1765 -0.3151 -0.1964
 3542SOL    HW122259   2.385   3.041   7.359 -2.7598  0.0523  1.7964
 3542SOL    HW222260   2.415   3.168   7.411  1.4162  0.3177  1.2642
 3543SOL     OW22261   1.435   3.226   7.214 -0.1310 -0.2123 -0.3910
 3543SOL    HW122262   1.398   3.243   7.300  1.3727  0.8195  0.0569
 3543SOL    HW222263   1.401   3.301   7.165  0.0580 -0.0834 -0.3247
 3544SOL     OW22264   2.469   1.841   2.141 -0.5817  0.5803  0.4177
 3544SOL    HW122265   2.405   1.888   2.195 -2.4714 -2.7725  1.1377
 3544SOL    HW222266   2.415   1.830   2.062  0.1078  0.8399 -0.0854
 3545SOL     OW22267   4.317   2.948   0.471  0.0780  0.0944  0.1132
 3545SOL    HW122268   4.333   2.922   0.562  0.0560 -2.6156 -0.6540
 3545SOL    HW222269   4.225   2.972   0.482  0.2016 -0.2560  2.0506
 3546SOL     OW22270   0.756   3.190   5.151 -0.1927  0.3558 -0.4647
 3546SOL    HW122271   0.716   3.263   5.104 -0.2964  1.3036  1.0988
 3546SOL    HW222272   0.837   3.229   5.184  0.1074  1.1147 -2.1192
 3547SOL     OW22273   3.874   2.387   9.850 -0.1063 -0.0622 -0.8141
 3547SOL    HW122274   3.879   2.294   9.870 -1.3004  0.3177  1.2695
 3547SOL    HW222275   3.782   2.403   9.870 -0.7215 -1.5984 -2.4605
 3548SOL     OW22276   0.936   0.380  12.158 -0.1839  0.0958 -0.8424
 3548SOL    HW122277   0.890   0.332  12.089 -1.7330 -2.5949  2.0368
 3548SOL    HW222278   1.020   0.405  12.120 -0.5364 -0.0345 -1.7126
 3549SOL     OW22279   0.757   0.893  12.409 -0.0508 -0.1089 -0.0421
 3549SOL    HW122280   0.673   0.851  12.394 -1.2558  2.1222  0.4575
 3549SOL    HW222281   0.815   0.819  12.424 -1.4967 -0.8486  1.8112
 3550SOL     OW22282   2.560   0.907  15.620  0.1599  0.0274  0.5843
 3550SOL    HW122283   2.516   0.853  15.555  1.9547 -1.4764  0.6261
 3550SOL    HW222284   2.586   0.983  15.568 -0.2133  1.2453  2.1619
 3551SOL     OW22285   0.329   0.898  15.728  0.1789 -0.1323  0.2532
 3551SOL    HW122286   0.322   0.803  15.717 -3.6945  0.0438  1.1273
 3551SOL    HW222287   0.392   0.916  15.797  0.0982  0.6299  0.1290
 3552SOL     OW22288   0.677   1.293  14.074  0.5488  0.1748 -0.0803
 3552SOL    HW122289   0.746   1.355  14.051  1.7124 -0.8493  0.6975
 3552SOL    HW222290   0.599   1.340  14.105  1.4439  2.0638 -0.6944
 3553SOL     OW22291   1.423   2.163   9.660  0.4485 -0.0455  0.0252
 3553SOL    HW122292   1.485   2.166   9.587  3.1280 -4.1186  2.1389
 3553SOL    HW222293   1.481   2.208   9.722  0.0850  0.7285 -0.1994
 3554SOL     OW22294   2.107   0.136   4.989  0.3136  0.2311  0.3455
 3554SOL    HW122295   2.168   0.109   5.058 -1.1310  1.7935  2.2196
 3554SOL    HW222296   2.050   0.197   5.036 -1.4648  0.4834 -2.1128
 3555SOL     OW22297   3.852   2.488   3.116  0.2048  0.1258  0.2773
 3555SOL    HW122298   3.787   2.441   3.064  0.2486  2.3585 -1.7876
 3555SOL    HW222299   3.868   2.568   3.067 -1.8915  0.5669  0.3236
 3556SOL     OW22300   2.246   0.628  13.760  0.0781  0.9397 -0.1097
 3556SOL    HW122301   2.242   0.533  13.748 -1.8101  0.8839  1.1011
 3556SOL    HW222302   2.152   0.643  13.753 -0.3782 -2.0512 -0.3095
 3557SOL     OW22303   1.812   1.484   6.561  0.5547 -0.4828  0.1284
 3557SOL    HW122304   1.764   1.561   6.592  2.1722  0.8459 -0.6754
 3557SOL    HW222305   1.900   1.518   6.550 -0.7228  3.6279  2.6672
 3558SOL     OW22306   2.723   3.614   2.513  0.2028  0.2246 -0.4057
 3558SOL    HW122307   2.630   3.614   2.533  0.6453  1.8096  1.6239
 3558SOL    HW222308   2.742   3.539   2.456  0.3548 -1.1549  1.4421
 3559SOL     OW22309   3.593   4.140   5.401 -0.2475 -0.5250  0.3485
 3559SOL    HW122310   3.579   4.047   5.380 -0.5908 -0.4019  0.0272
 3559SOL    HW222311   3.683   4.158   5.373 -0.5188 -1.3507 -1.0926
 3560SOL     OW22312   0.713   0.366   7.160 -0.3337 -0.2674  0.1092
 3560SOL    HW122313   0.784   0.302   7.171 -1.5705 -1.9465 -1.6066
 3560SOL    HW222314   0.748   0.448   7.193 -2.4880  0.7315 -0.1046
 3561SOL     OW22315   0.696   2.775   6.372 -0.0728 -0.5414 -0.0922
 3561SOL    HW122316   0.752   2.828   6.429  0.7341 -0.5141 -0.9198
 3561SOL    HW222317   0.615   2.787   6.422 -0.0904 -0.3576 -0.1656
 3562SOL     OW22318   0.283   2.960  12.248  0.8749 -0.1524 -0.3481
 3562SOL    HW122319   0.231   2.994  12.321 -0.4688  3.4119 -2.9995
 3562SOL    HW222320   0.274   3.037  12.193  0.2116 -1.7106 -2.4002
 3563SOL     OW22321   0.422   2.909   8.977  0.0745 -0.1207  0.6188
 3563SOL    HW122322   0.484   2.882   8.908  0.6280 -0.6258  1.3191
 3563SOL    HW222323   0.485   2.907   9.049  0.5379  1.6661  0.2548
 3564SOL     OW22324   4.160   2.074   2.281  0.3465 -0.0214 -0.1722
 3564SOL    HW122325   4.175   2.125   2.202  0.7008  1.1500  0.6525
 3564SOL    HW222326   4.065   2.085   2.287  0.6997  2.7282  0.2108
 3565SOL     OW22327   1.872   4.294   3.831  0.1944 -1.0040 -0.0355
 3565SOL    HW122328   1.954   4.264   3.793 -0.0505 -1.8813  0.1331
 3565SOL    HW222329   1.821   4.321   3.754  1.6403 -1.5688 -1.1940
 3566SOL     OW22330   0.937   4.643   7.547  0.0769 -0.1713 -0.0320
 3566SOL    HW122331   1.030   4.628   7.534  0.2686  0.5591  0.5240
 3566SOL    HW222332   0.918   4.567   7.601 -2.6163 -0.3816 -1.2812
 3567SOL     OW22333   0.776   3.938   6.354 -0.2073 -0.2025  0.0180
 3567SOL    HW122334   0.832   3.869   6.318 -2.6150 -1.7280 -0.7765
 3567SOL    HW222335   0.705   3.886   6.392 -1.6547  1.5056 -0.3643
 3568SOL     OW22336   3.881   3.990   2.363  0.3277 -0.0385 -0.3068
 3568SOL    HW122337   3.929   4.017   2.441 -4.2363 -0.4876  2.7025
 3568SOL    HW222338   3.947   4.006   2.296  0.3325  0.7485 -0.1184
 3569SOL     OW22339   1.467   1.744   9.417 -0.0116 -0.1783 -0.0178
 3569SOL    HW122340   1.469   1.669   9.477 -3.9050 -0.9240 -0.8086
 3569SOL    HW222341   1.502   1.697   9.341  1.4944 -0.2144  0.7037
 3570SOL     OW22342   3.872   4.631  14.367 -0.6307  0.4872 -0.1637
 3570SOL    HW122343   3.803   4.572  14.396  2.1302 -2.1247  1.0085
 3570SOL    HW222344   3.937   4.577  14.323  0.8083 -1.1493  3.9768
 3571SOL     OW22345   3.886   2.490   5.155 -0.0422 -0.6224  0.1530
 3571SOL    HW122346   3.883   2.522   5.065  0.5967  0.3531  0.4765
 3571SOL    HW222347   3.964   2.434   5.160  1.8195  2.0680  1.4481
 3572SOL     OW22348   2.101   3.199   4.976  0.0919 -0.2026  0.1154
 3572SOL    HW122349   2.151   3.166   5.051  1.8131  1.8748 -0.0896
 3572SOL    HW222350   2.173   3.203   4.913  1.0585  0.4722  1.2548
 3573SOL     OW22351   0.404   2.420   0.766  0.2607 -0.0771 -0.2620
 3573SOL    HW122352   0.406   2.401   0.672  0.8201  2.1702 -0.7162
 3573SOL    HW222353   0.382   2.513   0.761 -1.0429 -0.4495 -1.5726
 3574SOL     OW22354   3.409   3.257   9.896 -0.5457  0.3590  0.4935
 3574SOL    HW122355   3.363   3.198   9.956 -1.3796  1.1481  0.6353
 3574SOL    HW222356   3.499   3.225   9.906 -1.7195 -3.0513  0.1031
 3575SOL     OW22357   0.439   3.351   3.613  0.0062  0.4555 -0.0617
 3575SOL    HW122358   0.366   3.385   3.561 -1.1070  0.1362  1.2989
 3575SOL    HW222359   0.511   3.378   3.555 -0.4032 -0.6807 -1.0713
 3576SOL     OW22360   1.965   2.006   2.336 -0.1243 -0.3938  0.0503
 3576SOL    HW122361   2.003   2.078   2.286  1.7406 -1.0703  0.5116
 3576SOL    HW222362   1.971   2.050   2.421  1.1134  0.8682 -0.6913
 3577SOL     OW22363   3.015   2.696   7.521 -0.2950  0.3382 -0.7769
 3577SOL    HW122364   3.027   2.781   7.479  1.1663  0.3249 -0.3705
 3577SOL    HW222365   3.070   2.681   7.598 -0.6514 -0.7497 -0.7383
 3578SOL     OW22366   0.979   1.283   4.219  0.0099  0.2768  0.2501
 3578SOL    HW122367   1.011   1.359   4.266  0.5271 -0.2337  0.7208
 3578SOL    HW222368   1.002   1.217   4.284  0.0956  0.1044  0.0468
 3579SOL     OW22369   3.400   2.745   3.376  0.5261  0.0018  0.2176
 3579SOL    HW122370   3.446   2.786   3.302 -0.9934 -1.1673 -1.3760
 3579SOL    HW222371   3.455   2.670   3.396  0.2745 -0.6638 -1.5614
 3580SOL     OW22372   0.263   4.238  11.720 -0.2379  0.5022 -0.2799
 3580SOL    HW122373   0.315   4.232  11.640  0.0944 -0.5446  0.0117
 3580SOL    HW222374   0.178   4.203  11.695  0.7746 -0.2026 -2.6452
 3581SOL     OW22375   3.507   2.490  15.719 -0.3399 -0.3120  0.3654
 3581SOL    HW122376   3.566   2.549  15.672 -0.6886 -1.9509 -2.1573
 3581SOL    HW222377   3.480   2.425  15.653 -1.3497  0.4468  0.0431
 3582SOL     OW22378   0.571   0.342   8.542  0.3777  0.1776  0.5790
 3582SOL    HW122379   0.506   0.309   8.480  1.2096  0.8328 -0.6432
 3582SOL    HW222380   0.519   0.393   8.604 -0.7125 -1.3623  0.9229
 3583SOL     OW22381   3.329   0.885   5.994 -0.1610  0.4194  0.0727
 3583SOL    HW122382   3.342   0.877   5.899 -1.4773  1.7450 -0.2265
 3583SOL    HW222383   3.414   0.856   6.026 -0.0553  0.0554 -0.5240
 3584SOL     OW22384   0.729   3.529   2.129  0.0706  0.8134 -0.4323
 3584SOL    HW122385   0.653   3.476   2.156 -0.8284  1.5784 -1.4880
 3584SOL    HW222386   0.728   3.599   2.194 -1.4442  0.9734 -0.6128
 3585SOL     OW22387   0.799   4.302   2.884 -0.0030  0.8363  0.0612
 3585SOL    HW122388   0.792   4.357   2.963 -0.8282 -0.0517  0.6146
 3585SOL    HW222389   0.873   4.349   2.848  1.5186  0.0624  2.1737
 3586SOL     OW22390   2.754   2.115   2.616 -0.0455 -0.4996 -0.3746
 3586SOL    HW122391   2.726   2.040   2.564 -0.2875 -0.3981 -0.3914
 3586SOL    HW222392   2.706   2.103   2.698  0.3751 -2.9399 -0.4974
 3587SOL     OW22393   4.351   3.209  17.026 -0.1284  0.6833  0.0258
 3587SOL    HW122394   4.428   3.227  16.973  0.9960  0.6110  1.6485
 3587SOL    HW222395   4.393   3.213  17.112  1.4417 -0.6531 -0.6939
 3588SOL     OW22396   0.176   1.846   5.635 -0.0120 -0.2602 -0.4433
 3588SOL    HW122397   0.168   1.869   5.543  1.8148 -0.1934 -0.6016
 3588SOL    HW222398   0.176   1.750   5.628  0.1731 -0.1954 -1.3146
 3589SOL     OW22399   0.104   0.561   2.773  0.4946  1.2229  0.0887
 3589SOL    HW122400   0.119   0.619   2.847 -2.7518  0.8460  1.0447
 3589SOL    HW222401   0.013   0.531   2.780  0.1156  2.1654 -0.6905
 3590SOL     OW22402   1.497   4.499   1.143  0.3230  0.2581 -0.8108
 3590SOL    HW122403   1.591   4.505   1.163  0.1828  1.7182 -0.5990
 3590SOL    HW222404   1.463   4.496   1.232  1.1623 -2.3829 -0.5515
 3591SOL     OW22405   4.383   1.308  10.029  0.0426  0.0530  0.1343
 3591SOL    HW122406   4.386   1.213  10.017 -1.1392 -0.2193  2.0367
 3591SOL    HW222407   4.291   1.330  10.014  0.8051  2.0264 -1.7330
 3592SOL     OW22408   4.010   1.192  15.639 -0.1159  0.5915  0.0083
 3592SOL    HW122409   4.037   1.110  15.597 -0.8447 -0.2288  1.1457
 3592SOL    HW222410   4.091   1.237  15.663  0.4195 -1.0029  1.1763
 3593SOL     OW22411   4.540   2.543  15.367  0.4235 -0.0964 -0.2679
 3593SOL    HW122412   4.532   2.638  15.375 -1.0429 -0.4443  2.4124
 3593SOL    HW222413   4.614   2.529  15.426 -1.5458 -1.1635  1.9581
 3594SOL     OW22414   2.839   2.405   7.627  0.1087 -0.8204 -0.3982
 3594SOL    HW122415   2.783   2.350   7.572 -1.8881  0.8387 -0.0150
 3594SOL    HW222416   2.926   2.371   7.605 -0.0663 -1.4154 -0.1608
 3595SOL     OW22417   3.211   0.238   5.737  0.1681 -0.6784 -0.4384
 3595SOL    HW122418   3.141   0.240   5.672 -1.5577 -0.8439  1.4179
 3595SOL    HW222419   3.161   0.255   5.817  0.1103  0.8503 -0.8092
 3596SOL     OW22420   3.540   2.504   5.952  0.2634  0.1908 -0.1078
 3596SOL    HW122421   3.628   2.465   5.955 -0.3283 -1.3560 -2.8439
 3596SOL    HW222422   3.493   2.440   6.007  1.8706  0.0171  1.0757
 3597SOL     OW22423   0.322   0.447   5.312  0.4029  0.2616  0.3887
 3597SOL    HW122424   0.354   0.358   5.327 -1.0982 -0.5587 -1.2512
 3597SOL    HW222425   0.235   0.445   5.273  0.7303  0.5770 -0.3611
 3598SOL     OW22426   3.583   1.413  11.862  0.6012 -0.3277  0.2105
 3598SOL    HW122427   3.642   1.434  11.935  0.7861 -0.6542  0.1557
 3598SOL    HW222428   3.573   1.497  11.818 -2.1408 -0.5315  0.4261
 3599SOL     OW22429   1.930   1.478  16.148 -0.0145  0.3525  0.3996
 3599SOL    HW122430   1.892   1.422  16.216  0.3232  0.5295  0.7371
 3599SOL    HW222431   1.974   1.547  16.198 -1.4188  1.5972 -0.0641
 3600SOL     OW22432   2.223   3.521   5.794  0.1011 -0.5489 -0.0934
 3600SOL    HW122433   2.207   3.466   5.718 -2.1680  0.7405 -0.5416
 3600SOL    HW222434   2.203   3.460   5.865  0.7954 -0.1070  0.4929
 3601SOL     OW22435   1.568   0.072  16.284  0.3230 -0.7379  0.0459
 3601SOL    HW122436   1.533   0.051  16.197 -0.3075 -1.7883  0.5563
 3601SOL    HW222437   1.498   0.125  16.323  0.4664  0.3161 -1.1220
 3602SOL     OW22438   2.082   3.829  13.794  0.2218 -0.0553 -0.0468
 3602SOL    HW122439   2.103   3.915  13.758  1.5474 -1.3136 -2.2763
 3602SOL    HW222440   2.050   3.786  13.714 -0.7031  2.6921 -1.1299
 3603SOL     OW22441   0.145   4.357  10.441  0.2396  0.1213 -0.2261
 3603SOL    HW122442   0.184   4.319  10.363  2.6063  1.1534  0.4811
 3603SOL    HW222443   0.160   4.451  10.430  1.6482  0.2399  2.7003
 3604SOL     OW22444   1.534   1.264   7.575  0.1171 -0.2593 -0.1185
 3604SOL    HW122445   1.617   1.217   7.588  0.2635 -0.0928 -0.4630
 3604SOL    HW222446   1.565   1.354   7.567 -0.6896  0.0677  0.4317
 3605SOL     OW22447   2.322   3.676   1.417 -0.3923  0.7904  0.2468
 3605SOL    HW122448   2.339   3.653   1.326 -0.7398  0.3439  0.2917
 3605SOL    HW222449   2.392   3.638   1.470  1.1044  0.9154 -1.6725
 3606SOL     OW22450   3.090   2.524   3.017  0.5251  0.1095  0.0152
 3606SOL    HW122451   3.082   2.547   3.110 -0.4882 -0.8801  0.1835
 3606SOL    HW222452   3.177   2.561   3.003  0.6757 -0.3422 -0.2246
 3607SOL     OW22453   0.104   1.886   4.796  0.5262  0.1437  0.0957
 3607SOL    HW122454   0.107   1.821   4.866 -0.4336  0.4244  0.4033
 3607SOL    HW222455   0.011   1.909   4.796  0.6785  0.7793 -1.2387
 3608SOL     OW22456   1.945   1.762  16.444 -0.0223 -0.2204  0.5963
 3608SOL    HW122457   1.961   1.851  16.476 -1.2099 -0.0708  0.8047
 3608SOL    HW222458   1.951   1.777  16.350 -0.5194 -3.3638  0.0664
 3609SOL     OW22459   2.074   2.452   6.503 -1.0336  0.2994  0.5112
 3609SOL    HW122460   2.023   2.396   6.444 -1.0717  0.3238  0.5204
 3609SOL    HW222461   2.009   2.486   6.564 -0.2755  1.3442  0.7382
 3610SOL     OW22462   4.176   1.624   9.101 -0.4962  0.0968 -0.5943
 3610SOL    HW122463   4.204   1.699   9.049 -1.5173  1.1712  0.4051
 3610SOL    HW222464   4.111   1.659   9.162  2.0283 -0.4141  2.3876
 3611SOL     OW22465   1.893   0.571   6.191  0.1024 -0.3705  0.3806
 3611SOL    HW122466   1.874   0.557   6.098  0.9077 -0.4801  0.2362
 3611SOL    HW222467   1.825   0.520   6.236  0.7894 -1.6087  0.0190
 3612SOL     OW22468   3.277   3.058   9.991  0.4406 -0.2710  0.1505
 3612SOL    HW122469   3.263   3.003  10.068  2.0163 -1.3208 -0.3173
 3612SOL    HW222470   3.295   2.992   9.924  0.8934  0.2233 -0.2155
 3613SOL     OW22471   1.810   3.175   2.894 -0.6689 -0.7418 -0.2089
 3613SOL    HW122472   1.723   3.151   2.863 -0.6703 -1.6585  0.5057
 3613SOL    HW222473   1.783   3.241   2.957 -1.2579 -1.9725  0.8260
 3614SOL     OW22474   2.626   2.982   5.928 -0.3693  1.1791  0.1077
 3614SOL    HW122475   2.676   2.925   5.986 -1.2410  0.3185  0.0285
 3614SOL    HW222476   2.693   3.046   5.904 -0.4691  0.9910 -0.6557
 3615SOL     OW22477   3.674   3.892  12.839 -0.0582 -0.2225  0.1732
 3615SOL    HW122478   3.597   3.938  12.804 -1.0208 -0.2857  2.1833
 3615SOL    HW222479   3.662   3.799  12.819  0.1977 -0.2821  0.2962
 3616SOL     OW22480   4.120   2.448   1.990 -0.1258 -0.3665  0.1673
 3616SOL    HW122481   4.163   2.443   1.905 -0.2664 -1.2597  0.1572
 3616SOL    HW222482   4.137   2.360   2.022  1.3646  0.1524  0.8146
 3617SOL     OW22483   4.233   0.457   5.027 -0.2500 -0.2200  0.0442
 3617SOL    HW122484   4.328   0.460   5.037 -0.1776 -2.9204  0.3875
 3617SOL    HW222485   4.209   0.478   5.117  1.0794  2.1460 -0.1618
 3618SOL     OW22486   2.602   4.602  13.099 -0.3508 -0.0857 -0.5950
 3618SOL    HW122487   2.632   4.693  13.101  0.3828 -0.3718  1.1244
 3618SOL    HW222488   2.680   4.551  13.118 -0.5961 -0.2681 -0.0772
 3619SOL     OW22489   2.623   3.612   0.020  0.4049 -0.1806  0.5396
 3619SOL    HW122490   2.663   3.658  17.697  0.1170  1.5056  1.4316
 3619SOL    HW222491   2.631   3.684   0.082 -0.5328  0.3859 -0.0007
 3620SOL     OW22492   2.539   2.770   0.286 -0.9029 -0.3130  0.3479
 3620SOL    HW122493   2.603   2.730   0.227 -0.4039 -2.2175  2.1963
 3620SOL    HW222494   2.603   2.805   0.348 -0.1771  0.3570 -0.7743
 3621SOL     OW22495   3.483   2.617  11.315  0.0747  0.2704 -0.0294
 3621SOL    HW122496   3.431   2.572  11.381  1.6580  0.8076  1.5744
 3621SOL    HW222497   3.472   2.704  11.352 -2.2012  1.0848 -2.5762
 3622SOL     OW22498   4.717   2.481  13.714  0.1286  0.0418  0.0794
 3622SOL    HW122499   0.020   2.401  13.745 -1.2969  0.0247  1.9711
 3622SOL    HW222500   0.001   2.481  13.621 -1.3301 -0.5123 -0.2742
 3623SOL     OW22501   2.852   0.113   4.308 -0.7042 -0.3663 -0.4096
 3623SOL    HW122502   2.885   0.092   4.220 -1.2543  0.0506 -0.7109
 3623SOL    HW222503   2.932   0.142   4.353 -1.3388  2.2312 -0.9532
 3624SOL     OW22504   1.263   4.700   7.190 -0.0018 -0.5028  0.5664
 3624SOL    HW122505   1.353   4.707   7.223  1.2456 -3.4784 -2.1523
 3624SOL    HW222506   1.219   0.022   7.250 -0.1230 -0.7797  0.7545
 3625SOL     OW22507   4.206   3.369  11.627  0.4339  0.0503 -0.3706
 3625SOL    HW122508   4.152   3.436  11.585 -1.3780  0.1753  2.1250
 3625SOL    HW222509   4.226   3.406  11.713 -2.2640  0.3357  0.1461
 3626SOL     OW22510   4.023   1.129   7.534  0.5270  0.2132  0.0561
 3626SOL    HW122511   3.980   1.157   7.615  0.1484  0.1618 -0.1295
 3626SOL    HW222512   4.048   1.037   7.548 -0.5545 -0.0242  0.3928
 3627SOL     OW22513   3.803   1.250   7.386 -0.0423 -0.1144 -0.4785
 3627SOL    HW122514   3.843   1.190   7.449  0.2481  0.1520 -0.4082
 3627SOL    HW222515   3.760   1.180   7.338  1.2949  0.0726 -1.9299
 3628SOL     OW22516   4.184   3.848   3.329  0.6575  0.1368  0.3689
 3628SOL    HW122517   4.211   3.931   3.290  2.4819 -0.4258  0.4393
 3628SOL    HW222518   4.271   3.817   3.353  0.5794 -1.3323 -1.2243
 3629SOL     OW22519   2.127   0.444  14.904 -0.4273  0.5884  0.4369
 3629SOL    HW122520   2.108   0.356  14.871 -0.9648  1.5925 -1.9627
 3629SOL    HW222521   2.222   0.440  14.913 -0.4235 -0.2188  0.0650
 3630SOL     OW22522   1.184   3.765   1.917 -0.1424 -0.1816  0.3000
 3630SOL    HW122523   1.125   3.825   1.873  0.3067 -1.2220 -1.7271
 3630SOL    HW222524   1.171   3.801   2.005 -1.5617  1.1256 -0.4692
 3631SOL     OW22525   4.268   2.910  15.495 -0.2361  0.1297 -0.7663
 3631SOL    HW122526   4.259   2.998  15.457 -2.0122 -0.0360 -0.7181
 3631SOL    HW222527   4.176   2.890  15.511 -0.4633 -0.5363 -2.9237
 3632SOL     OW22528   0.943   1.276   6.036 -0.2183 -0.3425  0.0242
 3632SOL    HW122529   0.867   1.315   6.079 -0.2277 -0.5948  0.2361
 3632SOL    HW222530   0.974   1.356   5.993  0.7957 -0.5992  0.2765
 3633SOL     OW22531   1.798   1.684   9.498 -0.0648  0.4506  0.6956
 3633SOL    HW122532   1.763   1.623   9.563 -1.4524  1.3931  0.8080
 3633SOL    HW222533   1.769   1.637   9.419  1.7899  1.2726 -0.4892
 3634SOL     OW22534   2.071   3.908   8.829 -0.1166 -0.3188 -0.7286
 3634SOL    HW122535   2.059   3.816   8.851  0.9609 -0.3384 -0.2477
 3634SOL    HW222536   2.076   3.899   8.734 -0.0391 -2.5710 -0.5005
 3635SOL     OW22537   0.671   2.334  13.459  0.1924 -0.6532  0.8000
 3635SOL    HW122538   0.709   2.261  13.507 -0.9822 -1.2319  0.8643
 3635SOL    HW222539   0.664   2.291  13.373 -1.2007  2.0712 -0.4467
 3636SOL     OW22540   1.802   1.265   8.961 -0.9334 -0.0937  0.2547
 3636SOL    HW122541   1.871   1.330   8.957 -1.5496  0.5607  0.3210
 3636SOL    HW222542   1.759   1.259   8.876 -0.0521  0.5755 -0.2265
 3637SOL     OW22543   0.350   1.402   6.109  0.7493  0.0795 -0.3083
 3637SOL    HW122544   0.360   1.474   6.171  1.7614  1.1138 -1.6866
 3637SOL    HW222545   0.414   1.408   6.038  0.5420 -1.0900 -0.5901
 3638SOL     OW22546   1.346   1.180  17.644 -0.4754 -0.0325 -0.2822
 3638SOL    HW122547   1.318   1.169  17.734  0.2888  0.1246 -0.0285
 3638SOL    HW222548   1.342   1.274  17.626  2.5680 -0.1857 -1.8183
 3639SOL     OW22549   3.290   0.553   8.869  0.2532 -0.2199  0.3951
 3639SOL    HW122550   3.266   0.562   8.961  0.2123 -0.7924  0.4424
 3639SOL    HW222551   3.343   0.473   8.859  0.7889  0.3971 -1.8471
 3640SOL     OW22552   0.352   2.046   7.375  0.3656  0.6882 -0.2503
 3640SOL    HW122553   0.270   2.050   7.424  0.5725  0.4549  0.1180
 3640SOL    HW222554   0.333   2.091   7.293 -0.2109  1.5184  0.3504
 3641SOL     OW22555   4.564   0.527   5.879 -0.1145 -0.6030 -0.2766
 3641SOL    HW122556   4.632   0.575   5.925 -0.6677 -1.0766  1.0406
 3641SOL    HW222557   4.551   0.442   5.922 -0.2382 -0.3297  0.2229
 3642SOL     OW22558   1.671   0.430   6.626  0.2447  0.0555  0.7880
 3642SOL    HW122559   1.729   0.391   6.692  0.2647 -1.5517 -0.1814
 3642SOL    HW222560   1.596   0.439   6.685 -0.6155 -0.2560 -0.2732
 3643SOL     OW22561   3.546   4.354   7.765  0.2742 -0.3989  0.1675
 3643SOL    HW122562   3.624   4.373   7.713  0.4446 -0.2219  0.4869
 3643SOL    HW222563   3.523   4.270   7.725 -1.6270 -0.6451  1.8043
 3644SOL     OW22564   3.077   2.173  14.888 -0.4459 -0.5331  0.1094
 3644SOL    HW122565   3.122   2.229  14.825 -0.5173 -0.8114 -0.1919
 3644SOL    HW222566   3.155   2.165  14.943 -1.2249 -0.4040  1.2444
 3645SOL     OW22567   0.121   1.225   0.688 -0.4908 -0.9096 -0.0797
 3645SOL    HW122568   0.155   1.270   0.611 -1.2949  0.5057  0.3862
 3645SOL    HW222569   0.087   1.144   0.649 -0.9957 -0.4484 -0.5962
 3646SOL     OW22570   0.120   1.677   7.504  0.0831  0.2112  0.3931
 3646SOL    HW122571   0.055   1.608   7.497  0.0070  0.1414  1.8256
 3646SOL    HW222572   0.100   1.723   7.586 -1.2910  1.0904 -0.4472
 3647SOL     OW22573   2.434   0.076  14.907  0.6175  0.4991  0.3176
 3647SOL    HW122574   2.460   4.734  14.863 -1.1931 -1.3658  2.6150
 3647SOL    HW222575   2.425   0.138  14.835 -1.8335  0.4108  0.5570
 3648SOL     OW22576   3.666   0.915  11.987  0.1495 -0.3075 -0.1404
 3648SOL    HW122577   3.645   0.845  12.049  0.6406 -1.7947 -1.6344
 3648SOL    HW222578   3.593   0.904  11.927  0.5302 -0.1764 -0.6249
 3649SOL     OW22579   2.583   0.403   7.726 -0.1822  0.0365  0.3956
 3649SOL    HW122580   2.530   0.478   7.752 -0.1128  1.3381 -3.2408
 3649SOL    HW222581   2.655   0.427   7.785  0.9675  1.3985 -1.5586
 3650SOL     OW22582   1.937   4.029   6.262 -0.4568  0.5595 -0.0551
 3650SOL    HW122583   1.869   4.002   6.200  0.7111 -1.5329 -0.4477
 3650SOL    HW222584   1.955   3.939   6.292  0.5733  0.6910 -0.2838
 3651SOL     OW22585   2.495   3.857  13.586  0.2388  0.1574  0.1885
 3651SOL    HW122586   2.568   3.814  13.542  0.1215  1.1923 -1.0437
 3651SOL    HW222587   2.427   3.871  13.519  0.7146 -0.3583 -0.4037
 3652SOL     OW22588   3.903   4.227   5.028  0.1904  0.0789 -0.1564
 3652SOL    HW122589   3.912   4.155   4.966  0.8191  0.9788 -1.1016
 3652SOL    HW222590   3.937   4.299   4.974  0.0185  0.6783  0.5270
 3653SOL     OW22591   2.622   1.433   5.510  0.3680  0.6987 -0.5871
 3653SOL    HW122592   2.716   1.442   5.498  0.6191 -0.3625  0.5664
 3653SOL    HW222593   2.615   1.415   5.604 -1.4565  0.3379 -0.7857
 3654SOL     OW22594   3.618   0.996   7.798 -0.6511 -0.2589  0.3006
 3654SOL    HW122595   3.576   1.044   7.727 -0.5131  0.1266  0.4733
 3654SOL    HW222596   3.547   0.934   7.815 -1.2870 -0.1156 -1.8733
 3655SOL     OW22597   2.202   2.374   1.595  0.1137 -0.0795 -0.1749
 3655SOL    HW122598   2.148   2.446   1.563 -0.8973 -0.6270  0.3050
 3655SOL    HW222599   2.190   2.309   1.526  3.5424 -1.8960  0.8918
 3656SOL     OW22600   1.469   4.374   5.731 -0.0559 -0.1253 -0.3105
 3656SOL    HW122601   1.443   4.428   5.656  0.4007 -1.2485 -1.2869
 3656SOL    HW222602   1.555   4.408   5.755  0.9438 -2.5059 -0.4909
 3657SOL     OW22603   4.162   3.201  12.740 -0.1135  0.0434  0.4630
 3657SOL    HW122604   4.100   3.128  12.736 -1.2414  0.9625  1.2654
 3657SOL    HW222605   4.120   3.268  12.687 -0.8659  0.0415  1.0529
 3658SOL     OW22606   2.488   3.864   5.578  0.4565  0.3088  0.0735
 3658SOL    HW122607   2.474   3.799   5.647  1.8778 -1.4643 -1.2975
 3658SOL    HW222608   2.490   3.937   5.640  0.9800 -0.0435  0.4676
 3659SOL     OW22609   4.018   1.558   9.432  0.0314  0.8697  0.5180
 3659SOL    HW122610   3.954   1.500   9.475 -1.0399  0.2024 -1.9675
 3659SOL    HW222611   3.970   1.594   9.358  1.0686  1.2474  0.0433
 3660SOL     OW22612   2.835   3.074  16.463 -0.3011  0.4810 -0.0002
 3660SOL    HW122613   2.747   3.111  16.457 -0.6123 -0.3106 -0.4525
 3660SOL    HW222614   2.842   3.083  16.558  0.7904 -1.2829  0.0850
 3661SOL     OW22615   0.911   3.714   5.820  0.3178  0.4072  0.6028
 3661SOL    HW122616   0.930   3.713   5.914 -1.5480 -0.3193  0.9791
 3661SOL    HW222617   0.900   3.807   5.799 -1.2999 -0.0989 -0.7373
 3662SOL     OW22618   3.532   0.539   2.093  0.2333  0.1422  0.4077
 3662SOL    HW122619   3.610   0.503   2.051  0.0821 -0.8175  0.9277
 3662SOL    HW222620   3.529   0.487   2.174  2.3645 -0.5853  0.0178
 3663SOL     OW22621   1.485   4.581   7.548 -0.6808 -0.8835 -0.5037
 3663SOL    HW122622   1.562   4.578   7.491 -0.4781 -2.0580 -0.1514
 3663SOL    HW222623   1.510   4.521   7.618  0.5934  3.2769  2.5886
 3664SOL     OW22624   1.974   3.135   5.752 -0.2994 -0.0980 -0.1640
 3664SOL    HW122625   2.031   3.083   5.695 -0.0864 -0.3780  0.3029
 3664SOL    HW222626   1.889   3.108   5.717 -1.1450  0.1922  1.7183
 3665SOL     OW22627   4.251   0.784   3.945  0.3280 -0.4981 -0.3466
 3665SOL    HW122628   4.253   0.706   3.999 -0.7903 -0.3594 -0.1116
 3665SOL    HW222629   4.186   0.767   3.877 -1.2794  1.5355  0.6873
 3666SOL     OW22630   3.610   1.109   7.548  0.5051 -0.1677 -0.5526
 3666SOL    HW122631   3.542   1.173   7.526  0.5551  0.0799  0.0150
 3666SOL    HW222632   3.674   1.170   7.585  1.0838 -1.0452 -0.1122
 3667SOL     OW22633   2.065   1.372   2.646  0.0386  0.5987 -0.6058
 3667SOL    HW122634   2.153   1.397   2.674 -0.2284  1.5739 -0.6371
 3667SOL    HW222635   2.025   1.452   2.680  0.7384  0.5356  0.3653
 3668SOL     OW22636   4.594   0.579  12.608 -0.0722  0.9032 -0.0772
 3668SOL    HW122637   4.608   0.614  12.696  3.0708  0.7859 -0.5036
 3668SOL    HW222638   4.573   0.488  12.630  1.3124  0.7102  0.4469
 3669SOL     OW22639   4.671   1.222  10.008 -0.8178  0.2829 -0.2999
 3669SOL    HW122640   4.688   1.146  10.064  1.4530 -0.2370 -1.6845
 3669SOL    HW222641   4.600   1.266  10.055 -0.5199  2.5557 -1.9717
 3670SOL     OW22642   0.570   2.388   7.298 -0.1668  0.3953  0.2438
 3670SOL    HW122643   0.602   2.452   7.361 -1.1082  1.3004 -0.2006
 3670SOL    HW222644   0.656   2.382   7.258 -1.6038  0.4214 -2.8507
 3671SOL     OW22645   1.127   0.309  12.362 -0.0392 -0.1429 -0.3034
 3671SOL    HW122646   1.045   0.269  12.332 -0.2629 -0.4180  0.6648
 3671SOL    HW222647   1.143   0.376  12.295 -1.9096  0.0048 -0.6052
 3672SOL     OW22648   3.717   2.121   5.447  0.4553 -0.4392  0.2539
 3672SOL    HW122649   3.705   2.107   5.541 -0.7247  0.2672  0.2080
 3672SOL    HW222650   3.687   2.211   5.432 -0.4338 -1.0298 -1.5538
 3673SOL     OW22651   4.680   1.521   2.113 -0.5412 -0.9153 -0.1511
 3673SOL    HW122652   4.694   1.581   2.040 -2.3377 -0.8625 -0.4489
 3673SOL    HW222653   4.675   1.444   2.056 -0.2596 -1.3123  0.3619
 3674SOL     OW22654   4.232   2.545   6.576  0.1260  0.0946 -0.4239
 3674SOL    HW122655   4.278   2.624   6.605 -0.7241  1.2918 -2.2949
 3674SOL    HW222656   4.243   2.549   6.481  1.6433  1.3707 -0.1942
 3675SOL     OW22657   1.357   4.473   3.245 -0.2830 -0.6158 -0.1534
 3675SOL    HW122658   1.274   4.494   3.287  0.1063 -2.8174  1.7211
 3675SOL    HW222659   1.413   4.525   3.303 -0.5251 -1.3266  0.7153
 3676SOL     OW22660   1.253   3.934  11.560  0.3460  0.5843  0.0192
 3676SOL    HW122661   1.202   3.854  11.572  0.0740  0.9998  1.6251
 3676SOL    HW222662   1.265   3.926  11.466  0.7051  0.1506  0.1017
 3677SOL     OW22663   1.054   3.359  17.176 -0.0276  0.1867 -0.1944
 3677SOL    HW122664   1.111   3.409  17.233  1.1007 -0.7426 -0.5187
 3677SOL    HW222665   1.061   3.407  17.093 -1.5944 -2.5688 -1.9186
 3678SOL     OW22666   3.506   0.845   9.607  0.7176 -0.5963 -0.3557
 3678SOL    HW122667   3.562   0.787   9.658  0.3819 -0.6242 -0.0173
 3678SOL    HW222668   3.541   0.828   9.520  0.1862 -0.6661 -0.5503
 3679SOL     OW22669   1.943   0.768   2.338 -0.4074  0.1865  0.6139
 3679SOL    HW122670   1.949   0.754   2.243 -0.4868 -1.8662  0.9179
 3679SOL    HW222671   1.850   0.789   2.345 -0.3426  0.4709  0.6157
 3680SOL     OW22672   1.760   0.560   1.497 -0.1543 -0.3503 -0.1096
 3680SOL    HW122673   1.839   0.547   1.445 -0.6421  0.0971 -0.9487
 3680SOL    HW222674   1.691   0.535   1.436  1.6225 -0.0037 -2.2354
 3681SOL     OW22675   1.889   3.498  11.174  0.8623 -0.9000  0.5614
 3681SOL    HW122676   1.958   3.472  11.235  1.8656 -1.1090 -0.6582
 3681SOL    HW222677   1.944   3.499  11.096 -0.4816 -0.5593 -0.3680
 3682SOL     OW22678   1.639   2.443  13.227 -0.2824 -0.1218  0.2968
 3682SOL    HW122679   1.677   2.459  13.141  1.2434 -0.0564  0.9779
 3682SOL    HW222680   1.713   2.476  13.278 -0.0201  0.7472 -0.6631
 3683SOL     OW22681   4.197   3.760   7.621  0.0918  0.3462 -0.5370
 3683SOL    HW122682   4.211   3.674   7.581 -1.1113 -0.4484  0.7538
 3683SOL    HW222683   4.165   3.801   7.541 -1.8312  0.3824  0.2601
 3684SOL     OW22684   1.094   4.186   2.286 -0.0199 -0.3161  0.5385
 3684SOL    HW122685   1.171   4.230   2.251 -0.6055 -0.3217 -0.7599
 3684SOL    HW222686   1.081   4.127   2.211 -1.9512  2.7657 -1.5218
 3685SOL     OW22687   2.511   3.325   7.965 -0.0986  1.0136  0.5975
 3685SOL    HW122688   2.478   3.237   7.950 -2.4652  1.7248  1.5913
 3685SOL    HW222689   2.430   3.375   7.975 -1.0966 -0.2282 -1.2213
 3686SOL     OW22690   3.030   0.162   8.384  0.6991  0.2766 -0.6419
 3686SOL    HW122691   3.093   0.197   8.448  0.5017  1.1337 -0.9189
 3686SOL    HW222692   2.951   0.208   8.413 -0.0509 -2.1115  1.0467
 3687SOL     OW22693   2.397   3.453   3.969  0.1492  0.8850  0.0176
 3687SOL    HW122694   2.479   3.405   3.981 -0.6874 -0.4420  0.4793
 3687SOL    HW222695   2.342   3.375   3.959 -0.1934  0.8621  2.0126
 3688SOL     OW22696   1.245   2.996  15.384 -0.6538  0.1361  0.3309
 3688SOL    HW122697   1.185   2.922  15.377  1.4197 -1.7281  2.5211
 3688SOL    HW222698   1.187   3.072  15.379  0.8482  1.2177 -0.8042
 3689SOL     OW22699   0.672   2.406   0.919 -0.4212 -0.5409 -0.0217
 3689SOL    HW122700   0.612   2.387   0.847  0.9856 -2.4633 -0.6791
 3689SOL    HW222701   0.712   2.488   0.890 -0.1858 -0.5203  0.3593
 3690SOL     OW22702   0.889   4.679   6.599 -0.5693 -0.1224  0.0388
 3690SOL    HW122703   0.907   4.622   6.525 -2.1219  0.8673 -1.0895
 3690SOL    HW222704   0.915   4.624   6.673  2.1524  1.4554  0.2352
 3691SOL     OW22705   2.990   2.995   5.072  0.4132  0.2122  0.3158
 3691SOL    HW122706   2.967   2.983   4.980  1.4332  0.7105 -0.0032
 3691SOL    HW222707   3.059   2.930   5.086 -0.4421 -0.3521  1.9606
 3692SOL     OW22708   1.177   3.227  16.287 -0.6533  0.6670 -0.1216
 3692SOL    HW122709   1.151   3.175  16.211 -0.0410  0.5604 -0.2546
 3692SOL    HW222710   1.131   3.184  16.359 -2.0713  1.3248 -0.6221
 3693SOL     OW22711   3.448   0.815  11.835 -0.5671  0.4430 -0.0840
 3693SOL    HW122712   3.448   0.858  11.750 -0.1786 -0.6126 -0.6100
 3693SOL    HW222713   3.483   0.729  11.813 -1.8686  0.1232 -0.9158
 3694SOL     OW22714   0.806   0.089  16.547 -0.9766 -0.5061  1.1320
 3694SOL    HW122715   0.813   0.151  16.474 -4.1656 -0.6625  0.6833
 3694SOL    HW222716   0.886   0.106  16.596 -0.0789 -0.9219 -0.2087
 3695SOL     OW22717   3.609   4.164   1.638  0.2423 -0.4553 -0.3991
 3695SOL    HW122718   3.590   4.213   1.558 -2.1395 -1.2044 -0.2742
 3695SOL    HW222719   3.566   4.085   1.607 -1.6523 -0.3266  1.9173
 3696SOL     OW22720   1.470   1.897   7.797 -0.2663  0.3088 -0.5007
 3696SOL    HW122721   1.563   1.921   7.793 -0.2165  0.3747  0.9525
 3696SOL    HW222722   1.430   1.980   7.768 -1.0829  0.1561  0.1802
 3697SOL     OW22723   1.982   0.073   9.567  0.5438 -0.1520  0.3287
 3697SOL    HW122724   1.921   0.080   9.494  0.0142 -0.0814  0.7735
 3697SOL    HW222725   1.962   0.150   9.621 -1.5223 -0.2366 -0.2999
 3698SOL     OW22726   1.007   0.763  10.749 -0.2563  0.5737 -0.5538
 3698SOL    HW122727   1.082   0.708  10.725 -0.1722  0.0436  0.8836
 3698SOL    HW222728   0.947   0.713  10.693 -2.2979  2.0786  0.2864
 3699SOL     OW22729   3.373   4.473  16.353  0.2039  0.0187  0.3418
 3699SOL    HW122730   3.426   4.470  16.433 -0.0067  0.7251  0.5094
 3699SOL    HW222731   3.319   4.395  16.352  0.4772 -0.1973  1.5400
 3700SOL     OW22732   2.871   0.802   5.863 -0.1177  0.0365 -0.4871
 3700SOL    HW122733   2.940   0.739   5.841  2.5737  2.3766  1.1985
 3700SOL    HW222734   2.924   0.880   5.880  0.4950 -0.5542  0.2882
 3701SOL     OW22735   1.473   3.725   6.830  0.3172 -0.6026  0.7673
 3701SOL    HW122736   1.382   3.724   6.801  0.2474  1.5495  0.9249
 3701SOL    HW222737   1.462   3.783   6.906 -1.5467 -0.1657  0.1477
 3702SOL     OW22738   2.312   3.985   8.496 -0.3556  0.2531 -0.2200
 3702SOL    HW122739   2.250   3.921   8.461  0.9334 -2.0522  1.7124
 3702SOL    HW222740   2.265   4.033   8.564 -2.2150 -4.5494  1.8402
 3703SOL     OW22741   2.362   1.064   2.347 -0.1827  0.1473  0.2345
 3703SOL    HW122742   2.303   1.137   2.328 -0.4204 -0.7270 -2.3859
 3703SOL    HW222743   2.296   1.013   2.394 -0.3337  0.7324  0.6642
 3704SOL     OW22744   0.624   1.645  14.350 -1.1062 -0.4091  0.1492
 3704SOL    HW122745   0.678   1.566  14.345 -1.7005 -0.6007 -2.9543
 3704SOL    HW222746   0.667   1.688  14.424 -0.4010  1.5522 -1.4087
 3705SOL     OW22747   2.203   2.577   8.048  0.3762 -0.1833 -0.2039
 3705SOL    HW122748   2.119   2.571   8.004 -0.0513 -1.1989  0.7737
 3705SOL    HW222749   2.267   2.565   7.978  1.0438 -1.8428  0.6802
 3706SOL     OW22750   4.274   2.696   8.469  0.3442 -1.0873  0.2392
 3706SOL    HW122751   4.310   2.747   8.542 -1.2921  1.7440 -0.9357
 3706SOL    HW222752   4.256   2.771   8.413  1.9137  0.3423  1.6396
 3707SOL     OW22753   1.498   0.141  10.429  0.1297 -0.1322  0.0765
 3707SOL    HW122754   1.557   0.134  10.504  1.2328 -2.3308 -0.9796
 3707SOL    HW222755   1.424   0.192  10.461  0.6646 -0.2426  1.5157
 3708SOL     OW22756   0.111   2.111   6.106 -0.1079  0.2217 -0.6000
 3708SOL    HW122757   0.050   2.164   6.158 -1.4215 -1.4566 -0.4309
 3708SOL    HW222758   0.188   2.117   6.162 -0.8440 -1.5698  0.5946
 3709SOL     OW22759   1.885   1.502   9.284 -0.2096 -0.3249 -0.3481
 3709SOL    HW122760   1.975   1.502   9.318 -0.1370 -1.8212 -0.5413
 3709SOL    HW222761   1.847   1.418   9.310  1.5722 -0.4103  1.9531
 3710SOL     OW22762   0.605   3.264   5.948 -0.1307  0.6210 -0.2443
 3710SOL    HW122763   0.525   3.314   5.930  0.3445  1.4478 -0.0476
 3710SOL    HW222764   0.617   3.203   5.876  0.0440 -1.5402  1.6230
 3711SOL     OW22765   4.217   4.275   4.074  0.0838  0.3325  0.5650
 3711SOL    HW122766   4.269   4.356   4.073  2.7120 -1.3618  0.0314
 3711SOL    HW222767   4.174   4.278   3.989  2.3522 -1.3639 -0.6334
 3712SOL     OW22768   2.498   4.197   4.263 -0.3529  0.0994 -0.0856
 3712SOL    HW122769   2.413   4.233   4.238  0.0123  1.8214  1.1510
 3712SOL    HW222770   2.503   4.122   4.204  0.0482  0.8231 -0.9594
 3713SOL     OW22771   2.651   2.464   4.626 -0.4823  0.3431 -0.8435
 3713SOL    HW122772   2.621   2.401   4.692  0.9449  0.6808  0.1428
 3713SOL    HW222773   2.711   2.520   4.676  0.2338 -0.9807 -0.2317
 3714SOL     OW22774   1.753   4.447  16.386  0.4593 -0.2621 -0.1544
 3714SOL    HW122775   1.750   4.382  16.316 -1.3660  0.6702 -0.9305
 3714SOL    HW222776   1.734   4.390  16.460  1.2605  0.1710  0.3816
 3715SOL     OW22777   2.690   1.772   5.743  0.5279 -0.1139 -0.4840
 3715SOL    HW122778   2.637   1.768   5.664  0.0395 -0.3732 -0.1478
 3715SOL    HW222779   2.619   1.759   5.805  1.6099 -0.1202  0.7613
 3716SOL     OW22780   0.859   4.563   6.856 -0.3757 -0.3954 -0.2636
 3716SOL    HW122781   0.808   4.482   6.864  0.0551 -0.3536  3.0432
 3716SOL    HW222782   0.940   4.532   6.897 -0.3291 -1.2556 -1.0195
 3717SOL     OW22783   1.841   0.324   5.652  0.1530 -0.1903  0.1023
 3717SOL    HW122784   1.868   0.239   5.617  0.3142 -0.5593  1.1002
 3717SOL    HW222785   1.861   0.385   5.581 -2.4430 -1.0651 -1.3723
 3718SOL     OW22786   1.718   1.928   7.846  0.2536 -0.3722  0.4259
 3718SOL    HW122787   1.748   1.837   7.850  0.3954 -0.3228  0.5104
 3718SOL    HW222788   1.770   1.957   7.922  1.3398 -0.9003 -0.1168
 3719SOL     OW22789   1.030   0.685   3.094  0.0320  0.1155  0.4516
 3719SOL    HW122790   1.022   0.767   3.045 -0.6320  0.0107  0.3841
 3719SOL    HW222791   1.009   0.625   3.023  0.9912 -0.5982  0.7634
 3720SOL     OW22792   4.228   4.378   9.855  0.2849  0.2344 -0.8999
 3720SOL    HW122793   4.273   4.384   9.939 -0.9157 -3.5531  0.0217
 3720SOL    HW222794   4.220   4.284   9.836 -2.1372  0.1391  0.6583
 3721SOL     OW22795   0.239   3.416  14.254 -1.0436  0.3198  0.6153
 3721SOL    HW122796   0.244   3.330  14.295  0.5321  0.9299  1.7070
 3721SOL    HW222797   0.289   3.424  14.173  1.2476  2.6484  2.2483
 3722SOL     OW22798   4.187   3.319   4.246  0.2730 -0.3699 -0.1165
 3722SOL    HW122799   4.149   3.387   4.302  0.6839 -0.6238  0.4789
 3722SOL    HW222800   4.271   3.361   4.225  0.3225 -1.1679 -1.5063
 3723SOL     OW22801   1.447   4.317   9.606 -0.1633  0.1355  0.1892
 3723SOL    HW122802   1.428   4.379   9.675 -0.0747  1.0129 -0.5773
 3723SOL    HW222803   1.496   4.369   9.542 -1.5131 -0.5112 -1.3774
 3724SOL     OW22804   4.199   2.902   6.883  0.6106 -0.2294 -0.4744
 3724SOL    HW122805   4.258   2.897   6.959  0.8107  0.7942 -0.5633
 3724SOL    HW222806   4.124   2.853   6.916 -0.7984  2.4445  0.2468
 3725SOL     OW22807   4.539   3.873   7.237 -0.6300  0.1658 -0.3409
 3725SOL    HW122808   4.552   3.781   7.216 -1.1450  0.1294 -0.4899
 3725SOL    HW222809   4.577   3.878   7.325  0.6121  0.7947 -0.9056
 3726SOL     OW22810   3.876   0.139   2.349  0.0880 -0.4749  0.5648
 3726SOL    HW122811   3.887   0.230   2.322  1.8120 -0.7375  0.3741
 3726SOL    HW222812   3.808   0.141   2.416  0.4470  0.3063  0.9111
 3727SOL     OW22813   0.551   0.329   6.647 -0.2014 -0.2434  0.0622
 3727SOL    HW122814   0.566   0.313   6.740 -1.8559 -0.2803  0.3264
 3727SOL    HW222815   0.470   0.380   6.651  0.8650  1.3622  0.8960
 3728SOL     OW22816   1.522   0.133   6.346 -0.0526  0.2719 -0.1833
 3728SOL    HW122817   1.550   0.217   6.383  2.7750  0.4053 -2.6433
 3728SOL    HW222818   1.574   0.135   6.266  2.0978  0.5952  1.2265
 3729SOL     OW22819   0.125   2.493   4.263 -0.2627  0.3532 -0.5012
 3729SOL    HW122820   0.217   2.518   4.266 -0.0424 -0.8695  3.0589
 3729SOL    HW222821   0.128   2.421   4.201  0.4815  0.2352 -0.3274
 3730SOL     OW22822   0.721   1.952   8.513  0.2289  0.1722  0.1234
 3730SOL    HW122823   0.750   1.887   8.577 -0.6408 -0.9078 -0.5814
 3730SOL    HW222824   0.739   1.901   8.434 -2.0818  1.0730 -0.9925
 3731SOL     OW22825   1.794   1.432   1.909 -0.0705  0.0712 -0.0730
 3731SOL    HW122826   1.704   1.403   1.924 -0.9529  2.4838 -0.8290
 3731SOL    HW222827   1.827   1.370   1.845  0.7589  0.3381  0.0946
 3732SOL     OW22828   0.889   1.297   3.334 -0.3334 -0.2711  0.2597
 3732SOL    HW122829   0.960   1.238   3.363  0.4691  1.0252  0.9385
 3732SOL    HW222830   0.816   1.241   3.360  0.3329 -0.5090  1.6520
 3733SOL     OW22831   4.465   1.661   2.418  0.4964 -0.4688 -0.1267
 3733SOL    HW122832   4.400   1.635   2.352  1.4823 -0.3996 -1.1170
 3733SOL    HW222833   4.444   1.606   2.493  2.2354 -0.6672  0.2000
 3734SOL     OW22834   3.392   3.086   6.266 -0.4969 -0.0010 -0.0670
 3734SOL    HW122835   3.350   3.021   6.210  0.5476 -0.3699 -0.4306
 3734SOL    HW222836   3.436   3.146   6.206 -1.5099 -1.6195 -2.4231
 3735SOL     OW22837   2.636   3.095   5.304  0.1909  0.2642  0.4426
 3735SOL    HW122838   2.623   3.188   5.324 -0.5664  0.0612  0.8986
 3735SOL    HW222839   2.730   3.098   5.318  0.4048 -0.0504 -0.8724
 3736SOL     OW22840   2.992   4.104   1.206  0.9903 -0.5704 -0.0958
 3736SOL    HW122841   2.984   4.198   1.222 -0.8355 -0.8010  0.3188
 3736SOL    HW222842   2.901   4.076   1.215  0.6015  0.3482 -1.1349
 3737SOL     OW22843   3.485   1.833   6.427  0.0825  0.5581  0.4813
 3737SOL    HW122844   3.460   1.923   6.449  0.6705  1.0856 -1.0018
 3737SOL    HW222845   3.412   1.802   6.373  1.7974 -1.3142 -0.7561
 3738SOL     OW22846   0.808   1.323   9.581  0.3566  0.1140  0.5555
 3738SOL    HW122847   0.896   1.325   9.541 -0.1059 -0.9416 -0.5297
 3738SOL    HW222848   0.834   1.311   9.672 -0.3400  0.0287  0.7385
 3739SOL     OW22849   0.381   1.586   2.735  0.4335  0.0701 -0.2660
 3739SOL    HW122850   0.307   1.590   2.674 -1.1520 -1.1060  1.5687
 3739SOL    HW222851   0.345   1.644   2.802  0.6498  0.8972 -0.8700
 3740SOL     OW22852   4.133   4.497  14.527  0.4228 -0.7886 -0.4053
 3740SOL    HW122853   4.121   4.404  14.510  0.2423 -0.8093 -0.1745
 3740SOL    HW222854   4.082   4.535  14.455  0.2598  1.3329  0.8138
 3741SOL     OW22855   4.736   2.832   3.004  0.3401 -0.0230 -0.5075
 3741SOL    HW122856   0.048   2.789   2.935 -0.0822 -1.6061  0.1709
 3741SOL    HW222857   4.713   2.916   2.964 -0.2970  0.5753  1.1004
 3742SOL     OW22858   1.283   3.421   8.287 -0.0943 -0.4316  0.3819
 3742SOL    HW122859   1.237   3.475   8.223  2.0611  0.6291 -0.2622
 3742SOL    HW222860   1.232   3.341   8.278 -0.8290  0.1193 -0.4112
 3743SOL     OW22861   4.686   0.383  11.588 -0.3903 -0.1152  0.0767
 3743SOL    HW122862   4.594   0.407  11.597  0.0835  2.5185 -2.1450
 3743SOL    HW222863   4.693   0.403  11.494  2.4003 -0.6743  0.1675
 3744SOL     OW22864   2.092   2.462   2.541  0.2800 -0.3599 -0.2842
 3744SOL    HW122865   2.102   2.524   2.613  2.0981 -1.2714  0.2419
 3744SOL    HW222866   2.009   2.425   2.573  0.3357  0.3345  0.6718
 3745SOL     OW22867   0.590   1.954  14.238  0.0260  0.2545  0.0435
 3745SOL    HW122868   0.664   2.013  14.247  0.8919 -1.0974  1.6700
 3745SOL    HW222869   0.609   1.901  14.315 -0.3343  0.5099  0.3070
 3746SOL     OW22870   0.427   3.920  15.874  0.1126 -0.4529  0.0956
 3746SOL    HW122871   0.470   3.948  15.794  1.5903  1.0896  1.4296
 3746SOL    HW222872   0.368   3.990  15.902  0.4518  0.0045 -0.3285
 3747SOL     OW22873   2.993   4.512   4.513 -0.1472 -0.1869 -0.0787
 3747SOL    HW122874   2.945   4.446   4.462  0.1914  0.3078 -1.0479
 3747SOL    HW222875   2.941   4.512   4.593  0.4645  0.6248  0.3240
 3748SOL     OW22876   1.503   1.218  12.906  0.0731  0.1226 -0.2872
 3748SOL    HW122877   1.559   1.263  12.842 -0.0877 -1.3280 -1.4360
 3748SOL    HW222878   1.417   1.255  12.887 -0.0685  0.4044  0.8942
 3749SOL     OW22879   3.464   3.501   7.178  0.2815  0.4833 -0.6134
 3749SOL    HW122880   3.413   3.445   7.120  1.5078 -0.8391 -0.4284
 3749SOL    HW222881   3.510   3.549   7.110  2.5825 -0.4542  0.2559
 3750SOL     OW22882   3.548   2.527   3.285  0.6913 -0.0491 -0.2010
 3750SOL    HW122883   3.618   2.470   3.253  0.3489 -1.7497  2.1100
 3750SOL    HW222884   3.473   2.480   3.247 -0.8170  0.6134  1.9383
 3751SOL     OW22885   0.605   0.223   7.413 -0.2635  0.0072 -0.0611
 3751SOL    HW122886   0.674   0.172   7.456 -0.7481 -0.2376  0.4269
 3751SOL    HW222887   0.661   0.259   7.344 -0.3693 -0.5444 -0.4350
 3752SOL     OW22888   0.935   4.511   0.722 -0.0945 -0.3365 -0.4793
 3752SOL    HW122889   0.847   4.474   0.728 -0.1634 -0.1386 -0.2640
 3752SOL    HW222890   0.921   4.605   0.709  0.0697  0.1366  2.8019
 3753SOL     OW22891   2.484   3.843   2.513  0.1144  0.8475 -0.3687
 3753SOL    HW122892   2.505   3.771   2.573 -1.2402  0.1582 -0.7255
 3753SOL    HW222893   2.418   3.795   2.462  0.5493  0.0237 -0.1590
 3754SOL     OW22894   4.725   3.167  12.856  0.2992  0.2581 -0.0924
 3754SOL    HW122895   4.656   3.214  12.809  1.9866  3.1191  0.3077
 3754SOL    HW222896   0.049   3.138  12.790 -1.1375 -2.0341 -0.4142
 3755SOL     OW22897   4.250   3.456  16.649 -0.5602  0.0629 -0.3487
 3755SOL    HW122898   4.339   3.487  16.661 -0.1044 -0.3692 -2.5591
 3755SOL    HW222899   4.249   3.361  16.664 -1.5771  0.1522  0.1520
 3756SOL     OW22900   1.260   1.993  13.691  0.4716  0.6621 -0.5521
 3756SOL    HW122901   1.192   2.057  13.709  0.9507  1.4539 -1.5301
 3756SOL    HW222902   1.230   1.974  13.602 -1.5432 -1.5788  0.6140
 3757SOL     OW22903   0.849   3.272   6.724  0.3776 -0.3241 -0.2550
 3757SOL    HW122904   0.759   3.302   6.713 -0.0644 -1.2053  1.0382
 3757SOL    HW222905   0.833   3.182   6.752  0.4633 -1.1198 -2.7313
 3758SOL     OW22906   3.977   4.409  10.716 -0.0217  0.6147 -0.3347
 3758SOL    HW122907   4.047   4.452  10.667  0.8388 -0.4035  0.0146
 3758SOL    HW222908   3.994   4.447  10.802 -0.2125  0.1694 -0.1012
 3759SOL     OW22909   1.276   4.484   2.717 -0.4548 -0.2822 -0.0892
 3759SOL    HW122910   1.301   4.402   2.674  1.4423 -0.8963  2.1032
 3759SOL    HW222911   1.360   4.530   2.710 -1.1713  0.9872 -0.2951
 3760SOL     OW22912   3.926   3.377  16.810 -0.3433  0.1412 -0.0412
 3760SOL    HW122913   4.017   3.379  16.842 -0.3792 -0.8753  0.1453
 3760SOL    HW222914   3.892   3.465  16.826 -2.8565 -0.7821 -0.3323
 3761SOL     OW22915   4.393   1.859   5.850  0.5891  0.2219 -0.0047
 3761SOL    HW122916   4.366   1.950   5.862 -1.3846 -0.6559  2.2768
 3761SOL    HW222917   4.479   1.883   5.815  0.1692 -1.4306 -2.1355
 3762SOL     OW22918   1.387   0.150   2.890 -0.1606  0.9532  0.1866
 3762SOL    HW122919   1.321   0.212   2.922 -0.1103  1.5854 -0.9289
 3762SOL    HW222920   1.441   0.201   2.830  0.3697 -0.5913 -0.6512
 3763SOL     OW22921   1.498   4.133   3.392 -0.1125  0.7975 -0.2295
 3763SOL    HW122922   1.449   4.157   3.314 -0.9851  0.9708  0.3659
 3763SOL    HW222923   1.551   4.062   3.355 -1.4494 -0.4142  0.1587
 3764SOL     OW22924   3.403   0.954   8.090  0.1345 -0.0775 -0.2825
 3764SOL    HW122925   3.420   0.862   8.071 -0.2825 -0.3720  0.7327
 3764SOL    HW222926   3.308   0.950   8.106  0.2853  2.1290  1.1972
 3765SOL     OW22927   3.351   2.468   8.825  0.0282  0.1714  0.3750
 3765SOL    HW122928   3.404   2.527   8.770 -4.1194  3.8017  0.2396
 3765SOL    HW222929   3.275   2.452   8.769  0.6997  1.9812 -1.0721
 3766SOL     OW22930   4.104   1.263  14.552  0.3923  0.3126  0.0577
 3766SOL    HW122931   4.107   1.185  14.497 -0.9843 -0.2747  0.8074
 3766SOL    HW222932   4.126   1.228  14.638  1.6845 -0.6947 -0.6801
 3767SOL     OW22933   4.113   3.626   8.299  0.3902  0.0252  0.0281
 3767SOL    HW122934   4.137   3.551   8.245 -0.5693 -1.1042  1.1609
 3767SOL    HW222935   4.018   3.622   8.284  0.1730 -0.2190  1.4015
 3768SOL     OW22936   3.240   2.026   6.496  1.3338  0.1626  0.3489
 3768SOL    HW122937   3.181   1.951   6.493 -0.0642  1.3171 -0.6764
 3768SOL    HW222938   3.213   2.053   6.583  2.3234 -1.7358  1.2639
 3769SOL     OW22939   1.985   0.404   8.956  0.1506 -0.4198  0.4612
 3769SOL    HW122940   1.985   0.331   9.018 -0.0979 -0.9096 -0.1184
 3769SOL    HW222941   1.892   0.424   8.963 -0.2543 -1.8372 -0.8447
 3770SOL     OW22942   3.823   0.314   8.166  0.1411 -0.1175 -0.1841
 3770SOL    HW122943   3.879   0.319   8.244  1.5069  0.8874 -1.2384
 3770SOL    HW222944   3.860   0.241   8.117 -1.0242  0.6754 -2.2121
 3771SOL     OW22945   3.433   0.157   4.583 -0.2576  0.6088 -0.6816
 3771SOL    HW122946   3.441   0.189   4.673 -0.4120 -1.9304  0.2327
 3771SOL    HW222947   3.366   0.214   4.545 -0.9223 -1.1459 -2.1183
 3772SOL     OW22948   3.828   1.027  10.786 -0.0002 -0.3662 -0.1369
 3772SOL    HW122949   3.780   0.944  10.782 -2.1497  0.8584  0.2771
 3772SOL    HW222950   3.919   0.999  10.797 -0.4936 -1.6398  0.6230
 3773SOL     OW22951   3.163   2.385   7.397  0.4018 -0.6190 -0.5534
 3773SOL    HW122952   3.211   2.453   7.348  0.5774  1.3731  2.4080
 3773SOL    HW222953   3.179   2.418   7.485  1.1884 -0.8046 -0.6272
 3774SOL     OW22954   1.373   3.879   4.768 -0.6730  0.2280 -0.0655
 3774SOL    HW122955   1.295   3.934   4.755 -0.4819  1.3111  3.1244
 3774SOL    HW222956   1.357   3.860   4.861  1.5085  0.0545  0.2892
 3775SOL     OW22957   0.330   0.113   3.682 -0.2601 -0.3973  0.1629
 3775SOL    HW122958   0.332   0.055   3.757  1.6232 -0.2409  0.2398
 3775SOL    HW222959   0.422   0.137   3.687 -0.1954 -0.1077 -2.0387
 3776SOL     OW22960   2.942   3.624   5.112 -0.3155 -0.9243  0.0295
 3776SOL    HW122961   2.955   3.550   5.052  0.9573 -0.1851 -0.6104
 3776SOL    HW222962   2.848   3.607   5.118 -0.5225  0.0348 -0.3602
 3777SOL     OW22963   1.585   4.527  10.096 -0.2137 -0.1351 -0.4222
 3777SOL    HW122964   1.656   4.515  10.159  0.3577  1.3851 -0.7891
 3777SOL    HW222965   1.574   4.439  10.059 -0.5894  0.3768 -1.5071
 3778SOL     OW22966   3.135   4.617   3.830 -0.1507 -0.5886  0.3296
 3778SOL    HW122967   3.042   4.628   3.813 -0.1276  0.2476  0.7738
 3778SOL    HW222968   3.160   4.709   3.835 -0.3685 -0.5429  0.5476
 3779SOL     OW22969   1.851   0.855  13.184  0.0038  0.4324  0.8813
 3779SOL    HW122970   1.855   0.948  13.208 -0.4167  0.2123  1.8327
 3779SOL    HW222971   1.906   0.804  13.243 -0.1156 -0.9047 -0.1947
 3780SOL     OW22972   2.987   2.093  14.004 -0.2983 -0.5652 -0.3593
 3780SOL    HW122973   2.995   1.998  13.996  0.2320 -0.5556  0.1135
 3780SOL    HW222974   3.047   2.120  13.934 -1.0762 -0.5601 -1.0360
 3781SOL     OW22975   2.814   4.672   6.201  0.0673  0.4808 -0.2799
 3781SOL    HW122976   2.738   4.713   6.160  0.8154  1.1784 -0.9661
 3781SOL    HW222977   2.791   4.684   6.293  0.4995  3.9990 -0.6234
 3782SOL     OW22978   2.425   4.679   7.976 -0.1558 -0.8480 -0.8276
 3782SOL    HW122979   2.440   4.587   7.954 -0.7381 -0.7876 -1.4846
 3782SOL    HW222980   2.499   4.719   7.932  1.2433  2.0709  4.1981
 3783SOL     OW22981   2.098   2.888  10.980  0.4320  0.3264  0.4252
 3783SOL    HW122982   2.108   2.950  11.052 -1.5660 -0.2564  1.2034
 3783SOL    HW222983   2.053   2.935  10.910 -0.4057 -0.6642  0.3052
 3784SOL     OW22984   0.109   3.574   6.420  0.3573 -0.0896  0.6754
 3784SOL    HW122985   0.037   3.512   6.404  0.7844 -0.4164  0.0435
 3784SOL    HW222986   0.074   3.654   6.381 -0.6778 -0.0452  1.6845
 3785SOL     OW22987   2.006   2.253   5.199  0.5155  0.2368 -0.3328
 3785SOL    HW122988   1.981   2.164   5.175  1.2620 -0.0664  0.0178
 3785SOL    HW222989   2.100   2.242   5.187  0.4559 -0.6635  0.0571
 3786SOL     OW22990   3.072   4.185   3.578  0.2366 -0.4543  0.5817
 3786SOL    HW122991   3.022   4.103   3.580 -1.0455  0.3117 -0.0822
 3786SOL    HW222992   3.165   4.162   3.583 -0.4793 -3.3002  1.2642
 3787SOL     OW22993   0.734   2.466   8.280 -0.0112 -0.5280 -0.2563
 3787SOL    HW122994   0.703   2.392   8.333  1.2372 -0.7778  0.1408
 3787SOL    HW222995   0.688   2.442   8.200  0.6531  1.3417 -1.1872
 3788SOL     OW22996   3.045   2.963   2.070 -0.0385  0.0703  0.2290
 3788SOL    HW122997   2.952   2.956   2.092 -0.0339  1.2183  0.6180
 3788SOL    HW222998   3.092   3.020   2.131  1.5512 -0.0231 -0.8878
 3789SOL     OW22999   3.221   3.319   0.909 -0.0469 -0.0225  0.3859
 3789SOL    HW123000   3.233   3.373   0.831 -0.2885 -0.5272 -0.0013
 3789SOL    HW223001   3.169   3.367   0.973 -0.4065 -1.8739  1.4691
 3790SOL     OW23002   4.214   2.910   1.738  0.4479  0.2884 -0.0882
 3790SOL    HW123003   4.254   2.985   1.782 -0.0791  0.0439  0.7932
 3790SOL    HW223004   4.131   2.896   1.783 -0.9571  1.3008 -2.3383
 3791SOL     OW23005   1.469   2.766   8.700  0.4917 -0.1054  0.0877
 3791SOL    HW123006   1.443   2.679   8.670  1.1200 -0.4750  0.6302
 3791SOL    HW223007   1.432   2.825   8.633  3.0781  0.0933 -1.1396
 3792SOL     OW23008   2.136   2.139  11.626  0.4159  0.1839 -0.7844
 3792SOL    HW123009   2.200   2.124  11.696 -2.6966 -0.1375  2.0158
 3792SOL    HW223010   2.120   2.232  11.644 -0.5727 -0.1761  0.2105
 3793SOL     OW23011   0.683   2.390   4.996 -0.3417  0.3086 -0.4585
 3793SOL    HW123012   0.706   2.298   4.981 -1.4958  0.0960 -0.9648
 3793SOL    HW223013   0.631   2.411   4.918 -1.1449 -2.0116 -0.5670
 3794SOL     OW23014   2.135   3.529  14.678 -0.5106  0.0422 -0.0297
 3794SOL    HW123015   2.202   3.539  14.746 -0.2489  0.6767 -0.3824
 3794SOL    HW223016   2.173   3.570  14.600 -0.2887  1.8096  0.9875
 3795SOL     OW23017   4.140   2.339   5.501  0.0642 -0.1555  0.1222
 3795SOL    HW123018   4.215   2.316   5.556 -0.1468  1.5615  1.1394
 3795SOL    HW223019   4.075   2.295   5.556  0.0250  0.5681  0.6600
 3796SOL     OW23020   2.568   4.357   1.709 -0.5212  0.3060 -0.0620
 3796SOL    HW123021   2.566   4.299   1.634  1.3609  0.8273 -0.5032
 3796SOL    HW223022   2.653   4.333   1.745 -0.8223 -2.9988 -1.5347
 3797SOL     OW23023   1.913   2.410   3.449 -0.1331  0.3916 -0.2142
 3797SOL    HW123024   1.905   2.503   3.431  0.2082  0.3352 -0.6487
 3797SOL    HW223025   1.824   2.378   3.431 -0.9301  2.4019  0.1586
 3798SOL     OW23026   4.160   3.218  15.733  0.2275  0.3569  0.4601
 3798SOL    HW123027   4.074   3.179  15.718  1.2275 -0.4151 -3.1859
 3798SOL    HW223028   4.141   3.299  15.685 -0.3648 -1.0982 -1.7253
 3799SOL     OW23029   0.827   2.226   3.150 -0.3321 -0.1910 -0.3633
 3799SOL    HW123030   0.807   2.311   3.190 -2.1820 -0.7232 -0.1490
 3799SOL    HW223031   0.874   2.184   3.222 -1.9054 -1.7048 -0.2268
 3800SOL     OW23032   4.355   0.441   4.489 -0.3557 -0.2869  0.7291
 3800SOL    HW123033   4.352   0.373   4.555  1.0350 -1.2792 -0.2265
 3800SOL    HW223034   4.329   0.398   4.407 -1.9943  2.2417 -0.1013
 3801SOL     OW23035   1.764   3.166  12.971 -0.5666 -0.2718 -0.0467
 3801SOL    HW123036   1.758   3.073  12.948 -1.2973 -0.1629 -0.3005
 3801SOL    HW223037   1.674   3.183  12.997 -0.3227 -1.0307  1.2875
 3802SOL     OW23038   4.509   0.450   9.504  0.1659  0.0267  0.5234
 3802SOL    HW123039   4.561   0.442   9.424 -0.0487 -0.5049  0.4369
 3802SOL    HW223040   4.578   0.471   9.568  0.1081 -0.5334  0.7735
 3803SOL     OW23041   3.277   1.783  11.582 -0.5397 -0.1208  0.1087
 3803SOL    HW123042   3.222   1.855  11.613 -1.9034 -1.2726  0.3858
 3803SOL    HW223043   3.222   1.711  11.613 -0.0259 -0.6139 -0.1121
 3804SOL     OW23044   2.260   3.494   6.204  0.2212 -0.3493 -0.0361
 3804SOL    HW123045   2.182   3.549   6.200 -0.0473 -0.5793  1.8752
 3804SOL    HW223046   2.312   3.542   6.140 -0.5171 -0.5624 -0.7987
 3805SOL     OW23047   4.561   3.232   7.111  0.0749 -0.3267  0.3257
 3805SOL    HW123048   4.559   3.155   7.055 -1.9266 -0.0218 -0.0275
 3805SOL    HW223049   4.494   3.283   7.065 -1.6885 -1.0326  2.1141
 3806SOL     OW23050   3.816   0.457  16.377 -0.0327 -0.0853 -0.2381
 3806SOL    HW123051   3.906   0.444  16.348 -0.6428  1.5607 -2.8353
 3806SOL    HW223052   3.832   0.497  16.463  0.1726  0.2772 -0.4428
 3807SOL     OW23053   0.847   3.863   3.335 -0.1565  0.3511 -1.0275
 3807SOL    HW123054   0.902   3.788   3.315 -0.2666  0.0175 -0.0634
 3807SOL    HW223055   0.870   3.928   3.268  0.2101  0.3530 -0.9006
 3808SOL     OW23056   0.698   1.868   6.490  0.1868  0.0129  0.2798
 3808SOL    HW123057   0.660   1.812   6.558  1.0595 -2.3892 -1.2048
 3808SOL    HW223058   0.765   1.813   6.450  0.0732  1.7035 -2.2306
 3809SOL     OW23059   0.734   2.163   1.029 -0.8158  0.1126  0.3170
 3809SOL    HW123060   0.654   2.133   0.987 -1.0426 -0.3719  1.0794
 3809SOL    HW223061   0.764   2.226   0.963  2.2436 -0.5970  0.9939
 3810SOL     OW23062   0.546   2.863  11.732  0.3095 -0.4663  0.3600
 3810SOL    HW123063   0.494   2.835  11.657  1.3979 -0.1828 -0.4783
 3810SOL    HW223064   0.550   2.781  11.781  2.0149 -2.6979 -3.6011
 3811SOL     OW23065   1.184   3.832   7.256 -0.1688  0.0294  0.0783
 3811SOL    HW123066   1.267   3.854   7.297 -0.2564 -0.0449  0.2933
 3811SOL    HW223067   1.210   3.773   7.185 -0.6090  0.2473 -0.2633
 3812SOL     OW23068   2.555   0.724   6.827  0.0631 -0.3121 -0.4071
 3812SOL    HW123069   2.490   0.695   6.891  0.9673  1.0320  1.1173
 3812SOL    HW223070   2.575   0.806   6.872  0.8911 -0.2861 -0.8230
 3813SOL     OW23071   1.374   1.662   5.670 -0.1258  0.2507 -0.5607
 3813SOL    HW123072   1.417   1.578   5.685 -0.4078 -0.1645 -2.1365
 3813SOL    HW223073   1.283   1.639   5.651 -0.1853 -1.2277  1.5369
 3814SOL     OW23074   1.561   3.030  17.384 -0.2965  0.5637 -0.2947
 3814SOL    HW123075   1.584   2.947  17.424  1.0977  1.6066  1.0897
 3814SOL    HW223076   1.467   3.020  17.366 -0.3055  2.5916 -1.3777
 3815SOL     OW23077   2.014   3.667  11.796  0.1392  0.2295 -0.0350
 3815SOL    HW123078   1.992   3.662  11.703  1.5555  1.7556 -0.4498
 3815SOL    HW223079   1.975   3.754  11.810  0.4214  0.6576 -1.9084
 3816SOL     OW23080   1.592   2.364   3.767 -0.1726 -0.4327  0.2072
 3816SOL    HW123081   1.558   2.274   3.767  0.4480 -0.6703 -0.0094
 3816SOL    HW223082   1.635   2.366   3.853 -1.6942 -1.2455  0.9809
 3817SOL     OW23083   3.336   2.308   2.278  0.0462 -0.0910  0.0478
 3817SOL    HW123084   3.256   2.300   2.330 -2.1358  1.1780 -3.1084
 3817SOL    HW223085   3.394   2.257   2.336  0.6597  2.1840  1.4099
 3818SOL     OW23086   2.008   2.003  17.572 -0.0160 -0.1807 -0.0359
 3818SOL    HW123087   2.093   2.046  17.575 -0.4987  0.7027  0.7238
 3818SOL    HW223088   2.040   1.915  17.593  0.6037  0.1780  0.5140
 3819SOL     OW23089   3.383   2.548   1.006  0.0968  0.2944  1.0791
 3819SOL    HW123090   3.394   2.642   0.994 -1.6269  0.3857  0.1513
 3819SOL    HW223091   3.292   2.528   0.984 -0.2121 -0.1077  2.7529
 3820SOL     OW23092   3.155   0.213   7.570 -0.0285  0.2325 -0.1533
 3820SOL    HW123093   3.127   0.170   7.651  0.8386 -2.3252 -1.2004
 3820SOL    HW223094   3.225   0.268   7.603  0.4026  0.2312 -1.0499
 3821SOL     OW23095   3.990   0.735   9.292 -0.4274 -0.0460  0.2461
 3821SOL    HW123096   3.954   0.774   9.212 -1.1307 -2.2044 -0.4863
 3821SOL    HW223097   4.060   0.799   9.307  1.5532 -2.0892 -0.3328
 3822SOL     OW23098   0.479   0.943   3.711  0.5023 -0.3513  0.2954
 3822SOL    HW123099   0.494   1.037   3.711 -0.9469 -0.1313 -1.2887
 3822SOL    HW223100   0.567   0.905   3.707  0.6694  0.3016 -1.7995
 3823SOL     OW23101   2.545   3.696   2.952 -0.4551 -0.4305  0.1512
 3823SOL    HW123102   2.597   3.777   2.955 -1.5890  0.2085  2.8713
 3823SOL    HW223103   2.472   3.726   2.898  0.1707  2.4638  0.9168
 3824SOL     OW23104   3.962   3.652   8.048  0.5335  0.0902 -0.0771
 3824SOL    HW123105   3.930   3.656   7.958  0.3205 -2.0028 -0.1108
 3824SOL    HW223106   3.938   3.738   8.081 -0.5073  0.2334 -1.2053
 3825SOL     OW23107   2.672   1.074   2.552  0.0147  0.1315  0.4854
 3825SOL    HW123108   2.627   1.157   2.566 -2.5124 -1.1377 -0.1496
 3825SOL    HW223109   2.698   1.086   2.460  3.5283  1.0854  1.6047
 3826SOL     OW23110   1.976   0.180   7.815  0.2661 -0.0735 -0.3987
 3826SOL    HW123111   1.957   0.101   7.764  1.3126 -1.3913  1.2326
 3826SOL    HW223112   2.069   0.168   7.834  0.2579  2.4391  1.1839
 3827SOL     OW23113   1.614   3.954   3.237  0.1845 -0.0463 -0.2781
 3827SOL    HW123114   1.619   3.966   3.142 -0.4301  1.0035 -0.1732
 3827SOL    HW223115   1.558   3.876   3.240 -1.5024  1.1793  0.1381
 3828SOL     OW23116   2.544   1.046   6.759  0.1179 -0.2916 -0.1753
 3828SOL    HW123117   2.490   1.038   6.680  0.6914  2.6772 -0.8665
 3828SOL    HW223118   2.475   1.058   6.824  0.3994 -1.2866  0.3055
 3829SOL     OW23119   3.250   2.594  11.131  0.6541  0.2271  0.6124
 3829SOL    HW123120   3.176   2.573  11.187  1.0781 -1.2166  0.6438
 3829SOL    HW223121   3.317   2.546  11.181 -0.4637 -2.2676 -0.2746
 3830SOL     OW23122   0.421   2.337  12.836  0.1114 -0.3471  0.0816
 3830SOL    HW123123   0.436   2.335  12.742  0.6056 -0.1852  0.1546
 3830SOL    HW223124   0.394   2.428  12.827 -1.4570 -0.8109  0.1688
 3831SOL     OW23125   1.080   2.131   6.754 -0.0525  0.3893  0.0168
 3831SOL    HW123126   1.098   2.187   6.829  0.9059 -1.6292  1.3066
 3831SOL    HW223127   0.994   2.166   6.733 -0.4044  0.9054  2.3236
 3832SOL     OW23128   3.173   2.750   1.205 -0.6415 -0.3955  0.1302
 3832SOL    HW123129   3.214   2.678   1.253 -1.7905 -0.0382  1.6440
 3832SOL    HW223130   3.152   2.823   1.263  0.4280 -0.2361  0.3140
 3833SOL     OW23131   0.010   2.405   3.160 -0.0345  0.0227 -0.3148
 3833SOL    HW123132   4.685   2.462   3.204  0.7697  1.7445 -1.3929
 3833SOL    HW223133   4.720   2.317   3.186 -1.7638  1.0341  1.2612
 3834SOL     OW23134   2.499   2.483   7.021  0.7737 -0.2998  0.7182
 3834SOL    HW123135   2.431   2.548   7.002  1.0971 -0.0269  0.4898
 3834SOL    HW223136   2.575   2.537   7.043 -0.5353  1.8491  0.0712
 3835SOL     OW23137   1.734   4.567   5.115 -0.1724  0.3307  0.0502
 3835SOL    HW123138   1.729   4.550   5.209 -0.0574  1.9603  0.3505
 3835SOL    HW223139   1.644   4.575   5.084 -0.0555  0.0420 -0.3652
 3836SOL     OW23140   2.781   3.606   0.862  0.1540  0.3257 -0.1204
 3836SOL    HW123141   2.765   3.525   0.814  0.4550  0.5118 -0.5279
 3836SOL    HW223142   2.868   3.592   0.898  0.0868 -0.5297 -0.2739
 3837SOL     OW23143   0.031   4.500   2.706 -0.2015  0.1323  0.2040
 3837SOL    HW123144   0.122   4.479   2.683  0.5129  1.8104  1.4905
 3837SOL    HW223145   0.031   4.459   2.792 -1.3429 -0.8967 -0.2914
 3838SOL     OW23146   2.650   0.493   4.692  0.7569  0.4652 -0.1267
 3838SOL    HW123147   2.714   0.557   4.723 -1.6283  2.1704  1.2736
 3838SOL    HW223148   2.587   0.483   4.763  1.9092 -2.6059  0.4659
 3839SOL     OW23149   2.560   3.807  10.764  0.6053  0.1659  0.0785
 3839SOL    HW123150   2.530   3.791  10.853 -1.5535 -1.8108 -1.0277
 3839SOL    HW223151   2.474   3.803  10.723  1.5459  0.7890 -1.9656
 3840SOL     OW23152   4.405   0.849   8.023 -0.0034 -0.0313 -0.3913
 3840SOL    HW123153   4.450   0.766   8.038  0.4130  0.3031  0.2119
 3840SOL    HW223154   4.414   0.884   8.111  1.9730 -3.0041  0.6056
 3841SOL     OW23155   4.321   3.849  12.047 -0.0633 -0.6865  0.0546
 3841SOL    HW123156   4.414   3.854  12.028 -0.0080 -0.3662  0.4236
 3841SOL    HW223157   4.281   3.855  11.960  2.0041  1.6248 -0.7338
 3842SOL     OW23158   3.591   0.748   2.653 -0.4454 -0.2086 -0.1611
 3842SOL    HW123159   3.580   0.692   2.576 -1.7074 -0.7699  0.4256
 3842SOL    HW223160   3.521   0.811   2.631 -2.8975 -1.9616  2.7470
 3843SOL     OW23161   1.156   1.371   5.207 -0.6677 -0.1250  0.0708
 3843SOL    HW123162   1.137   1.406   5.294 -1.4004 -0.0618 -0.1131
 3843SOL    HW223163   1.160   1.460   5.171  1.3932 -0.4402 -0.5008
 3844SOL     OW23164   4.086   0.815   3.443 -0.2850  0.1617  0.0423
 3844SOL    HW123165   4.073   0.721   3.445  1.2095 -0.0658 -1.3556
 3844SOL    HW223166   4.064   0.841   3.533  2.8186  0.0716  0.8506
 3845SOL     OW23167   0.589   2.579   2.987 -0.2499  0.6019 -0.3045
 3845SOL    HW123168   0.623   2.585   2.898  1.2854 -1.1608  0.1636
 3845SOL    HW223169   0.671   2.566   3.036 -0.2541  1.5539 -0.0323
 3846SOL     OW23170   3.475   2.675   8.283 -0.3114  0.5893 -0.5458
 3846SOL    HW123171   3.451   2.582   8.285 -1.5672  0.9195  0.0384
 3846SOL    HW223172   3.545   2.680   8.348  0.1218  0.7305 -1.0337
 3847SOL     OW23173   3.857   3.533   6.712 -0.5536  0.7121  0.0594
 3847SOL    HW123174   3.917   3.598   6.677 -2.2456  2.4332  0.3543
 3847SOL    HW223175   3.821   3.498   6.630 -1.6277  0.7137  0.5292
 3848SOL     OW23176   2.618   0.831   7.574 -0.5166  0.3108  0.1803
 3848SOL    HW123177   2.562   0.907   7.558  1.4801  2.1240  1.6704
 3848SOL    HW223178   2.555   0.771   7.615 -0.1087  0.8314  1.5866
 3849SOL     OW23179   3.232   2.752   5.287  0.8656  0.2854  0.6211
 3849SOL    HW123180   3.314   2.746   5.336 -0.0316 -4.9513  1.5465
 3849SOL    HW223181   3.258   2.816   5.221  1.0686  2.8123  3.1661
 3850SOL     OW23182   2.651   3.673   6.566  0.0260  0.3536  0.0883
 3850SOL    HW123183   2.606   3.590   6.548  1.7756 -0.2701 -1.3800
 3850SOL    HW223184   2.739   3.644   6.541  0.7643  2.1721  0.6231
 3851SOL     OW23185   0.765   0.329   1.671 -0.5374  0.0968 -0.3295
 3851SOL    HW123186   0.780   0.400   1.733 -1.6844  0.6328 -0.6593
 3851SOL    HW223187   0.692   0.287   1.717 -1.0860  2.5588  1.0119
 3852SOL     OW23188   2.973   2.650  15.381  0.2912  0.3024 -0.3182
 3852SOL    HW123189   2.967   2.565  15.425  1.4502  0.1734 -0.3969
 3852SOL    HW223190   2.950   2.713  15.449 -1.0984 -0.2873 -0.2560
 3853SOL     OW23191   4.724   3.166  15.791 -0.1214 -0.5729 -0.4252
 3853SOL    HW123192   0.081   3.174  15.785 -0.1393 -0.8649 -1.2371
 3853SOL    HW223193   4.722   3.161  15.886  0.8037  3.0488 -0.2053
 3854SOL     OW23194   2.750   0.326  12.518 -0.2403 -0.0661  0.3200
 3854SOL    HW123195   2.719   0.372  12.440 -0.9851  1.5675  1.5688
 3854SOL    HW223196   2.739   0.235  12.491 -0.6024 -0.6515  2.3765
 3855SOL     OW23197   3.176   2.136   6.759  0.0558  0.0998 -0.3263
 3855SOL    HW123198   3.085   2.105   6.760  0.4914 -1.1557  0.4689
 3855SOL    HW223199   3.220   2.059   6.795 -1.2486 -0.4026  0.2041
 3856SOL     OW23200   3.398   4.218   5.015 -0.6274  0.3114 -0.3143
 3856SOL    HW123201   3.353   4.297   5.044 -0.1229  0.6432 -0.4245
 3856SOL    HW223202   3.476   4.257   4.976 -1.4376  0.6917 -1.5475
 3857SOL     OW23203   3.356   3.742   6.816 -0.2245 -0.2403 -0.0719
 3857SOL    HW123204   3.393   3.778   6.735 -0.5495 -0.7848 -0.4608
 3857SOL    HW223205   3.264   3.729   6.794 -0.4116 -0.4706  0.8553
 3858SOL     OW23206   2.799   0.323  12.779  0.0189  0.3296  0.0282
 3858SOL    HW123207   2.875   0.265  12.780 -1.9050 -2.1682  0.2549
 3858SOL    HW223208   2.789   0.338  12.685  0.8949  0.1199 -0.0922
 3859SOL     OW23209   2.086   4.130  15.837 -0.0774  0.1439 -0.1667
 3859SOL    HW123210   2.134   4.200  15.793  1.3869  0.5974  2.1512
 3859SOL    HW223211   2.067   4.088  15.754 -0.3100  0.2085 -0.1461
 3860SOL     OW23212   3.656   0.813   1.740 -0.2587 -0.1415  0.3998
 3860SOL    HW123213   3.710   0.735   1.746 -1.5091 -1.1009 -0.7406
 3860SOL    HW223214   3.718   0.878   1.772 -1.2851  0.0087  2.0614
 3861SOL     OW23215   2.797   0.881  14.149 -0.4447 -0.1065  0.2756
 3861SOL    HW123216   2.737   0.928  14.092  0.5976  0.5207 -0.2896
 3861SOL    HW223217   2.746   0.873  14.230 -0.9592 -1.2419 -0.1507
 3862SOL     OW23218   1.354   2.358  15.881 -0.1424  0.3492 -0.3722
 3862SOL    HW123219   1.338   2.269  15.911  1.6976  0.3621  0.6672
 3862SOL    HW223220   1.433   2.386  15.928  0.2721 -1.1856 -0.1572
 3863SOL     OW23221   0.594   4.300  10.678 -0.2858  0.1342 -0.7745
 3863SOL    HW123222   0.572   4.265  10.592  0.0242  0.9272 -1.1737
 3863SOL    HW223223   0.669   4.245  10.699 -0.0295  0.4175 -0.9551
 3864SOL     OW23224   4.002   0.670   3.914  0.1087  0.2265 -0.1322
 3864SOL    HW123225   3.910   0.646   3.914  0.5191 -1.3465 -0.7318
 3864SOL    HW223226   4.018   0.637   4.002 -2.5707 -0.6550  0.0021
 3865SOL     OW23227   0.934   2.093  13.403  0.2518 -0.2944  0.4816
 3865SOL    HW123228   0.948   2.154  13.331  0.8409  0.0372  0.8771
 3865SOL    HW223229   1.021   2.055  13.411  0.1895 -0.6773 -0.7320
 3866SOL     OW23230   1.745   3.714   2.405  0.0988 -0.1084  0.2303
 3866SOL    HW123231   1.716   3.691   2.493 -0.1082 -1.4312 -0.1682
 3866SOL    HW223232   1.749   3.625   2.369  1.6702  0.6245 -1.3736
 3867SOL     OW23233   2.438   1.827  10.370  0.5124  0.3060  0.1938
 3867SOL    HW123234   2.497   1.789  10.435  0.2488 -1.6759 -0.7428
 3867SOL    HW223235   2.423   1.917  10.402 -1.6047 -0.3120  0.9843
 3868SOL     OW23236   0.121   2.649   2.573  0.1888 -0.2895 -0.0474
 3868SOL    HW123237   0.048   2.706   2.549 -0.6183 -0.7413  1.3348
 3868SOL    HW223238   0.197   2.705   2.557  0.1707  0.5034  2.6981
 3869SOL     OW23239   4.200   1.826   3.276 -0.3090 -0.1407  0.2602
 3869SOL    HW123240   4.234   1.832   3.187 -0.1853  1.2063  0.4024
 3869SOL    HW223241   4.280   1.800   3.322 -0.5936 -0.0663  0.8007
 3870SOL     OW23242   3.471   0.136   4.040 -0.0979 -0.8095  0.0099
 3870SOL    HW123243   3.404   0.082   4.082 -0.5666 -0.7761 -0.7088
 3870SOL    HW223244   3.550   0.119   4.092 -0.3109 -1.5121  0.0975
 3871SOL     OW23245   2.154   2.029  12.895  0.1675 -0.2521  0.0711
 3871SOL    HW123246   2.111   2.020  12.980 -0.6441 -0.5014 -0.3671
 3871SOL    HW223247   2.213   1.954  12.897 -0.1573 -0.5195 -0.1544
 3872SOL     OW23248   2.796   4.270  15.494  0.6884 -0.1302  0.6691
 3872SOL    HW123249   2.882   4.249  15.459  1.6579  1.8540  1.8584
 3872SOL    HW223250   2.803   4.365  15.506  3.4521 -0.3452  0.7668
 3873SOL     OW23251   2.680   3.590   3.768  0.5680 -0.6856 -0.1746
 3873SOL    HW123252   2.716   3.641   3.840  1.4111 -2.5086  0.6949
 3873SOL    HW223253   2.640   3.512   3.808 -1.8691  1.8404  2.3416
 3874SOL     OW23254   4.248   4.350  15.463  0.2363 -0.6233 -0.0754
 3874SOL    HW123255   4.302   4.351  15.384  1.9734  0.0549  1.1274
 3874SOL    HW223256   4.321   4.341  15.523  1.4643  2.3079 -1.1162
 3875SOL     OW23257   1.640   4.206   2.577  0.1485  0.1149 -0.2957
 3875SOL    HW123258   1.728   4.235   2.600  0.5545 -0.7170 -0.7750
 3875SOL    HW223259   1.650   4.113   2.599  0.5465  0.4784  1.0499
 3876SOL     OW23260   0.181   2.263   6.946  0.5596  0.3757 -0.3036
 3876SOL    HW123261   0.171   2.352   6.977  1.2282  0.5316 -0.5205
 3876SOL    HW223262   0.210   2.218   7.025  1.7021  0.3359 -0.7462
 3877SOL     OW23263   0.520   2.101   2.116  0.1646  0.0367  0.3426
 3877SOL    HW123264   0.480   2.014   2.111  1.6017 -0.6258  0.4400
 3877SOL    HW223265   0.490   2.131   2.030  0.0251  2.6539  1.3308
 3878SOL     OW23266   4.151   1.475   7.087 -0.0479 -0.6998  0.3818
 3878SOL    HW123267   4.056   1.474   7.091 -0.0521 -1.3572  0.0590
 3878SOL    HW223268   4.167   1.448   7.177 -0.5926  0.8110  0.9374
 3879SOL     OW23269   0.628   2.985   8.556 -0.2219 -0.1456  0.0343
 3879SOL    HW123270   0.710   2.955   8.516 -0.1861 -0.5295  0.3920
 3879SOL    HW223271   0.605   2.906   8.605 -0.8761  1.8769  2.9641
 3880SOL     OW23272   3.799   3.114   0.910  0.3004 -0.2761 -0.2353
 3880SOL    HW123273   3.727   3.158   0.864  0.9171  0.5551 -0.4013
 3880SOL    HW223274   3.847   3.196   0.919 -0.6773  0.4898 -1.7663
 3881SOL     OW23275   3.426   3.541   2.658 -0.2112  0.0392 -0.0946
 3881SOL    HW123276   3.435   3.522   2.751 -1.0826 -0.2548 -0.0710
 3881SOL    HW223277   3.479   3.620   2.648 -0.4223  0.4091  1.6212
 3882SOL     OW23278   3.659   2.774   7.437  0.0369  0.0960 -0.4044
 3882SOL    HW123279   3.587   2.828   7.468 -1.0836 -0.6161 -1.7778
 3882SOL    HW223280   3.713   2.839   7.393 -0.3763  0.3824 -0.4879
 3883SOL     OW23281   0.142   0.470   1.413  0.4195 -0.0378  0.3299
 3883SOL    HW123282   0.143   0.432   1.326 -0.0371  1.3451 -0.2829
 3883SOL    HW223283   0.148   0.386   1.458 -1.7407  0.1117  0.9173
 3884SOL     OW23284   1.132   2.752   3.340 -0.3450 -0.2450  0.4311
 3884SOL    HW123285   1.096   2.675   3.296  1.2158  0.7772 -2.6819
 3884SOL    HW223286   1.050   2.780   3.380 -0.9193 -0.6808 -0.4450
 3885SOL     OW23287   3.804   3.134   5.226 -1.6070 -0.0953 -0.0871
 3885SOL    HW123288   3.811   3.061   5.165  1.3378  1.2036 -1.2788
 3885SOL    HW223289   3.712   3.121   5.250 -1.8876  2.5137  0.2330
 3886SOL     OW23290   3.950   1.871   0.194 -0.8625 -0.1181 -0.0207
 3886SOL    HW123291   3.869   1.861   0.144 -0.8709  2.2389 -0.5124
 3886SOL    HW223292   3.945   1.958   0.234  0.6488 -0.0749  0.0943
 3887SOL     OW23293   1.371   2.355   2.922 -0.5505  0.1302  0.2175
 3887SOL    HW123294   1.385   2.430   2.979  2.9243  1.4137 -2.3439
 3887SOL    HW223295   1.436   2.294   2.957 -1.4521 -1.4190 -0.8008
 3888SOL     OW23296   4.473   3.672   9.867 -0.9961  0.0847 -0.1607
 3888SOL    HW123297   4.557   3.668   9.821 -1.5567 -0.8031 -1.1119
 3888SOL    HW223298   4.433   3.591   9.837 -4.5587  1.7765 -0.0126
 3889SOL     OW23299   1.273   0.763   6.000  0.1060  0.1652  0.2661
 3889SOL    HW123300   1.349   0.711   6.024  2.6909  3.9134  0.1001
 3889SOL    HW223301   1.304   0.853   5.988  0.8811 -0.3482 -1.7080
 3890SOL     OW23302   0.341   1.475   7.486  0.0825 -0.3431  0.3354
 3890SOL    HW123303   0.261   1.527   7.496  0.4288  0.8046 -2.6667
 3890SOL    HW223304   0.322   1.428   7.405  1.2868  0.1091 -0.2253
 3891SOL     OW23305   4.609   0.886  13.299  0.1197 -0.0611  0.0255
 3891SOL    HW123306   4.514   0.883  13.287  0.1724 -0.5959 -0.2771
 3891SOL    HW223307   4.627   0.972  13.336 -3.0817  0.6142  0.0219
 3892SOL     OW23308   3.247   2.107  10.742 -0.0694 -0.1823 -0.2220
 3892SOL    HW123309   3.282   2.019  10.725 -0.9599 -0.9797  2.0332
 3892SOL    HW223310   3.154   2.087  10.757 -0.3627  2.0938  1.0133
 3893SOL     OW23311   1.218   2.512   1.483  0.3846  0.2976 -0.0406
 3893SOL    HW123312   1.206   2.592   1.431 -0.9198  0.6755  0.8200
 3893SOL    HW223313   1.277   2.457   1.432  0.0427  0.8541 -1.0568
 3894SOL     OW23314   3.648   0.088   4.865  0.1079  0.0699  0.0232
 3894SOL    HW123315   3.565   0.041   4.862 -0.0899  0.3087  1.6311
 3894SOL    HW223316   3.636   0.130   4.951 -0.2633  1.8143 -0.8626
 3895SOL     OW23317   4.211   2.253   7.821 -0.1059  0.2383 -0.3314
 3895SOL    HW123318   4.226   2.256   7.726 -3.3128  2.0281 -0.8102
 3895SOL    HW223319   4.275   2.318   7.849 -0.3536  0.5327 -0.4454
 3896SOL     OW23320   0.793   0.280   6.527  0.2213  0.4261 -0.3089
 3896SOL    HW123321   0.724   0.272   6.593  0.6263 -0.8115 -0.0363
 3896SOL    HW223322   0.863   0.291   6.592  0.8300 -1.3859 -0.6644
 3897SOL     OW23323   3.070   1.176  14.830  0.2349  0.1075 -0.1400
 3897SOL    HW123324   3.016   1.097  14.843  0.6042 -0.5796 -2.7683
 3897SOL    HW223325   3.126   1.158  14.755  1.3678 -1.4154  1.0637
 3898SOL     OW23326   4.115   1.543   7.556  0.0412 -0.0515  0.0057
 3898SOL    HW123327   4.154   1.590   7.483 -2.3574  0.4887 -0.9345
 3898SOL    HW223328   4.105   1.612   7.622  0.0236 -1.3409  1.3603
 3899SOL     OW23329   4.330   2.668  17.628  0.0820 -0.2005  1.0931
 3899SOL    HW123330   4.246   2.700  17.660  1.2159  1.8695  2.0120
 3899SOL    HW223331   4.308   2.575  17.629  0.3551 -0.2927 -0.2430
 3900SOL     OW23332   1.230   0.449   6.239  0.0803 -0.0265  0.1005
 3900SOL    HW123333   1.205   0.401   6.318  1.3691 -0.1665  0.4153
 3900SOL    HW223334   1.308   0.410   6.200  1.3146  3.7029 -1.1775
 3901SOL     OW23335   0.658   2.470   4.484 -0.2500 -0.1292 -0.2649
 3901SOL    HW123336   0.643   2.505   4.396 -1.8195 -0.1267  0.0076
 3901SOL    HW223337   0.709   2.545   4.516 -2.4535  1.0516  0.5344
 3902SOL     OW23338   4.055   0.121   3.286 -0.1721  0.0246 -0.2324
 3902SOL    HW123339   4.110   0.064   3.233  1.5617  1.3245  0.1783
 3902SOL    HW223340   4.016   0.065   3.354  0.7918 -0.1231  0.2088
 3903SOL     OW23341   0.571   0.566   5.079 -0.0701 -0.3837  0.7122
 3903SOL    HW123342   0.576   0.646   5.026 -0.5139 -0.0260  1.2105
 3903SOL    HW223343   0.536   0.599   5.162  1.7295 -2.3062  2.2155
 3904SOL     OW23344   2.054   3.142   2.992 -0.8659 -0.4657  0.5205
 3904SOL    HW123345   1.964   3.148   2.959 -0.5815  2.8517  0.3292
 3904SOL    HW223346   2.110   3.164   2.918 -0.8013  1.8695  1.2807
 3905SOL     OW23347   3.101   3.812   1.715 -0.3306  0.3004  0.6794
 3905SOL    HW123348   3.172   3.874   1.731 -0.9371  1.5508 -1.4870
 3905SOL    HW223349   3.152   3.738   1.682  0.1943 -0.1183  2.4110
 3906SOL     OW23350   1.068   0.941   8.104 -0.1434 -0.0780 -0.1069
 3906SOL    HW123351   1.059   0.862   8.157  0.1659 -0.9534 -1.3679
 3906SOL    HW223352   0.975   0.948   8.084  0.2793 -0.4954 -2.1615
 3907SOL     OW23353   2.204   4.031  16.989 -0.3219 -0.2799 -0.5447
 3907SOL    HW123354   2.193   4.107  16.931  2.1382 -0.9768 -1.9118
 3907SOL    HW223355   2.116   3.995  16.985 -0.2506 -0.4276 -0.7482
 3908SOL     OW23356   2.989   3.922   5.445  0.3001  0.2262  1.0701
 3908SOL    HW123357   3.065   3.887   5.491  0.4355  0.7552  1.2472
 3908SOL    HW223358   3.011   3.914   5.353 -0.8936 -1.8759  0.9582
 3909SOL     OW23359   3.744   2.377   1.284 -0.0772 -0.6510 -0.1023
 3909SOL    HW123360   3.690   2.409   1.212  1.8379  1.7919 -0.4535
 3909SOL    HW223361   3.678   2.354   1.351 -2.9107  0.6869 -2.4426
 3910SOL     OW23362   4.466   0.064   7.121 -0.6820  0.3720  0.2214
 3910SOL    HW123363   4.501   0.153   7.109 -1.3189  0.6133  0.1278
 3910SOL    HW223364   4.426   0.061   7.208  1.2064  1.0864  1.1131
 3911SOL     OW23365   4.219   4.095   3.215 -0.1939 -0.5824  0.0114
 3911SOL    HW123366   4.307   4.113   3.183 -0.9969  1.3582 -1.0916
 3911SOL    HW223367   4.192   4.174   3.262 -0.2539 -1.1013  0.8514
 3912SOL     OW23368   3.444   1.305   5.776 -0.1761 -0.6312 -0.5543
 3912SOL    HW123369   3.447   1.261   5.691 -1.5776  0.9763 -1.4274
 3912SOL    HW223370   3.364   1.353   5.755  1.0424  1.3941 -0.5574
 3913SOL     OW23371   0.266   1.767   9.985  0.2566  0.9270  0.6534
 3913SOL    HW123372   0.353   1.747   9.950 -0.4497 -0.9379 -0.0139
 3913SOL    HW223373   0.210   1.741   9.912 -0.6793  2.8947  0.6755
 3914SOL     OW23374   4.453   2.785   5.206  0.4918 -0.0858 -0.1344
 3914SOL    HW123375   4.516   2.749   5.269  1.1589  1.5199  0.1030
 3914SOL    HW223376   4.412   2.702   5.181 -0.6490  0.1808  0.8317
 3915SOL     OW23377   1.362   2.676  17.358  0.7767  0.1227  0.1320
 3915SOL    HW123378   1.284   2.683  17.414  0.7594 -2.4050  0.4074
 3915SOL    HW223379   1.429   2.717  17.413  1.0487  0.2454 -0.2976
 3916SOL     OW23380   1.252   4.475   5.151  0.0665 -0.3805  0.5342
 3916SOL    HW123381   1.262   4.440   5.239 -0.5114  4.1850  2.4357
 3916SOL    HW223382   1.273   4.405   5.089 -1.8567 -2.0708  1.8281
 3917SOL     OW23383   3.480   4.132  14.346  0.6199  0.0924  0.1161
 3917SOL    HW123384   3.422   4.182  14.288  1.6081 -0.5444 -1.4100
 3917SOL    HW223385   3.434   4.049  14.353  0.1503  0.3859  0.5641
 3918SOL     OW23386   3.200   1.548  15.176 -0.4615  0.1802  0.1079
 3918SOL    HW123387   3.273   1.491  15.203 -1.6283  0.3394  3.5103
 3918SOL    HW223388   3.168   1.584  15.258  0.7209  1.1093  0.1649
 3919SOL     OW23389   1.307   3.587   5.326 -0.3124  0.2544 -0.1244
 3919SOL    HW123390   1.306   3.494   5.304 -1.2362 -0.2734  2.1278
 3919SOL    HW223391   1.368   3.579   5.400 -0.4000 -0.1954 -0.0988
 3920SOL     OW23392   2.160   0.030   2.797 -0.0295 -0.2298  0.2371
 3920SOL    HW123393   2.069   0.003   2.807 -0.2434 -0.7004 -3.1852
 3920SOL    HW223394   2.200   4.703   2.855  1.2729  1.9100  1.7746
 3921SOL     OW23395   4.563   2.310   5.507 -0.2283  0.1573 -0.1242
 3921SOL    HW123396   4.645   2.264   5.524 -0.6695 -0.5051  0.2464
 3921SOL    HW223397   4.591   2.399   5.530 -1.1798  0.2422  0.7187
 3922SOL     OW23398   1.980   0.698  13.839 -0.2414 -0.6545  0.2883
 3922SOL    HW123399   1.950   0.722  13.927 -0.9793 -0.9966  0.1282
 3922SOL    HW223400   1.954   0.773  13.787  1.1350 -0.4101 -0.0396
 3923SOL     OW23401   3.560   1.357  10.589  0.3088 -0.1266  0.0485
 3923SOL    HW123402   3.599   1.395  10.510  0.7170 -1.0839 -0.2152
 3923SOL    HW223403   3.586   1.265  10.582  1.7424  0.2773  0.1810
 3924SOL     OW23404   0.698   1.160   9.385  0.2113 -0.5988 -0.2059
 3924SOL    HW123405   0.603   1.167   9.382  0.1469 -1.3202  0.1896
 3924SOL    HW223406   0.717   1.234   9.443 -0.3071  0.7895 -1.8103
 3925SOL     OW23407   2.050   2.485   4.571 -0.2114 -0.7684 -0.0361
 3925SOL    HW123408   2.027   2.575   4.592  1.2966 -0.1720 -0.9790
 3925SOL    HW223409   2.014   2.427   4.639  0.0066  0.6100  1.2654
 3926SOL     OW23410   1.255   4.096  16.644 -0.2314  0.5534  0.4175
 3926SOL    HW123411   1.305   4.113  16.564 -1.3503 -0.5807 -0.5233
 3926SOL    HW223412   1.230   4.005  16.629  0.1592  0.7584 -1.4653
 3927SOL     OW23413   4.706   3.618   8.548 -0.6128  0.1349 -0.1131
 3927SOL    HW123414   4.610   3.612   8.555 -0.5907  1.3370  1.2078
 3927SOL    HW223415   4.731   3.624   8.456 -1.7638 -0.4966 -0.4809
 3928SOL     OW23416   4.347   1.027   9.497  0.2365 -0.1117  0.3258
 3928SOL    HW123417   4.414   0.959   9.508 -0.5206 -0.7166  1.1791
 3928SOL    HW223418   4.302   0.990   9.421 -0.8774 -0.8659  1.3570
 3929SOL     OW23419   4.492   3.375   8.275 -0.7479 -0.2813 -0.3264
 3929SOL    HW123420   4.521   3.358   8.365 -0.1232 -0.2681 -0.5240
 3929SOL    HW223421   4.555   3.441   8.246 -1.1453  0.3888  0.3294
 3930SOL     OW23422   2.302   1.433   2.794  0.6456 -0.0472 -0.2678
 3930SOL    HW123423   2.310   1.523   2.763  2.1217  0.3102  1.1243
 3930SOL    HW223424   2.240   1.445   2.866  0.1177  1.7130 -1.0168
 3931SOL     OW23425   0.963   0.673   9.459  0.2174 -0.6889 -0.6901
 3931SOL    HW123426   0.990   0.731   9.389  0.4051  0.2968  0.1993
 3931SOL    HW223427   0.869   0.680   9.440 -0.4398 -0.2461  2.5969
 3932SOL     OW23428   3.325   2.638   3.019  0.6348 -0.5782  0.0115
 3932SOL    HW123429   3.342   2.727   3.049  0.7875  0.1315 -2.2263
 3932SOL    HW223430   3.411   2.615   2.984  2.7729  0.8045  4.3204
 3933SOL     OW23431   3.127   0.080  14.811 -0.6514  0.2003  0.1306
 3933SOL    HW123432   3.213   0.038  14.807 -0.0223  1.2273  2.7365
 3933SOL    HW223433   3.077   0.045  14.885  1.2683 -1.1152  0.8077
 3934SOL     OW23434   0.676   3.764   2.318  0.3838  0.2039 -0.0611
 3934SOL    HW123435   0.679   3.789   2.410 -1.4857 -1.2566  0.3830
 3934SOL    HW223436   0.634   3.839   2.275 -0.4403 -0.6021 -0.6554
 3935SOL     OW23437   3.319   1.786   6.073  0.5799  0.3353 -0.1412
 3935SOL    HW123438   3.260   1.760   6.144  1.0184 -2.5243 -0.8235
 3935SOL    HW223439   3.267   1.843   6.017  1.0483  0.4460 -0.4668
 3936SOL     OW23440   3.908   2.398   9.324 -0.2539  0.2252 -0.4071
 3936SOL    HW123441   3.889   2.483   9.285 -2.0882  0.8325  1.8143
 3936SOL    HW223442   3.923   2.411   9.417 -1.7260 -0.0622 -0.1246
 3937SOL     OW23443   0.684   3.665   5.383  0.1231  0.6218  0.4921
 3937SOL    HW123444   0.771   3.638   5.353  0.2331  1.7529 -0.2088
 3937SOL    HW223445   0.691   3.761   5.376  1.2986  0.3553 -1.8295
 3938SOL     OW23446   4.287   1.929   2.760 -0.3107  0.1214  0.7351
 3938SOL    HW123447   4.221   1.978   2.711  0.2444  1.8718  1.7466
 3938SOL    HW223448   4.310   1.870   2.688  0.6276  2.0565 -0.5657
 3939SOL     OW23449   2.183   2.463   7.203 -0.0259 -0.1238 -0.2880
 3939SOL    HW123450   2.263   2.413   7.220 -1.4042 -1.5830  1.9873
 3939SOL    HW223451   2.133   2.401   7.150  1.2134  1.6779 -3.5562
 3940SOL     OW23452   3.996   4.447  15.610 -0.1227 -0.0064  0.2386
 3940SOL    HW123453   4.028   4.504  15.680 -0.3606  0.4183  0.0016
 3940SOL    HW223454   4.010   4.511  15.539 -0.1978  0.2471  0.4503
 3941SOL     OW23455   1.967   2.931  10.143 -0.0230 -0.7249  0.2992
 3941SOL    HW123456   2.042   2.960  10.090  0.4473 -1.7052  0.4373
 3941SOL    HW223457   1.913   2.902  10.070 -1.0443 -0.3571  0.9201
 3942SOL     OW23458   0.511   4.612   2.397  0.3417  0.2214  0.0878
 3942SOL    HW123459   0.538   4.575   2.481  0.9220  2.5876  0.9429
 3942SOL    HW223460   0.593   4.616   2.347  0.3994  1.0965  0.2574
 3943SOL     OW23461   2.308   1.994   8.125  0.0023  0.6310 -0.1135
 3943SOL    HW123462   2.359   1.969   8.202 -0.9500 -0.8547  0.0529
 3943SOL    HW223463   2.273   2.082   8.143 -1.1525  0.1588 -0.0442
 3944SOL     OW23464   2.754   3.509   2.932  0.3789  0.8038  0.1850
 3944SOL    HW123465   2.812   3.559   2.875  0.0468  1.2376  0.2227
 3944SOL    HW223466   2.689   3.577   2.948  0.4058  0.6345  1.0048
 3945SOL     OW23467   4.560   1.915   9.273 -0.1431  0.1500 -0.0865
 3945SOL    HW123468   4.618   1.985   9.241 -1.0263  0.5621 -0.8039
 3945SOL    HW223469   4.476   1.939   9.232 -0.1029 -1.2849 -0.9983
 3946SOL     OW23470   2.255   2.953  16.725  0.2226 -0.5463 -0.2144
 3946SOL    HW123471   2.304   3.001  16.659  2.9416  0.6349  2.6768
 3946SOL    HW223472   2.320   2.890  16.757 -1.5564 -1.9257  0.6904
 3947SOL     OW23473   2.481   3.035   8.376 -0.1464  0.2117  0.0417
 3947SOL    HW123474   2.526   2.959   8.341  1.8599  1.2895  0.3043
 3947SOL    HW223475   2.424   2.994   8.441 -0.7378 -1.1742 -1.3658
 3948SOL     OW23476   0.535   4.054  15.620  0.2508 -0.6553 -0.5697
 3948SOL    HW123477   0.524   4.022  15.530 -1.5783  0.1958 -0.6537
 3948SOL    HW223478   0.604   4.120  15.610  1.2636 -1.5935  0.1912
 3949SOL     OW23479   3.510   0.644   4.707 -0.1519  0.0713 -0.8145
 3949SOL    HW123480   3.473   0.728   4.681  1.4380  0.5361 -1.6049
 3949SOL    HW223481   3.597   0.681   4.721 -0.3284 -0.4983  1.7684
 3950SOL     OW23482   1.367   2.103  15.701  0.4719 -0.2283 -0.1829
 3950SOL    HW123483   1.354   2.168  15.631  2.9184 -1.2607 -1.5722
 3950SOL    HW223484   1.314   2.029  15.672  2.4489 -1.1534 -1.4180
 3951SOL     OW23485   3.216   4.160  13.903 -0.5476  0.0991  0.3974
 3951SOL    HW123486   3.128   4.169  13.864 -0.8586 -1.8416  0.6774
 3951SOL    HW223487   3.258   4.238  13.866  2.9038 -0.7852  2.5572
 3952SOL     OW23488   1.188   3.480   7.395  0.3385  0.3490  0.6679
 3952SOL    HW123489   1.239   3.467   7.475  0.5963  0.9998  0.6102
 3952SOL    HW223490   1.122   3.536   7.435 -0.1925  0.5438 -0.4851
 3953SOL     OW23491   0.187   1.547   1.346  1.1242 -0.2584  0.2514
 3953SOL    HW123492   0.241   1.512   1.275 -2.1231  0.5597 -2.6562
 3953SOL    HW223493   0.096   1.530   1.322  1.4956 -3.1843  0.9792
 3954SOL     OW23494   2.609   1.853  12.467 -0.0130 -0.0132 -0.3161
 3954SOL    HW123495   2.595   1.771  12.420 -2.2456 -0.1416  0.5936
 3954SOL    HW223496   2.700   1.846  12.495  0.5066  1.2353 -1.6586
 3955SOL     OW23497   2.006   4.024   4.648 -0.0154 -0.1229  0.3353
 3955SOL    HW123498   2.059   4.066   4.716  0.9822 -0.3394 -0.3166
 3955SOL    HW223499   2.054   4.051   4.569 -1.9612  2.1549 -0.0738
 3956SOL     OW23500   1.552   0.584  14.013  0.2810  0.0664 -0.8107
 3956SOL    HW123501   1.480   0.537  14.056  2.8591 -2.3663  0.8604
 3956SOL    HW223502   1.548   0.660  14.072  1.2861  0.2316 -0.9617
 3957SOL     OW23503   3.469   4.096   6.189 -0.8198  0.0846 -0.1904
 3957SOL    HW123504   3.432   4.050   6.114  1.1834  1.0586 -1.7806
 3957SOL    HW223505   3.418   4.176   6.200  0.2466  0.7957 -0.3665
 3958SOL     OW23506   0.226   1.583   2.521 -0.1252 -0.0416  0.4090
 3958SOL    HW123507   0.153   1.553   2.467 -0.2233 -1.9815  1.6217
 3958SOL    HW223508   0.303   1.540   2.485 -1.2522 -1.6807 -0.0777
 3959SOL     OW23509   1.933   2.638   2.833 -0.4716  0.1217  0.2408
 3959SOL    HW123510   2.023   2.658   2.808 -1.0715 -0.9306 -2.6951
 3959SOL    HW223511   1.940   2.636   2.928  1.0225 -1.5667  0.0876
 3960SOL     OW23512   2.642   4.034  12.277  0.4929 -0.2344 -1.4014
 3960SOL    HW123513   2.733   4.016  12.254  0.4302 -2.0165 -0.2355
 3960SOL    HW223514   2.651   4.119  12.321 -0.9214  1.1022 -3.6588
 3961SOL     OW23515   3.060   1.951   1.013 -0.2652 -0.3505  0.3147
 3961SOL    HW123516   3.005   1.958   0.935 -0.7363  0.0342  0.6791
 3961SOL    HW223517   3.093   2.041   1.016  2.2539 -1.2549 -0.1021
 3962SOL     OW23518   2.438   0.674   8.456  0.4169  0.4575  0.2586
 3962SOL    HW123519   2.534   0.682   8.451  0.5407 -1.8208 -1.2455
 3962SOL    HW223520   2.421   0.590   8.499  0.8960  0.4317  0.4045
 3963SOL     OW23521   1.851   4.675   8.158  0.3194 -0.2377 -0.2144
 3963SOL    HW123522   1.919   4.623   8.200 -0.3642 -1.3480 -0.4937
 3963SOL    HW223523   1.793   4.695   8.232  2.1522  1.1703  0.8420
 3964SOL     OW23524   3.670   0.149   2.923  0.3055  0.1341  0.2411
 3964SOL    HW123525   3.732   0.162   2.994  2.7614  1.2365 -2.0904
 3964SOL    HW223526   3.598   0.104   2.967  0.7334 -0.2046  0.6002
 3965SOL     OW23527   2.399   3.819  13.872 -0.0535  0.2529  0.3552
 3965SOL    HW123528   2.413   3.813  13.777 -2.8152 -0.8850  0.0340
 3965SOL    HW223529   2.473   3.766  13.902 -0.2795  0.2587  0.9124
 3966SOL     OW23530   4.696   1.983   8.247  0.1454  0.4842 -0.4672
 3966SOL    HW123531   0.027   2.037   8.208  0.4849  0.8376  0.6013
 3966SOL    HW223532   4.648   1.946   8.174  1.1532 -0.0435 -0.8600
 3967SOL     OW23533   0.988   2.591  14.591 -0.5119 -0.2270  0.0766
 3967SOL    HW123534   0.926   2.545  14.647  0.2758  0.3211  1.3957
 3967SOL    HW223535   0.984   2.526  14.521 -0.2995  0.6591 -0.7556
 3968SOL     OW23536   3.842   4.661   4.758 -0.5679 -0.3054 -0.3722
 3968SOL    HW123537   3.911   4.717   4.794  0.4160 -0.9893 -1.1504
 3968SOL    HW223538   3.769   4.698   4.808 -0.8974 -0.4905 -0.7194
 3969SOL     OW23539   1.172   1.955  11.516 -0.2336  0.3092  0.6125
 3969SOL    HW123540   1.099   1.898  11.490 -1.8331  1.6280  2.2179
 3969SOL    HW223541   1.123   2.035  11.539  0.8816  0.7912  1.2827
 3970SOL     OW23542   2.781   3.416  12.117 -0.0957  0.3479  0.3139
 3970SOL    HW123543   2.859   3.388  12.164 -1.7508  0.4427  3.1286
 3970SOL    HW223544   2.728   3.444  12.191  0.9168 -1.0115  1.5477
 3971SOL     OW23545   3.070   0.794  14.201 -0.3236 -0.4553 -0.1949
 3971SOL    HW123546   2.996   0.818  14.145 -0.2894  1.6603  0.6834
 3971SOL    HW223547   3.046   0.705  14.226 -1.1733 -1.0180 -3.0306
 3972SOL     OW23548   0.869   2.815   3.393 -0.2981  0.3001  0.7641
 3972SOL    HW123549   0.828   2.902   3.391 -0.5804  0.1272 -1.0942
 3972SOL    HW223550   0.803   2.761   3.348 -2.1860  2.4602  0.9362
 3973SOL     OW23551   3.520   1.478   9.566 -0.4313  1.1380 -0.3053
 3973SOL    HW123552   3.584   1.433   9.511 -0.3340  2.4419 -1.2600
 3973SOL    HW223553   3.429   1.466   9.540 -1.3149  3.7680  1.4836
 3974SOL     OW23554   3.900   1.847   9.540  0.0192 -0.8037 -0.2510
 3974SOL    HW123555   3.969   1.781   9.531  0.0300 -0.7332 -0.6712
 3974SOL    HW223556   3.820   1.794   9.535  0.3516 -1.3536  0.2693
 3975SOL     OW23557   2.796   3.506   4.732  0.1647 -0.1500  0.6996
 3975SOL    HW123558   2.795   3.593   4.693 -2.2042 -0.5755 -0.2262
 3975SOL    HW223559   2.715   3.461   4.708  0.3151  2.0844 -3.9910
 3976SOL     OW23560   3.242   1.409   0.727 -0.0760  0.0110  0.3653
 3976SOL    HW123561   3.298   1.333   0.739  0.4972  0.5872  1.3875
 3976SOL    HW223562   3.302   1.468   0.681  1.0209 -0.8359  0.7041
 3977SOL     OW23563   2.410   3.537  13.542 -0.6834  0.6131  0.2573
 3977SOL    HW123564   2.475   3.567  13.606  0.5723 -0.0958 -0.7013
 3977SOL    HW223565   2.382   3.450  13.570  2.2112 -0.4075 -0.0483
 3978SOL     OW23566   3.938   2.590  16.866  0.6145  0.3209  0.3726
 3978SOL    HW123567   3.864   2.604  16.925 -0.3856  0.3602 -0.8826
 3978SOL    HW223568   3.948   2.673  16.818 -0.5876 -0.8321 -1.8773
 3979SOL     OW23569   3.791   0.729   0.741 -0.3387 -0.2627  1.0733
 3979SOL    HW123570   3.822   0.788   0.810  0.4671 -0.5519  0.9653
 3979SOL    HW223571   3.876   0.695   0.712 -0.3330  0.3560  0.3395
 3980SOL     OW23572   3.936   1.292  14.193  0.2427  0.1822  0.1491
 3980SOL    HW123573   3.852   1.305  14.237  1.5080  0.1328  2.5755
 3980SOL    HW223574   3.940   1.368  14.134 -0.4787 -1.6244 -2.2077
 3981SOL     OW23575   4.247   3.841  11.797 -0.3922  0.5008 -0.0925
 3981SOL    HW123576   4.192   3.769  11.829 -1.4525  1.4919  0.2841
 3981SOL    HW223577   4.302   3.802  11.729 -0.0983  0.1603  0.3409
 3982SOL     OW23578   4.037   3.429   6.900  0.1993  0.1277 -0.1330
 3982SOL    HW123579   4.068   3.346   6.865 -1.4960  0.4086 -2.2919
 3982SOL    HW223580   3.982   3.462   6.829  2.3475  2.1567 -0.8622
 3983SOL     OW23581   2.534   1.219   3.464  0.2901 -0.1489  0.7196
 3983SOL    HW123582   2.490   1.222   3.549 -0.5333  0.6514  0.2682
 3983SOL    HW223583   2.555   1.311   3.443  0.9673  0.1178  2.5507
 3984SOL     OW23584   1.733   3.716  17.731  0.3642  0.0185 -0.1278
 3984SOL    HW123585   1.798   3.782   0.002 -0.3565  0.3288  1.0898
 3984SOL    HW223586   1.799   3.665  17.684 -1.0506 -0.0395 -2.0863
 3985SOL     OW23587   1.614   1.907   3.873 -0.5418  0.2248 -0.2548
 3985SOL    HW123588   1.607   1.848   3.947  1.5410  0.0495 -0.2092
 3985SOL    HW223589   1.695   1.956   3.886  1.0639 -2.8776  1.1780
 3986SOL     OW23590   3.466   2.167   2.491  0.1054  0.0202 -0.1964
 3986SOL    HW123591   3.512   2.192   2.571  0.8524 -0.9708 -0.3135
 3986SOL    HW223592   3.385   2.125   2.522  0.6959 -2.1579 -1.5634
 3987SOL     OW23593   0.783   0.645   2.502  0.1559 -0.2758  0.2629
 3987SOL    HW123594   0.726   0.715   2.469 -0.5226 -0.0283  1.9435
 3987SOL    HW223595   0.725   0.607   2.567  0.9421 -2.7654 -0.4968
 3988SOL     OW23596   2.692   1.567   8.639  0.4593 -0.6256  0.1591
 3988SOL    HW123597   2.624   1.514   8.680  0.3010  0.4031  1.2542
 3988SOL    HW223598   2.719   1.623   8.712 -2.9741  0.6933  0.4322
 3989SOL     OW23599   4.357   0.238   6.308  0.7168  0.7263  0.2082
 3989SOL    HW123600   4.334   0.278   6.392 -1.6504  2.3081 -1.2169
 3989SOL    HW223601   4.325   0.304   6.247  0.0764 -1.0773 -1.4301
 3990SOL     OW23602   2.429   0.342  15.108  0.2143 -0.3957  0.5898
 3990SOL    HW123603   2.418   0.376  15.019 -2.2935 -1.2859  0.5883
 3990SOL    HW223604   2.471   0.261  15.081 -0.5766 -0.9636  1.0747
 3991SOL     OW23605   2.226   3.363   8.024 -0.0319  0.5688 -0.0361
 3991SOL    HW123606   2.213   3.433   7.961  0.4046  0.2473 -0.4820
 3991SOL    HW223607   2.194   3.408   8.102 -0.2326 -0.3055  0.3869
 3992SOL     OW23608   3.588   1.069   5.213  0.0682  0.2370 -0.3617
 3992SOL    HW123609   3.578   0.983   5.255 -0.3252 -0.3891 -1.7558
 3992SOL    HW223610   3.651   1.109   5.273  1.3954 -0.8144 -1.0553
 3993SOL     OW23611   0.139   3.385   0.762  0.4627 -0.5273  0.0779
 3993SOL    HW123612   0.101   3.469   0.739 -1.1205 -1.2265  0.1497
 3993SOL    HW223613   0.091   3.374   0.845  0.8173  2.3274  0.6426
 3994SOL     OW23614   1.785   0.490   7.195  0.1136 -1.3738 -0.6147
 3994SOL    HW123615   1.691   0.482   7.178  0.0491 -1.0230 -0.4251
 3994SOL    HW223616   1.804   0.583   7.188 -0.0516 -1.1857  1.4738
 3995SOL     OW23617   1.066   3.975   3.791  0.3924  0.6169  0.2229
 3995SOL    HW123618   1.059   3.896   3.844  1.8262 -0.3109 -0.9574
 3995SOL    HW223619   1.002   3.953   3.724  0.5976  0.8329 -0.0451
 3996SOL     OW23620   1.457   3.672   0.618  0.2366 -0.1463 -0.1877
 3996SOL    HW123621   1.402   3.632   0.685  1.9604  0.9252  1.8532
 3996SOL    HW223622   1.399   3.694   0.544 -0.3623  1.0672  0.6444
 3997SOL     OW23623   0.425   3.668   8.767 -0.0303  0.3067 -0.3244
 3997SOL    HW123624   0.413   3.662   8.672  0.4150  1.1521 -0.4412
 3997SOL    HW223625   0.353   3.610   8.789  1.5693 -1.1217  1.1042
 3998SOL     OW23626   1.116   3.606   5.670  0.5031  0.0161  0.1070
 3998SOL    HW123627   1.059   3.568   5.603 -2.6598 -0.2016  2.9474
 3998SOL    HW223628   1.053   3.645   5.730  0.9012 -0.3999  0.7941
 3999SOL     OW23629   0.354   0.304  10.307  0.0875 -0.4937  0.2920
 3999SOL    HW123630   0.326   0.396  10.312 -0.9022 -0.6971 -1.5909
 3999SOL    HW223631   0.275   0.250  10.309 -1.5853  1.9391 -1.3398
 4000SOL     OW23632   1.603   3.752   6.526  0.6579  0.6010  0.3824
 4000SOL    HW123633   1.574   3.723   6.612  0.4562  2.8100  1.0757
 4000SOL    HW223634   1.514   3.750   6.489  0.3023  1.1838  1.1922
 4001SOL     OW23635   3.806   1.791   6.947  0.3605 -0.1088 -0.3612
 4001SOL    HW123636   3.830   1.702   6.920 -0.0675 -0.0460 -0.9495
 4001SOL    HW223637   3.855   1.789   7.029  1.7181 -0.6356 -1.1853
 4002SOL     OW23638   0.295   1.002   8.052 -0.3047 -0.3500 -0.2111
 4002SOL    HW123639   0.384   1.031   8.070 -0.1594 -1.2291  0.4731
 4002SOL    HW223640   0.247   1.084   8.067 -1.2562 -1.0611  0.6042
 4003SOL     OW23641   4.189   2.166   8.715  0.1886  0.0362 -0.3368
 4003SOL    HW123642   4.229   2.144   8.630 -2.3004  0.6413 -1.6661
 4003SOL    HW223643   4.197   2.261   8.712 -1.1996  0.1818  1.0810
 4004SOL     OW23644   2.606   0.474  11.922 -0.6906  0.1477  0.0787
 4004SOL    HW123645   2.689   0.499  11.963 -0.6366 -1.5612  1.0094
 4004SOL    HW223646   2.617   0.503  11.831  1.9956  1.4625  0.8286
 4005SOL     OW23647   3.929   2.918  16.901 -0.4468  0.5390  0.0384
 4005SOL    HW123648   3.952   2.982  16.968 -0.9395 -0.3758  1.0773
 4005SOL    HW223649   4.018   2.891  16.880 -0.0481 -0.0885  2.6199
 4006SOL     OW23650   2.455   4.239   2.876 -0.0283  0.5189  0.3226
 4006SOL    HW123651   2.362   4.217   2.874  0.2055 -0.1904 -2.3063
 4006SOL    HW223652   2.491   4.166   2.927  1.9127  0.0625 -1.6989
 4007SOL     OW23653   0.859   4.293   5.414 -0.3128 -0.5593 -0.7782
 4007SOL    HW123654   0.936   4.265   5.463 -0.3262  0.9137  0.0957
 4007SOL    HW223655   0.861   4.235   5.338 -1.5667  0.6693 -1.7518
 4008SOL     OW23656   0.029   3.424   4.719 -0.0182  0.0482 -0.0389
 4008SOL    HW123657   0.100   3.488   4.726 -0.5834  0.6012  0.6583
 4008SOL    HW223658   4.696   3.485   4.700  0.8261 -0.0670 -3.6264
 4009SOL     OW23659   3.934   1.976   3.136  0.4519 -0.3272 -0.3305
 4009SOL    HW123660   3.942   1.987   3.042  2.1492 -0.4487 -0.2050
 4009SOL    HW223661   3.947   2.066   3.164 -1.1714  0.1785 -1.1897
 4010SOL     OW23662   2.519   0.618   2.297  0.0888 -0.1136 -0.7075
 4010SOL    HW123663   2.459   0.676   2.249 -0.2080  0.5200  0.4022
 4010SOL    HW223664   2.550   0.575   2.218  0.2731 -1.0503 -0.1169
 4011SOL     OW23665   1.897   1.851   0.727 -0.4831  0.2175  0.0528
 4011SOL    HW123666   1.885   1.757   0.738 -0.7972  0.2178 -0.2582
 4011SOL    HW223667   1.811   1.892   0.741 -0.3310  0.8561 -0.8427
 4012SOL     OW23668   2.939   0.569   6.092 -0.2142  0.0165  0.0306
 4012SOL    HW123669   2.929   0.645   6.150 -1.6412  0.3048 -0.6109
 4012SOL    HW223670   3.026   0.590   6.057 -0.0052 -2.1763 -0.7489
 4013SOL     OW23671   3.817   1.229   7.688  0.1428 -0.2953 -0.7135
 4013SOL    HW123672   3.851   1.204   7.774 -0.1716  0.1174 -0.4698
 4013SOL    HW223673   3.819   1.324   7.686 -0.0608 -0.2256  2.6448
 4014SOL     OW23674   1.081   2.530   4.768  0.1293  0.0558  0.5611
 4014SOL    HW123675   1.064   2.459   4.830  2.7900 -0.3021  0.8475
 4014SOL    HW223676   1.079   2.489   4.681 -2.0831 -0.3416  0.7838
 4015SOL     OW23677   2.685   1.471   3.624  0.0187 -0.2088  0.0494
 4015SOL    HW123678   2.630   1.543   3.655  1.1706  0.6372  0.1439
 4015SOL    HW223679   2.664   1.395   3.678  2.6180 -0.2430  1.0253
 4016SOL     OW23680   3.948   1.260   2.139  0.2509 -0.0923 -0.0050
 4016SOL    HW123681   3.894   1.193   2.097 -2.9444  1.9169  0.9177
 4016SOL    HW223682   4.037   1.227   2.131  1.1124  2.0949  0.5816
 4017SOL     OW23683   3.184   3.686   7.563  0.4236 -0.1549  0.1453
 4017SOL    HW123684   3.248   3.639   7.616  0.2519 -0.2393  0.2778
 4017SOL    HW223685   3.221   3.660   7.479 -2.4987 -0.0670 -1.1769
 4018SOL     OW23686   1.108   2.769  14.029 -0.3904  0.7957 -0.0548
 4018SOL    HW123687   1.163   2.811  14.096 -0.3681  3.2027 -1.5783
 4018SOL    HW223688   1.173   2.739  13.965  0.3029  2.8947 -0.3354
 4019SOL     OW23689   0.965   3.217   7.042 -0.0842 -0.2292 -0.5765
 4019SOL    HW123690   0.873   3.191   7.042 -0.3492  0.7258 -0.1802
 4019SOL    HW223691   0.956   3.256   7.129  2.2006  0.6745 -0.7466
 4020SOL     OW23692   1.852   3.165   2.121 -0.2177 -0.0287  0.1953
 4020SOL    HW123693   1.821   3.220   2.050 -0.9382  0.1749  0.6689
 4020SOL    HW223694   1.813   3.205   2.199 -0.8033 -0.2926  0.0387
 4021SOL     OW23695   2.564   2.176  12.112  0.0255 -0.3872  0.0605
 4021SOL    HW123696   2.523   2.163  12.198  1.7888  1.4246  1.1555
 4021SOL    HW223697   2.554   2.090  12.070  0.8888 -1.3301  1.8033
 4022SOL     OW23698   1.179   1.763   8.212  0.0769 -0.0729 -0.0351
 4022SOL    HW123699   1.182   1.846   8.164 -0.0591  0.2608  0.5333
 4022SOL    HW223700   1.085   1.748   8.200  0.4184 -0.5754 -2.1790
 4023SOL     OW23701   0.581   0.922   6.391 -0.0450  0.2063 -0.2542
 4023SOL    HW123702   0.562   0.869   6.468  2.0555  1.8477  1.4250
 4023SOL    HW223703   0.648   0.981   6.426  2.1447 -3.1110  1.0934
 4024SOL     OW23704   2.952   2.892   0.022  0.6670 -0.2799  0.2528
 4024SOL    HW123705   2.970   2.984   0.042 -2.7143  0.0305  1.7672
 4024SOL    HW223706   2.897   2.904  17.697 -0.1620  0.0933  0.9147
 4025SOL     OW23707   3.680   1.755   5.232 -0.4556  0.4999  0.3436
 4025SOL    HW123708   3.621   1.687   5.199  1.6566 -1.0870 -0.2011
 4025SOL    HW223709   3.626   1.833   5.242 -0.9711  0.0459  1.1011
 4026SOL     OW23710   1.243   0.645  12.042 -0.2886 -0.0989  0.2524
 4026SOL    HW123711   1.312   0.709  12.022  0.1197 -0.1852  1.4360
 4026SOL    HW223712   1.197   0.651  11.958  0.3786 -0.4734 -0.1340
 4027SOL     OW23713   2.675   3.709  13.434  0.7854 -0.0208  0.1348
 4027SOL    HW123714   2.639   3.740  13.351  0.3132  1.1473  0.7769
 4027SOL    HW223715   2.644   3.619  13.436 -0.5013  0.4351  0.6571
 4028SOL     OW23716   0.904   3.431  11.297  0.2042 -0.6129  0.3850
 4028SOL    HW123717   0.895   3.469  11.384 -2.7085 -0.3757 -0.0448
 4028SOL    HW223718   0.942   3.500  11.243  1.2373 -0.5412  1.1980
 4029SOL     OW23719   0.649   4.007   3.160  0.0009  0.9664 -0.4133
 4029SOL    HW123720   0.639   3.950   3.084 -2.6086 -2.4830  2.5673
 4029SOL    HW223721   0.671   3.946   3.231 -1.0055  0.0216 -0.9343
 4030SOL     OW23722   1.188   0.093   6.129 -0.1230 -0.4552  0.1069
 4030SOL    HW123723   1.259   0.155   6.142 -1.5338  0.9661  1.0128
 4030SOL    HW223724   1.116   0.152   6.153  1.8039  2.1387 -0.4902
 4031SOL     OW23725   4.676   0.818   2.649 -0.0376 -0.2848 -0.3240
 4031SOL    HW123726   4.689   0.789   2.559  1.3579 -0.5609 -0.0273
 4031SOL    HW223727   4.601   0.766   2.677 -1.8057  2.8391  0.7577
 4032SOL     OW23728   0.986   3.441   2.216  0.0234  0.1657  0.3979
 4032SOL    HW123729   1.005   3.520   2.266  0.6303 -0.8345  1.7452
 4032SOL    HW223730   0.893   3.461   2.200 -0.1174 -1.1533 -0.3880
 4033SOL     OW23731   1.114   0.266   6.430  0.1502  0.5746  0.0721
 4033SOL    HW123732   1.048   0.277   6.499 -0.3038  0.5981 -0.3650
 4033SOL    HW223733   1.066   0.221   6.360  0.8334 -1.1811  0.7426
 4034SOL     OW23734   0.953   0.853   7.408  0.7047  0.0496 -0.2897
 4034SOL    HW123735   0.962   0.894   7.494 -0.5529  1.7002 -0.9288
 4034SOL    HW223736   0.860   0.857   7.387  0.6413 -0.3938 -0.1041
 4035SOL     OW23737   0.841   2.710   8.828  0.1047 -0.3338 -0.0308
 4035SOL    HW123738   0.925   2.725   8.871 -0.6270 -0.7838  1.5470
 4035SOL    HW223739   0.826   2.616   8.822  0.6628 -0.3310 -1.3810
 4036SOL     OW23740   1.536   1.691   2.280  0.1016 -0.3119 -0.3843
 4036SOL    HW123741   1.540   1.656   2.191 -3.1578  2.2850 -1.5561
 4036SOL    HW223742   1.625   1.726   2.283 -0.2359  0.3619  1.5116
 4037SOL     OW23743   2.163   0.834   6.738 -0.1599 -0.1392  0.4197
 4037SOL    HW123744   2.212   0.801   6.813  0.5428 -0.3141 -0.1137
 4037SOL    HW223745   2.126   0.757   6.695 -0.8152  0.0085  0.7171
 4038SOL     OW23746   2.808   3.162   8.303  0.0174 -0.1295 -0.9800
 4038SOL    HW123747   2.848   3.075   8.307  0.3350  0.1004  1.0461
 4038SOL    HW223748   2.885   3.210   8.336 -1.1459  1.1208 -0.0866
 4039SOL     OW23749   4.188   4.633   3.964 -0.3714 -0.0186  0.2097
 4039SOL    HW123750   4.113   4.607   4.017 -0.2784  2.2494  1.4588
 4039SOL    HW223751   4.177   4.726   3.945 -0.1972 -0.1835 -0.6882
 4040SOL     OW23752   0.233   4.512   5.715  0.1852 -0.1845  0.2794
 4040SOL    HW123753   0.205   4.604   5.708 -1.5840 -0.7322  0.1500
 4040SOL    HW223754   0.229   4.496   5.621  2.1323  3.3996 -0.4164
 4041SOL     OW23755   4.403   2.073  11.839 -0.5732  0.2003 -0.6748
 4041SOL    HW123756   4.382   1.984  11.867 -1.2626  1.0958  1.6238
 4041SOL    HW223757   4.487   2.092  11.881 -1.6500  0.2307  1.4449
 4042SOL     OW23758   2.003   3.930   7.092  0.2434 -0.5636 -0.4949
 4042SOL    HW123759   2.036   3.989   7.025  0.3932 -1.1760 -0.9617
 4042SOL    HW223760   2.040   3.844   7.070  2.6691 -0.0700  1.5897
 4043SOL     OW23761   4.501   4.049  17.540  0.5048 -0.3747  0.1742
 4043SOL    HW123762   4.507   4.106  17.463 -2.5639 -0.9438 -0.5206
 4043SOL    HW223763   4.535   3.971  17.496  0.8678 -0.2958  0.3154
 4044SOL     OW23764   0.501   3.242   0.036  0.2783 -0.0962  0.2064
 4044SOL    HW123765   0.479   3.320   0.086 -1.7011 -0.1106 -0.6380
 4044SOL    HW223766   0.413   3.210   0.018  0.0257 -0.0121  1.2816
 4045SOL     OW23767   4.479   1.810   9.824  0.7773 -1.0350  0.7989
 4045SOL    HW123768   4.394   1.841   9.792  0.7796 -0.9249  0.9003
 4045SOL    HW223769   4.498   1.746   9.756  1.8188 -0.5831  0.6644
 4046SOL     OW23770   3.110   0.993   0.050  0.7819  0.2079 -0.0484
 4046SOL    HW123771   3.033   1.044   0.076  0.6097 -0.9586  1.6824
 4046SOL    HW223772   3.105   1.012  17.707 -2.9971 -0.4166  0.0205
 4047SOL     OW23773   0.411   0.958  13.865 -0.1619  0.6110 -0.2765
 4047SOL    HW123774   0.446   0.872  13.887 -0.0973  1.3217  2.4018
 4047SOL    HW223775   0.483   1.021  13.874 -1.7072  2.4261 -0.7218
 4048SOL     OW23776   1.649   2.467   4.615 -0.1134  0.6499 -0.3552
 4048SOL    HW123777   1.635   2.441   4.524  0.5082 -0.9347 -0.0077
 4048SOL    HW223778   1.581   2.423   4.666 -0.2687  1.2486 -0.0493
 4049SOL     OW23779   3.762   1.686  14.562 -1.1266 -0.8354  0.8435
 4049SOL    HW123780   3.770   1.594  14.537 -0.6882 -1.0137  1.6249
 4049SOL    HW223781   3.669   1.707  14.552 -0.3892  0.4621 -3.3950
 4050SOL     OW23782   0.841   1.157   9.823  0.3462 -0.0555  0.1269
 4050SOL    HW123783   0.748   1.134   9.818  0.3331 -0.3203  1.8782
 4050SOL    HW223784   0.849   1.175   9.916  3.4733 -0.2172 -0.1027
 4051SOL     OW23785   0.300   3.729  17.339 -0.1113  0.4500 -0.0687
 4051SOL    HW123786   0.351   3.652  17.364 -1.1703 -0.0268  0.6266
 4051SOL    HW223787   0.268   3.761  17.423  0.8502 -3.5566  1.8272
 4052SOL     OW23788   3.546   2.114   4.997  0.2397  0.1843 -0.6222
 4052SOL    HW123789   3.549   2.104   5.092 -0.4217  3.3169 -0.2995
 4052SOL    HW223790   3.611   2.183   4.984  0.0346  0.0072 -2.5609
 4053SOL     OW23791   4.620   4.130   1.575 -0.3206 -0.2273 -0.2582
 4053SOL    HW123792   4.682   4.065   1.610  2.2366  0.9726 -2.5336
 4053SOL    HW223793   4.666   4.184   1.511 -0.2750 -0.5425 -0.4905
 4054SOL     OW23794   0.209   0.885   1.214 -0.2552 -0.1749 -0.3318
 4054SOL    HW123795   0.282   0.826   1.233  0.3522  0.4534 -0.6990
 4054SOL    HW223796   0.163   0.900   1.297 -0.9249 -2.1730 -0.3497
 4055SOL     OW23797   2.531   1.680   8.390  0.0965  0.0752  0.0241
 4055SOL    HW123798   2.625   1.671   8.410 -0.6023 -4.2355  1.4404
 4055SOL    HW223799   2.493   1.634   8.465 -2.5216 -0.8758 -1.9070
 4056SOL     OW23800   0.463   4.469   4.713 -0.3614 -0.1596 -0.4405
 4056SOL    HW123801   0.523   4.401   4.683  0.6084  0.1071  0.9356
 4056SOL    HW223802   0.530   4.520   4.759 -1.9201 -0.0783  1.7218
 4057SOL     OW23803   0.521   1.301   7.224  0.2242 -0.1810 -0.3042
 4057SOL    HW123804   0.509   1.227   7.284  0.7900 -0.0494 -0.0414
 4057SOL    HW223805   0.436   1.300   7.179 -0.0297  0.1279  0.1767
 4058SOL     OW23806   2.051   0.925   1.877 -0.1590  0.2041  0.2797
 4058SOL    HW123807   2.040   0.910   1.783 -2.3583 -0.3752  0.6503
 4058SOL    HW223808   2.146   0.938   1.885 -0.5354  1.2138  3.1965
 4059SOL     OW23809   4.682   0.668   3.846  0.1789 -0.0550  0.5782
 4059SOL    HW123810   4.652   0.662   3.936 -0.4615 -1.9741  0.2468
 4059SOL    HW223811   4.720   0.581   3.833 -0.3148 -0.2639  0.5373
 4060SOL     OW23812   2.051   1.973   2.060  0.5840 -0.1212 -0.3669
 4060SOL    HW123813   1.971   2.000   2.015  0.1551 -1.3486 -0.3395
 4060SOL    HW223814   2.079   2.063   2.074  1.6939 -0.2349 -1.9543
 4061SOL     OW23815   1.657   2.435   2.639  0.1242 -0.1222  0.3734
 4061SOL    HW123816   1.578   2.386   2.664 -0.6970  0.8924 -0.2100
 4061SOL    HW223817   1.733   2.402   2.686 -1.8336 -1.8587  2.3521
 4062SOL     OW23818   1.523   0.505   7.159 -0.0927  0.6175  0.3287
 4062SOL    HW123819   1.505   0.429   7.103  0.0078  0.4332  0.5479
 4062SOL    HW223820   1.479   0.464   7.233  0.2674  1.5222  1.0433
 4063SOL     OW23821   4.263   2.808   6.353  0.0084  0.2334 -0.5220
 4063SOL    HW123822   4.284   2.801   6.446  0.5247 -0.0726 -0.6611
 4063SOL    HW223823   4.308   2.729   6.321 -1.3094  0.5420 -3.1398
 4064SOL     OW23824   3.990   2.870   6.302 -0.1590  0.4875 -0.0582
 4064SOL    HW123825   3.959   2.825   6.381 -1.5830 -0.2674 -1.0457
 4064SOL    HW223826   4.082   2.857   6.322 -0.1099  1.8216  0.5376
 4065SOL     OW23827   1.301   4.346   5.986 -1.0212 -0.1274  0.3139
 4065SOL    HW123828   1.330   4.300   5.907  1.7717  1.4818  0.4272
 4065SOL    HW223829   1.299   4.272   6.048 -0.4022  0.0981  0.6063
 4066SOL     OW23830   3.817   3.904   8.085  0.5352  0.6018 -0.1594
 4066SOL    HW123831   3.762   3.972   8.122 -0.8837 -1.5891  1.7620
 4066SOL    HW223832   3.836   3.949   8.002 -2.6207  0.6960 -0.8159
 4067SOL     OW23833   2.803   4.586   5.182 -0.3250  0.5811 -0.2287
 4067SOL    HW123834   2.763   4.667   5.149 -0.2481  1.4344  1.7799
 4067SOL    HW223835   2.739   4.552   5.245 -0.9487 -0.9720 -1.6995
 4068SOL     OW23836   0.574   4.222   4.652  0.7927 -0.0869  0.1943
 4068SOL    HW123837   0.607   4.177   4.575  2.3917  0.8494  0.3353
 4068SOL    HW223838   0.622   4.167   4.714  1.2643 -2.2951 -2.1408
 4069SOL     OW23839   0.672   3.856   6.745  0.4318 -0.5472 -0.1207
 4069SOL    HW123840   0.624   3.842   6.663 -0.4264  0.3308  0.2380
 4069SOL    HW223841   0.601   3.885   6.802  0.0404  0.4953 -1.1477
 4070SOL     OW23842   3.414   3.002   0.040 -0.4421 -0.2078 -0.2169
 4070SOL    HW123843   3.493   2.950   0.025 -0.5476 -0.0456 -1.2894
 4070SOL    HW223844   3.353   2.930   0.053 -1.6480  0.7251 -0.6396
 4071SOL     OW23845   2.163   1.503   3.037  0.2026 -0.1240 -0.1859
 4071SOL    HW123846   2.167   1.494   3.132 -0.2016  2.0650  0.0416
 4071SOL    HW223847   2.155   1.599   3.033 -1.6970 -0.2815  0.1178
 4072SOL     OW23848   2.376   2.683   7.740  0.0359  0.3816  0.1815
 4072SOL    HW123849   2.353   2.598   7.778 -1.2690 -0.5997 -2.8077
 4072SOL    HW223850   2.453   2.655   7.690 -0.7627 -0.8052 -0.3736
 4073SOL     OW23851   1.139   4.547  13.855 -0.1666  0.1028  0.0396
 4073SOL    HW123852   1.161   4.518  13.943 -0.3520  0.3589  0.1719
 4073SOL    HW223853   1.205   4.498  13.806 -0.4473  1.7173 -1.9939
 4074SOL     OW23854   1.193   4.294  12.099  0.2521  0.4193 -0.3458
 4074SOL    HW123855   1.221   4.370  12.048  0.9339 -0.0372 -0.6601
 4074SOL    HW223856   1.188   4.215  12.045  0.7973  1.1412 -1.4638
 4075SOL     OW23857   4.019   0.819   2.201  0.5843 -0.5165 -0.2249
 4075SOL    HW123858   4.053   0.857   2.120  0.7653  1.3252  0.7148
 4075SOL    HW223859   4.094   0.825   2.261  0.4526  1.0646 -0.2131
 4076SOL     OW23860   1.082   3.338   4.363  0.2291  0.5400  0.7942
 4076SOL    HW123861   1.107   3.254   4.403  2.6169 -0.5100 -2.9304
 4076SOL    HW223862   1.027   3.313   4.289  0.1524  1.3537  0.5739
 4077SOL     OW23863   2.872   4.584   7.214 -0.6636  0.1842  0.1328
 4077SOL    HW123864   2.845   4.662   7.261  2.5078  0.7575  1.0503
 4077SOL    HW223865   2.784   4.547   7.220 -1.0518  1.1540  0.3645
 4078SOL     OW23866   2.707   1.131  16.995  0.4491  0.2196 -0.2220
 4078SOL    HW123867   2.656   1.129  16.915  0.3732  1.6360 -0.1986
 4078SOL    HW223868   2.645   1.085  17.052  0.0819  1.0713  0.0561
 4079SOL     OW23869   1.568   3.819   7.866  0.0800 -0.6297 -0.0813
 4079SOL    HW123870   1.598   3.884   7.930  0.7501 -1.9242  0.9274
 4079SOL    HW223871   1.633   3.821   7.796 -0.7067 -0.5824 -0.8093
 4080SOL     OW23872   3.601   2.663   2.656  0.0900  0.1102  0.6238
 4080SOL    HW123873   3.667   2.729   2.634 -0.3865  1.6744  3.7863
 4080SOL    HW223874   3.529   2.702   2.606 -0.2822 -1.4380 -0.0308
 4081SOL     OW23875   4.522   2.894  12.064  0.3766 -0.4656  0.6716
 4081SOL    HW123876   4.570   2.914  11.984 -1.5573 -0.2105 -0.4398
 4081SOL    HW223877   4.579   2.934  12.129 -0.0264 -0.2781  0.9112
 4082SOL     OW23878   3.522   3.218   5.093 -0.1245  0.2667  0.4225
 4082SOL    HW123879   3.459   3.289   5.106 -0.3148  0.1233  0.2972
 4082SOL    HW223880   3.525   3.219   4.997  0.5233  0.7317  0.4483
 4083SOL     OW23881   0.859   1.806   5.846  0.4829 -0.7539  0.1633
 4083SOL    HW123882   0.906   1.773   5.770 -1.1758  0.5995 -1.4316
 4083SOL    HW223883   0.908   1.877   5.888 -0.1990 -1.8019  2.7508
 4084SOL     OW23884   3.393   2.285   0.220  0.0999 -0.0371  0.0182
 4084SOL    HW123885   3.404   2.215   0.284  0.7059  0.4499  0.4438
 4084SOL    HW223886   3.306   2.274   0.181 -0.7933  1.6833  1.4992
 4085SOL     OW23887   4.144   4.344   7.982  0.0344  0.0294 -0.8266
 4085SOL    HW123888   4.170   4.319   8.071 -1.5425 -0.6909 -0.5683
 4085SOL    HW223889   4.232   4.365   7.952  0.5320  0.6872  1.0596
 4086SOL     OW23890   3.059   0.358  11.554  0.5859  0.3898 -0.1044
 4086SOL    HW123891   2.972   0.365  11.514 -0.5892 -1.2456  2.1545
 4086SOL    HW223892   3.112   0.431  11.522 -0.3863  1.3200  0.4115
 4087SOL     OW23893   3.346   4.543   9.017 -0.3250  0.0818 -0.5900
 4087SOL    HW123894   3.423   4.533   8.962 -0.8932 -1.7773 -1.0599
 4087SOL    HW223895   3.321   4.451   9.031 -0.0533  0.4004  2.1152
 4088SOL     OW23896   2.843   0.725  11.354 -0.4168 -1.0156  0.3765
 4088SOL    HW123897   2.895   0.645  11.346  0.8139 -0.1459 -0.4505
 4088SOL    HW223898   2.875   0.762  11.271 -2.2473 -1.7829 -0.6872
 4089SOL     OW23899   3.345   0.344   4.823  0.5753 -0.1910  0.6759
 4089SOL    HW123900   3.345   0.286   4.899 -0.3745 -1.1189 -0.0217
 4089SOL    HW223901   3.362   0.431   4.858 -1.3791 -0.1617  1.5413
 4090SOL     OW23902   3.544   4.405  14.726  0.1243  0.2656 -0.1673
 4090SOL    HW123903   3.628   4.390  14.769  0.0327  2.3255  0.7524
 4090SOL    HW223904   3.494   4.326  14.746  0.1069  0.2837 -0.1382
 4091SOL     OW23905   2.246   4.673   4.835 -0.9039 -0.0147 -0.2562
 4091SOL    HW123906   2.178   4.717   4.886 -0.7340  0.5025 -0.4726
 4091SOL    HW223907   2.264   4.729   4.759 -0.1174  0.9509  0.6418
 4092SOL     OW23908   2.203   2.389   0.522 -0.6595 -0.3085 -0.4900
 4092SOL    HW123909   2.220   2.349   0.437  0.4269 -1.1439  0.1212
 4092SOL    HW223910   2.269   2.459   0.528  0.2111 -1.0974 -0.8969
 4093SOL     OW23911   1.157   0.588   6.864  0.0684  0.0485  0.4075
 4093SOL    HW123912   1.239   0.634   6.877 -0.0332 -0.2838  2.2717
 4093SOL    HW223913   1.118   0.635   6.790  2.1400  0.0827 -0.6605
 4094SOL     OW23914   2.082   4.358   4.510  0.0533  0.1733  0.1047
 4094SOL    HW123915   2.119   4.441   4.480  0.4985  0.9466  2.7592
 4094SOL    HW223916   2.063   4.372   4.603  2.0417 -0.5081  0.6100
 4095SOL     OW23917   1.221   2.964  13.611  0.1248 -0.3606  0.1975
 4095SOL    HW123918   1.198   3.056  13.625 -1.2528 -0.8417  1.1431
 4095SOL    HW223919   1.309   2.969  13.648 -0.7258  1.3668  2.0474
 4096SOL     OW23920   4.722   3.706  16.539  0.5818 -0.2050  0.2020
 4096SOL    HW123921   4.728   3.697  16.444 -3.1589 -1.8446  0.1204
 4096SOL    HW223922   0.070   3.744  16.555  0.3380  0.2439  0.4652
 4097SOL     OW23923   4.476   0.940   4.330  0.1715  0.2625 -0.3423
 4097SOL    HW123924   4.413   0.870   4.317  3.1170 -2.7723  1.9280
 4097SOL    HW223925   4.432   0.980   4.406  1.6785 -0.3369  0.8460
 4098SOL     OW23926   0.248   3.149   0.665 -0.1638  0.1092 -0.7348
 4098SOL    HW123927   0.185   3.216   0.691 -0.1561 -0.1438 -0.0478
 4098SOL    HW223928   0.204   3.069   0.693  0.8493  0.8979  3.1234
 4099SOL     OW23929   1.306   1.637   2.719 -0.1849  0.0761  0.5556
 4099SOL    HW123930   1.234   1.687   2.679 -1.6488 -1.0257  1.8420
 4099SOL    HW223931   1.283   1.638   2.812  0.2901  1.2268  0.6619
 4100SOL     OW23932   4.066   4.096   5.763 -0.1072 -0.1048  0.1104
 4100SOL    HW123933   4.058   4.179   5.717  1.0696  0.9150  1.7648
 4100SOL    HW223934   4.032   4.117   5.850  2.4784 -1.2692  1.4100
 4101SOL     OW23935   3.088   2.210   8.091  0.3693  0.2351  0.1180
 4101SOL    HW123936   3.122   2.199   8.002 -1.2386 -1.0459 -0.3394
 4101SOL    HW223937   3.000   2.240   8.069  0.4032 -0.1978 -0.6077
 4102SOL     OW23938   4.193   2.259   4.970  0.1597  0.3899 -0.6213
 4102SOL    HW123939   4.196   2.212   5.053  1.0362 -0.0560 -0.9069
 4102SOL    HW223940   4.119   2.217   4.926  3.7940 -3.0934 -3.3707
 4103SOL     OW23941   0.938   1.776  11.039  0.0679 -0.4322  0.4061
 4103SOL    HW123942   0.962   1.868  11.029 -0.6376 -0.1902  0.8861
 4103SOL    HW223943   1.006   1.731  10.989  0.2759 -0.1671  0.4462
 4104SOL     OW23944   3.947   0.763   3.198  0.1240  0.6066  0.1141
 4104SOL    HW123945   3.920   0.848   3.164 -1.0837 -0.9309 -2.7337
 4104SOL    HW223946   3.945   0.784   3.292  0.2752 -1.3702  0.5445
 4105SOL     OW23947   0.899   4.562   5.058 -0.5492  0.4511 -0.6171
 4105SOL    HW123948   0.902   4.568   5.154 -0.4281 -0.1935 -0.5786
 4105SOL    HW223949   0.866   4.648   5.032  0.0890  0.7361 -0.4980
 4106SOL     OW23950   3.744   2.769   0.241  0.0091 -0.3349 -0.1273
 4106SOL    HW123951   3.658   2.726   0.237  1.0888 -2.4309 -1.1459
 4106SOL    HW223952   3.732   2.837   0.175  1.7365  0.5222  0.4508
 4107SOL     OW23953   0.560   2.193   7.480  0.5818  0.7836  0.1451
 4107SOL    HW123954   0.587   2.256   7.413 -2.7707  1.1247 -0.8581
 4107SOL    HW223955   0.510   2.122   7.442 -0.6711  2.8711 -2.1091
 4108SOL     OW23956   4.737   4.157   7.390 -0.0627 -0.4537  0.1382
 4108SOL    HW123957   4.735   4.160   7.294 -0.9261 -3.4673  0.0724
 4108SOL    HW223958   4.643   4.173   7.398  0.3143  1.2192  1.1805
 4109SOL     OW23959   0.584   2.143   8.638  0.1131  0.5245 -0.1758
 4109SOL    HW123960   0.612   2.127   8.728  1.6507 -0.0118 -0.7598
 4109SOL    HW223961   0.638   2.087   8.582  0.5792  1.5757 -0.7665
 4110SOL     OW23962   2.339   4.459   8.290  0.0881  0.0341  0.4579
 4110SOL    HW123963   2.402   4.387   8.275  1.1032  0.8641  0.7267
 4110SOL    HW223964   2.346   4.518   8.215 -0.7173 -0.2111  0.1907
 4111SOL     OW23965   2.115   0.171   8.429  0.6718  0.1938  0.6314
 4111SOL    HW123966   2.022   0.184   8.451  0.2514 -1.3850 -0.1857
 4111SOL    HW223967   2.115   0.076   8.416 -0.4410  0.6280 -2.4162
 4112SOL     OW23968   4.113   0.473  14.711  0.2393 -0.0078 -0.0660
 4112SOL    HW123969   4.023   0.492  14.684  0.4791  0.6022 -0.4452
 4112SOL    HW223970   4.116   0.377  14.708  0.5715  0.0505 -1.6824
 4113SOL     OW23971   4.058   2.011   7.807 -0.0260 -0.2581  0.3695
 4113SOL    HW123972   4.091   2.094   7.843 -2.8785  2.1226 -2.4821
 4113SOL    HW223973   3.983   2.038   7.754  0.5405 -0.3536 -0.4872
 4114SOL     OW23974   4.102   0.058  10.779  0.1603 -0.3478 -0.7644
 4114SOL    HW123975   4.104   4.700  10.788 -3.9382 -0.0879  2.8968
 4114SOL    HW223976   4.080   0.071  10.871  1.3098  0.0424 -0.5382
 4115SOL     OW23977   0.498   0.644   8.263  0.1356  0.0965 -0.0741
 4115SOL    HW123978   0.462   0.661   8.350  0.1124  0.0998 -0.0843
 4115SOL    HW223979   0.570   0.593   8.300 -0.9495 -0.5450  1.1766
 4116SOL     OW23980   2.966   3.136  16.254  0.5003  0.3843  0.0826
 4116SOL    HW123981   2.911   3.107  16.327  0.0717 -1.8923 -1.1649
 4116SOL    HW223982   2.937   3.227  16.240  1.3971  0.9730  2.0409
 4117SOL     OW23983   2.860   4.342  15.830  0.4101  0.1784 -0.2274
 4117SOL    HW123984   2.779   4.294  15.810  0.1863 -0.2552  1.6741
 4117SOL    HW223985   2.848   4.366  15.922  0.5903 -0.4844 -0.0282
 4118SOL     OW23986   3.283   3.673   1.572 -0.0467 -0.2068 -0.3712
 4118SOL    HW123987   3.353   3.736   1.558  0.5791 -0.7587  0.2623
 4118SOL    HW223988   3.315   3.615   1.641  0.2311 -0.4878 -0.7414
 4119SOL     OW23989   3.383   0.656   3.472 -0.1359 -0.5893 -0.0636
 4119SOL    HW123990   3.431   0.734   3.498 -0.3270  0.0056 -1.5250
 4119SOL    HW223991   3.346   0.619   3.552  2.3409  1.6537  2.1122
 4120SOL     OW23992   4.225   1.374   1.308 -0.8911 -0.2725 -0.0776
 4120SOL    HW123993   4.201   1.465   1.290 -0.0817 -0.4914 -2.3121
 4120SOL    HW223994   4.211   1.367   1.403 -2.9328 -0.3625 -0.3839
 4121SOL     OW23995   2.192   3.155   2.179 -0.3667 -0.4831 -0.3325
 4121SOL    HW123996   2.184   3.125   2.270  0.7344 -0.9741 -0.3841
 4121SOL    HW223997   2.257   3.224   2.190  0.8363 -1.3769 -1.8261
 4122SOL     OW23998   2.451   4.192   4.818  0.2179  0.5553 -0.1757
 4122SOL    HW123999   2.355   4.193   4.819  0.1778 -1.9621 -0.5883
 4122SOL    HW224000   2.466   4.253   4.745 -1.8334  0.6405 -0.5306
 4123SOL     OW24001   3.268   2.844   9.827 -0.6223  0.2380  0.5736
 4123SOL    HW124002   3.324   2.832   9.750 -2.6172 -2.0678 -0.5058
 4123SOL    HW224003   3.260   2.756   9.861  0.7795 -1.5398 -3.6593
 4124SOL     OW24004   2.438   0.468   4.867 -0.2853  0.1546  0.2863
 4124SOL    HW124005   2.356   0.486   4.821 -1.1026  0.8293  1.9845
 4124SOL    HW224006   2.419   0.406   4.938 -0.3508  0.8828  0.9069
 4125SOL     OW24007   1.650   2.696  15.616  0.5662  0.1751 -0.2328
 4125SOL    HW124008   1.605   2.633  15.558  1.7835 -0.2720 -0.6917
 4125SOL    HW224009   1.606   2.777  15.592  1.9251  1.1459  0.6055
 4126SOL     OW24010   3.465   4.715  17.409  0.7609 -0.2406 -0.1291
 4126SOL    HW124011   3.544   0.031  17.416 -1.0380  2.2944  0.5454
 4126SOL    HW224012   3.422   0.032  17.343 -0.5864  2.1153  2.7136
 4127SOL     OW24013   2.432   2.484   1.999  0.0393  0.1919 -0.7407
 4127SOL    HW124014   2.402   2.418   1.936 -3.9349  0.0648  1.2730
 4127SOL    HW224015   2.346   2.522   2.019  0.5654  1.0064 -0.0209
 4128SOL     OW24016   1.970   3.496   1.085 -0.1773  0.0816  0.5347
 4128SOL    HW124017   2.010   3.450   1.012  0.2020  0.4320  0.5229
 4128SOL    HW224018   2.005   3.453   1.163  0.6605 -0.3571 -0.0844
 4129SOL     OW24019   1.136   0.286  14.270  0.0416  0.3588 -0.2496
 4129SOL    HW124020   1.186   0.224  14.323 -3.7386 -2.3414  0.1545
 4129SOL    HW224021   1.190   0.365  14.264  0.4575  0.0517 -0.5126
 4130SOL     OW24022   1.888   1.158   3.377  0.1516  0.2027 -0.3006
 4130SOL    HW124023   1.855   1.089   3.318 -0.3261 -2.0032  2.5507
 4130SOL    HW224024   1.869   1.236   3.325 -0.1642  1.1046  1.2003
 4131SOL     OW24025   4.136   3.792   6.236  0.0210  0.5307  0.2634
 4131SOL    HW124026   4.097   3.712   6.271 -1.6564  1.1685 -0.1627
 4131SOL    HW224027   4.200   3.800   6.307  0.1339 -1.5875  0.4102
 4132SOL     OW24028   4.335   4.444   7.836  0.3289  0.0366 -0.2908
 4132SOL    HW124029   4.409   4.408   7.788  1.1211  0.8030  0.3599
 4132SOL    HW224030   4.374   4.499   7.904  1.1588 -0.5489 -0.2978
 4133SOL     OW24031   1.032   0.584   6.114  0.1350 -0.4080 -0.0713
 4133SOL    HW124032   1.028   0.656   6.177 -0.0250 -1.1061  0.7177
 4133SOL    HW224033   1.104   0.531   6.148  0.6936  0.1642 -0.3455
 4134SOL     OW24034   4.243   2.580   5.139  0.0167  0.3216  0.2713
 4134SOL    HW124035   4.243   2.486   5.155  0.3565  0.3286  0.2999
 4134SOL    HW224036   4.212   2.611   5.224 -1.8896  2.5845 -1.2310
 4135SOL     OW24037   2.311   1.541   2.048 -0.2051  0.0675 -0.3634
 4135SOL    HW124038   2.298   1.629   2.011 -4.1135 -1.0171 -1.5980
 4135SOL    HW224039   2.223   1.507   2.064 -0.5065  1.1087  0.2036
 4136SOL     OW24040   3.816   3.061   4.571 -0.9443  0.2332 -0.4431
 4136SOL    HW124041   3.900   3.018   4.556 -2.2393 -1.9532 -1.3886
 4136SOL    HW224042   3.759   2.984   4.569 -1.0788  0.3071  0.4976
 4137SOL     OW24043   3.680   1.696  11.970  0.3187 -0.3845 -0.8192
 4137SOL    HW124044   3.692   1.646  12.051 -1.2475  0.1586 -0.2482
 4137SOL    HW224045   3.749   1.758  11.991 -0.9086  0.6117  0.3091
 4138SOL     OW24046   4.279   1.918  14.384  0.1108  0.4494  0.0610
 4138SOL    HW124047   4.198   1.939  14.336 -0.6000  1.9152  1.8734
 4138SOL    HW224048   4.321   1.864  14.318  1.2382 -0.9606  1.9656
 4139SOL     OW24049   0.944   3.092   8.466  0.0937  0.0930 -0.0012
 4139SOL    HW124050   0.983   3.159   8.410  0.5918 -1.2319 -1.2192
 4139SOL    HW224051   0.933   3.148   8.544  0.6985  0.3654 -0.1142
 4140SOL     OW24052   4.406   0.589   8.152  0.4430  0.4143 -0.0393
 4140SOL    HW124053   4.357   0.629   8.223  3.0367  1.7964  1.0014
 4140SOL    HW224054   4.342   0.568   8.085  1.4143 -0.9637 -0.5403
 4141SOL     OW24055   3.243   2.066  10.032 -0.2886  0.0681  0.5038
 4141SOL    HW124056   3.244   1.980   9.990  0.5090  0.8590 -1.0769
 4141SOL    HW224057   3.200   2.043  10.115 -0.5356 -0.6781  0.1718
 4142SOL     OW24058   0.342   0.067   4.412  0.2490  0.0969  0.3124
 4142SOL    HW124059   0.425   0.105   4.440  1.1063 -0.0538 -1.9882
 4142SOL    HW224060   0.285   0.118   4.470  1.0055  2.5164 -1.0828
 4143SOL     OW24061   1.778   3.373   7.101  0.3116 -0.2186 -0.0395
 4143SOL    HW124062   1.750   3.464   7.091 -0.9231 -0.6088 -0.1144
 4143SOL    HW224063   1.873   3.382   7.114  0.4974 -0.0775 -1.5042
 4144SOL     OW24064   0.588   1.095   9.835  0.5011 -0.5699  0.1120
 4144SOL    HW124065   0.572   1.023   9.896 -2.0781 -1.5913 -1.7719
 4144SOL    HW224066   0.524   1.165   9.847  1.3386  0.1023  0.6670
 4145SOL     OW24067   4.431   4.174   1.797  0.1449  0.0848  0.2760
 4145SOL    HW124068   4.347   4.172   1.750  1.5669  0.9846 -2.2981
 4145SOL    HW224069   4.483   4.143   1.723  0.6239 -0.9219  1.0344
 4146SOL     OW24070   4.586   2.044   3.849  0.1076 -0.4320  0.4497
 4146SOL    HW124071   4.621   1.956   3.833  3.1358  0.6400  1.0396
 4146SOL    HW224072   4.539   2.049   3.766 -0.2936  2.0391  0.8332
 4147SOL     OW24073   1.737   1.360  13.926 -0.3187  0.5667 -0.0669
 4147SOL    HW124074   1.674   1.413  13.875 -2.8218 -2.1397  0.2341
 4147SOL    HW224075   1.801   1.330  13.862  0.6871 -1.4068  1.8889
 4148SOL     OW24076   0.134   1.609   3.105 -0.1695 -0.8952 -0.6429
 4148SOL    HW124077   0.106   1.517   3.103 -1.0364 -0.6104 -1.9765
 4148SOL    HW224078   0.206   1.606   3.167 -2.0314 -1.3107  1.4783
 4149SOL     OW24079   3.313   0.467   5.352 -0.1985  0.4642 -0.6685
 4149SOL    HW124080   3.360   0.417   5.419 -0.3466 -2.6179 -2.8750
 4149SOL    HW224081   3.387   0.508   5.307  0.1756 -0.6303 -1.0463
 4150SOL     OW24082   2.155   3.505  11.950 -0.3958  0.3372  0.1659
 4150SOL    HW124083   2.103   3.536  11.876  0.1671  0.3501 -0.2215
 4150SOL    HW224084   2.087   3.453  11.994  0.1055  0.5772  1.2359
 4151SOL     OW24085   1.331   1.069   3.994  0.4305 -0.6056 -0.4207
 4151SOL    HW124086   1.413   1.118   4.000  0.5847 -1.0017  0.7175
 4151SOL    HW224087   1.273   1.145   3.984  2.5794  1.0584 -0.4356
 4152SOL     OW24088   0.005   1.175  15.979 -0.7912  0.1237 -0.0878
 4152SOL    HW124089   4.716   1.163  15.888 -1.5838 -1.3845  0.3405
 4152SOL    HW224090   4.730   1.085  16.009  1.0911 -0.0710  0.1445
 4153SOL     OW24091   0.061   1.094   2.291 -0.1135  0.2836  0.8855
 4153SOL    HW124092   0.008   1.121   2.367 -0.4903  1.7013  0.1180
 4153SOL    HW224093   0.022   1.010   2.269  0.3851 -0.0214  1.1527
 4154SOL     OW24094   0.322   1.122   7.103 -0.0915 -0.6616 -0.6856
 4154SOL    HW124095   0.329   1.032   7.071 -1.0566 -0.2593 -2.0065
 4154SOL    HW224096   0.269   1.110   7.182 -1.8999 -0.7934 -1.9138
 4155SOL     OW24097   2.711   0.816   6.082  0.1523 -0.4650  0.2750
 4155SOL    HW124098   2.762   0.782   6.009  0.6402 -0.1897  0.4896
 4155SOL    HW224099   2.769   0.814   6.158  1.6209 -0.7009 -0.8611
 4156SOL     OW24100   3.537   0.460   4.127  0.1539  0.2242 -0.1783
 4156SOL    HW124101   3.545   0.466   4.223 -0.0951  1.0433 -0.2083
 4156SOL    HW224102   3.442   0.453   4.128  0.0828  1.0747 -0.3991
 4157SOL     OW24103   0.677   2.648   2.304  0.5298  0.3175 -0.2948
 4157SOL    HW124104   0.611   2.585   2.277  0.6367  0.1340 -0.1319
 4157SOL    HW224105   0.732   2.677   2.231  0.6950 -1.3824 -0.8297
 4158SOL     OW24106   4.401   1.620  15.413 -0.0652  0.1666  0.6286
 4158SOL    HW124107   4.416   1.638  15.320 -0.8680  0.0497  0.4780
 4158SOL    HW224108   4.371   1.529  15.412 -0.0786  0.1949 -1.1150
 4159SOL     OW24109   0.152   3.954  11.944 -0.2418 -0.3507  0.1122
 4159SOL    HW124110   0.106   3.943  11.861 -0.9473 -1.0538  0.5796
 4159SOL    HW224111   0.086   3.918  12.004  0.5752  2.3149  2.6178
 4160SOL     OW24112   2.770   0.644   3.259 -0.4514  0.4029  0.4929
 4160SOL    HW124113   2.740   0.735   3.251 -0.4539  0.4526  1.0640
 4160SOL    HW224114   2.840   0.639   3.193 -0.7413 -1.7099  0.3577
 4161SOL     OW24115   3.001   3.252  13.139 -0.3508 -0.1132 -0.2942
 4161SOL    HW124116   2.916   3.224  13.107 -0.5130 -1.2115  1.1608
 4161SOL    HW224117   3.012   3.317  13.069  0.1030 -0.0700 -0.1887
 4162SOL     OW24118   3.978   1.812   1.926 -0.0379 -0.3875 -0.0429
 4162SOL    HW124119   3.947   1.726   1.897 -0.7703 -0.4444  0.9001
 4162SOL    HW224120   4.027   1.783   2.003 -1.2724 -0.2200  0.8064
 4163SOL     OW24121   0.622   1.848  13.678 -0.4861  0.3271 -0.0417
 4163SOL    HW124122   0.708   1.808  13.692  0.3469  1.8603 -0.7633
 4163SOL    HW224123   0.612   1.911  13.750  1.0645  1.9359 -1.2403
 4164SOL     OW24124   1.809   1.413   0.980  0.1107  1.0018 -0.1476
 4164SOL    HW124125   1.855   1.493   1.003  1.0846  0.8347 -1.5854
 4164SOL    HW224126   1.784   1.435   0.891 -1.1570 -0.2187 -0.1094
 4165SOL     OW24127   0.330   2.861   2.967 -0.6920 -0.3378  0.5952
 4165SOL    HW124128   0.263   2.926   2.989 -1.4858 -1.1836  0.6929
 4165SOL    HW224129   0.289   2.775   2.977 -1.2880 -0.1853 -0.6400
 4166SOL     OW24130   1.074   1.352  10.013  0.4017  0.2353  0.1310
 4166SOL    HW124131   1.166   1.328  10.018  0.7504  1.6504  0.5060
 4166SOL    HW224132   1.046   1.322  10.099 -0.4781  0.1992 -0.1620
 4167SOL     OW24133   1.630   2.407  16.884 -0.2551  0.8734 -0.2299
 4167SOL    HW124134   1.615   2.431  16.975  1.7694 -1.7537  0.8104
 4167SOL    HW224135   1.700   2.341  16.887 -0.6275  0.4256 -1.3373
 4168SOL     OW24136   1.470   1.451  14.108  0.2189  0.4844 -0.6276
 4168SOL    HW124137   1.429   1.488  14.187  0.3293 -1.2235  0.2264
 4168SOL    HW224138   1.434   1.511  14.043 -0.2360  1.5456  0.5973
 4169SOL     OW24139   4.146   0.040   3.599 -0.1752  0.4401 -0.0837
 4169SOL    HW124140   4.202   0.105   3.557 -1.3534  0.7792 -1.1298
 4169SOL    HW224141   4.193   4.696   3.611  0.6585  0.6616 -1.7367
 4170SOL     OW24142   0.147   2.134   8.113  0.6626  0.0999  0.6256
 4170SOL    HW124143   0.237   2.104   8.124  0.6338  0.3990  1.7742
 4170SOL    HW224144   0.134   2.151   8.020  2.8438 -0.2427  0.2794
 4171SOL     OW24145   1.662   0.960   0.383 -0.9860  0.0027 -0.8121
 4171SOL    HW124146   1.611   1.001   0.452 -1.1609  1.9310 -2.1022
 4171SOL    HW224147   1.752   0.960   0.416 -1.0263 -0.9809 -0.7017
 4172SOL     OW24148   2.788   2.848  14.859 -0.1372  0.0270 -0.2798
 4172SOL    HW124149   2.700   2.851  14.894 -0.0326 -1.3764  0.1114
 4172SOL    HW224150   2.770   2.789  14.785  0.8719  1.3857 -1.6049
 4173SOL     OW24151   1.503   2.177   3.288 -0.2006 -0.2642  0.2472
 4173SOL    HW124152   1.456   2.141   3.364 -1.3435  0.2385 -0.2234
 4173SOL    HW224153   1.560   2.241   3.331  0.1932 -0.2983 -0.2346
 4174SOL     OW24154   0.102   1.306   2.719  0.3996 -0.4218 -0.5450
 4174SOL    HW124155   0.182   1.254   2.730 -0.2219 -1.1312  0.5611
 4174SOL    HW224156   0.047   1.244   2.671 -1.5004  0.3562  0.6118
 4175SOL     OW24157   3.581   1.922  17.350  0.0969  0.4848 -0.1612
 4175SOL    HW124158   3.579   1.940  17.256 -0.6422 -3.8255 -0.9774
 4175SOL    HW224159   3.605   2.008  17.386  2.4988 -0.9123  1.5495
 4176SOL     OW24160   2.510   1.432   6.035 -0.6676 -0.6898  0.4642
 4176SOL    HW124161   2.421   1.454   6.062 -0.8424  0.0385 -0.7046
 4176SOL    HW224162   2.554   1.397   6.113  1.2131 -2.2773 -1.2870
 4177SOL     OW24163   0.195   0.499   3.673  0.5453 -0.3425 -1.0508
 4177SOL    HW124164   0.217   0.588   3.645  0.1573  0.2408  0.4976
 4177SOL    HW224165   0.227   0.500   3.764  1.1558 -0.9601 -1.2580
 4178SOL     OW24166   0.923   0.790  11.926  0.0130 -0.1253 -0.2065
 4178SOL    HW124167   0.855   0.803  11.860  1.4412 -1.1496 -1.8852
 4178SOL    HW224168   0.864   0.772  12.000  0.9770  2.1817  1.1043
 4179SOL     OW24169   0.884   4.187   9.255 -0.0716  0.2018  0.0549
 4179SOL    HW124170   0.823   4.120   9.224 -0.0688  1.1660 -2.0460
 4179SOL    HW224171   0.841   4.268   9.228 -0.1263  0.1889  0.1030
 4180SOL     OW24172   0.206   3.951   7.282 -1.0137 -0.5517 -0.3080
 4180SOL    HW124173   0.150   4.022   7.252 -2.1223 -0.9678  0.7608
 4180SOL    HW224174   0.290   3.995   7.294  0.6325 -3.4082 -1.1680
 4181SOL     OW24175   3.323   2.706   0.311 -0.3294  0.0793  0.1238
 4181SOL    HW124176   3.278   2.624   0.295 -0.0671 -0.0943  0.2717
 4181SOL    HW224177   3.335   2.694   0.405  0.9527 -1.1452 -0.1965
 4182SOL     OW24178   0.569   0.493   4.335 -0.4074 -0.1052 -0.8315
 4182SOL    HW124179   0.542   0.403   4.319 -1.8155  0.1033  0.3133
 4182SOL    HW224180   0.503   0.532   4.278  0.6131  1.8519 -0.6683
 4183SOL     OW24181   2.013   3.129   6.248  0.3109 -0.1753 -0.1748
 4183SOL    HW124182   2.031   3.035   6.251 -0.2517 -0.2639  0.5806
 4183SOL    HW224183   2.096   3.173   6.265  1.3510 -1.4663 -2.0082
 4184SOL     OW24184   4.477   3.834   2.714  0.3803 -0.2426 -0.4525
 4184SOL    HW124185   4.545   3.832   2.781 -1.1258  0.4605  1.0845
 4184SOL    HW224186   4.448   3.743   2.712  0.7215 -0.3315 -1.4490
 4185SOL     OW24187   2.151   0.067   9.330 -0.1535 -0.2709  0.0344
 4185SOL    HW124188   2.162   0.083   9.424  0.9838  1.3423 -0.3699
 4185SOL    HW224189   2.211   4.733   9.310 -0.3035  0.3694 -2.6745
 4186SOL     OW24190   2.624   3.695   4.633  0.7934  0.4666 -0.2773
 4186SOL    HW124191   2.614   3.693   4.728 -0.9247  1.2673 -0.4310
 4186SOL    HW224192   2.574   3.774   4.612 -1.1591 -1.6124 -3.6118
 4187SOL     OW24193   1.993   1.774   8.486 -0.0133  0.2556 -0.4557
 4187SOL    HW124194   1.960   1.824   8.561  2.4477  0.7403  0.3050
 4187SOL    HW224195   1.955   1.829   8.417 -0.3678  0.8481  0.2111
 4188SOL     OW24196   1.881   0.781  14.104 -0.1543 -0.3556  0.3250
 4188SOL    HW124197   1.845   0.711  14.158 -1.4918 -0.1566 -0.2903
 4188SOL    HW224198   1.875   0.855  14.164 -0.2859 -0.8982  0.9794
 4189SOL     OW24199   4.032   3.156   5.981  0.6446  0.4196  0.6167
 4189SOL    HW124200   4.016   3.220   5.911  0.6210  0.0166  0.2583
 4189SOL    HW224201   4.101   3.104   5.939  0.1330  1.0002 -0.9682
 4190SOL     OW24202   2.469   1.425   6.866 -0.2252  0.3586 -0.5758
 4190SOL    HW124203   2.520   1.447   6.944  2.7436 -0.0934 -2.4239
 4190SOL    HW224204   2.532   1.396   6.800  1.4874  2.5367  0.1216
 4191SOL     OW24205   4.051   2.141   8.333 -0.1308  0.2379 -0.7330
 4191SOL    HW124206   3.992   2.208   8.369 -0.7997 -2.0906  2.4147
 4191SOL    HW224207   4.132   2.163   8.379 -0.2291 -2.4245  0.7252
 4192SOL     OW24208   2.744   4.206  11.611  0.1018 -0.3270  0.5950
 4192SOL    HW124209   2.675   4.168  11.555 -2.0629  0.3456  2.8202
 4192SOL    HW224210   2.729   4.160  11.693 -0.2684  0.3913  0.9308
 4193SOL     OW24211   0.109   2.635   5.423 -0.7554  0.2971 -0.1758
 4193SOL    HW124212   0.156   2.569   5.474  1.0337  1.0742 -0.8257
 4193SOL    HW224213   0.185   2.680   5.385  0.7804 -1.7897  0.4398
 4194SOL     OW24214   2.833   0.430  14.837  0.1508  0.0705 -0.0719
 4194SOL    HW124215   2.756   0.458  14.886 -1.5732 -1.6605 -1.7831
 4194SOL    HW224216   2.892   0.412  14.910  0.9291 -1.1159 -0.9975
 4195SOL     OW24217   1.604   4.394  13.325 -0.2334  0.6445 -0.5183
 4195SOL    HW124218   1.569   4.336  13.257 -0.4191 -2.4118  2.1713
 4195SOL    HW224219   1.626   4.478  13.286  0.1650  0.7155 -0.1341
 4196SOL     OW24220   3.756   3.014  11.000 -0.1788 -0.1910 -0.2753
 4196SOL    HW124221   3.722   2.930  11.029 -2.1406  0.0640 -1.8042
 4196SOL    HW224222   3.720   3.014  10.911  0.3865  2.5351 -0.5146
 4197SOL     OW24223   4.398   3.285   2.336 -0.0297  0.2095 -0.4527
 4197SOL    HW124224   4.478   3.334   2.356 -0.1562  0.1541  0.1729
 4197SOL    HW224225   4.383   3.231   2.414 -0.1554  0.3074 -0.4091
 4198SOL     OW24226   3.106   1.781   7.735 -0.2352  0.4971 -0.2711
 4198SOL    HW124227   3.159   1.848   7.691 -2.8212  2.9092  0.2604
 4198SOL    HW224228   3.058   1.837   7.796  0.1404 -0.8328  1.2499
 4199SOL     OW24229   3.077   1.666   3.894  0.1287  0.7715 -0.1210
 4199SOL    HW124230   3.103   1.653   3.803 -1.5520  0.1867 -0.5208
 4199SOL    HW224231   2.981   1.660   3.893  0.1004  1.4822 -1.6955
 4200SOL     OW24232   4.091   3.108  17.066  0.4487 -0.2473  0.5777
 4200SOL    HW124233   4.111   3.037  17.127 -0.2122 -0.3594  0.6665
 4200SOL    HW224234   4.179   3.136  17.042  0.6379  0.1705  1.7390
 4201SOL     OW24235   2.419   1.588  12.826 -1.0788  0.1175  0.2547
 4201SOL    HW124236   2.471   1.527  12.879  1.4874  0.1502 -2.2348
 4201SOL    HW224237   2.473   1.594  12.748 -2.5729 -0.0826 -0.7990
 4202SOL     OW24238   3.949   2.746   9.489  0.1456  0.1417 -0.0497
 4202SOL    HW124239   3.971   2.653   9.498 -1.1080 -0.0880  0.6152
 4202SOL    HW224240   3.854   2.752   9.488  0.1535  0.0189 -0.8871
 4203SOL     OW24241   4.687   1.416   6.618 -0.2859  0.3108 -0.2425
 4203SOL    HW124242   4.675   1.321   6.612 -0.6201  0.3092  0.5169
 4203SOL    HW224243   4.721   1.444   6.533  1.0529 -0.2571  0.1140
 4204SOL     OW24244   3.255   2.310   0.783 -0.5072  0.3182  0.4595
 4204SOL    HW124245   3.301   2.292   0.865  0.2577 -0.0479 -0.0605
 4204SOL    HW224246   3.312   2.367   0.731  0.8292 -3.0725 -1.7927
 4205SOL     OW24247   0.255   2.075   4.330 -0.4471  0.2593  0.4303
 4205SOL    HW124248   0.299   2.136   4.388 -2.0001  0.1086  1.7901
 4205SOL    HW224249   0.218   2.137   4.267 -0.1508 -0.6625 -0.6503
 4206SOL     OW24250   4.091   4.348   6.392 -0.2280  0.1122 -0.0768
 4206SOL    HW124251   4.041   4.340   6.312 -1.8837 -0.3934  1.0123
 4206SOL    HW224252   4.024   4.379   6.453 -0.3979  0.0444 -0.2330
 4207SOL     OW24253   2.564   4.152   2.008  0.1472  0.4630  0.4201
 4207SOL    HW124254   2.629   4.198   1.955  0.5696 -2.9385 -1.9911
 4207SOL    HW224255   2.603   4.157   2.096 -2.0138  1.8599  1.3053
 4208SOL     OW24256   0.818   3.315   7.480 -0.7488  0.6137 -0.3147
 4208SOL    HW124257   0.739   3.354   7.518 -1.8750 -1.8574 -0.1047
 4208SOL    HW224258   0.858   3.283   7.561 -0.7473  0.4934 -0.3637
 4209SOL     OW24259   4.366   0.288   2.835 -0.8029 -0.0898  0.0949
 4209SOL    HW124260   4.368   0.383   2.850 -0.6105 -0.4040  2.0116
 4209SOL    HW224261   4.425   0.282   2.760  0.4090 -0.8812  1.1185
 4210SOL     OW24262   4.386   2.986  10.584 -0.6707  0.3803  0.6329
 4210SOL    HW124263   4.429   3.051  10.529  1.8551 -0.1758  1.9627
 4210SOL    HW224264   4.422   3.011  10.668  3.4903 -0.4246 -0.9132
 4211SOL     OW24265   1.695   0.539   7.996 -0.1470  0.0584  0.6016
 4211SOL    HW124266   1.616   0.586   7.967  0.0679  0.0048 -0.0652
 4211SOL    HW224267   1.729   0.496   7.918 -0.8972 -0.3705  0.5028
 4212SOL     OW24268   1.361   3.106   9.537 -0.1896 -0.4722 -0.8108
 4212SOL    HW124269   1.412   3.159   9.474 -0.5251  2.0854  1.0771
 4212SOL    HW224270   1.384   3.017   9.508  1.5606 -0.8412  1.7060
 4213SOL     OW24271   0.293   0.913   2.551  0.5539  0.3156 -0.1388
 4213SOL    HW124272   0.303   0.825   2.587 -1.2340  0.9452  1.8844
 4213SOL    HW224273   0.311   0.892   2.459  0.5401  2.3288 -0.6016
 4214SOL     OW24274   1.763   2.865  17.737  0.6394  0.0939 -0.1589
 4214SOL    HW124275   1.729   2.807  17.668  3.0962 -1.7183  0.1500
 4214SOL    HW224276   1.685   2.898   0.030 -1.5926 -1.3795 -2.9669
 4215SOL     OW24277   1.352   0.624  15.127  0.1230  0.6715 -0.2317
 4215SOL    HW124278   1.365   0.530  15.141 -1.1586  0.6226  0.6687
 4215SOL    HW224279   1.382   0.654  15.213  1.5991  0.9487 -0.8554
 4216SOL     OW24280   4.348   4.035   2.867  0.6767 -0.4698 -0.6458
 4216SOL    HW124281   4.258   4.032   2.898  1.6878 -4.6153  1.9338
 4216SOL    HW224282   4.334   3.988   2.785  3.9491  1.0313 -2.0459
 4217SOL     OW24283   1.414   2.289   9.959  0.2308  0.2100 -0.1155
 4217SOL    HW124284   1.329   2.297   9.917  0.5647  1.4924 -0.5361
 4217SOL    HW224285   1.440   2.381   9.968 -0.6882  0.1533  3.1973
 4218SOL     OW24286   4.430   2.658  12.177  0.4742  0.0799 -0.6240
 4218SOL    HW124287   4.450   2.736  12.126  0.4562  0.5724  0.1240
 4218SOL    HW224288   4.346   2.629  12.142 -1.0464  0.7299  2.4869
 4219SOL     OW24289   2.143   4.669  12.707 -0.1141  0.2724 -0.0657
 4219SOL    HW124290   2.199   4.717  12.647  1.1902 -0.3376  0.6782
 4219SOL    HW224291   2.063   4.722  12.706 -0.3756 -0.1461 -3.6242
 4220SOL     OW24292   3.384   3.683   4.295  0.0618  0.2585  0.0467
 4220SOL    HW124293   3.319   3.738   4.340 -0.8964 -2.0930  1.5296
 4220SOL    HW224294   3.346   3.665   4.209  1.1864  0.2018 -0.4426
 4221SOL     OW24295   1.982   3.811  11.568 -0.1947  0.2061 -0.3512
 4221SOL    HW124296   2.029   3.894  11.567 -1.4024  0.8945 -0.9255
 4221SOL    HW224297   1.902   3.836  11.520 -0.0459  1.2948 -0.0281
 4222SOL     OW24298   1.578   0.133   8.551 -0.1144 -0.4210  0.1515
 4222SOL    HW124299   1.529   0.175   8.481 -0.2361 -1.0531 -0.1438
 4222SOL    HW224300   1.520   0.153   8.624  0.1213  1.1126 -0.0833
 4223SOL     OW24301   2.969   2.879  11.356  0.4797  0.3155 -0.0934
 4223SOL    HW124302   2.901   2.924  11.406 -2.0841 -1.9344 -1.5605
 4223SOL    HW224303   3.040   2.943  11.357 -0.9504  1.8943 -0.0134
 4224SOL     OW24304   2.137   3.420   0.071 -0.6324  0.2131  0.1899
 4224SOL    HW124305   2.230   3.412   0.050 -0.8371  0.4580 -0.7780
 4224SOL    HW224306   2.148   3.402   0.165  0.8164  0.7566  0.1228
 4225SOL     OW24307   2.142   0.774   2.996  0.3172  0.1694  0.1661
 4225SOL    HW124308   2.160   0.786   2.903  0.6682  2.1414  0.4894
 4225SOL    HW224309   2.116   0.682   2.994  2.4602 -0.4654  1.4969
 4226SOL     OW24310   2.152   3.911   9.337  0.0634  0.3089 -0.2558
 4226SOL    HW124311   2.222   3.952   9.286 -0.0633  0.3022 -0.4353
 4226SOL    HW224312   2.104   3.855   9.276  0.5040 -1.3228  0.9311
 4227SOL     OW24313   0.518   1.717   6.991 -0.0268  0.6324  0.5556
 4227SOL    HW124314   0.446   1.745   6.934  0.9881  0.8479 -0.6026
 4227SOL    HW224315   0.498   1.765   7.072 -3.7438 -1.7552  1.0586
 4228SOL     OW24316   1.422   1.259  13.864 -0.3614 -0.0232 -0.2623
 4228SOL    HW124317   1.371   1.336  13.839 -2.4619 -1.4300 -0.3047
 4228SOL    HW224318   1.457   1.287  13.949 -0.7453 -0.2613 -0.0244
 4229SOL     OW24319   0.083   2.841  12.046 -0.1917  0.0626 -0.3435
 4229SOL    HW124320   0.175   2.868  12.044 -0.5033  1.1043 -0.4065
 4229SOL    HW224321   0.045   2.898  12.113 -1.5777  1.2286 -2.1276
 4230SOL     OW24322   2.775   0.778   5.525  0.2140 -0.7872  0.3296
 4230SOL    HW124323   2.860   0.734   5.512 -0.4213 -1.1131 -2.8864
 4230SOL    HW224324   2.724   0.751   5.448  1.0961 -1.6324  0.0369
 4231SOL     OW24325   2.776   4.007   2.390  0.3073 -0.4800 -0.5616
 4231SOL    HW124326   2.861   3.983   2.427  1.0091  1.2233 -1.0797
 4231SOL    HW224327   2.747   4.043   2.474 -1.1872  1.1601 -1.7560
 4232SOL     OW24328   4.521   0.092  14.519  0.2862 -0.1670  0.6639
 4232SOL    HW124329   4.501   0.058  14.432 -0.1935 -2.6282  1.7191
 4232SOL    HW224330   4.442   0.072  14.570  1.1163 -1.8545  1.3049
 4233SOL     OW24331   4.527   2.092   5.041 -0.3151 -0.6511  0.0172
 4233SOL    HW124332   4.520   2.015   4.984  0.6170 -0.6920 -0.0287
 4233SOL    HW224333   4.448   2.089   5.095 -1.1890 -0.3890 -1.2437
 4234SOL     OW24334   4.660   1.123  15.733 -0.2274 -0.5032  0.2559
 4234SOL    HW124335   4.692   1.103  15.645  1.4889 -0.4748  0.8631
 4234SOL    HW224336   4.617   1.042  15.758 -0.7847 -0.5814 -0.9652
 4235SOL     OW24337   3.745   3.170   5.834  0.4878  0.1569 -0.2732
 4235SOL    HW124338   3.818   3.158   5.774  1.1563 -0.9335  0.7808
 4235SOL    HW224339   3.765   3.259   5.861  0.0358 -0.1719  1.1608
 4236SOL     OW24340   1.218   3.367   2.100  0.3621 -0.3204  0.0675
 4236SOL    HW124341   1.269   3.386   2.179  1.1620  0.2830 -0.5899
 4236SOL    HW224342   1.138   3.401   2.138 -0.4141 -2.4005  0.3072
 4237SOL     OW24343   0.781   0.403   1.131  0.5016  0.3131  0.4510
 4237SOL    HW124344   0.816   0.323   1.171  1.6907 -0.1366 -1.4678
 4237SOL    HW224345   0.853   0.465   1.135  0.1705  0.7532 -0.4242
 4238SOL     OW24346   4.201   0.932   8.740 -0.2577 -0.7724  0.4467
 4238SOL    HW124347   4.202   0.848   8.787 -0.0274 -0.7023  0.5707
 4238SOL    HW224348   4.179   0.993   8.810  0.1621 -0.1773  0.0588
 4239SOL     OW24349   1.187   1.946  15.898 -0.2073  0.2061  0.2783
 4239SOL    HW124350   1.151   1.880  15.958  2.2234 -1.1891  0.2105
 4239SOL    HW224351   1.142   1.917  15.818 -2.3467  0.6383  1.3149
 4240SOL     OW24352   1.064   0.794   5.830  0.3950 -0.2768 -0.6432
 4240SOL    HW124353   1.138   0.762   5.882  1.3685  3.1067  0.0569
 4240SOL    HW224354   1.006   0.837   5.893  0.1897 -3.5427  1.4433
 4241SOL     OW24355   2.796   1.060   5.473  0.2358 -0.0144 -0.3429
 4241SOL    HW124356   2.789   0.974   5.515  2.2368 -0.7998 -1.5894
 4241SOL    HW224357   2.839   1.106   5.544  2.2388 -0.3911 -1.3164
 4242SOL     OW24358   3.680   4.447  12.859 -0.2326 -0.4637 -0.1950
 4242SOL    HW124359   3.656   4.421  12.770 -0.5615  1.5557 -0.6980
 4242SOL    HW224360   3.761   4.397  12.869  1.4869  2.3826  0.1984
 4243SOL     OW24361   0.564   2.934  12.373  0.0838 -0.3726 -0.5668
 4243SOL    HW124362   0.607   2.930  12.288 -2.1575 -2.3177 -1.5924
 4243SOL    HW224363   0.485   2.889  12.343  0.3169 -1.3268  0.2471
 4244SOL     OW24364   1.004   1.759  11.431  0.2878 -0.9061 -0.2412
 4244SOL    HW124365   0.963   1.682  11.392 -0.8165 -1.9707  2.9910
 4244SOL    HW224366   0.935   1.785  11.492  0.3814  1.8303 -1.3110
 4245SOL     OW24367   0.969   2.821   3.733 -0.6765  0.2814  0.3371
 4245SOL    HW124368   0.910   2.746   3.729  0.5264 -0.5703 -1.0897
 4245SOL    HW224369   0.933   2.885   3.672  1.9392  0.6408 -0.8220
 4246SOL     OW24370   2.916   0.946   4.372  0.3782 -0.2881 -0.0869
 4246SOL    HW124371   2.868   1.007   4.316  0.6934  2.2808  2.4139
 4246SOL    HW224372   2.981   1.004   4.412 -2.3732  1.0830  2.4598
 4247SOL     OW24373   3.620   3.202   2.453 -0.0400  0.5251  0.4437
 4247SOL    HW124374   3.573   3.121   2.472 -0.6122  0.8053  0.1959
 4247SOL    HW224375   3.615   3.209   2.358 -3.3185  1.3146  0.6926
 4248SOL     OW24376   0.228   1.747   2.895  0.0860  0.5789  0.2319
 4248SOL    HW124377   0.180   1.828   2.910 -0.2324 -0.4442  4.8608
 4248SOL    HW224378   0.192   1.691   2.964  2.4209 -1.0929  0.0726
 4249SOL     OW24379   2.943   0.527  10.508 -0.2620  0.0715  0.2786
 4249SOL    HW124380   3.023   0.477  10.521 -0.8406 -1.1930 -1.0893
 4249SOL    HW224381   2.929   0.499  10.418  0.2740  0.9314 -0.0763
 4250SOL     OW24382   2.161   0.229   5.360  0.6214  0.0026 -0.5913
 4250SOL    HW124383   2.215   0.303   5.388  2.0431 -1.3336  0.1882
 4250SOL    HW224384   2.128   0.260   5.276  2.0835 -1.4452 -1.6917
 4251SOL     OW24385   2.653   0.351  14.301 -0.1572 -0.0200 -0.3272
 4251SOL    HW124386   2.650   0.444  14.279  0.8436  0.2103  0.5220
 4251SOL    HW224387   2.677   0.338  14.393 -0.5158 -1.6810 -0.4583
 4252SOL     OW24388   4.442   1.353   0.171  0.3999  0.1858  0.6608
 4252SOL    HW124389   4.364   1.330   0.221 -0.0951  0.3138 -0.0461
 4252SOL    HW224390   4.408   1.337   0.083 -0.8779 -0.1264  1.2240
 4253SOL     OW24391   3.287   0.360   7.183 -0.0337 -0.5187  0.0759
 4253SOL    HW124392   3.306   0.267   7.174 -0.4122 -0.7222  1.4447
 4253SOL    HW224393   3.227   0.373   7.110  0.7787  1.5712 -0.2212
 4254SOL     OW24394   3.576   4.239   1.392 -0.6876  0.5564  0.0979
 4254SOL    HW124395   3.482   4.254   1.389 -1.0933 -1.7641  1.1067
 4254SOL    HW224396   3.592   4.160   1.340 -1.6347  0.5065 -0.1128
 4255SOL     OW24397   3.317   4.519   0.128 -0.0911  0.1978 -0.5918
 4255SOL    HW124398   3.392   4.557   0.082  0.5739  0.7599  0.9558
 4255SOL    HW224399   3.283   4.597   0.172 -1.1884 -1.7491  2.0031
 4256SOL     OW24400   2.589   1.851  14.718 -0.0387 -0.1491 -0.4508
 4256SOL    HW124401   2.510   1.900  14.698  0.3031  0.8965  0.8002
 4256SOL    HW224402   2.544   1.803  14.787 -0.5484 -0.3069 -0.8898
 4257SOL     OW24403   1.998   2.902   4.344  0.8310  0.6308 -0.3041
 4257SOL    HW124404   1.919   2.933   4.388  1.4504 -1.2720  2.1427
 4257SOL    HW224405   1.984   2.936   4.255  0.1800  1.9341  0.2997
 4258SOL     OW24406   3.060   2.487   3.346 -0.6475  0.4916 -0.0326
 4258SOL    HW124407   3.020   2.569   3.376  2.7707  0.8531  3.5216
 4258SOL    HW224408   3.014   2.433   3.411  0.4048  0.7289  0.9025
 4259SOL     OW24409   4.038   0.604   5.333  0.3289 -0.1929  0.0115
 4259SOL    HW124410   4.090   0.524   5.343  1.7779  0.9159  1.3198
 4259SOL    HW224411   4.028   0.638   5.422 -1.5071 -0.2367 -0.1655
 4260SOL     OW24412   2.558   2.315  12.718 -0.2796  0.8814  0.1040
 4260SOL    HW124413   2.646   2.280  12.725 -0.9651 -0.2767  2.8936
 4260SOL    HW224414   2.552   2.355  12.805 -1.0472 -0.6518  0.7643
 4261SOL     OW24415   4.498   2.638   5.843  0.3781  0.0137  0.0016
 4261SOL    HW124416   4.406   2.665   5.849 -0.2111 -2.3113  1.8398
 4261SOL    HW224417   4.530   2.668   5.929 -1.5062  1.6338  0.1375
 4262SOL     OW24418   1.448   3.124   8.660 -0.1433 -0.3736 -0.5138
 4262SOL    HW124419   1.381   3.169   8.608 -0.0267  0.1045 -0.2489
 4262SOL    HW224420   1.391   3.061   8.706  1.5934 -3.6936 -2.9275
 4263SOL     OW24421   0.304   2.994   6.607  0.8465  0.5872  0.3762
 4263SOL    HW124422   0.217   3.032   6.595  1.1170  1.3316  0.7332
 4263SOL    HW224423   0.356   3.035   6.538  1.3402  1.7144  1.4105
 4264SOL     OW24424   1.774   3.996  14.945  0.3704  0.2208 -0.1737
 4264SOL    HW124425   1.696   4.011  14.999 -1.2031  0.9878 -2.6616
 4264SOL    HW224426   1.773   3.904  14.920 -1.4107  0.1057  0.3307
 4265SOL     OW24427   1.793   2.154   0.387 -0.6557  0.9682  0.2422
 4265SOL    HW124428   1.840   2.196   0.460  1.5362 -0.2563 -0.4377
 4265SOL    HW224429   1.801   2.222   0.321 -0.1592  0.0437 -0.6497
 4266SOL     OW24430   3.496   3.834  11.296  0.1204 -0.3712 -0.5248
 4266SOL    HW124431   3.541   3.826  11.212  1.1442  1.1482 -0.1325
 4266SOL    HW224432   3.548   3.775  11.350 -2.2126 -0.7864  1.2471
 4267SOL     OW24433   1.502   4.302   7.166 -0.0362 -0.3358  0.1688
 4267SOL    HW124434   1.538   4.390   7.154  1.1581 -0.4405  2.9653
 4267SOL    HW224435   1.558   4.247   7.112 -1.4239 -3.0858  1.5267
 4268SOL     OW24436   1.111   2.552  10.924  0.1958  0.5770 -0.5529
 4268SOL    HW124437   1.071   2.465  10.928  1.1965  0.1448 -0.2231
 4268SOL    HW224438   1.042   2.608  10.961 -0.8943 -1.7410  0.9413
 4269SOL     OW24439   3.013   2.224   2.990 -0.0363  0.1435 -0.3236
 4269SOL    HW124440   2.931   2.229   3.039 -0.1012  0.7578 -0.5039
 4269SOL    HW224441   3.037   2.316   2.996  1.0108 -0.1794  0.5272
 4270SOL     OW24442   3.447   3.084   3.842  0.0268 -0.0519 -0.5841
 4270SOL    HW124443   3.487   3.073   3.928 -1.7698  1.2385  0.4206
 4270SOL    HW224444   3.367   3.031   3.848  0.4147 -0.7544 -1.5917
 4271SOL     OW24445   4.698   3.360   2.688 -0.1156 -0.9572  0.0970
 4271SOL    HW124446   4.652   3.322   2.763 -1.4767 -0.6532 -0.5831
 4271SOL    HW224447   4.728   3.446   2.719  1.6459 -1.8246  0.7956
 4272SOL     OW24448   2.105   1.228   5.595 -0.3177 -0.2605  0.3910
 4272SOL    HW124449   2.127   1.135   5.594  1.2006  0.0959  1.1673
 4272SOL    HW224450   2.187   1.261   5.632 -0.8823  1.8316 -0.2141
 4273SOL     OW24451   3.518   2.087   7.264 -0.2789  0.0034 -0.3836
 4273SOL    HW124452   3.433   2.129   7.279 -1.7416 -2.6861 -1.3332
 4273SOL    HW224453   3.546   2.141   7.190 -0.7976 -0.4497 -0.9091
 4274SOL     OW24454   3.461   3.992   5.214 -0.2524  0.3613  0.0032
 4274SOL    HW124455   3.466   3.897   5.200  0.2961  0.3045  0.5814
 4274SOL    HW224456   3.470   4.032   5.128  3.3031  1.9828  1.1296
 4275SOL     OW24457   3.679   1.606  10.849  0.0527  0.0455 -0.0544
 4275SOL    HW124458   3.690   1.671  10.919 -0.0137 -0.4124  0.3883
 4275SOL    HW224459   3.745   1.541  10.875 -0.4694  0.6964  2.9861
 4276SOL     OW24460   0.567   3.446  10.000  0.3500 -0.8097  0.0532
 4276SOL    HW124461   0.539   3.522   9.950 -0.1850 -0.8170  0.3357
 4276SOL    HW224462   0.481   3.405  10.014  0.0018 -0.1964 -0.3198
 4277SOL     OW24463   2.540   4.594   3.486  0.4627  0.0197  0.1097
 4277SOL    HW124464   2.592   4.514   3.495 -0.1466 -0.3524  0.3728
 4277SOL    HW224465   2.573   4.660   3.546 -2.5116  1.2435  0.3969
 4278SOL     OW24466   1.872   3.559   8.062 -0.1027 -0.1744 -0.0565
 4278SOL    HW124467   1.835   3.608   8.135  0.3270 -0.2875  0.2400
 4278SOL    HW224468   1.870   3.467   8.088 -0.5209 -0.1045  0.1509
 4279SOL     OW24469   0.296   0.853   7.045 -0.0614 -0.0255  0.0878
 4279SOL    HW124470   0.219   0.800   7.064 -0.5136  1.2097  1.7695
 4279SOL    HW224471   0.366   0.788   7.041  1.3475  1.4985 -0.5394
 4280SOL     OW24472   1.291   2.121   7.849 -0.4107  0.2183  0.4570
 4280SOL    HW124473   1.242   2.115   7.767 -0.9221  0.4429  0.7479
 4280SOL    HW224474   1.303   2.216   7.853  2.0881 -0.0645 -0.5561
 4281SOL     OW24475   0.561   2.794   8.303  0.4239  0.5925  0.1748
 4281SOL    HW124476   0.497   2.723   8.302  2.1314 -0.9893  2.3230
 4281SOL    HW224477   0.571   2.798   8.398 -0.7153 -0.6647  0.3367
 4282SOL     OW24478   1.508   2.229   1.884  0.0220  0.2502  0.1122
 4282SOL    HW124479   1.523   2.172   1.960 -0.2094 -1.1356 -0.8735
 4282SOL    HW224480   1.422   2.200   1.852  0.1898  3.2924 -3.1002
 4283SOL     OW24481   3.205   0.306   8.546  0.4314 -0.1571  0.2827
 4283SOL    HW124482   3.296   0.277   8.537  1.0331  1.7953  0.1606
 4283SOL    HW224483   3.206   0.267   8.633  1.6489 -0.5402  0.0911
 4284SOL     OW24484   0.547   1.522  16.303 -0.2537 -0.4712 -0.0208
 4284SOL    HW124485   0.493   1.568  16.238 -0.8804 -0.3389  0.5898
 4284SOL    HW224486   0.520   1.546  16.392 -1.6804  2.2036 -1.1598
 4285SOL     OW24487   1.665   2.369   4.018  0.1752 -0.3598 -0.0008
 4285SOL    HW124488   1.759   2.380   4.031 -0.0884 -0.0184  1.6524
 4285SOL    HW224489   1.642   2.450   4.064 -1.8147 -0.9044 -0.0704
 4286SOL     OW24490   3.658   4.362  13.253  0.0459  0.0266  0.0950
 4286SOL    HW124491   3.644   4.300  13.181  0.9514 -1.2622  1.0347
 4286SOL    HW224492   3.749   4.388  13.237 -0.0573  1.5107  1.9735
 4287SOL     OW24493   3.765   2.438   7.912 -0.2120 -0.5173  0.2068
 4287SOL    HW124494   3.789   2.453   8.003  0.1029 -0.8865  0.1820
 4287SOL    HW224495   3.850   2.464   7.877  0.2966 -0.7261  1.2967
 4288SOL     OW24496   3.758   0.818   6.497  0.2982 -0.0850 -0.4047
 4288SOL    HW124497   3.742   0.724   6.488  0.6333 -0.4620  2.9397
 4288SOL    HW224498   3.807   0.825   6.579  0.4960  2.4108 -0.7486
 4289SOL     OW24499   1.165   3.655   4.610 -0.0154 -0.2998 -0.6485
 4289SOL    HW124500   1.085   3.688   4.650  1.0272  0.2551  0.9992
 4289SOL    HW224501   1.226   3.693   4.674 -1.5107 -0.1603  0.6776
 4290SOL     OW24502   0.116   4.105   7.800  0.5653  0.7285 -0.8992
 4290SOL    HW124503   0.196   4.144   7.836  1.1203 -1.0842 -0.1692
 4290SOL    HW224504   0.056   4.176   7.822  0.8574  0.2331  1.4968
 4291SOL     OW24505   3.158   2.155   5.130  0.4227  0.1663  0.4777
 4291SOL    HW124506   3.237   2.203   5.155 -0.5074  1.4483  0.9547
 4291SOL    HW224507   3.136   2.213   5.057  0.8920 -1.7941 -1.2118
 4292SOL     OW24508   3.278   2.096   6.235 -0.1638  0.0421  0.0588
 4292SOL    HW124509   3.265   2.074   6.327 -0.3266 -0.8132 -0.1661
 4292SOL    HW224510   3.191   2.076   6.199  0.5431  0.0454 -1.6717
 4293SOL     OW24511   4.443   1.041   5.801 -0.6938  0.4887  0.0378
 4293SOL    HW124512   4.367   1.092   5.774 -2.0826 -1.6996 -0.1544
 4293SOL    HW224513   4.405   0.954   5.808  2.3670 -0.7497  1.2621
 4294SOL     OW24514   1.670   3.638  11.828 -0.7809  0.2367 -0.1543
 4294SOL    HW124515   1.603   3.615  11.893  0.3218  0.2532  1.0039
 4294SOL    HW224516   1.622   3.625  11.747 -0.8151 -0.7701  0.0233
 4295SOL     OW24517   2.569   3.417  17.253 -0.8064 -0.0012 -0.2063
 4295SOL    HW124518   2.596   3.326  17.246  0.9461  0.3947  1.4632
 4295SOL    HW224519   2.561   3.448  17.162 -1.4986 -1.2196 -0.5545
 4296SOL     OW24520   4.662   1.491   2.624  0.1277  0.4058 -0.0068
 4296SOL    HW124521   4.737   1.458   2.674  0.0218  1.1373  0.6358
 4296SOL    HW224522   4.677   1.586   2.626  1.5490  0.1874  0.0795
 4297SOL     OW24523   1.402   4.291   3.965 -0.1079 -0.0591 -0.5456
 4297SOL    HW124524   1.386   4.197   3.962 -1.9513  0.2356  0.2439
 4297SOL    HW224525   1.421   4.297   4.059  0.9980  2.0225 -0.8883
 4298SOL     OW24526   0.270   1.515   4.503 -1.1547 -0.6072  0.2517
 4298SOL    HW124527   0.242   1.468   4.425 -0.8265 -2.0888  1.0261
 4298SOL    HW224528   0.190   1.534   4.552 -1.9428 -0.1684 -1.2004
 4299SOL     OW24529   1.892   4.173   5.269  0.0377 -0.2680  0.3184
 4299SOL    HW124530   1.850   4.103   5.320 -0.2169  0.9468  1.7761
 4299SOL    HW224531   1.955   4.124   5.216 -1.6013  0.3033 -2.1652
 4300SOL     OW24532   4.241   2.407  17.643 -0.2546  0.5329 -0.5977
 4300SOL    HW124533   4.322   2.359  17.661 -0.5845 -0.1474 -0.9455
 4300SOL    HW224534   4.203   2.350  17.578  0.9076 -0.3666 -0.4906
 4301SOL     OW24535   1.571   2.772   9.646 -0.1409 -0.4086  0.0286
 4301SOL    HW124536   1.533   2.812   9.567 -2.7021 -1.8246  0.5312
 4301SOL    HW224537   1.662   2.760   9.619  0.3492  2.0775  0.6215
 4302SOL     OW24538   1.095   3.316  10.468  0.0268  0.5043 -0.2976
 4302SOL    HW124539   1.086   3.244  10.530 -1.0901 -0.9334 -2.1168
 4302SOL    HW224540   1.045   3.301  10.388  0.6025 -1.9413 -0.2022
 4303SOL     OW24541   1.317   2.598   4.922 -0.1116 -0.5141  0.0650
 4303SOL    HW124542   1.386   2.554   4.872  0.6655  0.1939  0.5314
 4303SOL    HW224543   1.249   2.633   4.864  1.6261  0.4153 -1.4076
 4304SOL     OW24544   0.709   2.792  14.030  0.1018  0.3141  0.1271
 4304SOL    HW124545   0.778   2.728  14.049  0.9999  1.2734  0.0749
 4304SOL    HW224546   0.714   2.849  14.106 -1.3111  0.5308  0.0694
 4305SOL     OW24547   0.344   3.882   9.186  0.1403 -0.8101 -0.5726
 4305SOL    HW124548   0.252   3.898   9.206  0.2478  0.8942 -1.4491
 4305SOL    HW224549   0.334   3.791   9.214  1.5259 -1.9145 -3.7308
 4306SOL     OW24550   4.256   1.320  11.691  0.4035  0.3719  0.7816
 4306SOL    HW124551   4.189   1.288  11.751  0.0431 -1.3954 -0.5489
 4306SOL    HW224552   4.317   1.353  11.756  2.1788 -1.7545  0.1964
 4307SOL     OW24553   2.962   2.789   3.766  0.3186  0.6064 -0.2996
 4307SOL    HW124554   3.035   2.734   3.794 -1.7732 -0.5493  2.8269
 4307SOL    HW224555   2.892   2.727   3.787  0.2539  0.7452 -0.1046
 4308SOL     OW24556   2.495   2.820   1.439 -0.4932  0.3779  0.1061
 4308SOL    HW124557   2.575   2.867   1.461 -1.2308  1.3289  0.7262
 4308SOL    HW224558   2.464   2.786   1.523 -0.0399 -0.7247 -0.1671
 4309SOL     OW24559   2.025   3.835   8.564 -0.0105 -0.3289 -0.1093
 4309SOL    HW124560   2.036   3.744   8.538  1.3314 -1.0031  2.7837
 4309SOL    HW224561   1.986   3.876   8.486 -1.8782 -0.8674  0.5373
 4310SOL     OW24562   3.079   0.407  14.741 -0.7487 -0.2642  0.3479
 4310SOL    HW124563   3.060   0.313  14.743  2.6099 -0.9417  0.4518
 4310SOL    HW224564   2.990   0.434  14.763  0.2331  0.1065  3.8835
 4311SOL     OW24565   2.779   1.569   3.332  0.3702 -0.3271 -0.1519
 4311SOL    HW124566   2.830   1.586   3.411  2.0774  0.1320 -1.3642
 4311SOL    HW224567   2.821   1.485   3.311  1.2357 -0.6592  2.8850
 4312SOL     OW24568   3.857   3.908   7.386  0.5834  0.4902  0.0149
 4312SOL    HW124569   3.796   3.978   7.409  0.7414  1.3838 -2.2943
 4312SOL    HW224570   3.792   3.841   7.409  0.4800  0.3609 -0.6562
 4313SOL     OW24571   2.746   2.492   2.332 -0.1107  0.2489 -0.4563
 4313SOL    HW124572   2.800   2.415   2.312 -0.4634 -0.2467  0.5156
 4313SOL    HW224573   2.662   2.448   2.343  1.2886 -2.2651  0.2556
 4314SOL     OW24574   4.492   1.798   8.120 -0.6546  0.1419 -0.2615
 4314SOL    HW124575   4.570   1.742   8.114 -0.3265  0.7938 -2.1961
 4314SOL    HW224576   4.466   1.802   8.028  2.2766  0.0534 -1.1093
 4315SOL     OW24577   3.842   2.427   8.166 -0.5590 -0.2813 -0.1114
 4315SOL    HW124578   3.834   2.430   8.261  0.1396 -2.9430  0.0244
 4315SOL    HW224579   3.932   2.396   8.155  0.0571  1.1380  0.9574
 4316SOL     OW24580   0.433   3.822  12.388  0.6219 -0.0463  0.1720
 4316SOL    HW124581   0.357   3.859  12.345  0.0912  1.0273  2.0265
 4316SOL    HW224582   0.502   3.835  12.322  1.4383  1.0114  1.2373
 4317SOL     OW24583   0.065   1.828   7.708  0.4498 -0.4202  0.3993
 4317SOL    HW124584   0.046   1.796   7.796  2.5955 -0.2735  0.9025
 4317SOL    HW224585   4.734   1.892   7.694  1.1851  0.3800  0.4514
 4318SOL     OW24586   2.753   0.095   5.053 -0.2382 -0.6695  0.1461
 4318SOL    HW124587   2.722   0.149   5.126  0.3307  0.6164 -0.5770
 4318SOL    HW224588   2.841   0.131   5.045 -0.9003  1.2893  1.5835
 4319SOL     OW24589   4.296   2.992   4.879 -0.0272 -0.3078  0.6588
 4319SOL    HW124590   4.360   2.921   4.881  0.5911  0.2333  0.0510
 4319SOL    HW224591   4.306   3.025   4.968 -0.3463 -0.5482  0.7841
 4320SOL     OW24592   3.626   4.581   3.480  0.2696 -0.0236  0.2177
 4320SOL    HW124593   3.571   4.502   3.475 -0.3522  0.4974 -1.2267
 4320SOL    HW224594   3.672   4.572   3.563  1.4671  4.2606  0.0238
 4321SOL     OW24595   1.534   1.454   2.425  0.0998 -0.0220 -0.6344
 4321SOL    HW124596   1.629   1.457   2.432  0.0851  0.1839 -0.5128
 4321SOL    HW224597   1.512   1.534   2.378 -1.8698  0.5995  1.2952
 4322SOL     OW24598   0.132   2.962   5.014 -0.2769  0.5429  0.1425
 4322SOL    HW124599   0.182   2.909   5.076 -1.2993 -2.5103 -1.6436
 4322SOL    HW224600   0.080   3.014   5.075 -0.9884  0.9874 -0.8387
 4323SOL     OW24601   0.457   0.079   2.685  0.0906  0.5663  0.0589
 4323SOL    HW124602   0.536   0.078   2.631  1.5213  0.7041  2.1207
 4323SOL    HW224603   0.471   0.005   2.745  0.4262 -0.9952 -1.9223
 4324SOL     OW24604   3.164   4.709   1.846  0.0682 -0.5982 -0.2799
 4324SOL    HW124605   3.247   4.709   1.799  0.5589  1.1777  0.5934
 4324SOL    HW224606   3.191   4.696   1.936  0.0909 -0.1002 -0.2155
 4325SOL     OW24607   1.143   4.664   6.964  0.1213  0.3438  0.0063
 4325SOL    HW124608   1.193   4.675   7.045 -1.5454  0.3172  1.0391
 4325SOL    HW224609   1.110   4.575   6.959  0.8538 -0.0208  1.5888
 4326SOL     OW24610   3.897   0.606   4.150  0.7237 -0.1346  0.6409
 4326SOL    HW124611   3.813   0.578   4.113  1.0580  1.0371 -1.0028
 4326SOL    HW224612   3.879   0.678   4.210 -0.2751 -0.3301  0.5785
 4327SOL     OW24613   0.737   1.794   1.439  0.4952 -0.0125  0.6573
 4327SOL    HW124614   0.812   1.735   1.443  2.4761  2.4361 -0.0800
 4327SOL    HW224615   0.766   1.849   1.366 -0.2018  1.2608  1.3298
 4328SOL     OW24616   2.985   0.198   5.595 -0.5208 -0.0271 -0.0640
 4328SOL    HW124617   2.931   0.134   5.549  0.3769  0.9076 -2.4336
 4328SOL    HW224618   2.925   0.267   5.621  0.7010  0.7948  0.5803
 4329SOL     OW24619   2.003   3.089  11.984 -0.2411  0.0157  0.1120
 4329SOL    HW124620   1.996   3.154  12.054  0.4654  0.5359 -0.2933
 4329SOL    HW224621   2.062   3.130  11.922  0.5959 -1.2517  0.0623
 4330SOL     OW24622   2.065   0.508   4.569 -0.0802 -0.0612  0.4969
 4330SOL    HW124623   2.151   0.480   4.539 -0.8202 -0.6990 -1.0639
 4330SOL    HW224624   2.015   0.436   4.531  2.5360 -1.3568 -0.4518
 4331SOL     OW24625   4.478   1.612   2.884  0.0732  0.6991  0.0844
 4331SOL    HW124626   4.482   1.660   2.966  0.1872 -0.1568  0.5730
 4331SOL    HW224627   4.537   1.666   2.831  0.2109 -0.7201 -1.2335
 4332SOL     OW24628   3.796   1.212   3.449 -0.6934 -0.1986 -0.3662
 4332SOL    HW124629   3.776   1.289   3.503  0.2762  0.0869 -0.4142
 4332SOL    HW224630   3.751   1.235   3.367 -0.2461 -2.7261 -1.2994
 4333SOL     OW24631   4.032   0.596   6.584 -0.1222 -0.2731 -0.5062
 4333SOL    HW124632   4.080   0.579   6.503 -0.7346 -1.8541 -0.5383
 4333SOL    HW224633   4.081   0.669   6.623  0.5648 -0.9531 -0.0966
 4334SOL     OW24634   3.517   3.037   0.313 -0.5309  0.3028 -0.5102
 4334SOL    HW124635   3.557   3.101   0.254 -1.3287 -0.4389 -1.8276
 4334SOL    HW224636   3.431   3.018   0.277 -0.1175  0.1287 -1.3909
 4335SOL     OW24637   1.601   4.487   4.459 -0.3243 -0.3137 -0.3024
 4335SOL    HW124638   1.642   4.569   4.486  0.6520 -1.1753  0.8231
 4335SOL    HW224639   1.570   4.454   4.543  0.8628  0.5660  0.4886
 4336SOL     OW24640   2.475   1.421   3.822 -0.0470  0.3226 -0.6528
 4336SOL    HW124641   2.498   1.480   3.894  0.1670  0.4591 -0.8343
 4336SOL    HW224642   2.538   1.350   3.836 -1.2061 -0.9451 -1.7351
 4337SOL     OW24643   2.699   1.884  11.347 -0.5347  0.0098  0.1046
 4337SOL    HW124644   2.714   1.914  11.258 -2.6238  4.4840  1.2403
 4337SOL    HW224645   2.613   1.843  11.338 -0.4457  0.0942 -1.0503
 4338SOL     OW24646   0.721   3.838   4.060 -0.2283  0.4418 -0.1938
 4338SOL    HW124647   0.731   3.744   4.076  1.8305  0.0934 -3.5755
 4338SOL    HW224648   0.761   3.875   4.139  0.9346 -1.6529  0.2039
 4339SOL     OW24649   3.793   3.636   8.554  0.0746 -0.3004 -0.2767
 4339SOL    HW124650   3.707   3.674   8.571  1.1973  1.7771  0.6283
 4339SOL    HW224651   3.825   3.702   8.493  1.1921 -0.3801  0.2237
 4340SOL     OW24652   1.516   4.720  17.060 -0.1191 -0.1027 -0.2464
 4340SOL    HW124653   1.506   4.629  17.031 -0.6227  0.0219 -0.4644
 4340SOL    HW224654   1.431   0.023  17.072  0.5471 -0.0862  4.4091
 4341SOL     OW24655   3.709   3.958  13.408 -0.1237  0.0977  1.0184
 4341SOL    HW124656   3.626   3.912  13.401  0.5107 -0.8948 -0.0331
 4341SOL    HW224657   3.675   4.047  13.408 -1.9611 -0.6199 -1.6665
 4342SOL     OW24658   1.215   3.294   0.881  0.1127 -0.5359 -0.0783
 4342SOL    HW124659   1.291   3.246   0.915  1.6679 -0.3705 -3.2512
 4342SOL    HW224660   1.266   3.371   0.856 -1.2010  0.3525  0.0228
 4343SOL     OW24661   1.666   4.275   9.928  0.4583  0.1231  0.2234
 4343SOL    HW124662   1.589   4.237   9.970  0.9392  1.0105  1.9008
 4343SOL    HW224663   1.710   4.192   9.908  0.4974  0.4838 -1.2045
 4344SOL     OW24664   1.357   2.709  10.969 -0.2350 -0.4822 -0.2232
 4344SOL    HW124665   1.290   2.656  10.926  0.7786 -2.0887  0.1379
 4344SOL    HW224666   1.430   2.695  10.908  1.4536 -0.7918  1.8436
 4345SOL     OW24667   3.698   2.290   0.643  0.3630 -0.0020  0.0399
 4345SOL    HW124668   3.716   2.234   0.718 -1.1706  0.0440  0.4395
 4345SOL    HW224669   3.702   2.376   0.685 -0.2713  0.5198 -0.9683
 4346SOL     OW24670   4.592   4.263   0.289  0.1412 -0.0130  0.1184
 4346SOL    HW124671   4.521   4.327   0.291  0.3099  0.1358  1.5050
 4346SOL    HW224672   4.655   4.318   0.243  0.1378  0.0663  0.2079
 4347SOL     OW24673   3.806   3.378   2.879 -0.1914 -0.6600 -0.6662
 4347SOL    HW124674   3.744   3.347   2.814  0.0605 -0.4284 -1.0171
 4347SOL    HW224675   3.840   3.456   2.835 -2.8224  0.0044 -1.5153
 4348SOL     OW24676   0.260   0.066   0.856 -0.2724  0.0403 -0.0554
 4348SOL    HW124677   0.193   0.106   0.800 -0.3716 -2.4770 -1.6962
 4348SOL    HW224678   0.324   0.132   0.829 -1.2339  1.7950  1.9337
 4349SOL     OW24679   2.286   2.863   9.665 -0.0041 -0.7066  0.0646
 4349SOL    HW124680   2.278   2.774   9.630 -0.3456 -0.4875 -0.4145
 4349SOL    HW224681   2.377   2.892   9.652  0.4489 -2.1304  0.1117
 4350SOL     OW24682   3.428   2.058   8.342  0.0634 -0.3904  0.0765
 4350SOL    HW124683   3.399   1.967   8.351  0.2556 -0.4079  0.4973
 4350SOL    HW224684   3.494   2.039   8.275  1.0778  0.9634  0.7131
 4351SOL     OW24685   4.725   1.843   1.383 -0.2640 -0.5516 -0.0349
 4351SOL    HW124686   0.037   1.817   1.460 -1.6452 -1.1402  0.6667
 4351SOL    HW224687   4.663   1.903   1.425 -0.7089 -1.1243  0.1229
 4352SOL     OW24688   3.802   3.883   6.841  0.2218  0.4078 -0.5646
 4352SOL    HW124689   3.878   3.909   6.893  0.5089  2.9481 -2.2572
 4352SOL    HW224690   3.786   3.792   6.866 -0.6557  0.9374  0.7801
 4353SOL     OW24691   2.870   2.591  13.590 -0.1307 -0.7656 -0.2437
 4353SOL    HW124692   2.818   2.535  13.531 -2.8213  2.0205 -0.4888
 4353SOL    HW224693   2.866   2.533  13.666  1.4661  1.9488  1.9042
 4354SOL     OW24694   1.681   2.055   5.999  0.2496 -0.3413  0.0780
 4354SOL    HW124695   1.765   2.095   6.021 -0.8070  1.9610 -0.1674
 4354SOL    HW224696   1.689   2.041   5.905  1.8673  1.1957 -0.0203
 4355SOL     OW24697   2.402   2.370  10.041  0.0056  0.0020  0.5817
 4355SOL    HW124698   2.413   2.276  10.031 -0.1348  0.1394 -0.7955
 4355SOL    HW224699   2.494   2.396  10.044  0.0077  0.1927 -1.0941
 4356SOL     OW24700   1.261   1.670   6.767  0.0821 -0.2605  0.2072
 4356SOL    HW124701   1.172   1.641   6.786  0.5611 -1.7863  0.0701
 4356SOL    HW224702   1.291   1.610   6.699 -2.4991  1.2448 -2.2613
 4357SOL     OW24703   4.511   1.345   2.332  0.0697  0.9489 -0.3393
 4357SOL    HW124704   4.599   1.353   2.368  0.4202  2.9887 -1.6395
 4357SOL    HW224705   4.486   1.267   2.381 -0.1424 -0.2764 -2.4215
 4358SOL     OW24706   1.494   1.130   5.064 -0.5497  0.4671 -0.3725
 4358SOL    HW124707   1.475   1.190   4.992 -2.8548 -2.1790 -2.0046
 4358SOL    HW224708   1.541   1.058   5.021  1.3030  1.3272  0.2526
 4359SOL     OW24709   0.331   3.340   5.060  0.7405 -0.0931 -0.2431
 4359SOL    HW124710   0.372   3.254   5.067 -1.1410 -0.6366  4.3224
 4359SOL    HW224711   0.393   3.399   5.104 -0.8572 -0.6563  2.7867
 4360SOL     OW24712   0.383   0.077  12.257 -0.3654  0.2110  0.6075
 4360SOL    HW124713   0.294   0.084  12.223 -0.8341 -2.9791  1.1951
 4360SOL    HW224714   0.365   0.115  12.344  2.4419  0.3656  1.1220
 4361SOL     OW24715   0.088   1.039   7.382 -0.0074 -0.0033  0.3744
 4361SOL    HW124716   0.182   1.046   7.399  0.0926  0.6279 -0.4066
 4361SOL    HW224717   0.048   1.093   7.450 -0.0950  0.5159 -0.0861
 4362SOL     OW24718   0.319   2.210   6.236  0.4438 -0.4233  0.4373
 4362SOL    HW124719   0.377   2.146   6.277  1.9629  2.1153  2.3025
 4362SOL    HW224720   0.379   2.247   6.172 -1.7959  0.1620 -1.3048
 4363SOL     OW24721   4.473   0.033  13.164  0.0754 -0.6673  0.4236
 4363SOL    HW124722   4.407   0.001  13.225 -1.4152  3.0421  0.7577
 4363SOL    HW224723   4.530   4.696  13.146 -0.7721 -1.4519  0.9860
 4364SOL     OW24724   1.769   3.045   7.666  0.1206  0.4365  0.2724
 4364SOL    HW124725   1.774   3.125   7.614 -0.3930 -0.0518 -0.5256
 4364SOL    HW224726   1.730   2.987   7.601  1.2764  1.0561 -0.9813
 4365SOL     OW24727   4.467   4.628   7.999 -0.2020 -0.3310 -0.2072
 4365SOL    HW124728   4.532   4.604   8.066  0.3337 -0.6217 -0.8259
 4365SOL    HW224729   4.397   4.671   8.048 -0.8191 -2.2151  0.5762
 4366SOL     OW24730   2.787   2.719   2.471 -0.1543  0.0540 -0.3480
 4366SOL    HW124731   2.783   2.643   2.412  0.8193 -0.1338 -0.1700
 4366SOL    HW224732   2.832   2.678   2.545  0.1534  1.9101  0.4904
 4367SOL     OW24733   1.486   3.494  11.987  0.2575 -0.2018  0.0174
 4367SOL    HW124734   1.504   3.496  12.081  1.2199  0.4103 -0.1853
 4367SOL    HW224735   1.465   3.401  11.981  0.5136 -0.3287  1.0829
 4368SOL     OW24736   3.226   2.507   6.207  0.5965  0.7348 -0.6009
 4368SOL    HW124737   3.249   2.506   6.114 -1.3761 -0.6918 -1.0857
 4368SOL    HW224738   3.317   2.522   6.234  1.3529  0.1622 -2.8711
 4369SOL     OW24739   1.911   3.869   8.281  0.2768  0.0543  0.3495
 4369SOL    HW124740   1.922   3.959   8.249 -0.5051 -0.5329 -1.5526
 4369SOL    HW224741   2.002   3.839   8.281  0.3379  0.2229  1.5907
 4370SOL     OW24742   2.458   2.073   5.607  0.6450 -0.0649  0.2575
 4370SOL    HW124743   2.392   2.074   5.677  0.0971  1.5960 -0.2916
 4370SOL    HW224744   2.470   1.981   5.581  0.2729  0.0025 -0.1567
 4371SOL     OW24745   4.528   2.978   7.027 -0.0518 -0.0044 -0.5680
 4371SOL    HW124746   4.463   2.933   7.081  0.2655  0.1798 -0.0403
 4371SOL    HW224747   4.536   2.927   6.946 -0.7371  3.0026 -2.5193
 4372SOL     OW24748   2.593   2.450   6.367 -0.2871 -0.4550 -0.3915
 4372SOL    HW124749   2.620   2.539   6.346  2.9253 -1.3666 -0.2283
 4372SOL    HW224750   2.604   2.399   6.287 -0.7801 -0.6412 -0.3369
 4373SOL     OW24751   2.976   0.648   3.077  0.9167 -0.7298 -0.3257
 4373SOL    HW124752   3.065   0.664   3.110  0.2445  1.7257  0.2728
 4373SOL    HW224753   2.967   0.711   3.005 -0.2807 -0.9993 -0.4025
 4374SOL     OW24754   3.944   1.335   4.181 -0.7513  0.1620 -0.0408
 4374SOL    HW124755   3.897   1.357   4.101 -1.5633  0.0260  0.3937
 4374SOL    HW224756   3.955   1.241   4.165 -3.1626 -0.2240  0.4350
 4375SOL     OW24757   1.792   2.437   2.135 -0.1303 -0.4460 -0.0723
 4375SOL    HW124758   1.752   2.460   2.219 -1.1745  2.0914 -1.2758
 4375SOL    HW224759   1.734   2.495   2.087  0.5076 -0.6420 -1.0725
 4376SOL     OW24760   4.099   4.593   9.071  0.5884 -0.0718 -0.4564
 4376SOL    HW124761   4.071   4.639   8.992 -0.5632  1.6562  0.9574
 4376SOL    HW224762   4.019   4.595   9.123  1.2848  0.8389  0.5726
 4377SOL     OW24763   3.683   3.946   2.189 -0.6140 -0.4097  0.5740
 4377SOL    HW124764   3.750   3.945   2.257 -0.3793 -2.4507  0.3157
 4377SOL    HW224765   3.663   3.852   2.185  0.8741 -0.6710 -1.0658
 4378SOL     OW24766   2.144   1.116  15.871 -0.3664  0.0723 -0.8074
 4378SOL    HW124767   2.224   1.065  15.882  0.6078  1.5735 -0.9368
 4378SOL    HW224768   2.114   1.089  15.785 -1.1772 -4.0051  0.7532
 4379SOL     OW24769   1.017   2.007  10.919  0.3986 -0.7156  0.1723
 4379SOL    HW124770   1.083   2.076  10.908 -0.3513  0.2172  1.4431
 4379SOL    HW224771   0.960   2.018  10.843  0.1465  0.6198  0.5580
 4380SOL     OW24772   4.203   2.846  15.075 -0.0005 -0.1605  0.2759
 4380SOL    HW124773   4.193   2.806  14.988 -0.8170 -0.2850  0.4218
 4380SOL    HW224774   4.287   2.811  15.102  0.2934 -1.1933 -1.9629
 4381SOL     OW24775   0.869   2.617  16.411  0.3472  0.7422 -0.5102
 4381SOL    HW124776   0.865   2.690  16.473  0.4268  0.5803 -0.3122
 4381SOL    HW224777   0.963   2.602  16.420  0.3429  1.0791  0.1523
 4382SOL     OW24778   2.528   0.143  13.843 -0.2120 -0.8155 -0.0348
 4382SOL    HW124779   2.467   0.070  13.837  0.7127 -1.5759 -0.1182
 4382SOL    HW224780   2.556   0.145  13.934 -2.0178  3.2214  0.4334
 4383SOL     OW24781   1.945   2.095   6.154  0.3118  0.2392 -0.0444
 4383SOL    HW124782   1.887   2.067   6.225 -0.7807  0.0867 -1.0167
 4383SOL    HW224783   1.961   2.189   6.168 -1.0868  0.2227  1.6873
 4384SOL     OW24784   3.551   4.650  13.263 -0.1864  0.2233  0.1517
 4384SOL    HW124785   3.583   4.567  13.299  1.8752  0.6001 -0.8036
 4384SOL    HW224786   3.509   4.613  13.185  1.1554 -1.7859  0.3729
 4385SOL     OW24787   2.049   2.659  15.945  0.2144 -0.2144  0.0660
 4385SOL    HW124788   2.020   2.577  15.986 -1.7226  0.9415  1.0032
 4385SOL    HW224789   1.974   2.684  15.890  0.3570 -0.1356 -0.0925
 4386SOL     OW24790   1.369   2.032   2.535  0.1638 -0.5101 -0.1349
 4386SOL    HW124791   1.293   1.982   2.564  0.5377 -1.9069 -1.6157
 4386SOL    HW224792   1.345   2.120   2.567  0.1830 -0.3701 -0.5123
 4387SOL     OW24793   0.391   3.090  15.965 -0.2371  0.4089  0.5326
 4387SOL    HW124794   0.295   3.088  15.968 -0.1923  0.5747  2.0596
 4387SOL    HW224795   0.420   3.009  16.008  1.8229 -0.1474 -1.9126
 4388SOL     OW24796   0.666   2.719   3.266  0.4892  0.3555 -0.3146
 4388SOL    HW124797   0.595   2.665   3.302  0.7115 -0.1795 -0.6768
 4388SOL    HW224798   0.628   2.766   3.192  0.5817  2.1907  0.8157
 4389SOL     OW24799   4.114   3.816   7.056 -0.3197 -0.3213  0.5054
 4389SOL    HW124800   4.113   3.821   6.960 -1.2823  0.9897  0.5864
 4389SOL    HW224801   4.132   3.907   7.081  4.4196 -1.5045  1.5169
 4390SOL     OW24802   1.134   1.773   2.564  0.0948  0.5043 -0.1607
 4390SOL    HW124803   1.061   1.777   2.503  0.9994  1.4474 -1.1872
 4390SOL    HW224804   1.105   1.830   2.636  0.2591  0.3658  0.0152
 4391SOL     OW24805   3.143   2.028   3.112  0.3253 -0.6532  0.0919
 4391SOL    HW124806   3.091   2.090   3.062 -0.1545 -1.7939 -0.8314
 4391SOL    HW224807   3.198   1.990   3.044 -0.0949  1.3874 -1.3748
 4392SOL     OW24808   2.156   0.680   3.470 -0.4016 -0.2548  0.1540
 4392SOL    HW124809   2.084   0.713   3.414  0.6493  1.8734  0.0484
 4392SOL    HW224810   2.110   0.633   3.539  1.4230 -1.5416  0.4551
 4393SOL     OW24811   4.193   2.682   9.682 -0.2473  0.6323  0.1752
 4393SOL    HW124812   4.190   2.586   9.685 -1.2760  0.6551 -0.1142
 4393SOL    HW224813   4.145   2.700   9.602  1.7541  0.8669 -0.9811
 4394SOL     OW24814   0.744   3.085   0.681 -0.2323 -1.4269  0.6289
 4394SOL    HW124815   0.717   3.171   0.713  0.0367  0.0482 -3.0668
 4394SOL    HW224816   0.838   3.098   0.696 -0.7763  0.4256  2.4961
 4395SOL     OW24817   3.745   0.354   7.481 -0.6980  1.0405  0.0494
 4395SOL    HW124818   3.794   0.417   7.428 -1.1322  0.4398 -1.0695
 4395SOL    HW224819   3.665   0.357   7.429 -0.3621  2.0307 -0.4055
 4396SOL     OW24820   0.042   2.599   2.843 -0.0789  0.2213  0.1876
 4396SOL    HW124821   0.099   2.530   2.877  0.6903  1.0009  0.4844
 4396SOL    HW224822   0.041   2.565   2.753  0.6176  0.1061  0.2230
 4397SOL     OW24823   0.552   1.408   5.926  0.0660 -0.2529 -0.1133
 4397SOL    HW124824   0.615   1.480   5.930  0.0643 -0.2840  0.4879
 4397SOL    HW224825   0.609   1.336   5.900 -2.2996 -2.5194  1.0231
 4398SOL     OW24826   3.145   3.223   0.457  0.1174 -0.4033  0.0675
 4398SOL    HW124827   3.236   3.242   0.482  0.3313 -1.3694  0.0485
 4398SOL    HW224828   3.154   3.234   0.363 -1.0190 -1.9822 -0.2294
 4399SOL     OW24829   3.168   2.218   4.208  0.1076  0.8777 -0.3534
 4399SOL    HW124830   3.251   2.213   4.161  1.7023 -1.1951  2.6818
 4399SOL    HW224831   3.105   2.244   4.142 -0.4840  1.6051  0.4931
 4400SOL     OW24832   2.090   1.402   2.125  0.4379  1.2045 -0.3308
 4400SOL    HW124833   2.059   1.337   2.062  1.6484  1.1045 -0.8376
 4400SOL    HW224834   2.021   1.413   2.190 -1.2217  1.5493 -2.1386
 4401SOL     OW24835   4.132   4.138   9.787  0.2265  0.1901 -0.6514
 4401SOL    HW124836   4.067   4.123   9.856  0.8711 -0.4653 -0.1814
 4401SOL    HW224837   4.195   4.069   9.808 -0.2464 -0.0221  0.0663
 4402SOL     OW24838   1.532   2.201  12.753  0.0479  0.3204  0.1148
 4402SOL    HW124839   1.516   2.290  12.722  0.6281  0.2507 -0.3704
 4402SOL    HW224840   1.530   2.140  12.679 -0.7858  0.5731 -0.0760
 4403SOL     OW24841   2.588   0.988   2.197 -0.6099  0.1200  0.1196
 4403SOL    HW124842   2.506   1.007   2.243 -0.0409 -0.3927  1.3455
 4403SOL    HW224843   2.560   0.947   2.115 -1.4635 -0.0886  0.5229
 4404SOL     OW24844   2.864   4.277  14.360  0.7491 -0.0728 -0.4582
 4404SOL    HW124845   2.828   4.293  14.273 -0.5297  2.1266  0.4782
 4404SOL    HW224846   2.795   4.304  14.420  1.2294 -0.9111  0.4632
 4405SOL     OW24847   4.736   2.772  10.892  0.5070  0.6069  0.6335
 4405SOL    HW124848   0.013   2.799  10.801  0.6371 -0.3342  0.3766
 4405SOL    HW224849   4.642   2.756  10.905  0.2604  1.2355 -0.3411
 4406SOL     OW24850   3.254   1.104   5.275 -0.3412 -0.0557 -0.2899
 4406SOL    HW124851   3.311   1.041   5.231  0.9322  1.9080 -1.5019
 4406SOL    HW224852   3.193   1.041   5.312  0.5842  0.0167  1.3551
 4407SOL     OW24853   3.754   0.157   6.693  0.2782 -0.2669 -0.0569
 4407SOL    HW124854   3.810   0.233   6.704  1.2863 -1.1572  1.0074
 4407SOL    HW224855   3.785   0.095   6.760 -5.0851 -0.8001  1.9118
 4408SOL     OW24856   1.280   3.905   6.177  0.1797  0.9114  0.0191
 4408SOL    HW124857   1.255   3.990   6.142 -0.3035  0.5527 -0.5036
 4408SOL    HW224858   1.320   3.868   6.098  0.7137 -1.8731  1.5942
 4409SOL     OW24859   1.387   4.102   8.295 -0.4738  0.3993  0.0902
 4409SOL    HW124860   1.358   4.175   8.240 -2.5749  0.9021  1.8522
 4409SOL    HW224861   1.387   4.032   8.228  2.9972  1.8429 -1.3954
 4410SOL     OW24862   4.650   1.385   0.388 -0.2931 -0.0408  0.1942
 4410SOL    HW124863   4.620   1.346   0.306 -1.1047  2.6406 -0.8064
 4410SOL    HW224864   4.667   1.311   0.445 -2.7598 -0.7501  0.0113
 4411SOL     OW24865   4.400   0.473  12.976  0.6717  0.1087 -0.1091
 4411SOL    HW124866   4.396   0.559  13.018  1.9272  0.1433 -0.0691
 4411SOL    HW224867   4.327   0.477  12.914  0.3694  0.6415  0.2829
 4412SOL     OW24868   1.420   1.300   6.954  0.0787  0.6711 -0.2309
 4412SOL    HW124869   1.390   1.383   6.991 -1.1032 -0.5020  1.4404
 4412SOL    HW224870   1.390   1.228   7.010  0.0861  1.4647  0.7960
 4413SOL     OW24871   1.907   1.189   4.868 -0.1755 -0.6355 -0.3942
 4413SOL    HW124872   1.983   1.179   4.811  0.5342 -0.2051  0.4755
 4413SOL    HW224873   1.917   1.282   4.889  0.3862 -0.6843 -0.4612
 4414SOL     OW24874   2.005   0.247   9.172  0.2843 -0.2030 -0.1974
 4414SOL    HW124875   2.054   0.192   9.233 -0.4485 -1.2225 -0.5078
 4414SOL    HW224876   1.923   0.238   9.221  1.6012  1.0036  2.2603
 4415SOL     OW24877   2.828   4.210   8.281 -0.2209  0.3049  0.4047
 4415SOL    HW124878   2.808   4.227   8.373  1.2636  4.1520 -0.0323
 4415SOL    HW224879   2.810   4.116   8.282 -2.2013  0.6674 -2.1691
 4416SOL     OW24880   2.408   0.732   9.717  0.5785  0.0833  0.1145
 4416SOL    HW124881   2.363   0.687   9.789  0.1735  1.2561  0.5865
 4416SOL    HW224882   2.495   0.731   9.756  0.0570 -0.7476  1.2840
 4417SOL     OW24883   0.801   1.145   7.127 -0.7159 -0.5796  0.2734
 4417SOL    HW124884   0.822   1.180   7.040  3.2774 -0.1228  1.4430
 4417SOL    HW224885   0.757   1.220   7.168  1.6522  0.6487  0.5461
 4418SOL     OW24886   2.947   1.269   3.984 -0.2612  0.9726 -0.9407
 4418SOL    HW124887   2.872   1.214   3.961 -1.0324  1.1513  1.1592
 4418SOL    HW224888   2.935   1.346   3.928 -1.5177  1.8757  0.5778
 4419SOL     OW24889   1.014   3.554  10.561 -0.3956 -0.3020  0.4507
 4419SOL    HW124890   1.077   3.486  10.536  0.1237  0.9193 -1.5599
 4419SOL    HW224891   0.954   3.558  10.486  0.6633 -1.2341 -0.4374
 4420SOL     OW24892   3.892   2.113  17.219 -0.2959 -0.4993  0.0265
 4420SOL    HW124893   3.832   2.046  17.188  1.0769 -1.7744  0.1256
 4420SOL    HW224894   3.971   2.061  17.234  0.9301  1.4446  0.3113
 4421SOL     OW24895   3.705   2.668   1.662 -0.0555  0.6056  0.0371
 4421SOL    HW124896   3.642   2.624   1.604  0.2984 -1.6046  1.3327
 4421SOL    HW224897   3.757   2.592   1.688  0.4160  0.2794 -1.8566
 4422SOL     OW24898   4.404   3.573  16.893 -0.0075 -0.0850  0.1318
 4422SOL    HW124899   4.408   3.667  16.877 -1.6766 -0.3705 -1.9160
 4422SOL    HW224900   4.471   3.552  16.958  1.8186  0.9282 -1.4010
 4423SOL     OW24901   2.632   2.433   2.733  0.0170 -0.8258 -0.3190
 4423SOL    HW124902   2.587   2.374   2.672  1.0914 -1.7201 -0.2412
 4423SOL    HW224903   2.658   2.373   2.803 -2.9672 -0.6715  0.9244
 4424SOL     OW24904   1.067   2.679  17.278 -0.0981  0.5655  0.6468
 4424SOL    HW124905   0.996   2.730  17.316 -1.2282  0.9748 -2.0421
 4424SOL    HW224906   1.094   2.738  17.209 -2.0516  0.0411 -0.5549
 4425SOL     OW24907   4.541   1.467   8.896  0.7096 -0.5193  0.0066
 4425SOL    HW124908   4.473   1.497   8.956  0.5586 -0.4962 -0.1769
 4425SOL    HW224909   4.515   1.511   8.815 -0.1701  1.7954  1.5377
 4426SOL     OW24910   4.142   3.215   1.351  0.0712  0.6026  0.3456
 4426SOL    HW124911   4.142   3.140   1.410  3.2696  0.9048  0.7574
 4426SOL    HW224912   4.151   3.291   1.409  1.3803  2.2764 -2.0727
 4427SOL     OW24913   2.798   2.851   6.097 -0.2422  0.2216 -0.2165
 4427SOL    HW124914   2.737   2.786   6.132 -0.5514  0.1551 -0.8781
 4427SOL    HW224915   2.870   2.845   6.161 -0.3448  0.6391 -0.0586
 4428SOL     OW24916   3.289   2.948   4.165  0.1771  0.4158 -0.3885
 4428SOL    HW124917   3.320   2.941   4.075 -0.0827 -3.2901 -0.1958
 4428SOL    HW224918   3.317   2.866   4.206 -3.7541 -1.3166 -1.1138
 4429SOL     OW24919   0.583   3.679   4.943  0.3004  0.4200 -0.4314
 4429SOL    HW124920   0.546   3.760   4.978  1.6311  0.8963 -0.1254
 4429SOL    HW224921   0.577   3.692   4.848  3.0428 -2.6720 -1.0289
 4430SOL     OW24922   4.088   0.247  11.265 -0.2620  0.1641  0.5105
 4430SOL    HW124923   4.129   0.334  11.267 -1.5259  0.7766 -0.3788
 4430SOL    HW224924   4.002   0.274  11.297  0.2326  2.4104 -0.0411
 4431SOL     OW24925   3.507   0.801   6.244  0.9880 -0.2386 -0.0942
 4431SOL    HW124926   3.456   0.882   6.249 -1.3733 -1.8258  1.4799
 4431SOL    HW224927   3.593   0.822   6.209  0.1592 -1.2878 -2.7700
 4432SOL     OW24928   3.474   2.177   5.885  0.4663  0.9900  0.4759
 4432SOL    HW124929   3.485   2.153   5.977 -2.4700  0.7105  0.7364
 4432SOL    HW224930   3.384   2.209   5.882 -0.2234 -0.7346  2.4159
 4433SOL     OW24931   0.591   1.655   7.456 -0.4100 -0.1455  0.1054
 4433SOL    HW124932   0.612   1.643   7.549 -1.0359 -0.4674  0.2048
 4433SOL    HW224933   0.498   1.635   7.463 -0.0633 -1.7508  0.1112
 4434SOL     OW24934   4.145   1.584   6.280  0.0148  0.2576  0.6101
 4434SOL    HW124935   4.056   1.551   6.294 -1.5961  4.4509  0.0717
 4434SOL    HW224936   4.125   1.640   6.205  1.4870  0.2933  0.2364
 4435SOL     OW24937   3.718   3.801   4.733 -0.0697 -0.0585 -0.1569
 4435SOL    HW124938   3.748   3.714   4.759  0.9126  0.1668 -0.5640
 4435SOL    HW224939   3.661   3.784   4.658 -0.6395 -1.6414  0.6459
 4436SOL     OW24940   1.060   1.264   3.644  0.2846 -0.2128  0.5456
 4436SOL    HW124941   1.108   1.334   3.688  1.1887  0.1115 -0.9440
 4436SOL    HW224942   1.049   1.203   3.717  0.2968 -0.4366  0.3626
 4437SOL     OW24943   2.551   4.157   5.483  0.2826 -0.2099 -0.0839
 4437SOL    HW124944   2.535   4.113   5.566  1.5018  1.7880  1.2142
 4437SOL    HW224945   2.646   4.143   5.473  0.6135  1.4619  0.7770
 4438SOL     OW24946   3.969   2.417  11.232  0.0117 -0.4295  0.0402
 4438SOL    HW124947   3.962   2.321  11.230  2.4264 -0.5919 -0.0455
 4438SOL    HW224948   3.879   2.448  11.222 -0.1887 -0.9813  0.1283
 4439SOL     OW24949   2.176   2.147   7.521 -0.4161 -0.0211  0.3743
 4439SOL    HW124950   2.227   2.102   7.588  1.7878  0.3072 -1.0901
 4439SOL    HW224951   2.208   2.112   7.439 -0.3586 -0.3702  0.5470
 4440SOL     OW24952   2.420   0.939   4.815 -0.0040 -0.0269 -0.2410
 4440SOL    HW124953   2.446   0.861   4.767 -1.7573 -0.1674 -0.9540
 4440SOL    HW224954   2.431   1.011   4.752 -0.8745 -0.9359 -1.4270
 4441SOL     OW24955   3.215   0.051   6.359  0.3775  0.6070  0.1323
 4441SOL    HW124956   3.167   0.034   6.278  0.4643  0.7348  0.0536
 4441SOL    HW224957   3.172   0.133   6.384 -0.9320 -0.3904  1.1742
 4442SOL     OW24958   2.019   3.594   8.843 -0.4085  0.0264  0.1423
 4442SOL    HW124959   1.999   3.591   8.937  1.5980 -0.0996  0.5727
 4442SOL    HW224960   1.969   3.520   8.809  0.3962 -0.4317 -0.0521
 4443SOL     OW24961   2.374   0.968   7.280  0.1313 -0.2719 -0.0125
 4443SOL    HW124962   2.346   1.055   7.252 -0.0828  0.1984  1.6697
 4443SOL    HW224963   2.390   0.980   7.374  1.4775 -0.2477 -0.2421
 4444SOL     OW24964   0.670   3.237   7.005 -0.4499 -0.5354  0.0902
 4444SOL    HW124965   0.608   3.241   6.932 -0.8711 -1.4138  0.4043
 4444SOL    HW224966   0.679   3.328   7.034  1.1256 -1.0177  1.1340
 4445SOL     OW24967   2.404   3.726   3.968  0.4975  0.6791  0.1314
 4445SOL    HW124968   2.407   3.631   3.951  2.7011  0.8434 -0.4751
 4445SOL    HW224969   2.356   3.760   3.893  0.7903  1.3798  0.2668
 4446SOL     OW24970   0.937   1.044  11.702  0.6037 -0.1557 -0.8429
 4446SOL    HW124971   0.846   1.040  11.729  0.4460  1.3228 -1.1462
 4446SOL    HW224972   0.969   1.117  11.755 -1.7697 -0.3296  0.7838
 4447SOL     OW24973   3.059   1.469  15.517 -0.2180  0.0375  0.8225
 4447SOL    HW124974   2.965   1.488  15.526 -0.6644 -1.8097  0.0366
 4447SOL    HW224975   3.074   1.552  15.471 -0.5591  0.2263  1.0523
 4448SOL     OW24976   1.538   4.623  16.525  0.0344  0.4275  0.2229
 4448SOL    HW124977   1.443   4.634  16.530 -0.2192 -2.3690  1.3463
 4448SOL    HW224978   1.551   4.587  16.438 -2.0382  0.3677 -0.0508
 4449SOL     OW24979   1.360   1.111   7.131  0.2381 -0.0831  0.0658
 4449SOL    HW124980   1.278   1.106   7.179  0.5040 -0.8675  0.4399
 4449SOL    HW224981   1.422   1.082   7.198  1.0728 -0.0564 -0.6775
 4450SOL     OW24982   0.065   1.854   5.971 -0.3459 -0.4134  0.3092
 4450SOL    HW124983   0.140   1.801   6.000  0.0493  1.7137  3.1625
 4450SOL    HW224984   0.072   1.927   6.032  1.3690 -0.2891 -0.0484
 4451SOL     OW24985   1.509   0.025   7.322 -0.2420  0.3704 -0.2030
 4451SOL    HW124986   1.590   4.714   7.307 -0.0020  0.8603 -0.5463
 4451SOL    HW224987   1.499   4.734   7.412  0.2834 -0.2427 -0.3388
 4452SOL     OW24988   3.283   0.031   2.400  0.1828 -0.4646 -0.6235
 4452SOL    HW124989   3.329   0.097   2.451 -0.8996  0.0040 -0.2635
 4452SOL    HW224990   3.318   4.687   2.434 -1.4136 -0.6625  0.5423
 4453SOL     OW24991   2.620   0.791  15.856  0.3155 -0.4858 -0.0245
 4453SOL    HW124992   2.646   0.710  15.812 -2.9468 -1.7408  0.3362
 4453SOL    HW224993   2.603   0.847  15.781  1.6350  0.7114  0.5534
 4454SOL     OW24994   2.637   3.619   1.121 -0.0037 -0.1143 -0.1526
 4454SOL    HW124995   2.686   3.686   1.168  0.0922  1.2200 -2.1536
 4454SOL    HW224996   2.663   3.641   1.031  2.1389 -3.0045 -0.2734
 4455SOL     OW24997   2.179   2.438   8.389 -0.5394 -0.4607 -0.1758
 4455SOL    HW124998   2.130   2.520   8.379 -1.6997 -0.8202  2.6846
 4455SOL    HW224999   2.239   2.468   8.457 -0.3419 -1.5321  0.1172
 4456SOL     OW25000   4.026   2.920   3.109 -0.3575 -0.4431  0.2337
 4456SOL    HW125001   4.107   2.947   3.152  1.0943  0.1811 -2.9088
 4456SOL    HW225002   4.002   3.000   3.062  0.3438 -1.2598 -1.5155
 4457SOL     OW25003   1.795   0.311   2.768  0.1395  0.1372  0.6220
 4457SOL    HW125004   1.700   0.309   2.780  0.1025 -0.9808  0.1020
 4457SOL    HW225005   1.805   0.363   2.688 -0.2362 -1.3368 -0.3963
 4458SOL     OW25006   1.743   1.864  12.810 -0.3930 -0.7197 -0.1728
 4458SOL    HW125007   1.668   1.884  12.754  0.8938 -1.6963 -2.2173
 4458SOL    HW225008   1.805   1.935  12.796  0.6518 -1.1188  2.4292
 4459SOL     OW25009   1.836   4.263   3.251  0.5071  0.1771  0.1643
 4459SOL    HW125010   1.782   4.342   3.258 -0.6603 -0.4155 -2.2737
 4459SOL    HW225011   1.917   4.276   3.300  0.7263 -0.1238 -0.1123
 4460SOL     OW25012   0.032   0.799  10.371 -0.0742  0.0783  0.5410
 4460SOL    HW125013   0.122   0.767  10.359 -0.6738 -0.8902 -1.2985
 4460SOL    HW225014   4.720   0.722  10.346 -0.1030 -0.1952  1.4184
 4461SOL     OW25015   2.132   2.510  13.215 -0.0711  0.6196 -0.3792
 4461SOL    HW125016   2.175   2.533  13.133  0.0202 -0.7655 -0.7173
 4461SOL    HW225017   2.138   2.414  13.211  2.9557  0.7402  1.1698
 4462SOL     OW25018   1.085   1.710   2.052 -0.2101  0.6954 -0.2381
 4462SOL    HW125019   1.108   1.707   2.145 -2.0135 -0.8187  0.1549
 4462SOL    HW225020   1.120   1.625   2.026 -0.2851  0.9016 -1.0064
 4463SOL     OW25021   2.872   0.863   7.463  0.1723  0.2245  0.8344
 4463SOL    HW125022   2.918   0.788   7.499  0.1569 -0.9281 -1.5232
 4463SOL    HW225023   2.796   0.860   7.521 -0.2520  1.5403  0.3521
 4464SOL     OW25024   2.118   2.721   2.354  0.3315 -0.0815 -0.0729
 4464SOL    HW125025   2.115   2.645   2.295 -0.9861 -0.3160  0.2945
 4464SOL    HW225026   2.048   2.774   2.317 -0.9671 -2.4019 -0.9621
 4465SOL     OW25027   3.433   0.148   5.917 -0.3129 -0.0647 -0.7197
 4465SOL    HW125028   3.458   0.222   5.972 -1.2972  0.0720 -0.4419
 4465SOL    HW225029   3.342   0.135   5.944 -0.5913  2.2118 -0.5465
 4466SOL     OW25030   1.197   3.896   5.036 -1.1340 -0.0782 -0.4649
 4466SOL    HW125031   1.170   3.821   5.089 -3.1198  1.2402  0.4231
 4466SOL    HW225032   1.118   3.950   5.030 -0.7455  0.7079  1.3406
 4467SOL     OW25033   3.958   0.792   7.333 -0.0260 -0.0561  0.2449
 4467SOL    HW125034   3.930   0.853   7.265 -0.6151 -2.4713 -1.6847
 4467SOL    HW225035   4.010   0.848   7.390  1.1433  2.1450 -2.9392
 4468SOL     OW25036   1.034   4.542   4.068 -0.1283 -0.3298  0.6173
 4468SOL    HW125037   1.122   4.562   4.099 -0.2435  1.6921 -0.3748
 4468SOL    HW225038   1.068   4.478   4.005 -0.2690 -0.0521  0.2539
 4469SOL     OW25039   2.544   3.357   5.990 -0.0334 -0.3188  0.3372
 4469SOL    HW125040   2.502   3.273   6.013 -1.7013 -0.2817 -2.4601
 4469SOL    HW225041   2.543   3.356   5.894  1.2935 -1.7559  0.3337
 4470SOL     OW25042   1.642   0.320  14.530 -0.5386 -0.3134  0.0631
 4470SOL    HW125043   1.577   0.371  14.579 -0.0571  0.3361  0.0191
 4470SOL    HW225044   1.584   0.288  14.461  0.8786  1.6425 -1.9961
 4471SOL     OW25045   1.681   1.597   4.653 -0.5406  0.3048 -0.6685
 4471SOL    HW125046   1.620   1.590   4.580  0.6063  0.5968 -1.6731
 4471SOL    HW225047   1.671   1.520   4.708 -1.9560  0.4431 -0.7278
 4472SOL     OW25048   3.662   0.856   3.259 -0.0517  0.0904  0.1533
 4472SOL    HW125049   3.608   0.935   3.261 -0.5148 -0.2424  0.6715
 4472SOL    HW225050   3.690   0.849   3.350 -1.3938  0.4443  0.5863
 4473SOL     OW25051   4.160   0.866   6.962 -0.2438  0.4101  1.1159
 4473SOL    HW125052   4.078   0.819   6.977 -1.0570  1.2853 -0.6279
 4473SOL    HW225053   4.131   0.954   6.940 -0.5106 -0.1056 -0.6051
 4474SOL     OW25054   0.188   1.407   8.269  0.0070  0.4500 -0.2182
 4474SOL    HW125055   0.202   1.474   8.336 -1.2274 -0.5767  1.0745
 4474SOL    HW225056   0.093   1.421   8.263 -0.3151 -1.2953  0.9192
 4475SOL     OW25057   0.164   2.299   8.811  0.1298  0.5403  0.0912
 4475SOL    HW125058   0.088   2.291   8.754  0.5172  0.8337 -0.4603
 4475SOL    HW225059   0.232   2.284   8.746 -2.3051 -1.7625 -1.8943
 4476SOL     OW25060   0.025   2.426   0.362 -0.0353 -0.1604  0.2677
 4476SOL    HW125061   0.107   2.474   0.369  0.2667 -0.4108 -1.5804
 4476SOL    HW225062   0.036   2.372   0.441  0.8144 -2.3921 -1.3630
 4477SOL     OW25063   2.525   1.581   2.206  0.3975  0.3656  0.2417
 4477SOL    HW125064   2.459   1.542   2.148 -0.5275  0.2596  1.3638
 4477SOL    HW225065   2.516   1.673   2.182  1.1734  0.5785  0.7412
 4478SOL     OW25066   2.442   1.920  11.951  0.2817 -0.4706 -0.3566
 4478SOL    HW125067   2.517   1.863  11.966  0.5902  0.2614  0.8571
 4478SOL    HW225068   2.396   1.907  12.034  0.7596 -1.8010 -0.2903
 4479SOL     OW25069   1.754   1.758   5.700  0.7567  0.5698  0.3996
 4479SOL    HW125070   1.733   1.678   5.749  1.5253  0.5939  0.7570
 4479SOL    HW225071   1.695   1.757   5.624  1.1433  0.5489  0.0987
 4480SOL     OW25072   4.417   2.460   8.495  0.2366  0.3501  0.3810
 4480SOL    HW125073   4.505   2.471   8.461 -0.2131 -1.0625 -1.2590
 4480SOL    HW225074   4.373   2.537   8.461 -0.0851 -0.6273 -1.4339
 4481SOL     OW25075   1.261   2.996   4.254  0.2595 -0.3757 -0.4070
 4481SOL    HW125076   1.179   2.948   4.242  0.6050 -1.0383 -0.1182
 4481SOL    HW225077   1.297   2.995   4.166 -0.1901 -0.3691 -0.5886
 4482SOL     OW25078   3.515   4.703   3.067 -0.9309  0.0652 -0.2207
 4482SOL    HW125079   3.527   4.723   3.160  0.9164  0.3983 -0.5308
 4482SOL    HW225080   3.520   4.608   3.079  0.0729  0.2528  0.8287
 4483SOL     OW25081   3.405   4.641   5.458  0.0276  0.5921 -0.1278
 4483SOL    HW125082   3.430   4.656   5.549 -0.6591  1.1454 -0.0319
 4483SOL    HW225083   3.421   4.548   5.445 -0.5011  0.4740  0.0620
 4484SOL     OW25084   3.808   0.383  14.980  0.7830  0.0398  0.4108
 4484SOL    HW125085   3.904   0.377  14.982  0.9509  2.6066 -0.1662
 4484SOL    HW225086   3.802   0.456  14.919  3.4034 -0.2896 -0.2659
 4485SOL     OW25087   4.001   0.082   8.113 -0.6246  0.6274 -0.3396
 4485SOL    HW125088   4.017   0.036   8.195 -0.4933  1.4245  0.0832
 4485SOL    HW225089   4.003   0.009   8.051 -1.1382 -0.1040  0.5188
 4486SOL     OW25090   0.271   0.867   3.053  0.3776 -0.4961 -0.2571
 4486SOL    HW125091   0.237   0.891   2.966  1.7663  1.4106 -0.2721
 4486SOL    HW225092   0.202   0.808   3.084  1.2210 -1.5447 -0.3866
 4487SOL     OW25093   3.556   1.381  17.103  0.3333 -0.1570 -0.1138
 4487SOL    HW125094   3.496   1.454  17.085 -0.9827 -0.9276  1.1719
 4487SOL    HW225095   3.597   1.383  17.016  1.0940  0.7681  0.2652
 4488SOL     OW25096   2.644   2.930   7.882 -0.1373  0.5215 -0.5831
 4488SOL    HW125097   2.622   2.919   7.790 -1.2010  0.8674 -0.3759
 4488SOL    HW225098   2.618   2.843   7.913  1.3344  0.1987 -0.2390
 4489SOL     OW25099   2.712   3.164   2.740 -0.0214 -0.3074  0.3310
 4489SOL    HW125100   2.804   3.178   2.719 -0.5512  0.7743 -1.3284
 4489SOL    HW225101   2.693   3.096   2.675 -1.4135  2.7127 -2.4363
 4490SOL     OW25102   0.078   0.153   8.105  0.2423  0.2688  0.7567
 4490SOL    HW125103   0.079   0.212   8.029  1.2077 -0.1984  0.4090
 4490SOL    HW225104   0.165   0.170   8.140 -0.4868  0.8463  2.3086
 4491SOL     OW25105   0.770   2.309   6.052  0.3726  0.3451 -0.1444
 4491SOL    HW125106   0.817   2.238   6.008  1.0978  0.4849  0.3929
 4491SOL    HW225107   0.847   2.365   6.065  0.5087 -0.3398  1.9812
 4492SOL     OW25108   3.152   0.079   9.489  0.3878 -0.5787 -0.0379
 4492SOL    HW125109   3.217   0.053   9.554  1.9932  0.0510 -1.3757
 4492SOL    HW225110   3.076   0.084   9.546 -0.2744 -0.4527 -0.9341
 4493SOL     OW25111   4.724   4.144   8.956  0.1226  0.6272  0.0840
 4493SOL    HW125112   4.674   4.188   8.887 -0.3427  1.9920  1.2672
 4493SOL    HW225113   0.070   4.125   8.915 -0.6491 -1.1073 -0.6873
 4494SOL     OW25114   2.815   2.621   7.378 -0.0646 -0.4229  0.1088
 4494SOL    HW125115   2.825   2.530   7.352  2.4177 -0.1505  0.0779
 4494SOL    HW225116   2.888   2.628   7.440  2.1149  1.7288 -2.6936
 4495SOL     OW25117   1.974   4.509  14.392  0.3360  0.2230 -0.3387
 4495SOL    HW125118   1.898   4.488  14.337  0.0546  1.2475 -0.3524
 4495SOL    HW225119   1.975   4.441  14.459 -1.4159 -1.3079 -1.8402
 4496SOL     OW25120   0.279   2.863   6.301 -0.3023 -0.4265  0.1303
 4496SOL    HW125121   0.270   2.784   6.247 -0.1679 -0.4216  0.0997
 4496SOL    HW225122   0.348   2.903   6.249 -0.1768 -0.0141  0.6083
 4497SOL     OW25123   1.691   3.306   1.000  0.1255  0.0467 -0.2863
 4497SOL    HW125124   1.663   3.373   1.063 -1.3099 -0.7911 -0.0422
 4497SOL    HW225125   1.778   3.276   1.026  0.4281  2.1387  1.0939
 4498SOL     OW25126   2.671   0.810   4.961 -0.0601  0.1084 -0.2339
 4498SOL    HW125127   2.634   0.783   5.045  1.6215 -4.2878 -0.9227
 4498SOL    HW225128   2.630   0.892   4.933  0.8341  1.1148  1.4222
 4499SOL     OW25129   0.544   2.580  11.770 -0.5270  0.0068  0.4923
 4499SOL    HW125130   0.583   2.498  11.801  0.2640  0.9988  2.1106
 4499SOL    HW225131   0.463   2.547  11.731 -0.6011  1.5119 -0.6333
 4500SOL     OW25132   0.577   0.254   8.809  0.0228  0.3380  0.3362
 4500SOL    HW125133   0.622   0.207   8.738 -0.6784 -1.5130  1.1311
 4500SOL    HW225134   0.500   0.197   8.818 -0.8629  1.3167 -1.0693
 4501SOL     OW25135   2.704   2.603   1.432  0.3725  0.2229  0.3200
 4501SOL    HW125136   2.752   2.659   1.493  0.8259  2.1476 -1.8452
 4501SOL    HW225137   2.619   2.599   1.475  0.1035  0.1830 -0.2209
 4502SOL     OW25138   2.186   1.810   5.418  0.2269  0.0564 -0.2551
 4502SOL    HW125139   2.114   1.808   5.481  0.8159  0.3802  0.4365
 4502SOL    HW225140   2.261   1.815   5.478  0.0697 -3.8694  0.2798
 4503SOL     OW25141   4.659   3.147   5.456  0.3045 -0.4328 -0.2406
 4503SOL    HW125142   4.708   3.228   5.441 -0.2212  0.4995  3.1859
 4503SOL    HW225143   4.632   3.160   5.547 -1.8851 -2.7183 -0.5575
 4504SOL     OW25144   1.882   0.931   6.715 -0.4510  0.2049  0.1984
 4504SOL    HW125145   1.970   0.921   6.753 -0.6902 -0.3737  0.6080
 4504SOL    HW225146   1.874   1.026   6.705  0.4458  0.3020  0.3458
 4505SOL     OW25147   3.241   0.721   0.467  0.4675  0.0975 -0.2246
 4505SOL    HW125148   3.203   0.808   0.453  0.1348 -0.4929 -2.8356
 4505SOL    HW225149   3.324   0.739   0.424  1.5654 -2.7237  0.6938
 4506SOL     OW25150   1.468   1.818   1.997  0.0633  0.4352 -0.4744
 4506SOL    HW125151   1.452   1.749   2.061  0.0887 -0.1757 -1.1298
 4506SOL    HW225152   1.403   1.881   2.030 -2.3068 -1.9099 -0.6486
 4507SOL     OW25153   2.161   0.124   1.241 -0.2439  0.3393 -0.3401
 4507SOL    HW125154   2.094   0.182   1.278 -0.1004  0.0727  0.3403
 4507SOL    HW225155   2.127   0.095   1.156 -0.4063 -1.1073  0.2189
 4508SOL     OW25156   3.763   2.973   7.286  0.0578  0.6394 -0.1059
 4508SOL    HW125157   3.751   2.893   7.234  1.6053  0.5920 -0.3837
 4508SOL    HW225158   3.813   3.028   7.226  0.6696 -0.1028 -0.2776
 4509SOL     OW25159   1.354   2.234   9.267  0.0000  0.1976  0.2758
 4509SOL    HW125160   1.270   2.188   9.276  0.9187 -1.2968  1.0741
 4509SOL    HW225161   1.404   2.160   9.234  0.8686  1.0258 -0.2821
 4510SOL     OW25162   3.683   1.329  14.381  0.4343 -0.5799  0.5557
 4510SOL    HW125163   3.592   1.305  14.399 -0.5437  1.0794 -2.1089
 4510SOL    HW225164   3.671   1.423  14.365 -2.6348 -0.7755  1.7991
 4511SOL     OW25165   1.684   3.975   6.811  0.2538 -0.2468  0.1242
 4511SOL    HW125166   1.605   3.987   6.757  0.4176  1.2257  0.2031
 4511SOL    HW225167   1.672   3.885   6.839 -1.2498 -1.0014 -2.8995
 4512SOL     OW25168   0.680   1.669   6.173  0.1769  0.1664  0.3607
 4512SOL    HW125169   0.704   1.616   6.097  0.5546  0.7326  0.0903
 4512SOL    HW225170   0.762   1.666   6.221  0.2886 -1.7059  0.0870
 4513SOL     OW25171   0.251   1.112   9.599  0.2588  0.3438  0.1881
 4513SOL    HW125172   0.279   1.022   9.615 -0.6068 -0.1939 -1.3750
 4513SOL    HW225173   0.324   1.156   9.556  0.6046  1.0475  1.4932
 4514SOL     OW25174   0.551   3.728   8.240 -0.1473  0.3805 -0.6492
 4514SOL    HW125175   0.632   3.766   8.273 -0.9420 -0.1447  1.8754
 4514SOL    HW225176   0.578   3.646   8.198  0.9444  0.1832  0.4516
 4515SOL     OW25177   2.156   2.819   3.417 -0.5285 -0.0353  0.4125
 4515SOL    HW125178   2.238   2.832   3.368 -0.6373  0.6825  0.4185
 4515SOL    HW225179   2.182   2.785   3.502  0.6070 -2.0554 -0.7331
 4516SOL     OW25180   1.185   4.406   3.853 -0.4221 -0.2386 -0.0237
 4516SOL    HW125181   1.267   4.369   3.885 -0.9449 -3.3328 -2.3022
 4516SOL    HW225182   1.123   4.342   3.888  2.5150 -3.4173 -0.6151
 4517SOL     OW25183   2.485   3.686  15.344 -0.1698  0.0773  0.4823
 4517SOL    HW125184   2.505   3.602  15.385 -1.0967  0.1118  1.0035
 4517SOL    HW225185   2.551   3.747  15.379 -0.0986  0.5527 -0.4950
 4518SOL     OW25186   3.349   4.305   8.538 -0.2405 -0.2174 -0.4193
 4518SOL    HW125187   3.345   4.359   8.459  2.3200 -1.9022 -1.6813
 4518SOL    HW225188   3.265   4.260   8.550  0.5657 -1.1718  1.5649
 4519SOL     OW25189   0.443   4.332   3.778 -0.0692  0.0340  0.6880
 4519SOL    HW125190   0.460   4.368   3.865  0.5343 -0.8319  0.9301
 4519SOL    HW225191   0.351   4.304   3.781 -0.0003 -0.5790 -2.8789
 4520SOL     OW25192   1.851   1.149  16.446 -0.0589  0.2103  0.4146
 4520SOL    HW125193   1.825   1.201  16.523 -1.4582 -1.6994  1.2282
 4520SOL    HW225194   1.824   1.206  16.374 -2.0181  1.7212  2.3221
 4521SOL     OW25195   1.965   3.964  17.062  0.4392  0.7378  0.1126
 4521SOL    HW125196   1.955   3.912  17.141  1.0323  0.4292 -0.0146
 4521SOL    HW225197   1.962   4.050  17.104 -1.6566  1.3351 -1.2545
 4522SOL     OW25198   1.132   3.387   3.658  0.0669  0.2081 -0.3375
 4522SOL    HW125199   1.117   3.450   3.588 -1.8350 -0.7183 -0.7339
 4522SOL    HW225200   1.220   3.421   3.675  0.9103 -1.2057 -1.9324
 4523SOL     OW25201   2.106   4.728   1.817 -0.1653  0.2442  0.5572
 4523SOL    HW125202   2.093   0.085   1.824 -1.3646  0.1529 -0.5575
 4523SOL    HW225203   2.016   4.701   1.800 -0.2589  0.7993  0.1743
 4524SOL     OW25204   3.971   1.416   1.781  0.7051 -0.5561  0.7959
 4524SOL    HW125205   3.912   1.490   1.797  0.0416 -0.6938 -1.0611
 4524SOL    HW225206   4.041   1.444   1.840 -1.4559 -0.7436  3.4404
 4525SOL     OW25207   2.960   2.484   1.439 -0.2421 -0.5763 -0.1697
 4525SOL    HW125208   2.872   2.523   1.437 -0.8229 -1.8146  1.1450
 4525SOL    HW225209   3.017   2.560   1.444  1.1966 -1.5748 -1.5251
 4526SOL     OW25210   2.334   0.913   5.065  0.8910  0.5437  0.0355
 4526SOL    HW125211   2.355   0.929   4.973 -1.2879 -2.1671 -0.9383
 4526SOL    HW225212   2.355   0.820   5.072  1.7091  0.8308  1.3201
 4527SOL     OW25213   0.820   0.521  16.389  0.0642 -0.1018 -0.1436
 4527SOL    HW125214   0.789   0.501  16.477  0.6079 -0.0027  0.0645
 4527SOL    HW225215   0.831   0.431  16.358  0.0297 -0.2306  0.2245
 4528SOL     OW25216   4.722   2.573  15.561  0.4383  0.1725  0.0653
 4528SOL    HW125217   4.736   2.664  15.589  2.3233 -0.0804 -0.0866
 4528SOL    HW225218   0.001   2.523  15.640 -0.4798 -0.5801 -0.2152
 4529SOL     OW25219   4.644   1.338  13.184 -0.3653 -0.5177  0.7716
 4529SOL    HW125220   4.677   1.392  13.113 -0.2632 -0.5909  0.7637
 4529SOL    HW225221   4.552   1.363  13.173 -0.1288  0.4188  0.8738
 4530SOL     OW25222   2.183   3.679  13.533 -0.2025  0.1637 -0.5175
 4530SOL    HW125223   2.223   3.756  13.492 -0.1898  0.4107 -0.0508
 4530SOL    HW225224   2.255   3.617  13.539 -0.4203  0.0084  0.6344
 4531SOL     OW25225   0.878   3.186  16.878  0.1998 -0.0553  0.8797
 4531SOL    HW125226   0.841   3.244  16.946 -1.1795  0.7961 -0.5959
 4531SOL    HW225227   0.799   3.136  16.860  0.9264 -0.2503 -1.7587
 4532SOL     OW25228   3.502   1.227   4.998  0.0125 -0.0885  0.2850
 4532SOL    HW125229   3.567   1.290   5.028 -0.1616  0.2156  0.0159
 4532SOL    HW225230   3.519   1.166   5.070 -1.1126 -1.8385 -0.9366
 4533SOL     OW25231   3.882   0.675   0.201  0.4471 -0.3911 -0.1462
 4533SOL    HW125232   3.907   0.590   0.166  0.1428 -0.1403 -0.9649
 4533SOL    HW225233   3.933   0.668   0.282  0.4708 -0.3723 -0.1596
 4534SOL     OW25234   0.382   3.164   3.844 -0.1269 -0.4414 -0.0409
 4534SOL    HW125235   0.415   3.077   3.818 -0.6117 -0.6533  0.0592
 4534SOL    HW225236   0.310   3.177   3.783  0.9378 -1.8924 -1.6292
 4535SOL     OW25237   0.776   0.833  14.083  0.5105 -0.2102  0.0874
 4535SOL    HW125238   0.751   0.897  14.016  0.3355 -0.4893 -0.1141
 4535SOL    HW225239   0.694   0.786  14.098 -0.2210  0.6599 -1.2159
 4536SOL     OW25240   2.045   0.314   7.311 -0.0554  0.8021 -0.2329
 4536SOL    HW125241   1.979   0.296   7.378  0.8136 -1.7306 -0.0691
 4536SOL    HW225242   2.014   0.262   7.237  0.9846 -1.3711  0.8540
 4537SOL     OW25243   0.429   1.717  13.528  0.6193 -0.4078 -0.1470
 4537SOL    HW125244   0.508   1.738  13.578  0.4518 -0.8093  0.2881
 4537SOL    HW225245   0.356   1.717  13.591 -1.4593 -0.8165 -2.5629
 4538SOL     OW25246   1.555   2.951   2.850 -0.4986  0.0507  0.0051
 4538SOL    HW125247   1.531   2.859   2.844  0.3111 -0.2567  1.3459
 4538SOL    HW225248   1.580   2.952   2.943 -0.5375 -1.5841  0.0213
 4539SOL     OW25249   2.570   1.355  15.783 -0.4047 -0.6321  0.7431
 4539SOL    HW125250   2.527   1.271  15.795  0.7869 -1.2077  0.8834
 4539SOL    HW225251   2.580   1.390  15.871  0.4929 -3.4728  1.7495
 4540SOL     OW25252   4.630   0.662   4.114  0.0484  0.4678  0.3753
 4540SOL    HW125253   4.581   0.727   4.164  1.5146  2.2262 -0.4303
 4540SOL    HW225254   4.565   0.593   4.119  0.3600  0.2107  0.8104
 4541SOL     OW25255   2.137   2.539   6.796  0.2012  0.1955  0.1710
 4541SOL    HW125256   2.174   2.456   6.764  0.9900  1.2929 -1.7581
 4541SOL    HW225257   2.204   2.592   6.752 -0.1344  2.0198  1.8604
 4542SOL     OW25258   2.141   2.867   6.447 -0.1223  0.1307  0.0682
 4542SOL    HW125259   2.100   2.828   6.369 -0.4699  1.1059 -0.2387
 4542SOL    HW225260   2.219   2.811   6.456  0.1502  0.5819  0.5188
 4543SOL     OW25261   1.768   2.041   3.201  0.4398  0.5522  0.4907
 4543SOL    HW125262   1.817   2.073   3.277 -0.7243  2.2748  0.5093
 4543SOL    HW225263   1.679   2.069   3.221 -0.0879  0.8615 -2.4122
 4544SOL     OW25264   2.148   2.236   2.293  0.2043 -0.3094 -0.1402
 4544SOL    HW125265   2.206   2.218   2.219  1.7960 -2.4570  1.6573
 4544SOL    HW225266   2.185   2.182   2.363 -0.2546 -0.3670  0.0576
 4545SOL     OW25267   1.540   0.127  16.701  0.4517 -0.0363  0.0879
 4545SOL    HW125268   1.527   0.155  16.610  1.1735  1.3609  0.4266
 4545SOL    HW225269   1.511   0.036  16.697 -0.1017  0.0956  1.2945
 4546SOL     OW25270   4.183   0.966   9.267  0.1467 -0.0370  0.5874
 4546SOL    HW125271   4.268   0.927   9.247 -0.6545 -0.9061 -1.1110
 4546SOL    HW225272   4.158   1.004   9.183  1.6313 -0.5819 -0.1038
 4547SOL     OW25273   4.319   1.862  16.803  0.3192 -0.3068 -0.9623
 4547SOL    HW125274   4.324   1.957  16.809  1.8611 -0.4529  0.1393
 4547SOL    HW225275   4.352   1.841  16.715 -0.4624 -0.3174 -1.2538
 4548SOL     OW25276   0.122   3.557   4.084 -1.0944 -0.5626 -0.2746
 4548SOL    HW125277   0.118   3.566   4.180 -1.1296 -3.9378  0.0543
 4548SOL    HW225278   0.161   3.469   4.079 -0.8424 -0.4013 -1.0430
 4549SOL     OW25279   0.214   1.990   2.670  0.0187 -0.1350  0.2019
 4549SOL    HW125280   0.304   1.960   2.682  0.3886  0.9013  0.0028
 4549SOL    HW225281   0.177   1.958   2.752 -0.8400  2.1161  0.6836
 4550SOL     OW25282   3.547   3.490   5.647 -0.3466 -0.4726 -0.3339
 4550SOL    HW125283   3.589   3.497   5.561  1.2733 -1.1157  0.3909
 4550SOL    HW225284   3.467   3.443   5.623 -0.7940  0.1807 -0.1097
 4551SOL     OW25285   1.631   3.151   7.026 -0.2322 -0.6866 -0.1142
 4551SOL    HW125286   1.675   3.230   7.058 -3.2421  0.5717  0.8998
 4551SOL    HW225287   1.551   3.179   7.070 -0.9996 -1.6523 -0.8989
 4552SOL     OW25288   2.340   0.333   5.097 -0.0537 -0.2401 -0.3950
 4552SOL    HW125289   2.249   0.351   5.123  1.0827  0.1752  3.3996
 4552SOL    HW225290   2.354   0.252   5.147 -1.0276  0.3970  0.9363
 4553SOL     OW25291   2.266   4.321   2.024  1.2541  0.1701  0.8777
 4553SOL    HW125292   2.336   4.386   2.028  0.7962  0.7113  0.1492
 4553SOL    HW225293   2.295   4.268   2.098 -1.3733 -2.0334  0.3149
 4554SOL     OW25294   3.181   3.524  17.108 -0.1908 -0.0408 -0.1887
 4554SOL    HW125295   3.264   3.527  17.155 -0.2826 -3.7954  0.2506
 4554SOL    HW225296   3.128   3.577  17.168 -1.8163 -0.3532 -1.3656
 4555SOL     OW25297   2.337   1.277   5.290 -0.3115 -0.3197  0.0816
 4555SOL    HW125298   2.339   1.358   5.342  0.7493  0.3831 -1.0292
 4555SOL    HW225299   2.402   1.218   5.328 -0.2554 -0.1547  0.2430
 4556SOL     OW25300   3.437   4.269   3.717  0.2429 -0.0215 -0.2455
 4556SOL    HW125301   3.499   4.264   3.644 -2.9952 -1.8315 -2.8839
 4556SOL    HW225302   3.491   4.325   3.773 -1.1667  0.5431  0.5515
 4557SOL     OW25303   4.203   2.509   0.359  0.8131 -0.3813  1.0012
 4557SOL    HW125304   4.174   2.481   0.272  0.1601  1.4660  0.6353
 4557SOL    HW225305   4.233   2.426   0.396  1.0450 -0.5160  0.5062
 4558SOL     OW25306   3.865   0.904   0.943 -0.4997 -0.4844 -0.0270
 4558SOL    HW125307   3.907   0.875   1.024  1.9476  1.1583 -0.7264
 4558SOL    HW225308   3.938   0.954   0.907 -1.3086  0.2028 -0.7045
 4559SOL     OW25309   3.030   2.355  12.734  0.3577  0.4278  0.6427
 4559SOL    HW125310   2.961   2.291  12.717  0.9762  0.6113 -2.4568
 4559SOL    HW225311   3.032   2.374  12.828  2.0952  0.8191  0.5287
 4560SOL     OW25312   3.626   2.032   1.274  0.0702  0.4838  0.1646
 4560SOL    HW125313   3.581   2.097   1.328  0.8008  0.5643  0.6867
 4560SOL    HW225314   3.633   1.962   1.340  1.4278 -0.3977 -0.9080
 4561SOL     OW25315   0.586   1.803   8.055 -0.3131 -0.1568 -0.4583
 4561SOL    HW125316   0.581   1.708   8.044  0.1558 -0.0972 -1.2122
 4561SOL    HW225317   0.650   1.817   8.125 -0.7652  0.9145 -0.2644
 4562SOL     OW25318   0.766   1.884  13.292  0.2578  0.7940  0.5046
 4562SOL    HW125319   0.805   1.968  13.318 -0.0052  1.2164 -0.4906
 4562SOL    HW225320   0.681   1.887  13.335  0.3474  1.0350  0.6651
 4563SOL     OW25321   2.216   4.526   2.941 -0.3294  0.9341 -0.3478
 4563SOL    HW125322   2.153   4.467   2.901 -1.6685  1.6567  0.7013
 4563SOL    HW225323   2.272   4.456   2.974  1.8574  2.7759 -0.1260
 4564SOL     OW25324   1.417   2.148   8.592 -0.5279  0.5709 -0.3492
 4564SOL    HW125325   1.369   2.067   8.609 -0.6814  0.8588  0.6050
 4564SOL    HW225326   1.359   2.219   8.621 -1.2044 -0.4284  0.7386
 4565SOL     OW25327   2.118   1.550  12.260 -0.1622  0.3383  0.4738
 4565SOL    HW125328   2.195   1.550  12.317 -0.2193  0.0672  0.5504
 4565SOL    HW225329   2.053   1.538  12.329  0.5604  0.5732  1.1954
 4566SOL     OW25330   2.253   0.115   7.757  0.5097 -0.3503  0.5805
 4566SOL    HW125331   2.267   0.077   7.843 -0.3153  0.1786  0.9472
 4566SOL    HW225332   2.344   0.114   7.725 -0.4720 -0.4439 -2.2071
 4567SOL     OW25333   2.548   0.352   2.421  0.0683 -0.3688 -0.8167
 4567SOL    HW125334   2.572   0.438   2.386 -1.6080  0.6172  0.4475
 4567SOL    HW225335   2.457   0.369   2.446  0.0385 -4.2541  1.7963
 4568SOL     OW25336   4.435   1.506   9.391  0.5291 -0.5082  0.3735
 4568SOL    HW125337   4.476   1.423   9.416  2.3499  0.4379  0.4624
 4568SOL    HW225338   4.343   1.478   9.389 -0.0358  1.4947 -1.1079
 4569SOL     OW25339   1.685   3.948   8.439 -0.1431  0.3868  0.2448
 4569SOL    HW125340   1.714   3.997   8.362  0.5478 -1.0813 -0.4275
 4569SOL    HW225341   1.710   3.858   8.418 -0.8104  0.2333  0.1219
 4570SOL     OW25342   0.454   0.965   5.391 -0.0195 -0.3802  0.0033
 4570SOL    HW125343   0.372   0.933   5.354 -0.4988 -1.8653  2.3109
 4570SOL    HW225344   0.457   1.058   5.369  0.7350 -1.2629 -3.5481
 4571SOL     OW25345   3.090   2.300  11.184 -0.6367 -0.0613  0.6455
 4571SOL    HW125346   3.018   2.239  11.198  2.0430 -3.6090 -1.0076
 4571SOL    HW225347   3.053   2.378  11.141  0.2168 -0.7212 -1.2922
 4572SOL     OW25348   2.323   3.937   1.466  0.1338 -0.5173 -0.5380
 4572SOL    HW125349   2.311   3.847   1.436  3.1686 -0.5419 -1.6342
 4572SOL    HW225350   2.353   3.980   1.386 -1.7451 -1.9390 -1.9932
 4573SOL     OW25351   0.378   4.344   6.534  0.7904 -0.4412  0.1189
 4573SOL    HW125352   0.381   4.253   6.563  1.9836 -0.3084  0.4196
 4573SOL    HW225353   0.422   4.389   6.607  1.6875  0.2484 -0.8590
 4574SOL     OW25354   0.908   0.652  13.262  0.5670 -0.0560 -0.4409
 4574SOL    HW125355   0.949   0.730  13.300  1.4922 -1.5885  1.7019
 4574SOL    HW225356   0.978   0.587  13.270 -1.3491 -1.9580  0.9776
 4575SOL     OW25357   3.603   3.155   7.427 -0.4343 -0.3527  0.1186
 4575SOL    HW125358   3.518   3.110   7.424 -0.6493  0.1532 -1.4971
 4575SOL    HW225359   3.671   3.100   7.389 -1.7607 -2.4616  0.7780
 4576SOL     OW25360   4.667   4.217  10.534  0.1049 -0.4545  0.2740
 4576SOL    HW125361   4.690   4.237  10.624 -2.4745  0.9608  0.6067
 4576SOL    HW225362   4.728   4.275  10.488  2.1660 -2.8463  0.0328
 4577SOL     OW25363   1.027   3.305   8.162  0.3977  0.0720  0.5068
 4577SOL    HW125364   1.029   3.349   8.247 -0.5941  1.5382 -0.2281
 4577SOL    HW225365   0.943   3.335   8.128  0.4785  1.4781  1.5650
 4578SOL     OW25366   3.960   1.334   6.195 -0.3541  0.0721  0.1891
 4578SOL    HW125367   3.888   1.271   6.190 -0.7745  0.4169  1.7435
 4578SOL    HW225368   3.915   1.417   6.209 -3.0862 -1.6081  1.5358
 4579SOL     OW25369   2.747   4.477   1.417  0.0844  0.0773 -0.3407
 4579SOL    HW125370   2.656   4.479   1.386 -0.0343  3.7986  0.2800
 4579SOL    HW225371   2.772   4.569   1.419 -1.0487  0.3833  0.1596
 4580SOL     OW25372   1.570   0.640  13.595  0.1643  0.7659 -0.0828
 4580SOL    HW125373   1.526   0.719  13.624 -0.1986  0.2263  0.8199
 4580SOL    HW225374   1.633   0.683  13.537  1.0828  3.3915  2.8953
 4581SOL     OW25375   3.791   1.231   4.800  0.3182 -0.3580  0.5726
 4581SOL    HW125376   3.714   1.242   4.744 -0.0692  1.0225  1.3709
 4581SOL    HW225377   3.780   1.140   4.830  1.3334  0.1499  2.5163
 4582SOL     OW25378   3.304   3.234  13.171  0.0568  0.3840  0.2296
 4582SOL    HW125379   3.309   3.207  13.263 -0.3752  2.9936  1.0133
 4582SOL    HW225380   3.213   3.221  13.145  0.0785  0.4343  0.1292
 4583SOL     OW25381   2.797   3.009   3.190 -0.4617  0.4494  0.6694
 4583SOL    HW125382   2.871   3.059   3.223  0.0432  0.0032  0.2189
 4583SOL    HW225383   2.764   3.074   3.128  0.9987 -0.3322 -0.9535
 4584SOL     OW25384   0.002   4.254   9.427  0.3994  0.1993 -0.3527
 4584SOL    HW125385   4.714   4.282   9.339  0.0967 -2.6644 -1.1827
 4584SOL    HW225386   4.651   4.228   9.447  0.7783 -2.0573 -1.6256
 4585SOL     OW25387   1.529   1.021   8.059  0.2092 -0.6227  0.1187
 4585SOL    HW125388   1.492   1.060   7.980 -0.7507 -1.0345  0.3547
 4585SOL    HW225389   1.463   0.960   8.093 -0.1873  0.7918  1.9322
 4586SOL     OW25390   3.203   2.960   0.265  0.3236 -0.2787 -0.3590
 4586SOL    HW125391   3.154   2.951   0.347  1.3092  0.2515  0.2898
 4586SOL    HW225392   3.248   2.875   0.261  0.9195  0.0713 -1.2256
 4587SOL     OW25393   1.595   4.204  12.748  0.1131  0.0450 -0.3648
 4587SOL    HW125394   1.677   4.166  12.779 -0.3681  0.3299  1.2469
 4587SOL    HW225395   1.539   4.127  12.733 -0.0715  0.3011 -0.9918
 4588SOL     OW25396   2.460   3.871   6.590 -0.0360  0.1457 -0.0309
 4588SOL    HW125397   2.421   3.829   6.513 -2.7274 -0.5321  1.6788
 4588SOL    HW225398   2.539   3.821   6.605  0.7112  1.6602  1.1720
 4589SOL     OW25399   0.776   0.284  11.980  0.1666 -0.2192  0.6351
 4589SOL    HW125400   0.806   0.209  11.928 -1.1178 -0.5488  0.3751
 4589SOL    HW225401   0.687   0.253  11.994  0.2747 -0.2154  1.3013
 4590SOL     OW25402   1.484   3.629   3.600  0.7059  0.0128 -0.0909
 4590SOL    HW125403   1.571   3.616   3.563 -0.1539 -1.3481 -1.6450
 4590SOL    HW225404   1.490   3.711   3.649 -1.0157 -1.0704  1.9387
 4591SOL     OW25405   3.997   3.583   1.757 -0.2178  0.2980  0.7574
 4591SOL    HW125406   3.990   3.491   1.785 -0.6959  0.4249  1.0600
 4591SOL    HW225407   4.075   3.607   1.808  0.2942  0.7276 -0.2209
 4592SOL     OW25408   4.001   4.059   1.860 -0.0479 -0.0269  0.4026
 4592SOL    HW125409   3.944   4.103   1.922  0.4393  1.2970 -0.0979
 4592SOL    HW225410   3.943   3.986   1.840  0.7499 -0.4334 -0.4702
 4593SOL     OW25411   3.873   2.991   0.598 -0.2825  0.2558 -0.3949
 4593SOL    HW125412   3.908   3.001   0.509 -0.8708  1.5098 -0.5004
 4593SOL    HW225413   3.892   2.902   0.626  3.1266  1.1212  0.0539
 4594SOL     OW25414   2.281   3.984  17.243  0.3775 -0.3488 -0.1189
 4594SOL    HW125415   2.262   4.002  17.151 -0.6044  1.0811  0.3599
 4594SOL    HW225416   2.302   3.891  17.234  2.1111  0.0054  0.2896
 4595SOL     OW25417   3.222   1.981  11.231  0.6551  0.3663  0.3620
 4595SOL    HW125418   3.149   1.944  11.280  0.5534  1.0781  0.7497
 4595SOL    HW225419   3.169   2.027  11.167  0.6757  1.2533  0.9827
 4596SOL     OW25420   4.714   3.016  12.241  0.3700 -0.0531 -0.5791
 4596SOL    HW125421   4.646   3.075  12.274  0.5940 -0.8456  1.3067
 4596SOL    HW225422   0.051   3.053  12.287 -0.7540  1.2682  0.1783
 4597SOL     OW25423   2.518   3.356   9.352  0.2474  0.3298 -0.4139
 4597SOL    HW125424   2.501   3.294   9.423 -0.4845 -1.4040 -2.1033
 4597SOL    HW225425   2.567   3.422   9.401  1.8381 -2.3999  1.6225
 4598SOL     OW25426   0.343   3.572   2.877  0.1489  0.7111 -0.1542
 4598SOL    HW125427   0.325   3.479   2.872 -2.0985  1.2107 -1.2955
 4598SOL    HW225428   0.429   3.584   2.836 -0.3157  0.8651 -1.0938
 4599SOL     OW25429   4.304   0.057   8.185  0.1666 -0.7882  0.4201
 4599SOL    HW125430   4.240   0.040   8.253  0.1905  0.5948  0.7952
 4599SOL    HW225431   4.386   0.082   8.229 -0.1748 -0.1688  0.7026
 4600SOL     OW25432   2.058   3.538  12.260  0.4505 -0.7170  0.1831
 4600SOL    HW125433   2.006   3.602  12.310  0.1159 -0.5572 -0.3686
 4600SOL    HW225434   2.081   3.589  12.183  1.4961 -1.4941 -0.0154
 4601SOL     OW25435   2.176   2.759  10.381  0.8736 -0.0859  0.2716
 4601SOL    HW125436   2.205   2.706  10.307  0.5444  0.2039 -0.0634
 4601SOL    HW225437   2.256   2.787  10.424 -0.8533  3.2830  1.2831
 4602SOL     OW25438   0.429   1.487   8.706 -0.3736 -0.1895 -0.4304
 4602SOL    HW125439   0.453   1.485   8.614 -2.6895 -1.3787 -1.0124
 4602SOL    HW225440   0.419   1.578   8.736 -3.3970 -0.3724 -0.9075
 4603SOL     OW25441   0.969   4.664  14.017  0.1165  0.5665  0.1361
 4603SOL    HW125442   0.925   4.734  13.969 -1.1179 -0.5953 -0.4175
 4603SOL    HW225443   1.030   4.636  13.950  1.8873  1.3146  1.4243
 4604SOL     OW25444   4.371   1.383   4.565  0.4715 -0.3864  0.3204
 4604SOL    HW125445   4.437   1.393   4.497 -1.1401 -2.3430 -1.5283
 4604SOL    HW225446   4.295   1.438   4.546 -0.1223 -1.8664 -1.4739
 4605SOL     OW25447   4.391   1.504   2.638 -0.0221  0.4817 -0.4639
 4605SOL    HW125448   4.407   1.550   2.720 -1.1536  0.8549 -0.4601
 4605SOL    HW225449   4.483   1.480   2.624  0.9329  1.8786  3.3436
 4606SOL     OW25450   1.878   1.026   7.042 -0.2369 -0.1673  0.4226
 4606SOL    HW125451   1.907   1.060   6.957  0.4729 -1.0684  0.3070
 4606SOL    HW225452   1.790   1.064   7.043 -0.6712 -1.1938  0.5709
 4607SOL     OW25453   2.454   0.730   4.097 -0.0541  0.2094 -0.1576
 4607SOL    HW125454   2.372   0.773   4.074 -1.0938 -1.3783  0.6360
 4607SOL    HW225455   2.501   0.790   4.156  0.4897  1.0151 -1.4076
 4608SOL     OW25456   0.542   2.678   3.550 -0.0522 -0.2931  0.0843
 4608SOL    HW125457   0.552   2.771   3.527 -2.3368  0.0787  0.5656
 4608SOL    HW225458   0.447   2.668   3.539  0.0611 -0.5940 -0.6167
 4609SOL     OW25459   1.548   4.317   5.384 -0.4683  0.4278 -0.8050
 4609SOL    HW125460   1.498   4.270   5.318 -0.7190 -0.0228 -0.2906
 4609SOL    HW225461   1.481   4.378   5.415 -1.3487 -1.1918  0.4773
 4610SOL     OW25462   2.042   3.688   1.806  0.3513  0.1478 -0.4040
 4610SOL    HW125463   1.963   3.737   1.829  1.4241  1.8059 -0.2738
 4610SOL    HW225464   2.118   3.744   1.825  0.5261 -0.1936 -0.0939
 4611SOL     OW25465   2.742   2.214   1.930  0.0461 -0.1179  0.0143
 4611SOL    HW125466   2.679   2.152   1.894  1.5695 -1.7005  0.0866
 4611SOL    HW225467   2.761   2.261   1.849  1.1890 -1.1659 -0.3323
 4612SOL     OW25468   0.992   0.564   4.088 -0.3541 -0.5258  0.3795
 4612SOL    HW125469   0.942   0.599   4.015 -1.9495 -0.7253  1.3748
 4612SOL    HW225470   1.046   0.640   4.112  0.5052 -0.2519 -2.5213
 4613SOL     OW25471   0.367   4.056   3.226 -0.0394  0.1432  0.3979
 4613SOL    HW125472   0.445   4.027   3.272 -0.3035  0.7048  1.1972
 4613SOL    HW225473   0.379   4.038   3.132 -2.4706 -0.1564  0.1233
 4614SOL     OW25474   4.559   1.878   6.454 -0.3146 -0.6300  0.4124
 4614SOL    HW125475   4.566   1.783   6.460 -0.3196 -0.6440  0.1846
 4614SOL    HW225476   4.489   1.883   6.389  0.0336  0.6961  0.1302
 4615SOL     OW25477   2.466   3.164   6.594  0.7859 -0.0204 -0.1177
 4615SOL    HW125478   2.475   3.085   6.646  0.4585 -0.0326 -0.0812
 4615SOL    HW225479   2.481   3.119   6.511  2.3314  0.3250 -0.0234
 4616SOL     OW25480   3.982   3.991  15.654  0.0409  0.0426  0.0681
 4616SOL    HW125481   3.946   4.052  15.719 -0.1378  0.2213 -0.1967
 4616SOL    HW225482   3.969   4.039  15.572  1.0790  0.3862  0.1008
 4617SOL     OW25483   0.148   0.742   3.299 -0.6781 -0.2466  0.1182
 4617SOL    HW125484   0.242   0.723   3.303 -0.6576 -0.0859  0.4256
 4617SOL    HW225485   0.150   0.838   3.305  1.1221 -0.1796 -1.5895
 4618SOL     OW25486   3.890   3.245   5.004 -0.5875 -0.5346  0.0293
 4618SOL    HW125487   3.920   3.161   4.968 -1.5480 -0.6315 -0.5544
 4618SOL    HW225488   3.858   3.214   5.089  1.0661 -1.6316  0.2481
 4619SOL     OW25489   3.581   3.312   3.035  0.6403  0.0113  0.4638
 4619SOL    HW125490   3.601   3.254   3.109 -1.8401 -1.5410 -0.0805
 4619SOL    HW225491   3.668   3.318   2.996  1.8976 -0.0396  3.2353
 4620SOL     OW25492   3.197   1.845   3.345  0.4330  0.6641 -0.7823
 4620SOL    HW125493   3.123   1.785   3.349 -0.1535  1.5141  0.8299
 4620SOL    HW225494   3.138   1.914   3.316 -2.1207 -0.3354  2.0551
 4621SOL     OW25495   2.024   3.572  17.648 -0.1688 -0.8737  0.2764
 4621SOL    HW125496   2.060   3.521  17.721  1.3550  3.3308  2.4868
 4621SOL    HW225497   1.941   3.526  17.634  0.5476 -2.2495  0.6442
 4622SOL     OW25498   0.680   4.216  17.019 -0.0613  0.2369 -0.1578
 4622SOL    HW125499   0.705   4.235  16.928  1.0549  0.2228  0.1509
 4622SOL    HW225500   0.673   4.121  17.011 -1.8682  0.5578 -2.5280
 4623SOL     OW25501   1.990   0.693   7.396 -0.1082 -0.3394  0.5637
 4623SOL    HW125502   2.011   0.674   7.305 -1.9248 -1.8528  0.4590
 4623SOL    HW225503   1.915   0.635   7.403  0.1494 -0.7264  0.1148
 4624SOL     OW25504   1.093   1.761  16.095  0.1158 -0.2556 -0.1354
 4624SOL    HW125505   1.067   1.695  16.031 -0.6843 -1.1163  1.0757
 4624SOL    HW225506   1.117   1.710  16.172 -2.5259 -0.4836  0.5368
 4625SOL     OW25507   3.048   2.667  13.291  0.6145 -0.4843  0.0435
 4625SOL    HW125508   3.040   2.647  13.198  2.9693  2.3868 -0.7765
 4625SOL    HW225509   2.997   2.597  13.331 -2.5519  1.4285 -0.6775
 4626SOL     OW25510   4.597   4.341   7.715  0.1152 -0.0015 -0.0347
 4626SOL    HW125511   4.667   4.406   7.705 -0.2549  0.6861  1.8734
 4626SOL    HW225512   4.601   4.340   7.810 -1.0195  3.4419  0.0417
 4627SOL     OW25513   1.835   0.023   4.905  0.2356 -0.3499  0.0249
 4627SOL    HW125514   1.772   4.718   4.963 -1.6495  1.0022 -1.0149
 4627SOL    HW225515   1.917   0.013   4.953  0.3584  0.6594  0.0284
 4628SOL     OW25516   1.313   0.659   8.282  0.0796 -0.1179  0.2696
 4628SOL    HW125517   1.393   0.608   8.296 -0.0021 -0.1992  0.4435
 4628SOL    HW225518   1.260   0.630   8.356  0.1241 -0.9696 -0.0238
 4629SOL     OW25519   1.723   3.536  12.866  0.2835  0.1186  0.2590
 4629SOL    HW125520   1.721   3.617  12.916 -0.1417  0.0113  0.4107
 4629SOL    HW225521   1.755   3.477  12.934 -0.7784  1.3268  1.7957
 4630SOL     OW25522   3.850   1.001   1.791 -0.0652 -0.0690 -0.6182
 4630SOL    HW125523   3.937   0.967   1.813 -0.5011 -1.8977 -1.7508
 4630SOL    HW225524   3.879   1.064   1.725  2.2255  1.0574  1.4527
 4631SOL     OW25525   4.363   4.288   1.503  0.0449 -0.6621 -0.3658
 4631SOL    HW125526   4.376   4.195   1.525  0.2915 -0.7777 -0.9858
 4631SOL    HW225527   4.273   4.314   1.524  0.2532 -0.7219  0.5777
 4632SOL     OW25528   2.346   2.227   4.774  0.2258  0.0658 -0.6723
 4632SOL    HW125529   2.273   2.266   4.822  0.8482 -1.2056  1.3462
 4632SOL    HW225530   2.404   2.303   4.782  1.8966 -1.2220 -0.7265
 4633SOL     OW25531   3.028   1.947   3.679  0.0013 -0.4784  0.8766
 4633SOL    HW125532   3.121   1.953   3.656 -1.2438  1.6028 -3.5452
 4633SOL    HW225533   3.014   1.974   3.770 -1.7404 -2.0984  1.0805
 4634SOL     OW25534   4.686   2.672  16.539  0.1297  0.0514  0.3031
 4634SOL    HW125535   4.602   2.635  16.563  1.2905 -1.5903  1.8076
 4634SOL    HW225536   0.001   2.593  16.542  0.4753  0.3044  0.8650
 4635SOL     OW25537   0.463   4.121   9.861  0.2962  0.6246 -0.4534
 4635SOL    HW125538   0.522   4.054   9.896 -0.1627 -0.4187 -1.6728
 4635SOL    HW225539   0.452   4.177   9.937 -2.7050 -0.7002  0.0834
 4636SOL     OW25540   4.449   1.142   5.527 -0.0073  0.3908 -0.4819
 4636SOL    HW125541   4.451   1.217   5.468 -0.3555  0.9644  0.2460
 4636SOL    HW225542   4.514   1.170   5.592 -0.4903  0.4180 -0.0147
 4637SOL     OW25543   4.357   1.782   5.499  0.3214  0.0191  0.1465
 4637SOL    HW125544   4.447   1.815   5.509  0.5004 -0.4324  0.0058
 4637SOL    HW225545   4.321   1.844   5.436  1.7311 -1.4412 -2.0781
 4638SOL     OW25546   1.469   4.356   3.529  0.0657  0.6862 -0.1268
 4638SOL    HW125547   1.537   4.346   3.596 -2.4766 -2.1037  1.9904
 4638SOL    HW225548   1.486   4.275   3.482 -1.4670 -0.3595  1.1331
 4639SOL     OW25549   1.497   3.588   5.521 -0.1815  0.2442 -0.4069
 4639SOL    HW125550   1.544   3.565   5.441 -2.1174 -2.3960 -0.8025
 4639SOL    HW225551   1.559   3.643   5.569 -0.6223  0.5518 -0.1849
 4640SOL     OW25552   3.902   2.886  16.036  0.2004  0.0420 -0.2250
 4640SOL    HW125553   3.850   2.929  16.104 -0.9318 -1.7800  0.0470
 4640SOL    HW225554   3.858   2.801  16.036 -0.0458  0.1672 -0.1648
 4641SOL     OW25555   3.623   4.651   1.592 -0.3556  0.2743 -0.4547
 4641SOL    HW125556   3.671   4.695   1.521  0.1716  1.2010  0.4670
 4641SOL    HW225557   3.692   4.618   1.649 -0.7942 -1.6203 -1.0410
 4642SOL     OW25558   2.384   3.555  17.418 -0.3403  0.2187  0.1388
 4642SOL    HW125559   2.450   3.513  17.362 -0.1777  0.0844  0.4313
 4642SOL    HW225560   2.392   3.486  17.483 -1.3387  1.4831  1.6208
 4643SOL     OW25561   3.058   3.108   4.096  0.7227 -0.1606  0.3478
 4643SOL    HW125562   3.011   3.025   4.092  1.2461 -0.3910 -1.0858
 4643SOL    HW225563   3.016   3.143   4.174  0.0234 -0.9769  0.3418
 4644SOL     OW25564   1.502   0.359   7.839 -0.1630 -0.2127  0.2653
 4644SOL    HW125565   1.533   0.448   7.825  0.9887 -0.5264  0.7857
 4644SOL    HW225566   1.409   0.377   7.830 -0.1703 -0.7925 -0.7587
 4645SOL     OW25567   4.502   3.092   8.258 -0.2054 -0.2643  0.4009
 4645SOL    HW125568   4.550   3.065   8.336  0.6378  0.0795  0.0014
 4645SOL    HW225569   4.522   3.186   8.257 -0.9499 -0.1163 -0.7154
 4646SOL     OW25570   0.573   0.831   6.650  0.0104  0.2961  0.2035
 4646SOL    HW125571   0.649   0.778   6.625 -0.1597 -0.0449  0.4113
 4646SOL    HW225572   0.600   0.864   6.735 -0.9727  1.6566 -0.0092
 4647SOL     OW25573   4.419   3.724   3.377 -0.1471  0.3341 -0.4577
 4647SOL    HW125574   4.384   3.646   3.334  0.1546  0.3881 -0.8040
 4647SOL    HW225575   4.448   3.690   3.462 -0.9852 -1.1356 -0.7467
 4648SOL     OW25576   0.281   3.788  11.561  0.1405 -0.1002 -0.6157
 4648SOL    HW125577   0.214   3.856  11.572  1.9136  1.0106  3.3030
 4648SOL    HW225578   0.350   3.840  11.521  0.0450  0.9568  0.5811
 4649SOL     OW25579   4.544   2.691   7.939  0.2679  0.5697  0.5342
 4649SOL    HW125580   4.473   2.637   7.973  0.9364  0.2622  1.4525
 4649SOL    HW225581   4.493   2.764   7.903 -1.9326 -0.2344  2.0007
 4650SOL     OW25582   1.093   0.364   4.698  0.2394  0.2811 -0.2435
 4650SOL    HW125583   1.116   0.419   4.623 -0.3197  2.5941  1.3150
 4650SOL    HW225584   1.108   0.276   4.662  1.3909 -0.6523  2.5300
 4651SOL     OW25585   0.149   4.257   5.130 -0.5243  0.2496 -0.2028
 4651SOL    HW125586   0.076   4.280   5.073 -1.0910  2.7315  1.5557
 4651SOL    HW225587   0.138   4.324   5.197 -2.8453 -0.0513 -0.3123
 4652SOL     OW25588   2.798   4.064   3.138  0.3487 -0.0510  0.3466
 4652SOL    HW125589   2.789   4.014   3.219 -0.3163 -0.8408 -0.2070
 4652SOL    HW225590   2.889   4.093   3.140  0.4824 -0.2974 -1.7033
 4653SOL     OW25591   2.156   3.507   6.531 -0.2576  0.0680 -0.1040
 4653SOL    HW125592   2.077   3.464   6.563  0.9418 -0.2110  2.4605
 4653SOL    HW225593   2.152   3.482   6.438  1.7394  1.4682 -0.5809
 4654SOL     OW25594   1.144   0.825   4.104  0.2231  0.3359 -0.3941
 4654SOL    HW125595   1.230   0.793   4.078  0.4578  1.5637 -1.1161
 4654SOL    HW225596   1.178   0.907   4.140  0.4408  0.4896 -0.9567
 4655SOL     OW25597   4.264   3.880   2.115  0.4631 -0.1568  0.8127
 4655SOL    HW125598   4.216   3.799   2.133 -2.0804  0.2251 -4.0778
 4655SOL    HW225599   4.354   3.852   2.131 -0.0971 -1.7332  1.2979
 4656SOL     OW25600   1.106   1.074   2.538 -0.1427  0.2264 -0.0008
 4656SOL    HW125601   1.186   1.049   2.491 -1.6351 -0.7418 -1.9994
 4656SOL    HW225602   1.148   1.135   2.598 -2.9399  2.0878  0.0592
 4657SOL     OW25603   2.213   2.226   6.817 -0.0792 -0.3746  0.0238
 4657SOL    HW125604   2.131   2.185   6.791  0.6091 -1.8314  0.0767
 4657SOL    HW225605   2.234   2.171   6.893  1.1857 -1.2563 -0.9482
 4658SOL     OW25606   0.112   2.996   3.908  0.6286 -0.4207 -0.1010
 4658SOL    HW125607   0.064   3.079   3.913 -0.7574 -1.3123  1.5960
 4658SOL    HW225608   0.160   3.011   3.827 -0.1371  0.6301 -0.3583
 4659SOL     OW25609   4.181   0.597  13.275 -0.2016 -0.1704 -0.9477
 4659SOL    HW125610   4.239   0.604  13.199 -0.3354 -0.8546 -1.1105
 4659SOL    HW225611   4.239   0.573  13.347 -0.4819 -0.2478 -0.7472
 4660SOL     OW25612   0.089   2.221   6.677  0.4514  0.8579  0.0616
 4660SOL    HW125613   0.130   2.227   6.763 -0.1780 -2.0650  0.5877
 4660SOL    HW225614   0.169   2.194   6.633  0.1388 -0.9787  0.5947
 4661SOL     OW25615   0.654   3.818   8.859 -0.5203  0.2459 -0.0569
 4661SOL    HW125616   0.631   3.852   8.946 -0.1848 -0.6738  0.3905
 4661SOL    HW225617   0.571   3.772   8.844 -0.0385 -0.6858  0.1300
 4662SOL     OW25618   3.470   0.474  11.023 -0.0792 -0.1148  0.7071
 4662SOL    HW125619   3.381   0.484  11.056  1.0079  0.8010  3.3999
 4662SOL    HW225620   3.497   0.389  11.057 -1.4351 -0.9584 -0.3242
 4663SOL     OW25621   3.645   4.347   4.976 -0.2315  0.1880  0.3104
 4663SOL    HW125622   3.629   4.405   4.902  0.9067 -2.4704 -2.0085
 4663SOL    HW225623   3.703   4.278   4.943  0.4834  0.1267  1.6696
 4664SOL     OW25624   1.871   2.326  17.414 -0.0158 -0.3178  0.5937
 4664SOL    HW125625   1.953   2.331  17.464  0.2748 -1.2411  0.2003
 4664SOL    HW225626   1.889   2.241  17.375 -0.4914 -0.3376  0.4158
 4665SOL     OW25627   4.317   0.059  14.700  0.2290  0.2564  0.6557
 4665SOL    HW125628   4.344   0.151  14.701  1.0573  0.0322 -1.3670
 4665SOL    HW225629   4.226   0.076  14.674  1.1715  0.5812 -2.5028
 4666SOL     OW25630   2.251   1.932   5.041  0.4187  0.2020 -0.1980
 4666SOL    HW125631   2.302   2.001   5.083 -1.1446 -0.4991  2.9342
 4666SOL    HW225632   2.281   1.928   4.951  0.8692  0.7259 -0.0694
 4667SOL     OW25633   4.003   2.200   6.717  0.3048 -0.3118 -0.0802
 4667SOL    HW125634   4.000   2.292   6.692 -1.3619  0.0117  1.3439
 4667SOL    HW225635   4.098   2.189   6.713  0.2734 -0.4808 -0.3607
 4668SOL     OW25636   2.624   2.089   4.848  0.2535 -0.0556 -0.2457
 4668SOL    HW125637   2.589   2.010   4.806 -0.0389  1.1746 -2.3158
 4668SOL    HW225638   2.700   2.105   4.792  0.3726 -0.9750 -0.3506
 4669SOL     OW25639   0.448   1.372   4.102  0.0770 -0.2183  0.0599
 4669SOL    HW125640   0.423   1.283   4.129 -1.5048 -0.4422 -2.1372
 4669SOL    HW225641   0.477   1.362   4.011  1.3585  0.4995  0.3907
 4670SOL     OW25642   2.301   2.791   6.149 -0.6887  0.7344 -0.2450
 4670SOL    HW125643   2.239   2.864   6.148 -0.6317  0.8131  2.0457
 4670SOL    HW225644   2.327   2.784   6.057 -0.6142 -0.7013 -0.1104
 4671SOL     OW25645   3.117   3.644   6.110 -0.0064 -0.8894 -0.7536
 4671SOL    HW125646   3.082   3.686   6.031  2.0366 -0.8819 -1.6745
 4671SOL    HW225647   3.118   3.718   6.170  0.9540 -1.1230 -0.4711
 4672SOL     OW25648   2.922   3.635   2.256 -0.4426  0.4303  0.6801
 4672SOL    HW125649   2.990   3.619   2.321 -0.6375 -0.2986  0.7094
 4672SOL    HW225650   2.874   3.712   2.285 -0.9810  1.6030 -3.3464
 4673SOL     OW25651   2.358   1.615  12.378  0.0896  0.1127 -0.0512
 4673SOL    HW125652   2.320   1.701  12.394 -0.8549 -0.4921  0.9032
 4673SOL    HW225653   2.387   1.590  12.466  0.8699 -4.8571 -1.7318
 4674SOL     OW25654   3.478   4.702   5.697 -0.3862 -0.4683 -0.4936
 4674SOL    HW125655   3.572   4.690   5.704 -0.5104 -0.6899  0.7015
 4674SOL    HW225656   3.453   0.030   5.761  2.2824  1.0412 -1.0310
 4675SOL     OW25657   1.505   2.067   9.088  0.1739  0.2765  0.3340
 4675SOL    HW125658   1.491   1.979   9.123  0.0584  0.1625  0.0040
 4675SOL    HW225659   1.456   2.062   9.006  3.0719  1.1324 -1.4372
 4676SOL     OW25660   1.301   4.202  11.668 -0.8015 -1.0570 -0.3138
 4676SOL    HW125661   1.215   4.212  11.710 -1.3846  0.7673 -1.9775
 4676SOL    HW225662   1.294   4.115  11.627  1.6471 -1.2276 -0.4065
 4677SOL     OW25663   4.268   0.513   6.097 -0.2041 -0.0033 -0.4487
 4677SOL    HW125664   4.223   0.474   6.022 -1.6034  1.1041 -0.2009
 4677SOL    HW225665   4.356   0.538   6.068 -0.2705 -1.7745 -2.1922
 4678SOL     OW25666   1.904   3.540  16.568 -0.0358 -0.5973  0.1926
 4678SOL    HW125667   1.946   3.508  16.648  0.8845  0.4682  0.1320
 4678SOL    HW225668   1.816   3.505  16.582 -0.4006  0.0135 -0.5679
 4679SOL     OW25669   0.942   3.011   3.112 -0.2921  0.1109 -0.9511
 4679SOL    HW125670   0.891   2.946   3.063  1.3756 -2.0977  0.2711
 4679SOL    HW225671   0.870   3.060   3.153 -1.7611 -1.5788 -1.5232
 4680SOL     OW25672   0.182   0.572   7.334 -0.2460  0.1620  0.2274
 4680SOL    HW125673   0.262   0.525   7.356 -0.6413 -0.0889  1.1471
 4680SOL    HW225674   0.181   0.637   7.405 -0.5034  0.6845 -0.2554
 4681SOL     OW25675   2.892   1.305   2.947 -0.1144 -0.3113 -0.1440
 4681SOL    HW125676   2.861   1.225   2.990 -1.1986  0.8326  1.2103
 4681SOL    HW225677   2.836   1.305   2.870  2.2055 -2.5025 -1.8215
 4682SOL     OW25678   1.813   0.839  16.657 -0.6098  0.7750  0.2121
 4682SOL    HW125679   1.875   0.767  16.648 -0.0238  1.4835 -1.4721
 4682SOL    HW225680   1.769   0.825  16.741  0.3621  0.5295  0.6704
 4683SOL     OW25681   4.295   2.273   6.659 -0.0698  0.2770 -0.7817
 4683SOL    HW125682   4.388   2.293   6.673 -0.4756  1.0111  0.8935
 4683SOL    HW225683   4.275   2.359   6.624 -1.9201 -0.6061 -1.9175
 4684SOL     OW25684   0.904   3.772   4.668  0.1371  0.0129 -0.0228
 4684SOL    HW125685   0.935   3.858   4.640 -0.2524 -0.1338 -0.9003
 4684SOL    HW225686   0.858   3.747   4.587 -0.5672  2.8282 -0.5114
 4685SOL     OW25687   3.020   0.441  15.033  0.0947 -0.4894 -0.4964
 4685SOL    HW125688   3.030   0.366  15.092 -2.2169  1.3873  2.3076
 4685SOL    HW225689   3.099   0.438  14.980  1.0584 -1.2342  0.9896
 4686SOL     OW25690   2.950   1.735   9.980  0.2055 -0.1704  0.4650
 4686SOL    HW125691   3.012   1.669  10.010  0.1071 -0.8036 -0.7474
 4686SOL    HW225692   2.869   1.685   9.968  0.6157 -0.4117 -1.3273
 4687SOL     OW25693   1.608   3.108   7.957  0.1629  0.8779 -0.5844
 4687SOL    HW125694   1.593   3.203   7.959  0.9067  1.0133 -1.7629
 4687SOL    HW225695   1.703   3.104   7.960  0.0802 -0.3819  0.2909
 4688SOL     OW25696   1.817   2.871   8.345  0.0874 -0.1431  0.3162
 4688SOL    HW125697   1.743   2.812   8.329  0.2636 -0.2233 -0.1886
 4688SOL    HW225698   1.893   2.814   8.330  1.0026  1.1041  0.2139
 4689SOL     OW25699   3.341   3.986   8.052  0.0687  0.0553  0.5951
 4689SOL    HW125700   3.410   3.925   8.025  0.2089  0.1234  0.8007
 4689SOL    HW225701   3.403   4.050   8.088  1.1188 -0.3997 -0.4144
 4690SOL     OW25702   0.949   2.626   7.899  0.2231 -0.0091  0.1466
 4690SOL    HW125703   0.892   2.595   7.829 -0.2775 -0.7195  0.8583
 4690SOL    HW225704   0.902   2.704   7.928  0.0084 -0.4969  1.1285
 4691SOL     OW25705   4.421   3.069   2.514  0.3416 -0.3157  0.9514
 4691SOL    HW125706   4.345   3.023   2.549 -1.3092  1.0211 -0.8742
 4691SOL    HW225707   4.482   3.049   2.585 -0.1495 -1.3388  1.0862
 4692SOL     OW25708   3.668   0.845   7.496 -0.4105 -0.6084  1.0951
 4692SOL    HW125709   3.666   0.938   7.521 -2.7129 -0.9924  2.2891
 4692SOL    HW225710   3.754   0.825   7.534  0.4293  0.5385 -0.1968
 4693SOL     OW25711   4.380   1.815   2.069  0.6269  0.0154 -0.2781
 4693SOL    HW125712   4.341   1.802   2.156  0.6410  1.7742 -0.0048
 4693SOL    HW225713   4.393   1.725   2.038 -1.1975 -0.2512 -0.2343
 4694SOL     OW25714   2.175   1.029   7.541 -0.1622  0.1270  0.4893
 4694SOL    HW125715   2.122   1.027   7.462  0.6108  1.4725 -0.0682
 4694SOL    HW225716   2.115   0.990   7.604  1.1088 -1.0034  0.9945
 4695SOL     OW25717   3.439   1.664  17.160 -0.3019 -0.7387 -0.2808
 4695SOL    HW125718   3.452   1.757  17.140  0.1223 -0.8310 -0.4464
 4695SOL    HW225719   3.458   1.677  17.253  2.1428 -1.3370 -0.7000
 4696SOL     OW25720   3.442   2.188   3.339  0.2147 -0.0601  0.0303
 4696SOL    HW125721   3.412   2.248   3.271  0.0315  0.3331  0.4564
 4696SOL    HW225722   3.354   2.178   3.376  0.7035 -0.8071  1.0067
 4697SOL     OW25723   4.000   0.820   5.171  0.2290 -0.1773  0.1513
 4697SOL    HW125724   4.005   0.905   5.214  0.4521 -0.5733  0.9020
 4697SOL    HW225725   4.033   0.758   5.236  0.5415  1.3521  1.4263
 4698SOL     OW25726   1.222   3.514  16.196 -1.0770  0.8585  0.3810
 4698SOL    HW125727   1.185   3.567  16.266  0.6323  1.0908  1.1166
 4698SOL    HW225728   1.173   3.432  16.197  1.2514 -0.5833 -1.1521
 4699SOL     OW25729   3.058   0.173  15.145 -0.1049  0.4811 -0.2725
 4699SOL    HW125730   3.009   0.098  15.110 -1.1523  1.9877 -2.0604
 4699SOL    HW225731   3.139   0.146  15.102  1.0414  2.7540  0.4815
 4700SOL     OW25732   3.337   1.984   0.622 -0.0080 -0.5623  0.6895
 4700SOL    HW125733   3.318   1.892   0.643  1.5629 -1.4009 -1.6283
 4700SOL    HW225734   3.318   2.017   0.710 -3.2741 -0.2713 -0.1225
 4701SOL     OW25735   4.269   3.238   5.445 -0.1395 -0.0127 -0.3295
 4701SOL    HW125736   4.257   3.247   5.350  0.5664  1.3231 -0.2934
 4701SOL    HW225737   4.359   3.269   5.451 -0.4605  1.0914 -1.1340
 4702SOL     OW25738   2.624   3.002   2.545 -0.4904 -0.0733 -0.2997
 4702SOL    HW125739   2.649   2.927   2.598  0.0415 -0.0034 -0.4565
 4702SOL    HW225740   2.587   2.959   2.467  0.2938  0.5554 -1.0201
 4703SOL     OW25741   4.227   0.361   2.570  0.6223 -0.1977  0.0179
 4703SOL    HW125742   4.219   0.411   2.651  1.4180 -1.8125  1.0906
 4703SOL    HW225743   4.286   0.414   2.517  1.7174 -2.0794 -0.6512
 4704SOL     OW25744   2.448   3.938   4.634  0.3781  0.0500 -0.1498
 4704SOL    HW125745   2.398   3.922   4.715 -0.3620  2.0357 -0.2114
 4704SOL    HW225746   2.384   3.905   4.570 -1.8874  1.9953  1.0962
 4705SOL     OW25747   3.688   3.870  15.708 -0.0259 -0.0793  0.6683
 4705SOL    HW125748   3.683   3.957  15.670  1.0633  0.0993  0.9387
 4705SOL    HW225749   3.702   3.895  15.799  0.4309 -0.5187  0.7170
 4706SOL     OW25750   4.705   1.615   3.477 -0.1802  0.2763 -0.1617
 4706SOL    HW125751   4.701   1.561   3.398 -0.7574 -1.1391  0.8328
 4706SOL    HW225752   0.029   1.687   3.465  0.7737 -0.6977 -0.9803
 4707SOL     OW25753   4.115   0.308   1.981  0.4151  0.3792  0.6313
 4707SOL    HW125754   4.035   0.336   2.027  0.0991  2.3040 -1.0757
 4707SOL    HW225755   4.082   0.243   1.918  1.0767 -1.8387  2.6010
 4708SOL     OW25756   0.107   1.075   8.660 -0.5505  0.3598 -0.7185
 4708SOL    HW125757   0.086   1.142   8.594 -0.5513 -0.7034 -1.7931
 4708SOL    HW225758   0.177   1.029   8.613 -2.2903 -3.3027  0.3541
 4709SOL     OW25759   2.104   3.723   6.885  0.0590  0.5292 -0.3812
 4709SOL    HW125760   2.097   3.769   6.801  0.0345  2.2000  0.5309
 4709SOL    HW225761   2.014   3.698   6.907 -0.6998  0.8659 -3.0684
 4710SOL     OW25762   1.087   3.735   3.261 -0.0916  0.0087  0.5255
 4710SOL    HW125763   1.116   3.823   3.236 -2.3076  0.7797  0.6799
 4710SOL    HW225764   1.144   3.680   3.209 -1.0729 -0.4268 -0.0799
 4711SOL     OW25765   0.745   3.468   5.027  0.0889 -0.3528 -0.1434
 4711SOL    HW125766   0.766   3.432   4.941  0.3492 -0.5997  0.0216
 4711SOL    HW225767   0.686   3.537   4.998 -0.8447 -0.4977  1.4389
 4712SOL     OW25768   4.030   2.441  10.822 -0.5257 -0.2070 -0.1267
 4712SOL    HW125769   3.974   2.405  10.753 -0.3718  1.4777 -1.1283
 4712SOL    HW225770   3.973   2.413  10.893  1.3623  0.4705  1.6585
 4713SOL     OW25771   2.677   4.424   5.353  0.1584 -0.3306 -0.2788
 4713SOL    HW125772   2.609   4.393   5.294 -0.6281  3.1358 -1.1855
 4713SOL    HW225773   2.707   4.343   5.395 -1.8029 -0.4961  0.7871
 4714SOL     OW25774   3.472   0.125  12.404 -0.1452 -0.1092  0.0645
 4714SOL    HW125775   3.385   0.146  12.371 -0.3154 -0.2590  0.4098
 4714SOL    HW225776   3.518   0.147  12.324 -2.7298 -1.1962 -1.7220
 4715SOL     OW25777   2.215   2.214   2.600  0.7130 -0.0657 -0.0805
 4715SOL    HW125778   2.174   2.300   2.607 -1.5200 -1.2425  1.3163
 4715SOL    HW225779   2.218   2.187   2.691 -2.8198 -2.9837 -0.8216
 4716SOL     OW25780   3.594   3.794   7.453 -0.1356 -0.1419  0.3482
 4716SOL    HW125781   3.545   3.862   7.407  1.4932  1.4870  1.0549
 4716SOL    HW225782   3.526   3.726   7.446  0.7089 -0.8329 -1.2068
 4717SOL     OW25783   0.118   4.447   3.971  0.2892 -0.3173 -0.8124
 4717SOL    HW125784   0.118   4.504   3.894  0.4960  0.0171 -0.5663
 4717SOL    HW225785   0.069   4.366   3.960 -1.4400  0.4396  1.1252
 4718SOL     OW25786   4.023   2.343  16.903 -0.1462 -0.3515 -0.2180
 4718SOL    HW125787   3.973   2.407  16.853 -0.8908 -0.3834  0.4739
 4718SOL    HW225788   4.084   2.394  16.956  0.5224  0.3709 -1.6887
 4719SOL     OW25789   4.652   2.428   7.120  0.3526  0.1267 -0.1617
 4719SOL    HW125790   0.003   2.455   7.142  0.2406  0.1930  0.2214
 4719SOL    HW225791   4.650   2.333   7.130 -3.4829  0.1174 -1.2081
 4720SOL     OW25792   4.683   1.904   8.639 -0.0846  0.4255  0.0126
 4720SOL    HW125793   4.633   1.894   8.720 -0.3394 -0.9672 -0.3174
 4720SOL    HW225794   0.034   1.922   8.669  0.4174  0.8604 -1.7482
 4721SOL     OW25795   3.943   4.641  11.301  0.3868  0.0835 -0.4885
 4721SOL    HW125796   3.879   4.585  11.256  1.4877 -1.8838  0.3755
 4721SOL    HW225797   3.968   4.706  11.236 -1.6414  0.9826 -0.3781
 4722SOL     OW25798   4.139   0.384   5.900  0.4114 -0.0659  0.0660
 4722SOL    HW125799   4.090   0.302   5.898 -1.0916  0.7912  1.4281
 4722SOL    HW225800   4.204   0.365   5.833  1.0503 -0.9656  0.9430
 4723SOL     OW25801   0.986   0.961   1.173  0.4994 -0.1216  0.7335
 4723SOL    HW125802   1.007   1.046   1.134 -0.2908  0.1076  0.8157
 4723SOL    HW225803   1.026   0.971   1.260 -1.1528 -0.1348  1.4984
 4724SOL     OW25804   4.732   3.863   2.494 -0.1723 -0.5584  0.4171
 4724SOL    HW125805   0.016   3.780   2.452 -1.9505  0.8409 -3.3469
 4724SOL    HW225806   4.676   3.902   2.426  2.7696  1.3965 -0.8494
 4725SOL     OW25807   4.357   4.553   7.264  0.3118  0.0792 -0.3994
 4725SOL    HW125808   4.310   4.537   7.346  2.1102 -0.1800  0.5764
 4725SOL    HW225809   4.450   4.555   7.287  0.4801 -1.1862 -0.9712
 4726SOL     OW25810   4.154   3.850  12.567 -0.2255 -0.0689 -0.0315
 4726SOL    HW125811   4.181   3.771  12.615 -0.6677 -0.6166 -0.6897
 4726SOL    HW225812   4.096   3.908  12.616  0.0560 -0.4190  0.7181
 4727SOL     OW25813   3.675   3.182   1.158  0.2109 -0.2598  0.5688
 4727SOL    HW125814   3.716   3.176   1.072 -0.4068  2.8778  0.0521
 4727SOL    HW225815   3.627   3.264   1.149 -0.2815 -0.6673 -0.5798
 4728SOL     OW25816   3.205   3.037  11.337 -0.2412 -0.2480  0.1331
 4728SOL    HW125817   3.260   3.054  11.262 -2.2847 -0.5123 -1.4275
 4728SOL    HW225818   3.263   2.979  11.386 -0.3901 -0.2451  0.3148
 4729SOL     OW25819   0.124   4.051   5.869 -0.0968 -0.2972 -0.0716
 4729SOL    HW125820   0.216   4.032   5.886 -0.9336 -2.1685  2.2662
 4729SOL    HW225821   0.119   4.144   5.890  2.0071 -0.5481  1.4604
 4730SOL     OW25822   3.898   3.256   0.548 -0.4369  0.2802 -0.4789
 4730SOL    HW125823   3.926   3.242   0.458  1.5509 -0.2072  0.2173
 4730SOL    HW225824   3.893   3.167   0.582  2.5923 -0.8222 -2.9603
 4731SOL     OW25825   3.678   1.237   9.441  0.3292 -0.4193  0.0878
 4731SOL    HW125826   3.592   1.208   9.469  0.3043 -0.4762 -0.0473
 4731SOL    HW225827   3.674   1.230   9.346  3.6477 -1.8911  0.0678
 4732SOL     OW25828   1.828   4.424   6.703  0.0278 -0.1011 -0.1589
 4732SOL    HW125829   1.790   4.370   6.634 -0.8326 -0.2565  0.4378
 4732SOL    HW225830   1.763   4.494   6.711  0.9528  0.7734 -0.2668
 4733SOL     OW25831   2.661   1.848   3.678  0.9260 -0.2006  0.0190
 4733SOL    HW125832   2.669   1.901   3.757 -0.9469  2.4011 -1.5055
 4733SOL    HW225833   2.596   1.785   3.710  0.4283  0.2905 -0.0140
 4734SOL     OW25834   3.410   4.336   6.835  0.2582  0.1179 -0.4290
 4734SOL    HW125835   3.329   4.377   6.804 -0.1816 -0.3574  0.0918
 4734SOL    HW225836   3.386   4.243   6.840  2.9416 -0.5916 -0.7119
 4735SOL     OW25837   1.946   3.294  12.151 -0.1979 -0.1633  0.3094
 4735SOL    HW125838   1.916   3.340  12.073 -1.0076 -0.0457  0.6943
 4735SOL    HW225839   1.984   3.364  12.204  3.0346 -1.3630 -0.4041
 4736SOL     OW25840   0.377   2.883   4.602 -0.5128 -0.0750  0.4395
 4736SOL    HW125841   0.449   2.891   4.664 -1.0855 -0.5014  1.1662
 4736SOL    HW225842   0.335   2.798   4.614  0.3761 -0.1317  3.1180
 4737SOL     OW25843   0.300   0.281   2.608  0.2558 -0.3995 -0.0401
 4737SOL    HW125844   0.221   0.246   2.649  0.9230  0.6113  2.1199
 4737SOL    HW225845   0.367   0.225   2.648 -2.1624 -2.4597  1.1275
 4738SOL     OW25846   2.805   0.976   6.647 -1.2191  0.3792  0.1617
 4738SOL    HW125847   2.774   1.039   6.581  0.9303  2.4249  1.0792
 4738SOL    HW225848   2.726   0.970   6.701 -1.3242  2.4406  0.2555
 4739SOL     OW25849   2.497   1.841   1.621 -0.1503  0.0165  0.2145
 4739SOL    HW125850   2.403   1.825   1.613  0.0348 -1.2064  0.5306
 4739SOL    HW225851   2.521   1.831   1.529 -0.1875  0.8121  0.1132
 4740SOL     OW25852   4.155   4.356   6.891 -0.2221  0.6508  0.2558
 4740SOL    HW125853   4.190   4.422   6.950  0.7272 -1.6398  2.2226
 4740SOL    HW225854   4.082   4.407   6.854 -0.8386  0.5593  1.3501
 4741SOL     OW25855   2.810   2.906   7.031 -0.0502 -0.0938 -0.0565
 4741SOL    HW125856   2.803   2.922   7.125 -1.4147 -0.7870 -0.0321
 4741SOL    HW225857   2.744   2.837   7.028 -0.4384  0.2295  1.0240
 4742SOL     OW25858   4.526   0.184   1.610  0.2698  0.4060 -0.2171
 4742SOL    HW125859   4.552   0.210   1.698  0.9871 -1.4184  0.1098
 4742SOL    HW225860   4.545   0.090   1.619 -1.9036  0.1527  1.6220
 4743SOL     OW25861   2.582   1.859   2.797  0.3758  0.4425 -0.1605
 4743SOL    HW125862   2.671   1.873   2.829  0.0635 -0.9772  1.2918
 4743SOL    HW225863   2.556   1.808   2.873  0.1357 -0.5069 -0.8822
 4744SOL     OW25864   1.682   3.027   5.080 -0.0092 -0.1007  0.0576
 4744SOL    HW125865   1.716   2.986   5.000 -1.5768  0.1574 -0.7286
 4744SOL    HW225866   1.734   2.982   5.146  1.0791  0.5573 -0.3491
 4745SOL     OW25867   0.308   3.404  12.245 -0.2355 -0.3493  0.7388
 4745SOL    HW125868   0.400   3.429  12.249 -1.1153  2.6521  2.1120
 4745SOL    HW225869   0.308   3.325  12.191 -2.3550 -0.0790  0.3603
 4746SOL     OW25870   4.282   0.327   6.559 -0.5010 -0.2918 -0.3172
 4746SOL    HW125871   4.336   0.405   6.567  0.7310 -1.3021  1.2856
 4746SOL    HW225872   4.239   0.330   6.645 -1.9564  1.8873 -1.1206
 4747SOL     OW25873   4.591   4.615   1.647 -0.2837 -0.1121 -0.5772
 4747SOL    HW125874   4.624   4.605   1.736  2.8436 -1.3332 -1.8618
 4747SOL    HW225875   4.498   4.599   1.663 -0.0484 -1.4186 -0.4981
 4748SOL     OW25876   4.048   3.872  13.366 -0.1173 -0.1019  0.2093
 4748SOL    HW125877   3.977   3.813  13.390 -0.1759 -0.5427 -1.0516
 4748SOL    HW225878   4.001   3.924  13.300  0.2228 -0.9737 -0.7166
 4749SOL     OW25879   1.511   2.029   9.946 -0.0649 -0.1436  0.3093
 4749SOL    HW125880   1.479   2.119   9.946  2.5713  0.7859  1.1978
 4749SOL    HW225881   1.537   2.023   9.854  1.4779  0.0694  0.7365
 4750SOL     OW25882   4.371   2.303   3.086  0.6036  0.5053  0.3736
 4750SOL    HW125883   4.452   2.277   3.042 -0.9338 -1.0129 -1.5501
 4750SOL    HW225884   4.326   2.220   3.099  2.1941 -0.5422 -0.8742
 4751SOL     OW25885   0.203   0.730  10.851 -0.6485 -0.3395 -0.2393
 4751SOL    HW125886   0.163   0.798  10.795  1.1896  0.2973 -0.7710
 4751SOL    HW225887   0.244   0.770  10.928 -0.4235 -1.0855  0.0284
 4752SOL     OW25888   4.735   2.391  13.105 -0.4926  0.2813  0.1793
 4752SOL    HW125889   4.656   2.414  13.055  0.3135 -0.3287 -1.3588
 4752SOL    HW225890   0.029   2.313  13.060  0.2622  1.1092 -0.6896
 4753SOL     OW25891   1.949   2.771  14.098  0.5231 -0.5028  0.0789
 4753SOL    HW125892   1.936   2.740  14.188 -1.3777 -1.0830 -0.3806
 4753SOL    HW225893   1.861   2.780  14.062 -0.8028 -0.6528  3.2332
 4754SOL     OW25894   0.305   3.347   2.334 -0.0629  0.1075 -0.2187
 4754SOL    HW125895   0.286   3.380   2.422  2.3317  1.1615 -0.0903
 4754SOL    HW225896   0.227   3.296   2.314  0.0714  0.0296 -0.5531
 4755SOL     OW25897   3.717   1.868  14.315  0.4468  0.2079  0.1746
 4755SOL    HW125898   3.776   1.797  14.339 -0.0372 -0.5695 -0.9331
 4755SOL    HW225899   3.648   1.851  14.379 -0.8082  0.6151 -1.0852
 4756SOL     OW25900   3.343   4.014   3.744  0.8427 -0.4333 -0.2345
 4756SOL    HW125901   3.267   4.048   3.792  0.0856 -1.9743 -0.3478
 4756SOL    HW225902   3.389   4.098   3.736  2.9480 -1.5895 -0.0613
 4757SOL     OW25903   2.682   2.868   5.560  0.1711  0.4170  0.2169
 4757SOL    HW125904   2.739   2.890   5.487  0.2545 -0.6424 -0.0366
 4757SOL    HW225905   2.644   2.951   5.587 -0.0721 -0.1536  1.6446
 4758SOL     OW25906   3.382   0.887   7.513 -0.4251  0.6619 -0.3538
 4758SOL    HW125907   3.446   0.886   7.442 -1.1225  1.3619 -1.0006
 4758SOL    HW225908   3.427   0.850   7.588 -3.4540 -1.0502  0.6312
 4759SOL     OW25909   3.531   4.111   6.683  0.5384 -0.0683 -0.3937
 4759SOL    HW125910   3.587   4.035   6.698 -0.0864 -0.7614 -1.5370
 4759SOL    HW225911   3.604   4.173   6.691  0.3152 -0.1484  2.3120
 4760SOL     OW25912   0.199   3.963  12.310 -0.2797  0.4399  0.4138
 4760SOL    HW125913   0.133   3.956  12.379 -0.3087 -0.8287  0.2642
 4760SOL    HW225914   0.196   4.057  12.297 -1.8766  0.4378  0.6394
 4761SOL     OW25915   0.862   2.128   5.010 -0.2627 -0.0881  0.0509
 4761SOL    HW125916   0.948   2.087   5.002  0.3549  1.0007  1.1880
 4761SOL    HW225917   0.834   2.151   4.921  2.2785 -1.1382 -1.0132
 4762SOL     OW25918   1.499   3.399  10.686 -0.0291 -0.0238 -0.4205
 4762SOL    HW125919   1.437   3.357  10.746  0.0055 -1.7230 -1.5666
 4762SOL    HW225920   1.466   3.359  10.606 -0.2772  2.3866 -1.5186
 4763SOL     OW25921   3.338   1.626   1.360  0.4527  0.1452  0.6112
 4763SOL    HW125922   3.422   1.650   1.322 -0.7160  0.2024 -1.9700
 4763SOL    HW225923   3.334   1.531   1.346 -1.5094  0.4569 -0.9287
 4764SOL     OW25924   2.385   4.717   8.904  0.4000  0.3645 -0.0168
 4764SOL    HW125925   2.459   0.038   8.914  2.3121 -1.9540 -0.7206
 4764SOL    HW225926   2.316   0.024   8.952  0.1434 -0.7541  0.6730
 4765SOL     OW25927   0.688   0.212   3.088 -0.1699 -0.3098 -0.4090
 4765SOL    HW125928   0.608   0.163   3.108  0.9550 -1.9493  0.1350
 4765SOL    HW225929   0.688   0.282   3.153 -0.2262  0.4413 -1.2208
 4766SOL     OW25930   3.262   3.623  10.469  0.1886 -0.0988  0.1184
 4766SOL    HW125931   3.265   3.715  10.494  2.0908 -0.4779  1.2527
 4766SOL    HW225932   3.287   3.619  10.377 -0.3947  0.9121 -0.0895
 4767SOL     OW25933   3.659   3.977   3.605  0.3265 -0.4735 -0.4500
 4767SOL    HW125934   3.662   4.035   3.681  0.2079 -0.5105 -0.4168
 4767SOL    HW225935   3.565   3.962   3.594 -0.0389  1.2024  0.3531
 4768SOL     OW25936   2.846   2.889  13.000 -0.2953 -0.3175  0.0660
 4768SOL    HW125937   2.873   2.893  13.092 -0.3910 -1.5484  0.1486
 4768SOL    HW225938   2.800   2.971  12.988  1.5297  0.8007  0.7440
 4769SOL     OW25939   3.155   1.066  16.434  0.1614 -0.3253 -0.8145
 4769SOL    HW125940   3.243   1.048  16.401  0.4512  3.6895 -2.1889
 4769SOL    HW225941   3.140   1.152  16.393 -0.7226 -0.0223  0.1346
 4770SOL     OW25942   3.421   3.140   0.682 -0.5147 -0.1855  0.3498
 4770SOL    HW125943   3.459   3.085   0.613 -0.2877  0.9625 -0.4420
 4770SOL    HW225944   3.405   3.219   0.630  1.2025  0.7173  1.2041
 4771SOL     OW25945   2.416   3.114   6.040  0.4222 -0.1376  0.0294
 4771SOL    HW125946   2.346   3.070   5.991 -0.7287  1.8984 -0.1457
 4771SOL    HW225947   2.488   3.066   5.999  0.4523 -1.4537  1.6039
 4772SOL     OW25948   1.586   1.986   5.116 -0.1440  0.3875  0.1557
 4772SOL    HW125949   1.579   1.936   5.197 -1.3193 -2.0379 -1.4358
 4772SOL    HW225950   1.494   1.991   5.092 -0.0266 -2.3683 -0.9708
 4773SOL     OW25951   4.263   4.154  11.236 -0.3466 -0.1599  0.7508
 4773SOL    HW125952   4.202   4.202  11.291  0.0023 -0.7117  1.6123
 4773SOL    HW225953   4.211   4.145  11.156 -0.2891 -2.8865  1.0162
 4774SOL     OW25954   2.977   4.465  14.635 -0.0522  0.0253  0.0625
 4774SOL    HW125955   2.916   4.498  14.701 -1.2271  1.1662 -1.6148
 4774SOL    HW225956   2.921   4.489  14.562 -0.2946 -1.1616 -0.1555
 4775SOL     OW25957   2.414   3.476  11.889  0.1370  0.2442  0.6203
 4775SOL    HW125958   2.388   3.455  11.799  0.0016 -2.1652  1.2157
 4775SOL    HW225959   2.330   3.502  11.928  0.8785 -1.7846  3.5973
 4776SOL     OW25960   4.124   2.090   2.636 -0.1151 -0.0343  0.2326
 4776SOL    HW125961   4.176   2.166   2.663 -1.7087  1.5372 -1.1257
 4776SOL    HW225962   4.071   2.125   2.564 -1.6006 -0.2001  1.2503
 4777SOL     OW25963   2.421   0.211  16.347  0.2290  0.1801 -0.1104
 4777SOL    HW125964   2.377   0.292  16.321 -1.9359 -0.8495  0.3515
 4777SOL    HW225965   2.419   0.236  16.440  0.6651 -1.4100  0.3226
 4778SOL     OW25966   2.115   2.484  14.497 -0.1568  0.6980  0.4384
 4778SOL    HW125967   2.096   2.544  14.568 -1.3787  0.8101  0.0156
 4778SOL    HW225968   2.133   2.404  14.547 -0.7422  0.6878  0.6248
 4779SOL     OW25969   0.901   4.268   9.511  1.1502  0.4789  0.0167
 4779SOL    HW125970   0.822   4.316   9.535  1.6512  1.4060 -0.1564
 4779SOL    HW225971   0.867   4.230   9.430  0.4200  0.7960  0.1807
 4780SOL     OW25972   1.874   1.883   8.106  0.2486  0.0068 -0.5507
 4780SOL    HW125973   1.808   1.828   8.148  1.4734 -0.1217  1.1946
 4780SOL    HW225974   1.916   1.921   8.182 -0.3017 -1.9490  0.7387
 4781SOL     OW25975   0.888   1.196   4.916 -0.1072  0.9129 -0.1954
 4781SOL    HW125976   0.971   1.148   4.914  1.3332  3.5625 -2.8049
 4781SOL    HW225977   0.923   1.285   4.911 -0.6683  1.2580  1.9376
 4782SOL     OW25978   0.351   4.132  11.947  0.1539  0.2955 -0.3153
 4782SOL    HW125979   0.331   4.171  11.862  0.9427 -1.8860 -1.4983
 4782SOL    HW225980   0.287   4.061  11.944 -1.1533  1.3653  2.0136
 4783SOL     OW25981   2.962   4.371   1.272 -1.1870  0.1555 -0.6955
 4783SOL    HW125982   2.885   4.391   1.324 -1.1315 -1.0724 -0.1544
 4783SOL    HW225983   2.959   4.445   1.211 -0.8555  0.1143 -0.7620
 4784SOL     OW25984   2.612   3.149   1.019 -0.5391 -0.0474  0.0222
 4784SOL    HW125985   2.605   3.155   1.114  0.6778  1.7235  0.0025
 4784SOL    HW225986   2.693   3.197   1.001 -0.4850 -0.4231 -0.7249
 4785SOL     OW25987   4.376   4.312  15.219  0.4809  0.5376  0.6126
 4785SOL    HW125988   4.365   4.347  15.131  0.9597 -0.9230 -0.0395
 4785SOL    HW225989   4.434   4.239  15.198  0.0794  0.1105  0.9666
 4786SOL     OW25990   0.969   1.988   8.933  0.4440  0.1233 -0.0787
 4786SOL    HW125991   1.002   1.966   9.020 -0.6636  1.4765  0.6723
 4786SOL    HW225992   1.055   2.007   8.895  0.8409  0.0666  0.7761
 4787SOL     OW25993   3.998   0.188   5.283 -0.3050 -0.6636 -0.1475
 4787SOL    HW125994   3.942   0.250   5.236  1.8959  0.4249 -1.2910
 4787SOL    HW225995   3.970   0.213   5.371 -1.8047  0.5784 -0.9712
 4788SOL     OW25996   2.633   3.323   4.609 -0.6180 -0.2364 -0.0890
 4788SOL    HW125997   2.613   3.358   4.522 -3.4350 -2.0472 -0.1753
 4788SOL    HW225998   2.675   3.240   4.589  1.1931  0.6481  0.0106
 4789SOL     OW25999   0.828   2.179   4.738 -0.0321 -0.2384 -0.2196
 4789SOL    HW126000   0.760   2.198   4.673 -0.1754 -0.7430 -0.2135
 4789SOL    HW226001   0.911   2.208   4.700 -0.7195  0.3294 -1.2961
 4790SOL     OW26002   1.274   1.405   8.408 -1.1135  0.2206 -0.0254
 4790SOL    HW126003   1.321   1.369   8.483  2.7937  2.8095 -1.2490
 4790SOL    HW226004   1.291   1.495   8.436 -2.6987  0.1485  1.2081
 4791SOL     OW26005   3.180   2.006   4.452  0.0724 -0.0110 -0.0520
 4791SOL    HW126006   3.155   2.029   4.363 -0.2538  0.0833  0.0656
 4791SOL    HW226007   3.113   1.945   4.483 -0.7901  2.0129  2.1002
 4792SOL     OW26008   2.701   0.491  12.959  0.0654  0.0563  0.4099
 4792SOL    HW126009   2.641   0.451  13.022  1.3502 -0.8245  1.0806
 4792SOL    HW226010   2.721   0.427  12.891 -1.0951  0.7226 -0.5492
 4793SOL     OW26011   0.153   3.855   4.728 -0.6376  0.2820  0.3539
 4793SOL    HW126012   0.061   3.841   4.703 -0.6313  1.8341 -0.5522
 4793SOL    HW226013   0.155   3.803   4.808  0.7094 -1.6078 -0.9016
 4794SOL     OW26014   0.808   1.779   8.707  0.1439  0.3397  0.5381
 4794SOL    HW126015   0.890   1.792   8.659  0.5058 -1.1910  0.7346
 4794SOL    HW226016   0.808   1.816   8.795 -0.7220  1.6429  0.0033
 4795SOL     OW26017   2.479   2.014   9.271  0.1286 -0.3049 -0.1412
 4795SOL    HW126018   2.533   2.001   9.193 -0.5577  0.9828 -0.8349
 4795SOL    HW226019   2.394   1.980   9.242 -0.0256 -2.0342  2.3334
 4796SOL     OW26020   0.178   3.896   1.456 -0.0224 -0.6706 -0.4507
 4796SOL    HW126021   0.087   3.884   1.482 -0.2304 -2.4199 -1.9760
 4796SOL    HW226022   0.223   3.906   1.540 -1.0844  1.1145 -0.0952
 4797SOL     OW26023   3.580   2.979   5.561  0.2138  0.4259  0.3202
 4797SOL    HW126024   3.652   2.917   5.563 -1.2780 -1.3180  0.4646
 4797SOL    HW226025   3.611   3.038   5.492 -0.5492  0.1722 -0.2362
 4798SOL     OW26026   2.170   1.543  12.676  0.1445  0.1665 -0.0302
 4798SOL    HW126027   2.261   1.538  12.704  0.4471 -4.7380 -1.8884
 4798SOL    HW226028   2.136   1.539  12.765  0.0307 -1.0270 -0.1206
 4799SOL     OW26029   2.426   4.439   6.499  0.5219 -0.0809  0.1457
 4799SOL    HW126030   2.373   4.516   6.518 -1.6034 -2.2010  2.8824
 4799SOL    HW226031   2.369   4.377   6.544  1.5115 -2.3423 -1.7193
 4800SOL     OW26032   4.633   2.895  16.731 -0.4858  0.3714 -0.1550
 4800SOL    HW126033   4.720   2.930  16.748  0.2271 -1.7460  0.4373
 4800SOL    HW226034   4.660   2.824  16.674 -0.7760  0.5800 -0.5483
 4801SOL     OW26035   2.606   0.706   3.884 -0.0996  0.0705  0.2350
 4801SOL    HW126036   2.644   0.628   3.925 -3.3633 -1.2286  0.7310
 4801SOL    HW226037   2.539   0.717   3.951 -1.6909  0.6459 -1.4402
 4802SOL     OW26038   0.537   0.226   1.836  0.2332 -0.2894  0.0799
 4802SOL    HW126039   0.545   0.225   1.931  0.8183 -2.4558  0.0103
 4802SOL    HW226040   0.445   0.248   1.823  1.0098  1.5929 -2.2844
 4803SOL     OW26041   3.224   0.066  16.928 -0.2551  0.7548 -0.5096
 4803SOL    HW126042   3.247   0.158  16.933  1.7758  0.1865  0.3278
 4803SOL    HW226043   3.128   0.070  16.935 -0.3810  0.6390 -2.2203
 4804SOL     OW26044   2.493   1.897  15.468 -0.2102 -0.1838 -0.0367
 4804SOL    HW126045   2.448   1.979  15.451  2.7122  1.4665  0.1493
 4804SOL    HW226046   2.448   1.855  15.394 -1.2355  0.1920  0.3851
 4805SOL     OW26047   2.273   3.808  10.491  0.2698 -0.1689 -0.3932
 4805SOL    HW126048   2.320   3.727  10.511  1.7193  0.6124 -0.5899
 4805SOL    HW226049   2.255   3.835  10.581 -0.7649 -2.1661 -0.0105
 4806SOL     OW26050   3.458   1.424   5.269 -0.1054  0.1794 -0.0088
 4806SOL    HW126051   3.385   1.435   5.209  0.4716  0.7069 -0.6178
 4806SOL    HW226052   3.531   1.387   5.218 -1.2598 -1.5000 -0.4205
 4807SOL     OW26053   4.067   0.265  16.781 -0.6399  0.4813 -0.3336
 4807SOL    HW126054   4.157   0.282  16.753 -0.0697 -0.3776  0.9346
 4807SOL    HW226055   4.075   0.288  16.874  1.9119  0.2147 -0.4745
 4808SOL     OW26056   3.742   0.575   9.590 -0.2712  0.3690  0.3659
 4808SOL    HW126057   3.711   0.570   9.680 -1.3599 -0.9773 -0.0825
 4808SOL    HW226058   3.786   0.660   9.591  0.5364 -0.0477  0.6442
 4809SOL     OW26059   4.322   4.615  10.486 -0.0640  0.5804 -0.2228
 4809SOL    HW126060   4.303   4.564  10.564 -0.7672  1.6326  0.3040
 4809SOL    HW226061   4.358   4.547  10.429 -0.7667  0.5235 -0.6008
 4810SOL     OW26062   4.582   4.276   6.596 -0.1903 -0.1469  0.1434
 4810SOL    HW126063   4.492   4.278   6.562 -1.1022  0.2657  2.5894
 4810SOL    HW226064   4.593   4.370   6.582 -2.4456  0.2828  1.2028
 4811SOL     OW26065   0.819   1.800  15.922  0.5930  0.4997  0.6883
 4811SOL    HW126066   0.736   1.767  15.889  0.0941 -0.1488  2.6168
 4811SOL    HW226067   0.866   1.718  15.936  1.6697  1.1166  0.7261
 4812SOL     OW26068   1.116   2.851   6.207  0.1830 -0.1434 -0.2156
 4812SOL    HW126069   1.169   2.927   6.184  1.4950 -0.7260  0.9286
 4812SOL    HW226070   1.033   2.898   6.211 -0.4303 -1.0463 -2.1885
 4813SOL     OW26071   3.322   3.643  10.210 -0.3251 -0.1139 -0.2757
 4813SOL    HW126072   3.384   3.659  10.138 -1.3268  0.4193 -1.0239
 4813SOL    HW226073   3.246   3.669  10.157  1.2452  0.6848 -2.1542
 4814SOL     OW26074   3.906   3.982   4.427  1.0330  0.7105 -0.6644
 4814SOL    HW126075   3.974   3.970   4.494  1.0252 -1.4888 -1.0648
 4814SOL    HW226076   3.878   3.891   4.419  0.8826  0.7099 -0.1074
 4815SOL     OW26077   2.355   3.732   0.106 -0.2221 -0.1113 -0.3928
 4815SOL    HW126078   2.355   3.653   0.052  1.6302  0.1767 -0.8104
 4815SOL    HW226079   2.283   3.785   0.072 -0.4111 -0.5342 -0.6565
 4816SOL     OW26080   2.490   1.531  14.530 -0.4225 -0.3802 -0.4608
 4816SOL    HW126081   2.510   1.562  14.618 -1.6964 -1.8695  0.3674
 4816SOL    HW226082   2.423   1.593  14.502  0.9856  0.4200 -2.0503
 4817SOL     OW26083   0.450   3.954   6.863  0.0156  0.6220 -0.1231
 4817SOL    HW126084   0.387   3.896   6.906 -0.3387 -0.2159 -1.7508
 4817SOL    HW226085   0.424   4.026   6.920  0.8568  0.7557  0.0802
 4818SOL     OW26086   0.062   1.477   3.818  0.5659 -0.3128 -0.0083
 4818SOL    HW126087   4.717   1.433   3.834  0.4374 -0.6229 -1.4978
 4818SOL    HW226088   0.041   1.566   3.792 -0.6384 -0.5549  0.1040
 4819SOL     OW26089   3.279   4.494   5.665  0.3009 -0.4121  0.1160
 4819SOL    HW126090   3.244   4.497   5.576 -1.5902  1.4638  0.8997
 4819SOL    HW226091   3.363   4.539   5.667  0.9476 -1.6962  1.6272
 4820SOL     OW26092   3.703   2.930   0.021 -0.6816 -0.8960  0.0994
 4820SOL    HW126093   3.788   2.971   0.006 -0.2581 -1.3612  1.2393
 4820SOL    HW226094   3.708   2.867  17.700 -0.2263  1.7018 -2.1521
 4821SOL     OW26095   2.317   2.174   4.229 -0.5250 -0.4991  0.5304
 4821SOL    HW126096   2.305   2.142   4.318 -1.1376  1.3723  1.1092
 4821SOL    HW226097   2.322   2.269   4.239  2.4814 -0.9550  3.2943
 4822SOL     OW26098   2.841   4.454   4.767  0.1110  0.9700  0.7407
 4822SOL    HW126099   2.789   4.531   4.792 -1.2128 -0.3741  2.1825
 4822SOL    HW226100   2.849   4.402   4.848 -0.7013 -0.5801 -0.1598
 4823SOL     OW26101   3.261   4.681   9.741  0.4874  0.5071 -0.2925
 4823SOL    HW126102   3.337   4.707   9.688  0.1769 -0.7797 -1.3649
 4823SOL    HW226103   3.291   4.593   9.764 -1.3612  0.0008  0.1779
 4824SOL     OW26104   1.235   4.737   2.517 -0.0416 -0.1392 -0.2485
 4824SOL    HW126105   1.160   4.685   2.547  0.8701 -1.4929 -0.2835
 4824SOL    HW226106   1.312   4.688   2.549  0.6011  1.2143  0.2781
 4825SOL     OW26107   2.371   3.601  14.824 -0.1759 -0.3678  0.4352
 4825SOL    HW126108   2.377   3.622  14.918 -1.6746 -0.4442  0.5477
 4825SOL    HW226109   2.465   3.611  14.807  0.1012 -0.7299  1.6745
 4826SOL     OW26110   3.470   3.136   4.096 -0.0251  0.1212  0.3278
 4826SOL    HW126111   3.434   3.222   4.118  0.0698 -0.1192  1.4253
 4826SOL    HW226112   3.399   3.081   4.129 -0.8505  1.7703  1.3195
 4827SOL     OW26113   0.362   1.254   6.637 -0.1814  0.1022 -0.4620
 4827SOL    HW126114   0.452   1.221   6.641 -0.8069 -1.6461 -1.0744
 4827SOL    HW226115   0.318   1.193   6.695  0.4398  1.0521  1.0132
 4828SOL     OW26116   4.210   0.515   2.802  0.2284  0.0609 -0.6653
 4828SOL    HW126117   4.189   0.486   2.891  1.3133  2.4994  0.3987
 4828SOL    HW226118   4.160   0.597   2.796  0.0336  0.0294  0.5040
 4829SOL     OW26119   4.163   3.373   2.151  0.1324  0.1937  0.6892
 4829SOL    HW126120   4.147   3.310   2.221  0.1114  1.6427  2.0145
 4829SOL    HW226121   4.089   3.358   2.093  0.6887 -2.4087  0.6585
 4830SOL     OW26122   2.806   1.729   8.385  0.3154 -0.6190 -0.3831
 4830SOL    HW126123   2.823   1.753   8.476 -0.7874 -3.8943  0.6857
 4830SOL    HW226124   2.829   1.804   8.330 -2.0628  0.0507 -0.4584
 4831SOL     OW26125   1.505   0.198   2.186 -0.1338 -0.1474  0.3120
 4831SOL    HW126126   1.476   0.244   2.106 -1.5518  0.9817  1.4644
 4831SOL    HW226127   1.424   0.155   2.214 -0.3071 -1.3996 -2.0479
 4832SOL     OW26128   0.970   3.088   1.869 -0.3206 -0.0012 -0.1139
 4832SOL    HW126129   0.986   3.149   1.797  2.4356 -1.9182 -1.0958
 4832SOL    HW226130   0.875   3.086   1.880 -0.4691 -1.4493 -1.7143
 4833SOL     OW26131   4.072   2.323   5.249 -0.3285 -0.9479  0.0855
 4833SOL    HW126132   4.040   2.234   5.235  0.6843 -0.9067 -2.5402
 4833SOL    HW226133   4.104   2.315   5.339  1.6163  1.4422 -0.3904
 4834SOL     OW26134   1.506   0.650   7.850  0.3191  0.1093 -0.0220
 4834SOL    HW126135   1.545   0.728   7.810  0.3476 -0.6868 -1.5345
 4834SOL    HW226136   1.456   0.686   7.923 -0.6215 -1.7655  0.2491
 4835SOL     OW26137   3.274   4.510   4.774 -0.0158  0.5728 -0.0537
 4835SOL    HW126138   3.281   4.491   4.867 -0.5414  2.4972  0.3897
 4835SOL    HW226139   3.231   4.596   4.779  0.2779  0.7157  0.0628
 4836SOL     OW26140   0.550   2.683   8.569 -0.0416 -0.7184 -0.0457
 4836SOL    HW126141   0.467   2.657   8.609 -0.0697 -1.4179 -0.5568
 4836SOL    HW226142   0.602   2.602   8.575 -0.8498 -1.3693 -1.6483
 4837SOL     OW26143   2.978   4.474   1.924  0.1682 -0.2784 -0.0783
 4837SOL    HW126144   3.019   4.493   2.009  1.4928 -1.6045 -0.4196
 4837SOL    HW226145   3.031   4.524   1.861  0.9110 -2.4568 -1.1612
 4838SOL     OW26146   2.234   2.945   2.656 -0.4825 -0.6133 -0.8785
 4838SOL    HW126147   2.279   3.028   2.667 -1.3199  0.2882 -4.1099
 4838SOL    HW226148   2.144   2.975   2.665 -1.1079 -1.2619 -4.8918
 4839SOL     OW26149   3.089   2.578   7.989  0.3523 -0.6972 -0.2309
 4839SOL    HW126150   3.109   2.633   7.913 -0.0196 -2.0057 -1.2720
 4839SOL    HW226151   3.114   2.625   8.069  0.9262  1.5684 -1.7353
 4840SOL     OW26152   3.135   1.809   1.408  0.0545  0.4966  0.2768
 4840SOL    HW126153   3.218   1.764   1.393 -0.8109 -0.1726 -2.6417
 4840SOL    HW226154   3.074   1.767   1.347 -0.1404 -0.9632  1.4823
 4841SOL     OW26155   2.680   2.876  14.479 -0.0614 -0.0039  0.8051
 4841SOL    HW126156   2.729   2.812  14.531 -0.3767  0.3423  1.5346
 4841SOL    HW226157   2.727   2.959  14.467 -2.2803  1.0893 -0.3161
 4842SOL     OW26158   0.282   3.008   9.695  0.0904  0.3400 -0.2998
 4842SOL    HW126159   0.228   2.950   9.642 -0.2005  0.7514 -0.4520
 4842SOL    HW226160   0.368   3.008   9.652  1.2877  0.1255  2.0447
 4843SOL     OW26161   1.626   2.271   5.570 -0.0778  0.5269 -0.3102
 4843SOL    HW126162   1.602   2.361   5.592  0.7529  1.0093 -1.4011
 4843SOL    HW226163   1.546   2.240   5.527 -0.1405  0.9569 -0.5018
 4844SOL     OW26164   3.270   0.144  13.509  0.3957  0.5379 -0.1155
 4844SOL    HW126165   3.345   0.202  13.516  1.2971 -0.4794 -1.2524
 4844SOL    HW226166   3.214   0.185  13.575  0.4053  2.5529 -1.3753
 4845SOL     OW26167   1.038   2.166  13.694  0.2023 -0.2384  0.3940
 4845SOL    HW126168   1.009   2.240  13.747 -0.3459 -0.7231  0.7707
 4845SOL    HW226169   1.018   2.201  13.608  0.6519 -0.6880  0.1079
 4846SOL     OW26170   0.574   0.347  10.028  0.2407 -0.6026  0.0350
 4846SOL    HW126171   0.567   0.269   9.974  1.0390  0.8096 -2.1258
 4846SOL    HW226172   0.669   0.354  10.021  0.0844 -0.8945 -2.3973
 4847SOL     OW26173   3.284   2.953   6.904  0.6157  0.1319 -0.0611
 4847SOL    HW126174   3.192   2.968   6.927  0.5603  1.1026 -0.9684
 4847SOL    HW226175   3.316   3.028   6.854  0.5789  0.0674 -0.1794
 4848SOL     OW26176   0.369   2.208  15.689  0.2207 -0.1162  0.7706
 4848SOL    HW126177   0.380   2.115  15.709  1.1887 -0.3545 -0.8998
 4848SOL    HW226178   0.460   2.237  15.686  0.1481  0.0680  0.3541
 4849SOL     OW26179   0.542   3.882  11.469 -0.3388  0.0300 -0.0814
 4849SOL    HW126180   0.557   3.895  11.562  0.6705  0.5946 -0.3235
 4849SOL    HW226181   0.588   3.801  11.451 -1.3847 -0.3393 -1.0840
 4850SOL     OW26182   0.054   4.372   8.621 -0.0039  0.1685 -1.0767
 4850SOL    HW126183   0.129   4.348   8.566  0.6954  0.5139 -0.2747
 4850SOL    HW226184   0.104   4.399   8.698 -0.4313 -2.4475  0.1201
 4851SOL     OW26185   4.519   2.065   9.622 -0.6772  0.4639  0.1648
 4851SOL    HW126186   4.524   1.984   9.571 -1.1956  0.4508  0.1427
 4851SOL    HW226187   4.478   2.028   9.699 -1.7149 -0.8458 -1.0138
 4852SOL     OW26188   2.475   0.291  12.088 -0.2039  0.0088 -0.1404
 4852SOL    HW126189   2.525   0.372  12.073  0.6186 -0.4785  0.0214
 4852SOL    HW226190   2.488   0.276  12.181  2.7139  0.9133 -0.3840
 4853SOL     OW26191   2.714   4.111   4.899 -0.1737 -0.3331 -0.3226
 4853SOL    HW126192   2.752   4.175   4.960 -0.0693 -0.9012  0.2024
 4853SOL    HW226193   2.642   4.166   4.868 -0.6953  0.0053  1.5223
 4854SOL     OW26194   0.377   2.211   4.888  0.4778 -0.4578 -0.0625
 4854SOL    HW126195   0.400   2.302   4.871  0.3969 -0.7990 -1.9517
 4854SOL    HW226196   0.310   2.176   4.829  0.3773 -1.2488  0.5104
 4855SOL     OW26197   3.538   3.186   6.060 -0.5188 -0.1847  0.1631
 4855SOL    HW126198   3.552   3.099   6.023 -0.2518 -0.3299  0.6019
 4855SOL    HW226199   3.618   3.234   6.043  1.2224 -2.9537  0.4572
 4856SOL     OW26200   0.974   2.032   3.020 -0.5349  0.3153  0.2065
 4856SOL    HW126201   0.950   1.961   3.080 -0.0506 -0.3037 -0.3355
 4856SOL    HW226202   0.937   2.110   3.061  3.2034  1.4443  1.4567
 4857SOL     OW26203   2.685   1.754   6.673  0.3970 -0.0157 -0.3036
 4857SOL    HW126204   2.637   1.747   6.756  0.2924  0.8301 -0.2865
 4857SOL    HW226205   2.682   1.849   6.657  0.6771  0.0978  0.3208
 4858SOL     OW26206   1.288   2.595   6.912  0.5986 -0.3028  0.1592
 4858SOL    HW126207   1.381   2.575   6.917  0.4791 -0.9698 -0.2341
 4858SOL    HW226208   1.284   2.679   6.958 -0.2971 -2.0799  3.2940
 4859SOL     OW26209   1.160   2.099   9.607  0.2925 -0.0745  0.2106
 4859SOL    HW126210   1.254   2.112   9.622 -0.2453  1.3888  2.3241
 4859SOL    HW226211   1.155   2.006   9.585 -0.3244  0.1206 -0.4731
 4860SOL     OW26212   0.722   4.611   1.828  0.2877 -0.1436  0.0300
 4860SOL    HW126213   0.723   4.646   1.739  0.4179  1.2802  0.5843
 4860SOL    HW226214   0.648   4.551   1.822 -0.1879  0.5428 -0.8809
 4861SOL     OW26215   2.823   2.385   5.046 -0.3633 -0.5941 -0.0400
 4861SOL    HW126216   2.789   2.457   5.100  3.0312 -0.0962  1.4061
 4861SOL    HW226217   2.840   2.313   5.107 -0.6453 -1.7673 -1.3471
 4862SOL     OW26218   0.704   2.799  17.004 -0.1519  0.0712 -0.1932
 4862SOL    HW126219   0.661   2.849  16.935 -0.3820  2.4738  1.7081
 4862SOL    HW226220   0.772   2.757  16.951 -0.9900 -0.7532 -0.6175
 4863SOL     OW26221   1.608   1.925   4.688  0.1524 -0.6474  0.3050
 4863SOL    HW126222   1.681   1.889   4.638  1.6895  0.9206  1.4023
 4863SOL    HW226223   1.654   1.937   4.771  0.5473  1.7707 -0.2689
 4864SOL     OW26224   3.210   2.689  12.617 -0.4732 -0.1792 -0.3667
 4864SOL    HW126225   3.211   2.650  12.530  1.8055  0.4161 -0.6044
 4864SOL    HW226226   3.126   2.735  12.622 -1.2006 -1.4518 -0.9188
 4865SOL     OW26227   2.194   2.017   6.086 -0.1681  0.2206 -0.3075
 4865SOL    HW126228   2.232   2.017   6.173 -0.2153  1.1638 -0.2851
 4865SOL    HW226229   2.105   2.043   6.112 -0.7641 -0.7683 -1.3394
 4866SOL     OW26230   3.229   4.486   3.490 -0.2780 -0.0996 -0.1958
 4866SOL    HW126231   3.199   4.576   3.499 -0.8778 -0.5266  2.0085
 4866SOL    HW226232   3.264   4.477   3.579 -0.0250  1.7161 -0.1117
 4867SOL     OW26233   2.393   3.953   3.271  0.2489 -0.0146 -0.4834
 4867SOL    HW126234   2.475   3.904   3.272  0.4296  0.3221  1.1894
 4867SOL    HW226235   2.345   3.916   3.346  1.6601  1.8773  1.3427
 4868SOL     OW26236   4.626   3.006  11.848  0.2574  0.0245 -0.2351
 4868SOL    HW126237   4.687   3.066  11.892  0.1052 -0.5862  0.8176
 4868SOL    HW226238   4.572   3.067  11.798  0.4965  0.3912 -0.0470
 4869SOL     OW26239   3.173   3.614  15.124  0.0579 -0.0518 -0.4462
 4869SOL    HW126240   3.263   3.626  15.094 -0.1073  1.5992 -0.2910
 4869SOL    HW226241   3.132   3.672  15.060  0.7694  1.6650  0.6744
 4870SOL     OW26242   3.414   2.371  16.113 -0.1658 -0.4767 -0.0762
 4870SOL    HW126243   3.357   2.351  16.038  0.8595  0.7947 -1.2052
 4870SOL    HW226244   3.504   2.352  16.085 -0.1285  1.1097 -1.0489
 4871SOL     OW26245   2.128   0.233  15.994 -0.1747 -0.1818 -0.1366
 4871SOL    HW126246   2.125   0.212  16.087 -0.1977 -0.7733 -0.2707
 4871SOL    HW226247   2.195   0.169  15.969  0.3104 -0.1254  1.0141
 4872SOL     OW26248   4.015   1.037   8.064 -0.6024  0.7235 -0.1420
 4872SOL    HW126249   4.090   1.059   8.008 -0.2811 -0.4577 -0.1868
 4872SOL    HW226250   3.971   0.975   8.006 -0.4646 -0.1480  0.6949
 4873SOL     OW26251   2.127   0.941   5.599  0.2025 -0.1880 -0.5360
 4873SOL    HW126252   2.077   0.882   5.542 -0.6273  0.1402 -0.1494
 4873SOL    HW226253   2.093   0.914   5.684  0.0596 -2.4355 -1.3092
 4874SOL     OW26254   0.421   0.333   2.964 -0.0514  0.0229  0.2619
 4874SOL    HW126255   0.403   0.423   2.936  1.1662 -0.8075 -3.2470
 4874SOL    HW226256   0.461   0.298   2.884 -0.1277  0.4214  0.0533
 4875SOL     OW26257   1.653   2.939   7.447 -0.2551  0.0773  0.1401
 4875SOL    HW126258   1.569   2.902   7.422 -0.6087 -0.5327  2.2325
 4875SOL    HW226259   1.653   3.030   7.419  1.5727 -0.0172 -0.2035
 4876SOL     OW26260   4.619   4.585  12.489  0.3189  0.2581  0.2826
 4876SOL    HW126261   4.696   4.570  12.435 -0.7416  0.1083 -1.1763
 4876SOL    HW226262   4.552   4.607  12.425  0.0886  1.4477  0.9214
 4877SOL     OW26263   3.642   0.467  11.323  0.0204  0.2398 -0.1198
 4877SOL    HW126264   3.718   0.409  11.334  1.4602  2.0281 -0.5631
 4877SOL    HW226265   3.682   0.552  11.308 -1.5402  0.5403 -2.7325
 4878SOL     OW26266   3.686   3.008   6.700 -0.3163  0.3327 -0.5429
 4878SOL    HW126267   3.658   3.051   6.781  0.1755  2.2147 -1.3725
 4878SOL    HW226268   3.658   2.917   6.714 -0.1052  0.4656  0.7442
 4879SOL     OW26269   1.875   3.845   4.192 -0.3004  0.3261 -0.2081
 4879SOL    HW126270   1.809   3.776   4.193 -1.2633  1.2418 -1.8024
 4879SOL    HW226271   1.814   3.916   4.174 -0.0715  0.2366 -1.3002
 4880SOL     OW26272   1.145   4.640  13.569 -0.1501 -0.0230 -0.4491
 4880SOL    HW126273   1.109   4.648  13.657  0.5262 -0.0512 -0.1693
 4880SOL    HW226274   1.087   4.572  13.534  0.5019 -0.4163 -0.7533
 4881SOL     OW26275   1.380   0.952   6.887  0.1546 -0.2673 -0.0650
 4881SOL    HW126276   1.414   0.882   6.942 -2.2165 -1.3000  0.1096
 4881SOL    HW226277   1.379   1.026   6.948  1.5913 -0.3317  0.0343
 4882SOL     OW26278   4.636   0.316   4.755  0.0976  0.2100  0.4653
 4882SOL    HW126279   4.612   0.234   4.797  1.4056 -1.2533 -1.5887
 4882SOL    HW226280   4.731   0.308   4.744  0.2049 -0.2788  1.8084
 4883SOL     OW26281   0.243   4.457  11.091 -0.4719 -0.5354  0.5119
 4883SOL    HW126282   0.228   4.509  11.013  0.1675  1.6304  1.8445
 4883SOL    HW226283   0.157   4.416  11.106 -0.1938 -0.9269  1.0593
 4884SOL     OW26284   0.856   2.284   3.512  0.2060  0.1379  0.4266
 4884SOL    HW126285   0.800   2.213   3.543  1.7563 -0.9514  0.7063
 4884SOL    HW226286   0.916   2.236   3.455  1.0156  0.6699  0.8259
 4885SOL     OW26287   3.125   1.421   1.712 -0.8163 -0.4317  0.1521
 4885SOL    HW126288   3.125   1.421   1.808  2.0981  1.0311  0.1447
 4885SOL    HW226289   3.194   1.482   1.688  0.4993 -0.7189  3.2080
 4886SOL     OW26290   0.052   4.117   6.703 -0.0049 -0.9662 -0.5643
 4886SOL    HW126291   0.097   4.084   6.626  0.8881 -2.1182  0.4579
 4886SOL    HW226292   4.728   4.183   6.672  0.2527  0.6975  2.4878
 4887SOL     OW26293   0.062   0.502   6.387 -0.1298 -0.1425 -0.6257
 4887SOL    HW126294   0.118   0.487   6.311 -1.7267 -3.1567 -1.2104
 4887SOL    HW226295   0.104   0.445   6.452 -1.2403 -0.0107  0.2083
 4888SOL     OW26296   1.033   1.532   4.309  0.1818 -0.2268 -0.0773
 4888SOL    HW126297   0.987   1.571   4.235 -1.2436 -0.8004  0.5185
 4888SOL    HW226298   1.098   1.598   4.335 -0.8700  0.7310  0.0829
 4889SOL     OW26299   1.066   1.280   9.461  0.3306  0.2093 -0.3124
 4889SOL    HW126300   1.101   1.191   9.454  1.5404  0.8519 -2.3189
 4889SOL    HW226301   1.138   1.324   9.505 -0.3436  2.0613 -1.0610
 4890SOL     OW26302   0.035   0.497  13.910 -0.6233  0.4207  0.5377
 4890SOL    HW126303   0.024   0.456  13.824 -0.2519 -0.3781  0.8787
 4890SOL    HW226304   4.700   0.458  13.959  1.1164 -4.1345 -0.5576
 4891SOL     OW26305   2.302   0.789   9.172  0.0677  0.2493  0.1040
 4891SOL    HW126306   2.231   0.810   9.112  0.8394  1.9748 -0.1899
 4891SOL    HW226307   2.278   0.703   9.206 -0.2747  0.0485 -0.6341
 4892SOL     OW26308   3.125   2.824   1.822 -0.4083  0.7854 -0.4781
 4892SOL    HW126309   3.097   2.879   1.896  1.6758  2.6486 -1.0468
 4892SOL    HW226310   3.094   2.739   1.851 -1.2891  1.2942  0.0864
 4893SOL     OW26311   4.340   2.170   8.983  0.1095  0.1351 -0.2592
 4893SOL    HW126312   4.288   2.242   9.019 -1.4594 -0.8661 -0.5717
 4893SOL    HW226313   4.308   2.166   8.893 -0.0307 -1.0566 -0.1500
 4894SOL     OW26314   3.906   0.577  12.865  0.0338 -0.0618  0.6622
 4894SOL    HW126315   3.962   0.528  12.924  1.4521  2.7624  1.6865
 4894SOL    HW226316   3.932   0.665  12.892 -2.9372  0.6202  1.3478
 4895SOL     OW26317   1.745   2.782   9.431 -0.3869 -0.1107 -0.1688
 4895SOL    HW126318   1.726   2.689   9.437 -0.6929 -0.0617 -0.3824
 4895SOL    HW226319   1.690   2.803   9.356 -1.3094 -0.2722  0.4632
 4896SOL     OW26320   1.091   0.352   0.691 -0.2815  0.2587 -0.5497
 4896SOL    HW126321   1.053   0.307   0.615  0.5088 -1.7799  0.2530
 4896SOL    HW226322   1.075   0.286   0.758  1.5050  1.3935  1.0044
 4897SOL     OW26323   1.682   4.568   7.364 -0.2512 -0.7858  0.4895
 4897SOL    HW126324   1.690   4.567   7.269 -0.0453  0.9959  0.4718
 4897SOL    HW226325   1.770   4.541   7.391  1.0844  0.3890 -2.6752
 4898SOL     OW26326   4.633   0.203  13.538  0.2730  0.2609  0.0350
 4898SOL    HW126327   4.641   0.289  13.580 -0.2587  1.4225 -2.2062
 4898SOL    HW226328   4.541   0.178  13.534  0.5185 -0.5277 -0.6729
 4899SOL     OW26329   0.110   4.575   7.187 -0.1760  0.1979 -0.0719
 4899SOL    HW126330   0.025   4.576   7.143  0.2789 -2.5058 -1.0553
 4899SOL    HW226331   0.167   4.562   7.110  0.6279 -1.6414  0.8338
 4900SOL     OW26332   0.814   3.402   4.789  0.1191 -0.3042  0.3583
 4900SOL    HW126333   0.728   3.364   4.767 -0.2160  0.4749  0.3180
 4900SOL    HW226334   0.838   3.415   4.697 -1.2368  1.7593  0.2945
 4901SOL     OW26335   2.276   0.992   6.546  0.2640 -0.4342  0.2721
 4901SOL    HW126336   2.259   0.942   6.625 -0.4959 -0.6093  0.0029
 4901SOL    HW226337   2.225   0.946   6.479 -0.1515  1.2520 -0.5752
 4902SOL     OW26338   1.459   0.673  10.960  0.5651 -0.1811 -0.5512
 4902SOL    HW126339   1.382   0.690  11.015  1.1994  0.1728  0.2220
 4902SOL    HW226340   1.428   0.606  10.899  0.2204 -2.0611  1.6697
 4903SOL     OW26341   0.930   2.967   0.028 -0.2362 -0.3469  0.6363
 4903SOL    HW126342   0.890   3.054   0.034 -0.8126 -0.5933  0.3357
 4903SOL    HW226343   0.884   2.924   0.100 -2.2864 -0.1463 -0.5469
 4904SOL     OW26344   1.160   0.190   2.057 -0.4646 -0.5015 -0.9001
 4904SOL    HW126345   1.169   0.255   2.127  1.7555 -1.8048  0.0162
 4904SOL    HW226346   1.229   0.129   2.082 -1.8349 -2.5792 -2.1261
 4905SOL     OW26347   4.314   3.062   3.918  0.5604 -0.6837  0.2650
 4905SOL    HW126348   4.296   3.124   3.847 -1.3808 -1.4125  0.0981
 4905SOL    HW226349   4.231   3.078   3.963  1.3485  3.3618  0.3244
 4906SOL     OW26350   4.142   3.801  11.439  0.4442  0.3105 -0.6584
 4906SOL    HW126351   4.053   3.828  11.416  0.1529  0.7115  0.9459
 4906SOL    HW226352   4.115   3.711  11.462  1.4521 -0.0821 -1.0251
 4907SOL     OW26353   2.248   0.664   5.895 -0.4460 -0.2932  0.0828
 4907SOL    HW126354   2.311   0.643   5.964  0.8715 -0.6108 -1.2164
 4907SOL    HW226355   2.246   0.583   5.845  1.4662 -1.2242  1.5279
 4908SOL     OW26356   4.302   3.329   0.170 -0.1086 -0.4266 -0.1939
 4908SOL    HW126357   4.359   3.271   0.222  0.9649  0.8524  0.0587
 4908SOL    HW226358   4.278   3.265   0.103  1.0866 -0.1894 -0.8479
 4909SOL     OW26359   1.845   4.735   1.161 -0.4301 -0.4671  0.3837
 4909SOL    HW126360   1.817   0.049   1.236 -0.1022 -2.8791  2.1748
 4909SOL    HW226361   1.925   0.042   1.134 -0.6459  0.4121  1.2335
 4910SOL     OW26362   4.658   4.104   4.659 -0.7921  0.3392  0.1564
 4910SOL    HW126363   4.581   4.049   4.645 -0.6673  0.2069 -0.0143
 4910SOL    HW226364   4.714   4.041   4.705 -0.0258  1.2182  0.4310
 4911SOL     OW26365   1.744   2.817  10.419  0.3315  0.2186  0.1763
 4911SOL    HW126366   1.838   2.833  10.408  0.3171 -0.5416 -1.1071
 4911SOL    HW226367   1.736   2.723  10.403 -1.8643  0.6683 -1.2928
 4912SOL     OW26368   4.254   1.747  10.188  0.1093  0.0311  0.2430
 4912SOL    HW126369   4.297   1.701  10.259  0.9055  0.5193  0.0695
 4912SOL    HW226370   4.279   1.685  10.119  0.0822 -1.4676  1.5840
 4913SOL     OW26371   3.251   1.782  11.909  0.3134  0.2627 -0.4878
 4913SOL    HW126372   3.328   1.815  11.863  0.5171 -0.7082 -0.8411
 4913SOL    HW226373   3.188   1.828  11.854 -0.0098 -1.8308 -1.8812
 4914SOL     OW26374   0.251   0.502   3.173  0.1544 -0.0002  0.0677
 4914SOL    HW126375   0.290   0.552   3.244  1.5780 -1.0216  0.0006
 4914SOL    HW226376   0.326   0.470   3.123  0.6377 -0.4769  1.0975
 4915SOL     OW26377   1.483   0.317  17.447  0.4661 -0.6919  0.6485
 4915SOL    HW126378   1.396   0.328  17.408  1.1167  0.2503 -0.5357
 4915SOL    HW226379   1.525   0.402  17.432 -1.9543  0.2207 -0.8937
 4916SOL     OW26380   3.554   0.371   3.148 -0.2464 -0.3278 -0.5657
 4916SOL    HW126381   3.491   0.309   3.110 -0.6854  0.2348 -0.7676
 4916SOL    HW226382   3.603   0.391   3.068  1.4604  0.2108  0.6099
 4917SOL     OW26383   3.546   3.598   5.926  0.2641  0.7028 -0.8070
 4917SOL    HW126384   3.585   3.581   5.841 -0.2093 -0.3925 -0.7969
 4917SOL    HW226385   3.457   3.626   5.907  0.1626  0.9083 -0.0636
 4918SOL     OW26386   1.320   1.453   4.612 -0.1176 -0.4604 -0.3247
 4918SOL    HW126387   1.346   1.462   4.704 -1.7935 -0.4486  0.1486
 4918SOL    HW226388   1.238   1.502   4.618  1.9779  3.1401 -1.0391
 4919SOL     OW26389   0.887   2.232   0.755 -0.0543  0.4094  0.2139
 4919SOL    HW126390   0.920   2.150   0.790 -0.7553  0.0471  0.0126
 4919SOL    HW226391   0.945   2.293   0.802 -0.1336  0.4829  0.2158
 4920SOL     OW26392   2.485   1.367   8.043 -0.7036  0.2124  0.5121
 4920SOL    HW126393   2.466   1.447   8.093 -1.5357 -0.3353  1.0631
 4920SOL    HW226394   2.520   1.405   7.962  0.0337  2.0056  1.6652
 4921SOL     OW26395   3.556   1.720   2.946  0.3879 -0.2935  0.4928
 4921SOL    HW126396   3.624   1.682   3.002  0.2364  0.3981  1.1468
 4921SOL    HW226397   3.504   1.761   3.015 -1.9947  0.0208 -1.5112
 4922SOL     OW26398   1.901   4.344  15.566 -0.5317  0.5431  0.3014
 4922SOL    HW126399   1.927   4.281  15.498  2.0305  0.3145  1.4937
 4922SOL    HW226400   1.987   4.368  15.600 -1.7413  1.5598  2.6235
 4923SOL     OW26401   3.287   3.786   4.740 -0.0652  0.3586 -0.3691
 4923SOL    HW126402   3.195   3.809   4.750 -0.5600 -1.2886 -1.1124
 4923SOL    HW226403   3.314   3.852   4.803 -0.6687 -0.8063  1.1083
 4924SOL     OW26404   4.658   3.134   0.621 -0.4642  0.0843 -0.0939
 4924SOL    HW126405   4.598   3.166   0.688 -0.8457  0.3683 -0.5722
 4924SOL    HW226406   4.677   3.048   0.658 -0.3516 -0.4922 -1.4964
 4925SOL     OW26407   4.098   1.911   9.205 -0.2158  0.1881 -0.0844
 4925SOL    HW126408   4.178   1.960   9.223 -0.7581  0.9514  0.2102
 4925SOL    HW226409   4.103   1.883   9.113  0.1602  0.1110 -0.0395
 4926SOL     OW26410   0.278   2.615   2.076 -0.0894 -0.2648  0.0168
 4926SOL    HW126411   0.256   2.525   2.101 -1.5676 -0.3556 -1.6551
 4926SOL    HW226412   0.368   2.600   2.047 -0.4200 -0.1267 -1.0800
 4927SOL     OW26413   4.000   0.833   3.704  0.3466 -0.3998 -0.6405
 4927SOL    HW126414   3.959   0.914   3.733  1.1246 -0.3142  0.2305
 4927SOL    HW226415   3.993   0.789   3.789  0.3974  1.1597  0.1692
 4928SOL     OW26416   3.412   3.051  14.518  0.0049  0.5914  0.1054
 4928SOL    HW126417   3.377   3.060  14.429  0.4816 -1.9840 -0.3592
 4928SOL    HW226418   3.456   2.966  14.512 -0.9066  0.0772  0.7568
 4929SOL     OW26419   3.026   1.637  14.490 -0.3592  0.3197 -0.8518
 4929SOL    HW126420   2.952   1.692  14.515  0.3482 -0.3617  2.7400
 4929SOL    HW226421   2.999   1.557  14.536  1.4551  0.3120  0.2044
 4930SOL     OW26422   2.829   0.664   4.777 -0.3947 -0.0000  0.2776
 4930SOL    HW126423   2.770   0.717   4.831  0.4487  0.4539  0.7701
 4930SOL    HW226424   2.909   0.716   4.788 -1.5351  1.6711  0.6797
 4931SOL     OW26425   0.240   1.714   3.392  0.1746 -0.2173 -0.5021
 4931SOL    HW126426   0.251   1.778   3.462 -1.5305  2.0701 -2.3261
 4931SOL    HW226427   0.304   1.646   3.412 -1.6001 -1.7444 -0.1286
 4932SOL     OW26428   3.308   3.940   7.661  0.6388 -0.3766 -0.3871
 4932SOL    HW126429   3.301   3.859   7.610  1.4925  0.6207 -2.0577
 4932SOL    HW226430   3.283   3.914   7.750 -0.6346 -2.1560 -1.2492
 4933SOL     OW26431   2.576   3.537   3.487 -0.1864 -0.8089 -0.2260
 4933SOL    HW126432   2.630   3.538   3.566  0.8865  0.0468 -0.9577
 4933SOL    HW226433   2.605   3.458   3.442  0.3129 -2.0061  2.2031
 4934SOL     OW26434   4.386   0.550   6.625 -0.0871 -0.3679  0.1116
 4934SOL    HW126435   4.324   0.616   6.654 -0.7007 -0.3345 -1.3121
 4934SOL    HW226436   4.444   0.596   6.565  0.7161 -0.4884  0.7784
 4935SOL     OW26437   4.600   4.401   4.680  0.3139 -0.4555  0.7408
 4935SOL    HW126438   4.687   4.435   4.658 -0.3211  0.7210  0.0220
 4935SOL    HW226439   4.540   4.472   4.656  0.2814 -1.2446 -1.5235
 4936SOL     OW26440   3.036   3.805   8.394 -0.5198  0.3621  0.2248
 4936SOL    HW126441   3.040   3.868   8.321  1.6290 -1.4973 -1.2519
 4936SOL    HW226442   2.956   3.755   8.379  0.1596 -0.5392 -0.3673
 4937SOL     OW26443   0.245   4.212  12.238  0.1353  0.9567  0.5288
 4937SOL    HW126444   0.320   4.227  12.295  0.4364  0.4429  0.2760
 4937SOL    HW226445   0.283   4.175  12.158 -2.0909  0.4316 -0.2961
 4938SOL     OW26446   4.526   4.392   3.323  0.3576 -0.1796 -0.2480
 4938SOL    HW126447   4.450   4.441   3.355  0.8316  0.7876 -0.5971
 4938SOL    HW226448   4.609   4.422   3.361 -0.0755 -4.2632  3.8009
 4939SOL     OW26449   1.081   0.888   3.541 -0.1425 -0.3700 -0.5472
 4939SOL    HW126450   1.125   0.926   3.618  1.4308 -1.0271 -1.1230
 4939SOL    HW226451   1.149   0.886   3.473 -0.5486  0.9372 -0.9920
 4940SOL     OW26452   0.388   1.893   8.506  0.2246 -0.3478 -0.2695
 4940SOL    HW126453   0.377   1.984   8.479 -1.3639 -0.2028  0.8634
 4940SOL    HW226454   0.303   1.876   8.465 -0.2379 -1.7880  1.2929
 4941SOL     OW26455   4.365   4.635   2.220 -0.5272  0.8043  0.1663
 4941SOL    HW126456   4.346   4.543   2.205 -1.2378  1.1659 -1.1786
 4941SOL    HW226457   4.282   4.658   2.262 -0.6722  0.2237  0.1985
 4942SOL     OW26458   0.552   2.047  13.869 -0.1565 -0.0681 -0.7465
 4942SOL    HW126459   0.569   2.141  13.877 -0.0820 -0.1104 -0.3874
 4942SOL    HW226460   0.527   2.015  13.956  1.3899  0.1894 -0.2041
 4943SOL     OW26461   3.941   2.417   7.575  0.0437  0.0349 -0.2442
 4943SOL    HW126462   3.940   2.328   7.609 -1.5897  0.4262  0.7519
 4943SOL    HW226463   3.967   2.469   7.651  1.6353  0.5018 -1.1139
 4944SOL     OW26464   4.029   1.418   2.353  0.8234  0.6718 -0.4784
 4944SOL    HW126465   4.022   1.346   2.291  1.3918 -0.3190  0.6222
 4944SOL    HW226466   3.966   1.394   2.421 -0.5797  3.1060 -0.9030
 4945SOL     OW26467   3.051   3.125  17.509 -0.6723  0.1616  0.3348
 4945SOL    HW126468   3.144   3.105  17.504 -0.8358 -0.9068  1.4848
 4945SOL    HW226469   3.052   3.203  17.454  0.6495  0.4326  0.7525
 4946SOL     OW26470   1.390   0.863   9.202 -0.8092 -0.0858  0.3835
 4946SOL    HW126471   1.322   0.881   9.266 -0.8127 -0.0277  0.3642
 4946SOL    HW226472   1.429   0.951   9.200 -1.3780  0.1853  1.1960
 4947SOL     OW26473   3.352   1.103  12.722  0.1255 -0.9082  0.2283
 4947SOL    HW126474   3.395   1.113  12.808 -0.1020  1.0292  0.1257
 4947SOL    HW226475   3.385   1.015  12.705  0.8266 -0.5087 -0.4790
 4948SOL     OW26476   3.963   4.370   6.162  0.3220  0.6510  0.0050
 4948SOL    HW126477   3.959   4.290   6.110  0.8703 -0.3329  1.4674
 4948SOL    HW226478   3.905   4.429   6.116 -0.8977 -2.1473 -2.0468
 4949SOL     OW26479   1.830   0.480   5.906 -0.1961 -0.2358  0.1950
 4949SOL    HW126480   1.786   0.555   5.867 -0.6154 -0.1208  0.8692
 4949SOL    HW226481   1.843   0.425   5.829 -1.1040  0.0238 -0.1444
 4950SOL     OW26482   4.371   0.197   4.603  0.7734  0.0778  0.8053
 4950SOL    HW126483   4.282   0.166   4.618  0.3934 -0.4883 -2.4469
 4950SOL    HW226484   4.394   0.175   4.693  2.6469  0.5104  0.4267
 4951SOL     OW26485   1.112   0.002   8.098  0.0220 -0.3014  0.2225
 4951SOL    HW126486   1.168   0.060   8.149 -0.2592  0.2642 -0.1191
 4951SOL    HW226487   1.174   4.723   8.027  0.7139  0.6529  0.6031
 4952SOL     OW26488   3.173   4.142   8.337  0.3941  0.6859 -0.0736
 4952SOL    HW126489   3.141   4.095   8.259  2.8233 -2.1646  0.6159
 4952SOL    HW226490   3.186   4.230   8.302  0.6722  0.6604 -0.0362
 4953SOL     OW26491   0.697   3.778   3.001  0.4389 -0.5657 -0.1950
 4953SOL    HW126492   0.751   3.849   2.966 -1.0965  0.7647  0.0960
 4953SOL    HW226493   0.723   3.717   2.931  0.2814 -3.0572  1.9216
 4954SOL     OW26494   3.474   4.566  13.008  0.9111  0.0619  0.5047
 4954SOL    HW126495   3.441   4.630  12.944  2.1763  0.4508  0.2456
 4954SOL    HW226496   3.538   4.519  12.955  0.0863  1.4479 -1.7312
 4955SOL     OW26497   0.890   1.466   7.498 -0.4478  0.1827 -0.0330
 4955SOL    HW126498   0.921   1.378   7.476 -0.1309 -0.0185  1.1979
 4955SOL    HW226499   0.819   1.450   7.560  0.5734 -2.7461  0.3493
 4956SOL     OW26500   2.613   0.843   5.746  0.1889 -0.1743 -0.2881
 4956SOL    HW126501   2.669   0.807   5.677 -0.6768  0.0503 -1.1105
 4956SOL    HW226502   2.672   0.850   5.821 -0.7087  0.6603  0.3490
 4957SOL     OW26503   3.522   1.232   4.705 -0.2277  0.2279  0.0840
 4957SOL    HW126504   3.507   1.244   4.799 -0.3869  0.7265 -0.0060
 4957SOL    HW226505   3.433   1.239   4.670 -1.1941 -0.7713  2.3182
 4958SOL     OW26506   2.638   1.841   4.237  0.4124  0.3632  0.3997
 4958SOL    HW126507   2.555   1.793   4.237  0.0032  1.0785 -1.4557
 4958SOL    HW226508   2.680   1.831   4.322  1.0353 -1.2697 -0.0918
 4959SOL     OW26509   1.805   0.491   2.459 -0.2747  0.7156 -0.0790
 4959SOL    HW126510   1.757   0.411   2.437  0.7072  0.4259 -1.1000
 4959SOL    HW226511   1.737   0.550   2.491  0.0669  2.1989 -2.1223
 4960SOL     OW26512   2.960   0.696  15.026  0.0032 -0.2334 -0.9013
 4960SOL    HW126513   2.971   0.607  14.994  2.0353 -0.0864 -0.5954
 4960SOL    HW226514   3.026   0.706  15.095 -0.9617 -1.9770  0.2629
 4961SOL     OW26515   1.825   0.302   1.906  0.0055  0.5510 -0.2646
 4961SOL    HW126516   1.804   0.333   1.994  0.3847  2.7008 -0.9364
 4961SOL    HW226517   1.781   0.217   1.914 -0.5679  0.8230 -0.5168
 4962SOL     OW26518   1.681   4.638   8.393  0.4900 -0.5506 -0.0729
 4962SOL    HW126519   1.718   4.579   8.459 -1.8227  0.5978  2.2271
 4962SOL    HW226520   1.647   4.706   8.450  2.0984  0.4178 -0.2577
 4963SOL     OW26521   0.889   2.960   5.139 -0.1747 -0.8151 -0.2566
 4963SOL    HW126522   0.899   2.959   5.044  0.7171  0.6997 -0.1945
 4963SOL    HW226523   0.833   3.038   5.142  1.6451  0.5353 -0.9845
 4964SOL     OW26524   1.555   1.703   5.339  0.4672  0.8719 -0.3257
 4964SOL    HW126525   1.535   1.770   5.404 -1.1697 -0.4467  0.5347
 4964SOL    HW226526   1.646   1.681   5.359 -0.7184 -0.2918  3.5949
 4965SOL     OW26527   3.358   1.570   1.633  0.7695 -0.3147 -0.8769
 4965SOL    HW126528   3.324   1.619   1.559 -0.5152 -0.2253 -0.2130
 4965SOL    HW226529   3.371   1.638   1.699  0.8642 -1.6865  0.5422
 4966SOL     OW26530   2.995   4.273  11.616  0.5178  0.0603 -0.4518
 4966SOL    HW126531   2.900   4.259  11.610  0.7996 -2.4155  0.5111
 4966SOL    HW226532   3.020   4.274  11.524  1.0072 -2.5308 -0.3513
 4967SOL     OW26533   0.733   4.689   1.575  0.2088  0.3125 -0.3554
 4967SOL    HW126534   0.700   0.040   1.561  1.0917  0.7763  0.5465
 4967SOL    HW226535   0.797   4.674   1.505  0.8404 -1.6002  0.6384
 4968SOL     OW26536   0.049   1.215   7.567  0.6026 -0.6666 -0.3721
 4968SOL    HW126537   4.719   1.255   7.621  0.8848  0.7807 -1.1071
 4968SOL    HW226538   0.125   1.257   7.607 -1.2833  1.5231  0.8865
 4969SOL     OW26539   1.537   4.663   3.311  0.5333 -0.2191  0.1362
 4969SOL    HW126540   1.507   4.685   3.399 -1.5106 -2.5224  0.0328
 4969SOL    HW226541   1.528   0.008   3.265 -0.2967 -0.2776  0.1905
 4970SOL     OW26542   4.457   4.245   5.278 -0.3224  0.8081  0.3157
 4970SOL    HW126543   4.477   4.331   5.242  2.4004  0.1386  0.2290
 4970SOL    HW226544   4.509   4.249   5.358 -0.0308  0.9762  0.1193
 4971SOL     OW26545   0.630   3.028  16.826  0.0046 -0.0190  0.2730
 4971SOL    HW126546   0.547   2.994  16.793  1.2064 -0.3264 -2.4316
 4971SOL    HW226547   0.602   3.118  16.845 -2.6581 -0.4579 -1.5429
 4972SOL     OW26548   2.867   4.355   1.631 -0.5873  0.1582  0.4315
 4972SOL    HW126549   2.931   4.426   1.636 -0.7894  0.4798 -1.6989
 4972SOL    HW226550   2.804   4.370   1.560  0.2107  2.3249  0.1937
 4973SOL     OW26551   2.367   4.508   6.978  0.0626 -0.1091 -0.4126
 4973SOL    HW126552   2.453   4.509   6.938 -0.5230  0.7328 -1.6525
 4973SOL    HW226553   2.387   4.485   7.069  0.1157 -0.4944 -0.5196
 4974SOL     OW26554   1.280   2.823   1.750 -0.0236  0.1928 -0.0492
 4974SOL    HW126555   1.218   2.750   1.756  1.2085 -0.9111 -0.9467
 4974SOL    HW226556   1.355   2.789   1.702 -1.0192 -0.0495 -1.4591
 4975SOL     OW26557   0.620   3.079  12.915  0.1992  0.2866  0.0880
 4975SOL    HW126558   0.602   3.007  12.855  0.6960 -0.9963  1.4727
 4975SOL    HW226559   0.597   3.154  12.860 -1.2493  1.4601  2.2463
 4976SOL     OW26560   2.945   2.549  12.575  0.4971 -0.0443  0.6300
 4976SOL    HW126561   2.986   2.486  12.634  0.2401 -0.4188  0.4129
 4976SOL    HW226562   2.954   2.628  12.627  2.2198  0.7773 -0.9121
 4977SOL     OW26563   3.996   4.088   6.911 -0.2248  0.2859 -0.4565
 4977SOL    HW126564   3.948   4.148   6.968  0.2861  2.1344 -1.9539
 4977SOL    HW226565   4.042   4.156   6.862  0.9688  0.8635  1.4577
 4978SOL     OW26566   0.971   0.212   7.091 -0.2189 -0.1670  0.0853
 4978SOL    HW126567   0.974   0.125   7.050 -1.1413  0.3679 -1.1219
 4978SOL    HW226568   0.933   0.265   7.021  0.0082 -0.0933  0.0180
 4979SOL     OW26569   1.475   3.319   6.595  0.0596  0.1893  0.1105
 4979SOL    HW126570   1.410   3.249   6.592 -0.1675  0.4219 -0.3287
 4979SOL    HW226571   1.462   3.348   6.685  0.8049 -0.3168  0.3816
 4980SOL     OW26572   1.654   0.525  10.863  0.0604  0.4376 -0.3138
 4980SOL    HW126573   1.615   0.581  10.930  1.7254  1.9991 -0.6570
 4980SOL    HW226574   1.748   0.519  10.876  0.2469  1.6908 -1.0718
 4981SOL     OW26575   1.089   3.900   8.405  0.2905  0.1175 -0.5775
 4981SOL    HW126576   1.184   3.889   8.419  0.7206  1.2323 -2.6024
 4981SOL    HW226577   1.059   3.819   8.448  0.3227 -0.0894 -0.9426
 4982SOL     OW26578   4.443   3.010   6.309 -0.6822 -0.1019 -0.1188
 4982SOL    HW126579   4.400   3.085   6.268 -0.1257  1.4068  2.1093
 4982SOL    HW226580   4.371   2.948   6.317 -0.4414 -0.1466  1.5774
 4983SOL     OW26581   3.875   0.051   6.170  0.1448 -0.5427 -0.3506
 4983SOL    HW126582   3.880   0.031   6.264 -0.4149  1.1373  0.0391
 4983SOL    HW226583   3.967   0.050   6.145  0.6202  1.2409  1.2591
 4984SOL     OW26584   0.688   1.265  11.609  0.5362  0.0706  0.1233
 4984SOL    HW126585   0.715   1.323  11.681  1.0237  0.4453 -0.3576
 4984SOL    HW226586   0.770   1.265  11.559 -0.3469  1.2146 -1.3069
 4985SOL     OW26587   3.794   1.379  13.132 -0.4400 -0.0341 -0.3703
 4985SOL    HW126588   3.760   1.461  13.097 -0.7023  0.2477  0.5570
 4985SOL    HW226589   3.770   1.391  13.224  0.0720  0.8693 -0.3630
 4986SOL     OW26590   3.636   0.214  17.292 -0.0901  0.1004 -0.5671
 4986SOL    HW126591   3.554   0.200  17.245  0.2150 -1.5694 -0.5809
 4986SOL    HW226592   3.593   0.252  17.369  0.4231 -1.1991  0.3521
 4987SOL     OW26593   3.165   4.710  14.222  0.4357  1.0190 -0.2274
 4987SOL    HW126594   3.158   0.067  14.229 -0.6381  1.1030 -2.6972
 4987SOL    HW226595   3.073   4.689  14.238  0.6790  0.7324  0.8157
 4988SOL     OW26596   3.258   3.097   2.253 -0.3692 -0.2104 -0.1082
 4988SOL    HW126597   3.327   3.159   2.226 -0.6846 -0.1768 -0.8320
 4988SOL    HW226598   3.270   3.112   2.347 -1.0020 -1.0645  0.1057
 4989SOL     OW26599   2.755   0.565   6.968  0.0117 -0.2635 -0.2106
 4989SOL    HW126600   2.715   0.637   6.919  1.7499  0.1139 -1.0880
 4989SOL    HW226601   2.726   0.569   7.059 -1.9027 -0.0394 -0.8420
 4990SOL     OW26602   1.760   1.144   0.979  0.1484 -0.6779 -0.9612
 4990SOL    HW126603   1.853   1.124   0.970 -0.0346 -1.8770 -0.1988
 4990SOL    HW226604   1.753   1.239   0.972  0.0306 -0.6240 -0.0709
 4991SOL     OW26605   3.079   3.707   6.773  0.0588 -0.3697  0.2184
 4991SOL    HW126606   3.102   3.678   6.685  1.5254  2.8705 -0.4747
 4991SOL    HW226607   3.061   3.800   6.759 -1.8454 -0.7203  0.3262
 4992SOL     OW26608   2.811   2.570  17.613  0.0843 -0.2729  0.7151
 4992SOL    HW126609   2.771   2.571  17.526  0.6929  0.1656  0.4490
 4992SOL    HW226610   2.801   2.663  17.630 -1.3918 -0.5071  1.1736
 4993SOL     OW26611   3.390   0.713  16.191  0.3629 -0.5094 -0.7271
 4993SOL    HW126612   3.467   0.657  16.205  2.6726  2.2772 -2.2614
 4993SOL    HW226613   3.359   0.674  16.110 -0.6329 -0.7580 -0.2211
 4994SOL     OW26614   0.888   1.049  12.238  0.1241 -0.2363  0.3053
 4994SOL    HW126615   0.829   1.118  12.209  1.1418  1.7501  3.0246
 4994SOL    HW226616   0.832   0.983  12.281 -1.1039 -0.2434 -1.2913
 4995SOL     OW26617   4.207   1.563  15.097 -0.7279  0.7339  0.2839
 4995SOL    HW126618   4.216   1.493  15.162  0.3400 -0.4496 -1.1327
 4995SOL    HW226619   4.221   1.515  15.015 -3.4349  3.1640 -1.5745
 4996SOL     OW26620   0.464   3.757   6.189  0.5900 -0.3131  0.0415
 4996SOL    HW126621   0.389   3.700   6.176  0.1880 -0.2924  2.3856
 4996SOL    HW226622   0.449   3.838   6.139 -3.1789 -2.3445 -2.0480
 4997SOL     OW26623   3.010   3.133   1.701  0.5715 -0.4967 -0.2915
 4997SOL    HW126624   3.023   3.053   1.752  0.4849 -1.9874 -2.6050
 4997SOL    HW226625   2.923   3.120   1.665  0.7993  1.5854 -1.5974
 4998SOL     OW26626   3.199   3.457   0.674 -0.2431  0.5220  0.2355
 4998SOL    HW126627   3.125   3.430   0.620 -0.3283  3.8134 -1.2835
 4998SOL    HW226628   3.186   3.552   0.669  0.2471  0.6051  0.5681
 4999SOL     OW26629   0.455   1.232   6.294  0.9468  0.1692 -0.1063
 4999SOL    HW126630   0.414   1.145   6.289  0.0485  0.7441 -2.6644
 4999SOL    HW226631   0.410   1.288   6.231 -1.0672 -2.3022 -0.8802
 5000SOL     OW26632   1.869   2.557   5.634  0.0792 -0.3871  0.1421
 5000SOL    HW126633   1.885   2.493   5.566 -0.6349 -1.6206  1.1319
 5000SOL    HW226634   1.831   2.512   5.710 -1.3409  0.1275 -0.2606
 5001SOL     OW26635   2.299   3.819   4.433  0.8264  0.2906  0.5273
 5001SOL    HW126636   2.205   3.840   4.431  1.0913  1.4822  1.1876
 5001SOL    HW226637   2.319   3.826   4.339  0.2802  0.2500  0.4037
 5002SOL     OW26638   0.650   3.862  10.462 -0.8680  0.6755  1.0257
 5002SOL    HW126639   0.664   3.881  10.555  1.6475  0.9912  0.5978
 5002SOL    HW226640   0.628   3.769  10.469  1.8426 -0.0714 -0.2021
 5003SOL     OW26641   3.713   3.711   3.476  0.5330 -0.3039  0.1718
 5003SOL    HW126642   3.701   3.796   3.519 -1.3664  0.5560 -2.0827
 5003SOL    HW226643   3.808   3.697   3.472  0.9489  2.1329  1.5526
 5004SOL     OW26644   1.454   0.340   6.813  0.3882  0.3798  0.0471
 5004SOL    HW126645   1.431   0.250   6.792  2.0314  0.1979 -0.9524
 5004SOL    HW226646   1.392   0.349   6.885  0.7506  3.6231 -0.0378
 5005SOL     OW26647   2.230   1.886   2.285 -0.0186  0.7725 -0.1542
 5005SOL    HW126648   2.164   1.923   2.226 -1.2255 -1.0249  0.0888
 5005SOL    HW226649   2.171   1.839   2.344  1.1605 -0.9382 -0.3388
 5006SOL     OW26650   0.655   1.332  10.034 -0.0421  0.1809  0.0154
 5006SOL    HW126651   0.706   1.251  10.033 -0.0365  0.1612  1.1528
 5006SOL    HW226652   0.570   1.290  10.049 -0.2585  0.4880 -0.3695
 5007SOL     OW26653   1.916   0.501   3.054  0.1396  0.5641  0.1885
 5007SOL    HW126654   1.995   0.456   3.085  1.4232  0.6697 -2.9957
 5007SOL    HW226655   1.956   0.520   2.970 -1.1989 -0.2167 -0.6264
 5008SOL     OW26656   0.296   3.286   7.584  0.5097 -0.4888  0.1323
 5008SOL    HW126657   0.348   3.333   7.519  0.7200  1.5190  1.7744
 5008SOL    HW226658   0.291   3.356   7.649 -1.7524  0.4565 -1.0289
 5009SOL     OW26659   4.366   1.508   5.499  0.1324 -0.5430  0.1458
 5009SOL    HW126660   4.460   1.495   5.483 -0.0625 -1.2788 -0.3708
 5009SOL    HW226661   4.362   1.604   5.492  0.5081 -0.4359  1.3583
 5010SOL     OW26662   4.190   3.495   3.948 -0.0235 -0.4489  0.7629
 5010SOL    HW126663   4.096   3.482   3.961 -0.6266  1.3954 -1.7877
 5010SOL    HW226664   4.208   3.584   3.979  0.2369 -0.2672  0.0794
 5011SOL     OW26665   0.415   1.109  16.935  0.1300 -0.1585 -0.2581
 5011SOL    HW126666   0.363   1.054  16.877 -0.4046 -0.3797  0.4404
 5011SOL    HW226667   0.402   1.198  16.903 -3.1371 -0.6009 -0.0934
 5012SOL     OW26668   4.344   0.713  13.081 -0.0317 -0.0468 -0.0242
 5012SOL    HW126669   4.329   0.784  13.143 -0.5720 -0.1267 -0.0622
 5012SOL    HW226670   4.416   0.753  13.032  0.1503 -1.2662 -0.7495
 5013SOL     OW26671   3.623   4.011   7.701 -0.1510 -0.0593 -0.0804
 5013SOL    HW126672   3.589   3.924   7.681  0.1726 -0.0768 -0.5577
 5013SOL    HW226673   3.703   3.995   7.752 -0.0516 -3.3270 -1.2254
 5014SOL     OW26674   2.469   3.708  12.141 -0.2625 -0.8270 -0.4625
 5014SOL    HW126675   2.480   3.798  12.111 -1.3559 -0.9027 -1.0828
 5014SOL    HW226676   2.485   3.651  12.066  0.2738 -0.5367 -0.5677
 5015SOL     OW26677   1.252   2.935   3.781 -0.2393  0.4315  0.2407
 5015SOL    HW126678   1.249   2.852   3.734  1.5563  0.5066 -0.0201
 5015SOL    HW226679   1.330   2.978   3.744  2.1176 -1.7918  2.6249
 5016SOL     OW26680   2.930   1.683   7.389 -0.0183  0.6261 -0.0784
 5016SOL    HW126681   3.023   1.702   7.382 -0.3076  1.8660 -0.6109
 5016SOL    HW226682   2.922   1.616   7.321 -1.7096  1.5611 -0.8039
 5017SOL     OW26683   3.538   1.315   3.940  0.0491 -0.0242  0.2079
 5017SOL    HW126684   3.491   1.300   4.022  2.2231  0.4831  1.5366
 5017SOL    HW226685   3.557   1.227   3.906 -0.9475  0.7510 -2.4062
 5018SOL     OW26686   1.342   3.752   6.386 -0.6315 -0.0939 -0.2649
 5018SOL    HW126687   1.320   3.807   6.311  2.0280  2.0524  0.5128
 5018SOL    HW226688   1.351   3.663   6.351 -1.8877 -1.1157  1.9956
 5019SOL     OW26689   0.262   0.518   3.951 -0.2078  0.4162  0.1872
 5019SOL    HW126690   0.248   0.479   4.037  0.7219 -0.3571 -0.0068
 5019SOL    HW226691   0.245   0.609   3.974  0.0661  0.9037 -1.4993
 5020SOL     OW26692   0.418   3.447   7.808  0.5509  0.2895 -0.0180
 5020SOL    HW126693   0.394   3.528   7.764  0.1905 -0.5544 -1.3666
 5020SOL    HW226694   0.391   3.471   7.896 -1.0364  0.2362 -0.4925
 5021SOL     OW26695   4.555   3.987   4.078 -0.2997 -0.0375 -0.0956
 5021SOL    HW126696   4.546   3.926   4.152  2.6603 -0.9598 -0.4873
 5021SOL    HW226697   4.580   3.921   4.013 -0.7612 -0.2694 -0.0343
 5022SOL     OW26698   0.496   0.399  11.749 -0.2790 -0.5447  0.3295
 5022SOL    HW126699   0.579   0.353  11.733 -1.4850 -2.0012 -1.7136
 5022SOL    HW226700   0.469   0.357  11.830  0.3165  0.4390  1.0492
 5023SOL     OW26701   4.571   4.222   8.360 -0.3545  0.8206 -0.1758
 5023SOL    HW126702   4.564   4.241   8.454  0.6079  0.4838 -0.0394
 5023SOL    HW226703   4.500   4.160   8.344  0.0060  0.3052  0.2577
 5024SOL     OW26704   2.209   4.715   8.143  0.0417 -0.1296  0.2757
 5024SOL    HW126705   2.293   4.709   8.099 -0.6568  2.1563 -1.3661
 5024SOL    HW226706   2.151   4.689   8.071  1.5338  0.3681 -1.0984
 5025SOL     OW26707   0.604   0.001  14.617 -0.0710 -0.5087  0.1230
 5025SOL    HW126708   0.622   4.647  14.632  0.2371 -0.6979 -1.3630
 5025SOL    HW226709   0.689   0.028  14.583  0.2392  0.7594  1.8842
 5026SOL     OW26710   4.389   2.767  17.050 -0.3386 -0.2279  0.0918
 5026SOL    HW126711   4.414   2.682  17.087 -1.5693  0.6527  2.8728
 5026SOL    HW226712   4.468   2.815  17.076 -1.2529  0.6275  1.2719
 5027SOL     OW26713   3.463   4.730   7.451  0.1236 -0.7679  0.1228
 5027SOL    HW126714   3.422   4.679   7.520  0.9523  0.6738  1.6894
 5027SOL    HW226715   3.506   4.653   7.414  2.9385  0.3333  1.0940
 5028SOL     OW26716   1.627   2.686   8.291 -0.3906 -0.4373  0.2191
 5028SOL    HW126717   1.639   2.661   8.200 -0.6991 -2.1997  0.6586
 5028SOL    HW226718   1.607   2.608   8.343  2.8271 -0.7433  0.9841
 5029SOL     OW26719   3.957   3.975   9.929  0.3723  0.3179  0.6583
 5029SOL    HW126720   3.962   3.883   9.953 -2.1741 -0.2280 -0.8105
 5029SOL    HW226721   3.883   3.970   9.868 -0.8730  0.8497  2.1300
 5030SOL     OW26722   1.834   0.663   4.893  0.1292  0.1583 -0.7305
 5030SOL    HW126723   1.854   0.756   4.890 -2.5436  0.8302  1.7477
 5030SOL    HW226724   1.743   0.655   4.925 -0.0647  0.7603 -1.1531
 5031SOL     OW26725   1.152   2.520  10.073  0.4832  0.6924  0.4068
 5031SOL    HW126726   1.140   2.447  10.013  0.3826  0.4044  0.7756
 5031SOL    HW226727   1.076   2.575  10.055  0.7026  0.6888 -0.5248
 5032SOL     OW26728   1.584   3.301   6.204 -0.2041 -0.0825 -0.0102
 5032SOL    HW126729   1.679   3.294   6.214 -0.2317  3.2272  2.5448
 5032SOL    HW226730   1.568   3.207   6.212  0.6291 -0.0707  1.8937
 5033SOL     OW26731   1.434   3.079  14.004  0.1052 -0.5016 -0.6644
 5033SOL    HW126732   1.511   3.113  14.048  0.8334 -1.8813 -0.8708
 5033SOL    HW226733   1.389   3.161  13.980  0.0037 -0.2647  0.3417
 5034SOL     OW26734   1.261   3.375  11.143  0.8451 -0.1861 -0.5426
 5034SOL    HW126735   1.181   3.428  11.143  0.6282 -0.5172 -1.0562
 5034SOL    HW226736   1.229   3.306  11.086  0.6199  1.2061 -2.1195
 5035SOL     OW26737   4.003   2.053   9.694 -0.6170  0.2108  0.1491
 5035SOL    HW126738   3.933   2.054   9.760 -2.2396  0.4578 -1.5923
 5035SOL    HW226739   3.975   1.975   9.647  0.8483  0.7130 -1.5225
 5036SOL     OW26740   2.383   3.845   6.869 -0.0403  0.2468  0.4141
 5036SOL    HW126741   2.411   3.859   6.778 -3.0542  0.4063 -0.5001
 5036SOL    HW226742   2.310   3.784   6.857  0.8100 -0.8387  0.8460
 5037SOL     OW26743   4.106   2.181  15.752  0.5362  0.7774 -0.0257
 5037SOL    HW126744   4.119   2.239  15.677  0.6073  1.4107  0.4772
 5037SOL    HW226745   4.086   2.097  15.712  3.0856  0.1244  0.0893
 5038SOL     OW26746   1.268   3.065   4.636 -0.2717 -0.3364  0.3419
 5038SOL    HW126747   1.294   3.152   4.664  2.6639 -0.8145 -0.8631
 5038SOL    HW226748   1.180   3.076   4.601 -0.0081 -1.3948 -0.6649
 5039SOL     OW26749   2.970   3.062   6.502  0.2855  0.2373  0.0531
 5039SOL    HW126750   3.020   3.143   6.498  1.0753 -0.2166  0.8224
 5039SOL    HW226751   2.879   3.089   6.486  1.1808  2.8163 -0.7671
 5040SOL     OW26752   1.566   0.342   7.448 -0.2153  0.0533  0.7194
 5040SOL    HW126753   1.479   0.381   7.452  0.2216  0.9776  1.1187
 5040SOL    HW226754   1.548   0.282   7.521 -1.0030 -2.4375 -1.5070
 5041SOL     OW26755   0.131   1.640   4.113  0.7087 -0.9746  0.5882
 5041SOL    HW126756   0.106   1.670   4.201  0.5450  3.1132 -0.8898
 5041SOL    HW226757   0.055   1.585   4.096 -2.5858  3.2900  1.6060
 5042SOL     OW26758   0.329   2.166  13.540 -1.2776  0.1909 -0.4893
 5042SOL    HW126759   0.394   2.104  13.508  0.8242  2.3415 -0.3130
 5042SOL    HW226760   0.296   2.124  13.619  1.7486 -0.4129  0.4434
 5043SOL     OW26761   2.877   2.044  12.979  0.1415  0.0299 -0.8100
 5043SOL    HW126762   2.876   1.950  13.000  0.6636  0.3061  0.4317
 5043SOL    HW226763   2.952   2.069  13.034  0.4482  0.7783 -1.5707
 5044SOL     OW26764   0.843   0.090  14.521 -0.4230 -0.4588  0.1028
 5044SOL    HW126765   0.933   0.061  14.539  0.0121  1.6064  1.2926
 5044SOL    HW226766   0.844   0.085  14.426 -0.9884 -4.0910  0.2836
 5045SOL     OW26767   0.364   0.706   6.541  0.4562  0.2641  0.5011
 5045SOL    HW126768   0.433   0.751   6.590  1.1940  0.7684 -1.0223
 5045SOL    HW226769   0.409   0.689   6.458  1.2220  1.6701  0.6171
 5046SOL     OW26770   1.659   0.784   8.363 -0.1008  0.0550  0.1799
 5046SOL    HW126771   1.594   0.724   8.326 -0.2318  0.3937 -0.1445
 5046SOL    HW226772   1.638   0.812   8.452  1.4729  1.0302  0.2307
 5047SOL     OW26773   3.080   1.816  13.409  0.1872 -0.2512 -0.2139
 5047SOL    HW126774   3.132   1.865  13.473  1.5546 -0.2444 -1.3203
 5047SOL    HW226775   3.149   1.757  13.376 -0.3487 -1.0450  0.0748
 5048SOL     OW26776   1.889   1.937   4.221  0.3489  0.5274 -0.1824
 5048SOL    HW126777   1.836   1.863   4.191  0.0268  1.0340 -0.8545
 5048SOL    HW226778   1.896   1.918   4.315  2.1468 -0.0273 -0.4219
 5049SOL     OW26779   2.317   3.320   3.612  0.3077 -0.3868 -0.4023
 5049SOL    HW126780   2.341   3.272   3.691  1.0102  2.4837  1.1057
 5049SOL    HW226781   2.292   3.249   3.553  0.7502 -2.1344  1.5092
 5050SOL     OW26782   2.721   2.116   7.651  0.0227 -0.0215  0.3560
 5050SOL    HW126783   2.786   2.119   7.722 -0.6424 -1.5562  1.0185
 5050SOL    HW226784   2.741   2.027   7.624  0.5783 -0.1995  1.3299
 5051SOL     OW26785   0.898   4.406   7.698 -0.0203  0.3024 -0.2559
 5051SOL    HW126786   0.817   4.377   7.739  1.0407 -0.8138  1.0527
 5051SOL    HW226787   0.961   4.356   7.750  0.1062  0.9742  0.2350
 5052SOL     OW26788   3.243   1.100   7.437 -0.0263 -0.0002  0.3629
 5052SOL    HW126789   3.245   1.109   7.532  2.6509  0.8814  0.2271
 5052SOL    HW226790   3.297   1.021   7.436  1.6211  1.1451  0.3429
 5053SOL     OW26791   0.843   0.042   4.629  0.1854 -0.0452  0.3628
 5053SOL    HW126792   0.922   0.075   4.587 -0.2198  2.2337  1.3412
 5053SOL    HW226793   0.823   0.120   4.682  2.9464 -0.1751  1.5931
 5054SOL     OW26794   0.837   0.278   4.735  0.4508  0.3246 -0.3843
 5054SOL    HW126795   0.927   0.306   4.722  1.1995 -1.8445  0.0988
 5054SOL    HW226796   0.804   0.355   4.781 -2.6673 -0.9197 -0.5350
 5055SOL     OW26797   3.702   1.616  10.577  0.4402 -0.3004  0.7410
 5055SOL    HW126798   3.684   1.630  10.670 -2.9896  0.1220  0.0162
 5055SOL    HW226799   3.685   1.522  10.567  0.6235 -0.2784  0.1893
 5056SOL     OW26800   0.041   1.404  11.098  0.2029  0.5949  0.0929
 5056SOL    HW126801   0.048   1.309  11.107  1.7810  0.7829  0.7358
 5056SOL    HW226802   0.086   1.420  11.016 -1.0643 -2.8775 -1.3150
 5057SOL     OW26803   2.533   1.825   5.507  0.3094  0.0623  0.0434
 5057SOL    HW126804   2.610   1.871   5.473  0.3171  0.2325  0.2895
 5057SOL    HW226805   2.515   1.769   5.432  2.0328  0.6975 -0.8572
 5058SOL     OW26806   4.406   2.507   4.914 -0.5757 -0.2163 -0.7681
 5058SOL    HW126807   4.356   2.536   4.991 -0.5816  2.5228 -1.7986
 5058SOL    HW226808   4.497   2.514   4.943 -0.7409 -0.5147 -0.1673
 5059SOL     OW26809   3.857   1.236   1.625 -0.8689  0.6859  0.4764
 5059SOL    HW126810   3.894   1.308   1.675 -1.5518  0.0777  1.8599
 5059SOL    HW226811   3.764   1.243   1.647 -1.5901 -2.2856 -1.5606
 5060SOL     OW26812   1.111   2.932  17.557 -0.2826 -0.0897 -0.2787
 5060SOL    HW126813   1.060   2.913  17.635 -0.4156 -1.9739 -0.8285
 5060SOL    HW226814   1.078   3.021  17.543  1.4991  0.4275 -1.1544
 5061SOL     OW26815   3.111   3.802  14.922  0.6715 -0.5846  0.0059
 5061SOL    HW126816   3.052   3.847  14.862  0.9122  1.4437  1.2987
 5061SOL    HW226817   3.154   3.740  14.862 -1.0467 -1.1214 -0.6688
 5062SOL     OW26818   1.191   4.017   4.348  0.3772 -0.5281  0.8223
 5062SOL    HW126819   1.281   3.984   4.349 -0.1623 -1.9971  1.3834
 5062SOL    HW226820   1.207   4.086   4.284 -0.3018 -1.4273 -0.3192
 5063SOL     OW26821   3.169   0.405  10.587 -0.1387 -0.2513  0.1908
 5063SOL    HW126822   3.208   0.350  10.655  1.1365 -2.0010 -1.9157
 5063SOL    HW226823   3.158   0.484  10.639 -1.5317 -0.6743  0.5203
 5064SOL     OW26824   3.794   1.024   8.466 -0.5188 -0.1739  0.2962
 5064SOL    HW126825   3.771   1.097   8.407  1.0211 -0.0509 -0.1609
 5064SOL    HW226826   3.818   1.071   8.546 -0.4549 -2.0180  1.3505
 5065SOL     OW26827   3.855   4.473   2.935  0.4176 -0.0663 -0.3335
 5065SOL    HW126828   3.769   4.501   2.902 -0.6913  0.1643  2.7073
 5065SOL    HW226829   3.901   4.556   2.942 -2.9952  1.9355 -1.7306
 5066SOL     OW26830   2.965   1.059  16.993 -0.0453 -0.0917 -0.2186
 5066SOL    HW126831   2.966   0.964  16.992  0.2972 -0.1217  1.9945
 5066SOL    HW226832   2.872   1.064  17.016  0.2417 -1.3679  1.2123
 5067SOL     OW26833   1.125   0.669  12.302  0.5839 -0.7747  0.2631
 5067SOL    HW126834   1.167   0.738  12.351 -0.3608 -0.1126  0.1466
 5067SOL    HW226835   1.169   0.663  12.217 -0.6559 -1.7428 -0.3300
 5068SOL     OW26836   1.445   3.547   1.140  0.9795  0.0714  0.0784
 5068SOL    HW126837   1.439   3.522   1.047  0.6046 -1.3987  0.5005
 5068SOL    HW226838   1.528   3.595   1.139  1.1807 -0.2476  1.8907
 5069SOL     OW26839   3.907   3.344   2.034 -0.9983  0.1267  0.0713
 5069SOL    HW126840   3.821   3.380   2.013  0.3765  2.2243 -2.0147
 5069SOL    HW226841   3.915   3.257   1.996 -2.8728  0.5763 -1.3329
 5070SOL     OW26842   1.217   1.376  15.214 -0.0021 -0.2418 -0.2802
 5070SOL    HW126843   1.206   1.471  15.214  0.7089 -0.1693  1.2400
 5070SOL    HW226844   1.167   1.356  15.135 -1.0666 -3.2888  1.1553
 5071SOL     OW26845   3.509   3.728  12.653 -0.2427 -0.2860 -0.1536
 5071SOL    HW126846   3.556   3.779  12.586  1.2703  0.3324  1.3810
 5071SOL    HW226847   3.437   3.788  12.672 -1.6226 -1.6402 -1.0613
 5072SOL     OW26848   3.743   4.605   8.036 -0.0244 -0.5299 -0.6978
 5072SOL    HW126849   3.737   4.622   7.942  2.9018 -0.1915 -0.8292
 5072SOL    HW226850   3.838   4.594   8.038  0.0558  0.3854  0.6234
 5073SOL     OW26851   1.094   3.086   2.493  0.3523 -0.1800 -0.4051
 5073SOL    HW126852   1.082   3.116   2.403 -0.0329  0.1072 -0.2560
 5073SOL    HW226853   1.183   3.116   2.513  0.0715  0.4939 -0.1529
 5074SOL     OW26854   2.685   2.906   3.549  0.2628 -0.5329 -0.3355
 5074SOL    HW126855   2.595   2.894   3.578  0.4003  1.8572  1.0952
 5074SOL    HW226856   2.734   2.921   3.630  3.3599  0.7903 -2.4348
 5075SOL     OW26857   1.581   2.037  10.716  0.8182 -0.5318  0.2500
 5075SOL    HW126858   1.554   2.048  10.625 -0.4449 -0.6671  0.6068
 5075SOL    HW226859   1.618   1.949  10.709 -0.2858 -1.0865  1.3876
 5076SOL     OW26860   2.035   3.751  12.081  0.4319 -0.1539 -0.1901
 5076SOL    HW126861   2.061   3.706  12.001  0.6784 -0.6676  0.1775
 5076SOL    HW226862   1.956   3.798  12.055  1.4043  1.1447 -0.8007
 5077SOL     OW26863   0.502   4.351   6.848 -0.7695  0.6940 -0.1140
 5077SOL    HW126864   0.526   4.265   6.813  0.1213 -0.4645  3.3391
 5077SOL    HW226865   0.569   4.352   6.916  1.2368  1.4433 -2.0970
 5078SOL     OW26866   1.775   3.737   4.491 -0.0047 -0.7795 -0.0161
 5078SOL    HW126867   1.783   3.782   4.407  1.0345  0.5626  0.7947
 5078SOL    HW226868   1.809   3.648   4.484  2.0682  0.0437 -0.3733
 5079SOL     OW26869   0.457   2.886  14.395 -0.7308  0.7334 -0.4885
 5079SOL    HW126870   0.378   2.889  14.340 -0.5393  1.0407 -0.7486
 5079SOL    HW226871   0.433   2.950  14.462 -2.7519  0.2177 -0.7192
 5080SOL     OW26872   1.362   4.221   1.205 -0.0405 -0.5168 -0.0162
 5080SOL    HW126873   1.397   4.310   1.208  0.5086 -0.7126 -0.6086
 5080SOL    HW226874   1.446   4.177   1.213 -0.3173 -1.4044 -2.0234
 5081SOL     OW26875   3.942   0.126   1.874  0.2164  0.0215 -0.3141
 5081SOL    HW126876   3.879   0.158   1.809  0.4617  0.9090 -0.1141
 5081SOL    HW226877   3.908   0.041   1.902  0.5506  0.3290  1.0026
 5082SOL     OW26878   0.537   2.881   1.783  0.2036  0.4504  0.5097
 5082SOL    HW126879   0.529   2.972   1.754 -1.0490  1.2553  3.3149
 5082SOL    HW226880   0.532   2.849   1.693 -0.6018 -0.4617  0.8839
 5083SOL     OW26881   3.880   2.318  15.590 -0.1604 -0.6773 -0.2323
 5083SOL    HW126882   3.864   2.257  15.518  0.9186 -2.1516  0.7596
 5083SOL    HW226883   3.976   2.321  15.580 -0.1584  0.3080  0.0666
 5084SOL     OW26884   1.600   2.884   3.828  0.7115  0.2981  0.3485
 5084SOL    HW126885   1.579   2.808   3.774 -0.2870  0.6726  0.2117
 5084SOL    HW226886   1.683   2.901   3.783  0.2273 -0.3287 -0.7669
 5085SOL     OW26887   2.647   3.957   1.856  0.1095 -0.1216 -0.2232
 5085SOL    HW126888   2.606   3.948   1.770 -0.9638 -2.0133  0.4702
 5085SOL    HW226889   2.606   4.036   1.892  1.3516 -0.4484  1.8907
 5086SOL     OW26890   0.891   4.487   3.146  0.0979  0.2747 -0.4423
 5086SOL    HW126891   0.908   4.571   3.103  0.2265  0.6393  0.3277
 5086SOL    HW226892   0.950   4.491   3.222  0.2276 -2.3420 -0.4210
 5087SOL     OW26893   4.101   2.394   0.132 -0.2016 -1.5567 -0.1224
 5087SOL    HW126894   4.153   2.385   0.052  1.5514 -0.7414  0.9243
 5087SOL    HW226895   4.039   2.323   0.118 -1.8129 -0.1407 -0.0720
 5088SOL     OW26896   3.977   4.578   5.823 -0.0131 -0.0448  0.1361
 5088SOL    HW126897   3.911   4.576   5.893 -0.9331  0.0839 -0.7211
 5088SOL    HW226898   4.062   4.590   5.863 -0.1268 -0.7899  0.5972
 5089SOL     OW26899   0.136   2.729   3.957  0.0293 -0.6135  0.0861
 5089SOL    HW126900   0.131   2.823   3.938 -1.4254 -0.5937  0.5392
 5089SOL    HW226901   0.142   2.736   4.052 -2.4287  3.5214 -0.0771
 5090SOL     OW26902   1.211   0.208   8.267 -0.1497 -0.5731 -0.6753
 5090SOL    HW126903   1.208   0.142   8.336  2.0868  0.4050  0.3497
 5090SOL    HW226904   1.303   0.232   8.262 -0.3914  0.5704  0.4127
 5091SOL     OW26905   2.820   2.607   4.811 -0.7623 -0.3353 -0.0217
 5091SOL    HW126906   2.909   2.576   4.826 -0.9411 -0.4917  0.6906
 5091SOL    HW226907   2.799   2.616   4.904 -0.5002 -2.5393  0.2266
 5092SOL     OW26908   0.825   2.325   7.186 -0.5678  0.2100 -0.0299
 5092SOL    HW126909   0.791   2.376   7.112 -0.3414  0.2877 -0.0839
 5092SOL    HW226910   0.891   2.389   7.215 -0.1581 -1.0021  1.6890
 5093SOL     OW26911   0.356   2.193   1.853 -0.1223  0.0736  0.2126
 5093SOL    HW126912   0.434   2.175   1.800 -1.1673  2.4574 -2.1040
 5093SOL    HW226913   0.355   2.285   1.828 -0.8773  0.2379  0.8426
 5094SOL     OW26914   1.815   0.321  10.308  0.0964 -0.6371  0.4658
 5094SOL    HW126915   1.853   0.394  10.357 -2.0388 -0.7796  2.3589
 5094SOL    HW226916   1.846   0.242  10.353 -1.4617 -2.4232 -1.5455
 5095SOL     OW26917   1.190   3.911   8.783  0.5389 -0.6079  0.3010
 5095SOL    HW126918   1.222   3.901   8.693  0.3245 -0.5493  0.2170
 5095SOL    HW226919   1.158   3.826   8.813 -0.2387 -1.3221 -2.5080
 5096SOL     OW26920   1.701   4.514   2.465  0.0633  0.0102  0.0860
 5096SOL    HW126921   1.678   4.486   2.377 -3.3644 -0.4656  1.1394
 5096SOL    HW226922   1.723   4.425   2.496  0.3732  0.0981  0.1188
 5097SOL     OW26923   1.563   1.299   3.058 -0.0073  0.1037 -0.1469
 5097SOL    HW126924   1.623   1.229   3.034  0.7065  1.0343 -1.0430
 5097SOL    HW226925   1.484   1.280   3.006 -1.0268  1.6535  0.8153
 5098SOL     OW26926   0.272   1.941   0.522  0.4075  0.3587 -0.3422
 5098SOL    HW126927   0.277   1.998   0.598 -0.1294 -0.1954  0.1019
 5098SOL    HW226928   0.195   1.972   0.475 -0.1249 -0.4850 -0.0085
 5099SOL     OW26929   2.099   3.944   0.485 -0.2819  0.1199  0.2776
 5099SOL    HW126930   2.042   3.993   0.545  0.5816 -0.1847  1.3639
 5099SOL    HW226931   2.179   3.949   0.537  0.0358 -1.5898 -0.0483
 5100SOL     OW26932   3.316   1.825   3.947 -0.1131  0.0671 -0.2094
 5100SOL    HW126933   3.233   1.777   3.943  0.4096 -0.8301 -0.2797
 5100SOL    HW226934   3.358   1.809   3.862 -1.9203  0.2480 -1.1284
 5101SOL     OW26935   0.818   3.567   6.618  0.6604 -0.3666  0.1409
 5101SOL    HW126936   0.766   3.647   6.627  0.8124 -0.2893  0.3390
 5101SOL    HW226937   0.753   3.518   6.569 -0.3894  0.3413  0.8250
 5102SOL     OW26938   4.470   4.229   6.309  0.7216 -0.3805  0.5985
 5102SOL    HW126939   4.407   4.204   6.242  0.2678  0.1253  0.8352
 5102SOL    HW226940   4.547   4.268   6.268  0.8325  0.1919  1.3422
 5103SOL     OW26941   2.866   2.440   8.041  0.2399 -0.4806  0.3022
 5103SOL    HW126942   2.843   2.485   7.959 -2.1425 -1.3808  0.4785
 5103SOL    HW226943   2.945   2.490   8.057  0.0648  0.2665 -1.1696
 5104SOL     OW26944   0.227   1.481   6.434 -0.8109  0.6826 -0.1876
 5104SOL    HW126945   0.303   1.537   6.422 -1.4101  1.6878  0.7422
 5104SOL    HW226946   0.252   1.447   6.520 -0.2759  0.7288 -0.3279
 5105SOL     OW26947   1.611   0.217   1.576 -0.0579  0.2490 -0.8085
 5105SOL    HW126948   1.644   0.132   1.604  0.9538  1.1024  0.5763
 5105SOL    HW226949   1.650   0.221   1.489  0.3327  2.2279 -0.5449
 5106SOL     OW26950   1.741   3.670   9.177  0.6263  0.1375  0.8487
 5106SOL    HW126951   1.718   3.589   9.131 -0.4750  1.2116 -0.4666
 5106SOL    HW226952   1.837   3.663   9.171  0.6254  0.2850  0.6721
 5107SOL     OW26953   4.568   1.585  16.668 -0.0683  0.0355  0.3891
 5107SOL    HW126954   4.595   1.631  16.748 -2.2047  4.1523 -1.2271
 5107SOL    HW226955   4.634   1.516  16.666 -0.2122 -0.1688  3.2250
 5108SOL     OW26956   2.738   0.145   3.387  0.1291  0.2805 -0.0794
 5108SOL    HW126957   2.778   0.211   3.331  0.5568  0.2877  0.2361
 5108SOL    HW226958   2.796   0.070   3.379  0.0800  0.0115  1.9700
 5109SOL     OW26959   1.618   1.906   9.694 -0.4654  0.5377 -0.4676
 5109SOL    HW126960   1.710   1.920   9.715 -1.0129  1.4380  1.2919
 5109SOL    HW226961   1.606   1.908   9.599 -0.0327  0.3976 -0.5220
 5110SOL     OW26962   3.968   2.860   2.730  0.3702 -0.1487 -0.0327
 5110SOL    HW126963   4.056   2.896   2.741  0.4859 -0.2911 -0.4404
 5110SOL    HW226964   3.986   2.785   2.672 -1.2392 -1.1092  0.7100
 5111SOL     OW26965   3.220   3.903   4.412 -0.1636  0.0251 -0.5548
 5111SOL    HW126966   3.143   3.873   4.462 -0.5117  0.2589 -0.9529
 5111SOL    HW226967   3.203   3.995   4.396 -3.1780 -0.5382 -0.7342
 5112SOL     OW26968   4.262   4.528  12.807  0.2335  0.1632 -0.4059
 5112SOL    HW126969   4.266   4.462  12.738 -1.9818  2.1122 -2.3995
 5112SOL    HW226970   4.176   4.499  12.838  0.6655  1.4464  1.9739
 5113SOL     OW26971   4.286   0.529  15.818 -0.0761 -0.0865  0.5482
 5113SOL    HW126972   4.326   0.457  15.866  0.9765  0.8368  1.0395
 5113SOL    HW226973   4.354   0.559  15.758 -0.0634  1.5865  1.3954
 5114SOL     OW26974   4.212   3.399   8.191  0.0148 -0.0311 -0.2670
 5114SOL    HW126975   4.234   3.459   8.120 -1.1473  0.3582 -0.2931
 5114SOL    HW226976   4.302   3.387   8.219  1.0482  0.2028 -3.4735
 5115SOL     OW26977   0.187   1.313   1.517 -0.9890  0.2525  0.0016
 5115SOL    HW126978   0.249   1.310   1.443 -1.3531 -3.4683 -0.1501
 5115SOL    HW226979   0.110   1.344   1.468 -1.1931 -0.3561 -0.0549
 5116SOL     OW26980   2.344   3.227  15.555 -0.1809 -0.6278 -0.1564
 5116SOL    HW126981   2.343   3.134  15.533  1.7288  0.3134 -4.3128
 5116SOL    HW226982   2.286   3.227  15.631  1.6992 -0.9408  1.2809
 5117SOL     OW26983   3.052   3.377  12.250 -0.0806  0.5929  0.0228
 5117SOL    HW126984   3.081   3.439  12.183 -4.0940 -0.7574 -2.9264
 5117SOL    HW226985   3.109   3.403  12.323 -0.1512 -2.7850  1.2901
 5118SOL     OW26986   0.579   4.390   5.057 -0.4631 -0.8515 -0.3495
 5118SOL    HW126987   0.659   4.345   5.031 -0.4743 -1.5795  0.9082
 5118SOL    HW226988   0.574   4.458   4.989  2.0402 -0.3798 -0.0733
 5119SOL     OW26989   1.617   0.498  17.688  0.0982 -0.4310  0.1658
 5119SOL    HW126990   1.538   0.445  17.677  0.2509 -0.3376 -1.3633
 5119SOL    HW226991   1.696   0.444  17.699 -0.7178 -1.8970 -1.2177
 5120SOL     OW26992   3.942   3.238   0.081  0.6024 -0.1990  0.5966
 5120SOL    HW126993   3.974   3.193   0.003 -0.4392 -0.8523  0.5512
 5120SOL    HW226994   3.851   3.258   0.057  0.6318 -0.8349 -0.0352
 5121SOL     OW26995   2.331   3.247   0.612  0.4434 -0.1556  0.5142
 5121SOL    HW126996   2.366   3.216   0.696  1.0308  0.3142  0.4377
 5121SOL    HW226997   2.352   3.170   0.559 -0.8451 -0.9707  1.1777
 5122SOL     OW26998   0.813   2.633   4.820 -0.2003 -0.7121  0.5499
 5122SOL    HW126999   0.891   2.609   4.770 -1.8391 -0.5395 -2.0531
 5122SOL    HW227000   0.846   2.605   4.906 -1.0719 -1.3615  0.6728
 5123SOL     OW27001   2.922   0.333  16.026  0.2384  0.4612  0.2674
 5123SOL    HW127002   2.957   0.421  16.010 -1.7795  0.9866 -1.2063
 5123SOL    HW227003   2.914   0.331  16.122  1.0080 -1.0108  0.2949
 5124SOL     OW27004   2.262   1.904  12.184  0.5242 -0.4659  0.2130
 5124SOL    HW127005   2.313   1.950  12.251 -0.2820  1.2419 -0.3459
 5124SOL    HW227006   2.177   1.943  12.202  0.8355 -0.1765  1.0748
 5125SOL     OW27007   3.814   3.716  13.437 -0.8273  0.1305 -0.1487
 5125SOL    HW127008   3.808   3.659  13.514 -3.0063  0.0728 -0.3652
 5125SOL    HW227009   3.752   3.787  13.454 -1.4027  0.2636 -2.6948
 5126SOL     OW27010   4.287   2.149  16.853  0.0080 -0.4123 -0.0032
 5126SOL    HW127011   4.307   2.224  16.910 -1.4551 -0.6660  0.8464
 5126SOL    HW227012   4.206   2.185  16.817 -0.0674  2.3853  2.9345
 5127SOL     OW27013   4.622   3.859   4.969  0.5031 -0.0742  0.0623
 5127SOL    HW127014   4.668   3.912   5.034 -0.7551  0.6047  0.3906
 5127SOL    HW227015   4.690   3.795   4.946  0.4629 -0.1021  0.0221
 5128SOL     OW27016   1.528   3.241  15.392  0.4902 -0.1566 -0.2925
 5128SOL    HW127017   1.511   3.229  15.299  1.7566  2.1695 -0.8408
 5128SOL    HW227018   1.596   3.174  15.402 -0.0171 -0.3003  2.1648
 5129SOL     OW27019   0.555   3.511   6.539  0.0014 -0.2602  0.0178
 5129SOL    HW127020   0.476   3.497   6.591 -0.1775  0.2298 -0.1183
 5129SOL    HW227021   0.563   3.433   6.484 -1.9282 -0.7521  0.4382
 5130SOL     OW27022   4.360   4.544   6.305  0.8379 -0.2591 -0.7490
 5130SOL    HW127023   4.318   4.492   6.236  1.8922  1.9055 -3.0297
 5130SOL    HW227024   4.406   4.478   6.356  0.0604  0.6365  1.1003
 5131SOL     OW27025   1.072   3.838   2.162  0.2768 -1.0030  0.2749
 5131SOL    HW127026   1.146   3.821   2.221  0.4064 -1.7289 -0.0955
 5131SOL    HW227027   1.007   3.781   2.202 -0.7852 -1.6331 -2.3699
 5132SOL     OW27028   3.931   3.494  15.361 -0.7594  0.2914  0.5282
 5132SOL    HW127029   3.941   3.399  15.372  2.9517  0.4621 -1.3174
 5132SOL    HW227030   4.024   3.511  15.346 -1.2850  2.9245  0.2096
 5133SOL     OW27031   1.952   1.306   7.715 -0.2710  0.3632  0.1152
 5133SOL    HW127032   1.923   1.314   7.805  1.6452 -0.1935  0.7729
 5133SOL    HW227033   2.045   1.284   7.725 -0.7455 -1.8844 -0.4316
 5134SOL     OW27034   4.339   2.267   5.677  0.0395  0.0855  0.8134
 5134SOL    HW127035   4.360   2.349   5.721  0.5045  0.5652 -0.3016
 5134SOL    HW227036   4.419   2.238   5.632 -0.3945  0.2025 -0.0292
 5135SOL     OW27037   1.438   0.311   9.564  0.2903 -0.0015  0.1497
 5135SOL    HW127038   1.385   0.232   9.576  0.9213 -0.5090 -0.3767
 5135SOL    HW227039   1.502   0.308   9.635 -0.0163  1.5737  0.4970
 5136SOL     OW27040   3.314   0.831   4.155 -0.3102  0.4850  0.1458
 5136SOL    HW127041   3.392   0.878   4.127 -0.3735  0.3506 -0.2617
 5136SOL    HW227042   3.263   0.825   4.074  1.2207  0.8693 -0.8562
 5137SOL     OW27043   2.635   2.449   4.333 -0.4935 -0.1869 -0.4117
 5137SOL    HW127044   2.542   2.427   4.331 -1.2471  2.9319 -0.1219
 5137SOL    HW227045   2.632   2.470   4.427 -0.0248 -0.7152 -0.2792
 5138SOL     OW27046   1.963   4.588   1.437 -0.0653 -0.0987  0.0389
 5138SOL    HW127047   2.035   4.608   1.376 -1.6962  0.4268 -1.7259
 5138SOL    HW227048   1.994   4.500   1.457  3.0208  0.8113 -0.6538
 5139SOL     OW27049   0.112   2.222  12.917 -0.5930 -0.4373  0.4391
 5139SOL    HW127050   0.172   2.244  12.846 -1.1732 -0.2684  0.0054
 5139SOL    HW227051   0.101   2.128  12.906  2.0696 -0.6317 -0.4049
 5140SOL     OW27052   2.824   0.415  11.450  0.3664  0.2886  0.4530
 5140SOL    HW127053   2.759   0.359  11.408  1.8537 -0.4886 -0.8361
 5140SOL    HW227054   2.767   0.465  11.508 -1.5530 -2.5773  1.0417
 5141SOL     OW27055   0.070   1.964   9.779 -0.2126  0.0988 -0.1883
 5141SOL    HW127056   4.716   1.940   9.766 -0.1072 -0.6572  0.5144
 5141SOL    HW227057   0.105   1.875   9.780  1.8768  0.8677 -3.5296
 5142SOL     OW27058   3.844   4.155   8.575  0.5327 -0.0164  0.4677
 5142SOL    HW127059   3.859   4.120   8.486  3.1234  2.0744  0.0905
 5142SOL    HW227060   3.887   4.100   8.641  1.6233 -0.0999 -0.2925
 5143SOL     OW27061   0.289   1.380   6.966  0.1694 -0.2365  0.1030
 5143SOL    HW127062   0.219   1.374   6.902 -0.7756 -0.4325  1.1506
 5143SOL    HW227063   0.296   1.288   6.992 -0.6765 -1.1342 -2.9458
 5144SOL     OW27064   1.664   0.095  10.666 -0.4136  0.5429  0.2378
 5144SOL    HW127065   1.739   0.148  10.691  1.3335 -1.1442 -1.4325
 5144SOL    HW227066   1.604   0.138  10.726  0.8332  3.1583 -0.3976
 5145SOL     OW27067   1.165   1.128   2.915 -0.2216  0.6535 -0.0821
 5145SOL    HW127068   1.132   1.196   2.857  0.7334  0.6411 -0.6321
 5145SOL    HW227069   1.149   1.170   3.000 -1.9062  1.6145 -0.8786
 5146SOL     OW27070   4.298   3.934   5.855  0.5265  0.4797  0.4706
 5146SOL    HW127071   4.308   3.840   5.873 -0.7147  0.4263  0.8809
 5146SOL    HW227072   4.203   3.942   5.861  0.7001  3.1137 -0.5860
 5147SOL     OW27073   4.474   0.032  12.746 -0.0314 -0.0771  0.3092
 5147SOL    HW127074   4.474   4.682  12.784 -1.5857 -0.2434 -0.0620
 5147SOL    HW227075   4.567   0.047  12.727  0.1302  1.8596  2.7388
 5148SOL     OW27076   4.302   0.261  16.958  0.3597 -0.1947  0.1939
 5148SOL    HW127077   4.227   0.229  17.007  0.0919  0.5137  0.2353
 5148SOL    HW227078   4.371   0.212  17.004  0.9321  0.0970 -0.3467
 5149SOL     OW27079   1.304   2.675  10.685 -0.4376  0.7502 -0.5627
 5149SOL    HW127080   1.315   2.655  10.592  1.1940  0.8560 -0.3953
 5149SOL    HW227081   1.375   2.737  10.699  1.4565 -1.5895  0.2269
 5150SOL     OW27082   1.485   2.428   6.224  0.2857 -0.1382 -0.1296
 5150SOL    HW127083   1.448   2.413   6.310 -0.7321  1.5902 -0.2606
 5150SOL    HW227084   1.509   2.519   6.240  1.6820 -0.3497 -1.0766
 5151SOL     OW27085   3.927   3.164   5.613  0.0892 -0.8212 -0.0387
 5151SOL    HW127086   3.902   3.097   5.550  4.0557 -2.2266 -0.1042
 5151SOL    HW227087   3.885   3.241   5.575 -0.1513 -0.8431  0.1809
 5152SOL     OW27088   3.298   2.476   5.582 -0.2444 -0.0819 -0.2120
 5152SOL    HW127089   3.246   2.540   5.631  0.5348 -0.9446  1.7667
 5152SOL    HW227090   3.382   2.522   5.591 -1.6466  2.4287  0.0363
 5153SOL     OW27091   2.059   0.014  14.270 -0.3885  0.2942  0.2648
 5153SOL    HW127092   2.041   4.673  14.321 -0.1155  0.0582 -0.0041
 5153SOL    HW227093   1.971   0.051  14.278 -0.3541  0.0803  1.7226
 5154SOL     OW27094   2.665   2.376   1.281 -0.4652 -0.4877  0.4279
 5154SOL    HW127095   2.710   2.331   1.353 -2.3278 -2.8094  0.1263
 5154SOL    HW227096   2.688   2.465   1.307 -0.1204 -0.8697  1.4367
 5155SOL     OW27097   1.765   2.418   6.581 -0.0465  0.3361  0.1683
 5155SOL    HW127098   1.767   2.437   6.675  2.3299  2.0423 -0.2062
 5155SOL    HW227099   1.703   2.476   6.538 -0.6624  0.7267  1.5974
 5156SOL     OW27100   3.343   1.983  12.504 -0.2744 -0.9306 -0.2927
 5156SOL    HW127101   3.363   2.066  12.460 -2.7647  1.0250  2.2289
 5156SOL    HW227102   3.355   1.918  12.434  2.0587 -2.1506  1.2307
 5157SOL     OW27103   1.979   0.459  16.106  0.0908  0.5139  0.0907
 5157SOL    HW127104   2.057   0.430  16.058 -0.4236  1.1140 -1.0921
 5157SOL    HW227105   1.919   0.388  16.084  2.2847 -1.8314  1.5620
 5158SOL     OW27106   0.420   3.169   8.582  0.5157 -0.4583  0.8201
 5158SOL    HW127107   0.420   3.187   8.676 -2.2046  0.1564  0.6864
 5158SOL    HW227108   0.498   3.115   8.569  1.7596  1.5828 -0.2383
 5159SOL     OW27109   3.004   2.882   5.933 -0.0433 -0.0656  0.2239
 5159SOL    HW127110   2.917   2.868   5.971 -0.0518  0.6469  0.4821
 5159SOL    HW227111   2.985   2.846   5.846 -2.9987 -0.2392  0.9490
 5160SOL     OW27112   0.302   3.006  12.681 -0.0006 -0.2509 -0.8973
 5160SOL    HW127113   0.298   2.918  12.645 -0.5099 -0.6282  0.1063
 5160SOL    HW227114   0.282   2.982  12.771 -0.8749  2.9121 -0.2223
 5161SOL     OW27115   4.474   4.524   5.424 -0.0765  0.3600  0.2505
 5161SOL    HW127116   4.438   4.582   5.357 -0.8858 -0.3013  0.1062
 5161SOL    HW227117   4.391   4.500   5.464 -0.7087  0.2448 -1.1306
 5162SOL     OW27118   3.902   1.901   6.053 -0.4653 -0.0750 -0.2792
 5162SOL    HW127119   3.840   1.873   6.119  0.8251  0.0337  0.9720
 5162SOL    HW227120   3.854   1.888   5.971 -0.0080  2.3592 -0.9258
 5163SOL     OW27121   0.368   3.981   3.986 -0.1339  0.0042  0.5200
 5163SOL    HW127122   0.388   3.959   3.895  4.4956  0.5358  1.3894
 5163SOL    HW227123   0.459   4.000   4.009 -0.3449  2.2932 -0.4659
 5164SOL     OW27124   2.350   3.535   4.671  0.1120 -0.0164  0.3041
 5164SOL    HW127125   2.410   3.569   4.738 -2.0301 -1.1782  2.8031
 5164SOL    HW227126   2.418   3.504   4.611  1.8749 -0.0025  2.2681
 5165SOL     OW27127   3.560   2.018   3.962  0.0596 -0.3339 -0.0969
 5165SOL    HW127128   3.627   2.070   3.919 -1.6075  0.7739 -1.3333
 5165SOL    HW227129   3.606   1.934   3.954  1.7977  0.6093  0.0300
 5166SOL     OW27130   4.303   4.321   6.567  0.0922  0.0799  0.4860
 5166SOL    HW127131   4.239   4.335   6.497 -0.6829 -0.8175  1.0213
 5166SOL    HW227132   4.262   4.366   6.642 -0.6220 -2.8794  1.8767
 5167SOL     OW27133   0.618   2.499   5.235 -0.2841  0.6685  0.3023
 5167SOL    HW127134   0.646   2.448   5.159 -0.9434 -1.0491  1.1932
 5167SOL    HW227135   0.671   2.577   5.220 -0.2747  0.5085 -0.5168
 5168SOL     OW27136   2.044   3.440   1.347  0.2507  0.1646 -0.3654
 5168SOL    HW127137   2.111   3.420   1.412 -1.6221  0.0554  1.5508
 5168SOL    HW227138   1.999   3.506   1.401  0.3763 -2.3730  2.8678
 5169SOL     OW27139   1.630   0.256  11.947  0.0403 -0.4529  0.0385
 5169SOL    HW127140   1.713   0.301  11.958  0.1607 -0.2831 -1.5538
 5169SOL    HW227141   1.660   0.166  11.957  0.1213 -0.4824 -0.4677
 5170SOL     OW27142   2.059   1.033   3.523  0.3844 -0.2417 -0.1808
 5170SOL    HW127143   1.995   1.081   3.469  1.0649 -1.5051 -2.0800
 5170SOL    HW227144   2.102   0.999   3.444  0.2505  0.4871 -0.5787
 5171SOL     OW27145   0.509   0.057   5.544 -0.0712  0.0448  0.5333
 5171SOL    HW127146   0.519   0.136   5.491  0.5488 -0.5626 -0.2634
 5171SOL    HW227147   0.591   0.014   5.521 -0.0123  0.6089 -0.3345
 5172SOL     OW27148   1.695   4.068  11.848 -0.3144  0.8298  0.2693
 5172SOL    HW127149   1.608   4.030  11.864  0.7772 -1.5451  0.6349
 5172SOL    HW227150   1.673   4.146  11.798 -1.7817  0.2620  0.0110
 5173SOL     OW27151   3.186   2.229   5.902  0.3158 -0.2304 -0.0662
 5173SOL    HW127152   3.215   2.318   5.923  1.0721 -0.6274  0.5668
 5173SOL    HW227153   3.138   2.243   5.820 -0.6403 -0.3551  0.4787
 5174SOL     OW27154   3.197   2.089   3.888  0.0739  0.0175  0.2260
 5174SOL    HW127155   3.241   2.022   3.941  0.7888  0.3587  0.0595
 5174SOL    HW227156   3.247   2.075   3.808  0.3657 -1.3612  0.6454
 5175SOL     OW27157   0.354   2.986   1.457  0.3266  0.3895  0.6125
 5175SOL    HW127158   0.440   2.947   1.440  0.0258 -0.2256  0.4834
 5175SOL    HW227159   0.305   2.907   1.480 -0.4065 -0.1916 -2.8596
 5176SOL     OW27160   3.260   1.716   9.667  0.0246  0.1614  0.2123
 5176SOL    HW127161   3.199   1.761   9.725  0.5280  1.0754  0.0263
 5176SOL    HW227162   3.324   1.681   9.730  0.4430  1.6026  0.5686
 5177SOL     OW27163   0.945   1.296   1.943 -0.3813  0.2402 -0.4699
 5177SOL    HW127164   1.020   1.240   1.962 -2.4614 -1.8031  1.7959
 5177SOL    HW227165   0.877   1.231   1.923  0.1369  0.5772 -3.2349
 5178SOL     OW27166   1.646   2.056   7.598  0.4539 -0.2904 -0.1270
 5178SOL    HW127167   1.672   2.026   7.685  0.3369 -2.3343 -0.7934
 5178SOL    HW227168   1.705   2.005   7.543  0.5881  0.9039 -1.0875
 5179SOL     OW27169   2.042   1.983  15.999  0.6397  0.3656  0.3965
 5179SOL    HW127170   2.016   1.956  15.911 -3.6172 -0.2281  1.8178
 5179SOL    HW227171   2.118   2.038  15.979  0.0954  1.3055  0.9015
 5180SOL     OW27172   2.729   2.114  11.489 -0.0024  0.5368  0.1164
 5180SOL    HW127173   2.638   2.143  11.498  0.6926  2.8212 -0.2353
 5180SOL    HW227174   2.724   2.034  11.437  2.1438  0.7340 -0.3999
 5181SOL     OW27175   3.031   0.456   5.230  0.4183  0.2527  0.0679
 5181SOL    HW127176   3.045   0.545   5.198  0.5956  0.1601 -0.1107
 5181SOL    HW227177   3.114   0.442   5.276  1.1521 -1.1580 -1.6873
 5182SOL     OW27178   0.536   1.561   5.443 -0.6673 -0.0353 -0.5087
 5182SOL    HW127179   0.472   1.499   5.406 -0.9279  1.1056 -1.9729
 5182SOL    HW227180   0.618   1.516   5.419 -0.1388  1.3868 -1.3661
 5183SOL     OW27181   1.671   3.649   4.182 -0.1360 -0.2581  0.3251
 5183SOL    HW127182   1.683   3.559   4.215 -0.3440  0.2250  1.7134
 5183SOL    HW227183   1.581   3.659   4.211 -0.4408 -1.1842 -0.2984
 5184SOL     OW27184   1.252   4.464  12.820  0.2078  0.8432  0.2437
 5184SOL    HW127185   1.192   4.530  12.856 -0.3856  1.2419 -1.4936
 5184SOL    HW227186   1.213   4.445  12.735  0.0172  0.4092  0.4278
 5185SOL     OW27187   1.904   3.052   3.281  0.1362 -0.0756  0.0287
 5185SOL    HW127188   1.959   3.088   3.350  0.0194 -2.6086  1.4423
 5185SOL    HW227189   1.952   3.071   3.201 -0.9563  0.5412 -0.4845
 5186SOL     OW27190   0.858   1.911   5.330 -0.0553  0.4284  0.1499
 5186SOL    HW127191   0.816   1.908   5.416  0.8113 -2.3277  0.5008
 5186SOL    HW227192   0.798   1.850   5.285  0.0933  0.1904  0.2755
 5187SOL     OW27193   3.333   3.139  17.405 -0.0102  0.0185  0.1376
 5187SOL    HW127194   3.338   3.045  17.385 -0.5093  0.2735 -1.2118
 5187SOL    HW227195   3.290   3.161  17.323 -1.9966 -1.8924  0.6611
 5188SOL     OW27196   0.150   2.050   3.552  0.1531  0.3124 -0.3671
 5188SOL    HW127197   0.199   2.068   3.471 -1.5242 -2.5236 -1.9960
 5188SOL    HW227198   0.070   2.007   3.524 -0.8902  1.6237  0.6195
 5189SOL     OW27199   4.609   3.401   3.479  0.1769  0.0031  0.0531
 5189SOL    HW127200   4.597   3.344   3.556 -0.0981  0.0600  0.0493
 5189SOL    HW227201   4.567   3.344   3.415  0.6702  0.2834 -0.5138
 5190SOL     OW27202   0.881   0.072   2.415  0.3355  0.5598  1.0022
 5190SOL    HW127203   0.965   0.048   2.454  0.3641 -0.6803  0.1536
 5190SOL    HW227204   0.898   0.166   2.406 -0.8111  0.5019 -1.8309
 5191SOL     OW27205   1.054   3.111   2.817 -0.0815  0.1245 -0.2407
 5191SOL    HW127206   1.052   3.031   2.869 -1.3050  1.5033  1.8309
 5191SOL    HW227207   0.994   3.103   2.743 -1.1946  2.3285  0.4244
 5192SOL     OW27208   3.175   4.186   4.396  0.5679 -0.1492 -0.2115
 5192SOL    HW127209   3.198   4.226   4.480  1.8690  1.4292 -1.3163
 5192SOL    HW227210   3.127   4.260   4.360  1.0336  0.2506 -0.0185
 5193SOL     OW27211   2.054   1.723   2.424  0.5049  0.0129  0.1016
 5193SOL    HW127212   2.033   1.713   2.517  4.9182 -0.1520  1.0730
 5193SOL    HW227213   1.969   1.751   2.392  0.9822 -0.3976 -1.5165
 5194SOL     OW27214   2.446   1.919   3.960 -0.9403  0.2423  0.6076
 5194SOL    HW127215   2.378   1.851   3.966 -2.1289  1.3729 -0.0010
 5194SOL    HW227216   2.379   1.987   3.974  1.2947  2.1475  2.0102
 5195SOL     OW27217   1.028   3.724  14.480 -0.3985 -0.5115 -0.7256
 5195SOL    HW127218   0.981   3.782  14.421  2.0283  2.2015  0.0132
 5195SOL    HW227219   1.075   3.790  14.531 -1.6500  0.1802 -0.4901
 5196SOL     OW27220   3.244   4.089   7.128 -0.0188  0.4632 -0.1054
 5196SOL    HW127221   3.178   4.148   7.093  1.0562  1.7300 -0.0167
 5196SOL    HW227222   3.224   4.013   7.074  0.9002  0.5641 -0.5897
 5197SOL     OW27223   1.341   2.581   4.503 -0.1424 -0.3863  0.2987
 5197SOL    HW127224   1.413   2.522   4.483  0.4783 -0.4152  2.5844
 5197SOL    HW227225   1.381   2.627   4.577 -2.9361 -0.6520  2.0073
 5198SOL     OW27226   0.960   0.213   8.046 -0.0171 -0.2176  0.1680
 5198SOL    HW127227   0.996   0.153   8.112  1.0546  0.1718 -0.0697
 5198SOL    HW227228   0.928   0.151   7.980 -1.2088  0.0248  0.5190
 5199SOL     OW27229   2.225   1.832   8.810  0.9908  0.6843  0.1388
 5199SOL    HW127230   2.242   1.759   8.750  2.3517 -0.9349  2.4747
 5199SOL    HW227231   2.136   1.828   8.843  1.3141  0.4420  0.9724
 5200SOL     OW27232   2.448   4.635   5.014  0.4193  0.1059  0.0596
 5200SOL    HW127233   2.522   4.597   4.968  1.7063  1.0783  1.3361
 5200SOL    HW227234   2.378   4.625   4.949 -0.1128 -0.4415  0.7062
 5201SOL     OW27235   3.174   1.655   4.489 -0.4610 -0.3500 -0.1848
 5201SOL    HW127236   3.242   1.630   4.551 -0.5719 -2.8374 -1.0809
 5201SOL    HW227237   3.115   1.711   4.540 -0.0283 -2.0009  2.0968
 5202SOL     OW27238   4.704   0.107   9.447  0.5757 -0.4140  0.0312
 5202SOL    HW127239   4.726   0.040   9.382 -1.8088 -1.2292  0.0667
 5202SOL    HW227240   4.695   0.183   9.389  1.7683  0.9631  1.6606
 5203SOL     OW27241   2.479   4.209   8.690  0.2299 -0.2220  0.3170
 5203SOL    HW127242   2.509   4.296   8.715 -0.0948  0.4957 -1.7860
 5203SOL    HW227243   2.386   4.220   8.710 -0.4509 -0.4658 -2.7145
 5204SOL     OW27244   3.394   3.354   0.522 -0.0121  0.5309 -0.0145
 5204SOL    HW127245   3.326   3.405   0.567 -0.2474  1.9784 -2.0331
 5204SOL    HW227246   3.470   3.412   0.515 -0.8800  1.5289 -1.1496
 5205SOL     OW27247   0.306   4.419   2.356  0.1442 -0.5424 -0.4660
 5205SOL    HW127248   0.235   4.403   2.294  1.6270  0.2990 -2.3551
 5205SOL    HW227249   0.361   4.490   2.325  1.1547 -1.7316 -1.3987
 5206SOL     OW27250   3.315   3.018   5.445 -0.1792 -0.7222  0.1769
 5206SOL    HW127251   3.344   2.927   5.443 -1.4293 -1.1440  1.3106
 5206SOL    HW227252   3.401   3.053   5.467 -0.0843 -0.3373 -0.8201
 5207SOL     OW27253   3.091   0.618   8.686 -0.9144  0.2059 -0.1160
 5207SOL    HW127254   3.033   0.659   8.750 -1.6989  1.1709 -1.4515
 5207SOL    HW227255   3.163   0.600   8.747 -0.1718 -1.4139 -1.4816
 5208SOL     OW27256   3.423   2.284  10.056  0.0361  0.2390 -0.1712
 5208SOL    HW127257   3.364   2.209  10.052 -0.9119  1.0710 -1.5814
 5208SOL    HW227258   3.421   2.308   9.964 -1.2337  1.7065  0.2538
 5209SOL     OW27259   3.901   3.752   1.368 -0.6156  0.2199 -0.1292
 5209SOL    HW127260   3.869   3.699   1.295  1.7039 -0.6332 -0.5302
 5209SOL    HW227261   3.815   3.782   1.396 -0.6627  0.6194 -0.7121
 5210SOL     OW27262   3.030   2.981   1.282 -0.5060  0.8172  0.3073
 5210SOL    HW127263   3.061   3.071   1.270 -1.5909  1.0835 -0.4522
 5210SOL    HW227264   2.941   2.990   1.249 -0.4900 -0.2840 -0.0374
 5211SOL     OW27265   2.815   1.821   1.500  0.5460  0.1797 -0.4437
 5211SOL    HW127266   2.886   1.867   1.546  1.4640 -0.0316 -1.6291
 5211SOL    HW227267   2.875   1.791   1.432  2.4206 -0.2713  1.3977
 5212SOL     OW27268   2.273   1.689   3.963  0.4744  0.7430  0.2270
 5212SOL    HW127269   2.193   1.636   3.961  1.4285 -0.7616  1.5212
 5212SOL    HW227270   2.250   1.760   4.022  0.1209  3.4120 -3.1453
 5213SOL     OW27271   1.433   4.732   9.385  0.1927 -0.2446 -0.5091
 5213SOL    HW127272   1.373   0.038   9.325 -0.2796 -2.2395 -1.5129
 5213SOL    HW227273   1.448   0.064   9.448 -0.6567 -0.8386  0.3660
 5214SOL     OW27274   0.769   2.705   5.786 -0.1507  0.2692  0.3632
 5214SOL    HW127275   0.734   2.620   5.814 -0.7288  0.4310  0.1424
 5214SOL    HW227276   0.738   2.767   5.851  0.5015 -0.7733  1.6608
 5215SOL     OW27277   0.704   0.881   9.325 -0.1025  0.2339 -0.1846
 5215SOL    HW127278   0.611   0.892   9.347 -0.4407 -0.2727 -1.3235
 5215SOL    HW227279   0.740   0.964   9.356 -0.6223 -0.0013  1.0756
 5216SOL     OW27280   4.719   4.337  11.055 -0.4120  0.2854 -0.1179
 5216SOL    HW127281   4.656   4.266  11.049 -0.8509  0.7743 -1.2733
 5216SOL    HW227282   4.685   4.385  11.131  0.5599  1.2524 -0.2822
 5217SOL     OW27283   4.326   4.156   8.806  0.0756  0.9212 -0.2547
 5217SOL    HW127284   4.277   4.100   8.866  0.1342  1.1922  0.0433
 5217SOL    HW227285   4.252   4.207   8.773 -0.3099  0.6709  0.2364
 5218SOL     OW27286   1.374   2.302   2.650 -0.4701 -0.5048  0.5017
 5218SOL    HW127287   1.284   2.333   2.646 -0.1770  0.2437 -0.1197
 5218SOL    HW227288   1.393   2.310   2.744  0.5975 -1.0470  0.3314
 5219SOL     OW27289   0.850   4.682   7.144  0.1522  0.4363 -0.3568
 5219SOL    HW127290   0.812   4.596   7.162 -0.1368  0.7678  0.6272
 5219SOL    HW227291   0.933   4.674   7.191  0.1135 -0.4573 -0.4438
 5220SOL     OW27292   1.184   4.292   7.478 -0.1727  0.1429  0.4832
 5220SOL    HW127293   1.272   4.258   7.491 -0.9691 -2.2579 -0.5103
 5220SOL    HW227294   1.196   4.343   7.398 -1.1227 -2.7653 -1.4967
 5221SOL     OW27295   1.209   0.373  15.507 -0.1802 -0.6503 -0.5855
 5221SOL    HW127296   1.216   0.464  15.537  0.7621 -0.8539 -0.1795
 5221SOL    HW227297   1.165   0.389  15.424 -1.3128 -1.6629 -0.1810
 5222SOL     OW27298   3.410   4.303  15.022  0.8937  0.1680 -0.9201
 5222SOL    HW127299   3.330   4.345  15.053  1.1786  0.6905 -0.9057
 5222SOL    HW227300   3.451   4.383  14.992 -0.6558  0.5411 -2.0405
 5223SOL     OW27301   1.787   0.542   7.503  0.0907  0.7590  0.6372
 5223SOL    HW127302   1.704   0.514   7.466  0.0085  1.0575  0.5983
 5223SOL    HW227303   1.786   0.491   7.584  1.7713 -0.5525 -0.1682
 5224SOL     OW27304   2.000   3.209  12.830 -0.3665 -0.6855 -0.2512
 5224SOL    HW127305   2.057   3.277  12.865 -1.0712  1.2865 -2.9940
 5224SOL    HW227306   1.939   3.194  12.902 -1.8890 -0.4935 -1.4968
 5225SOL     OW27307   3.373   3.922  14.691  0.3806 -0.1854  0.1741
 5225SOL    HW127308   3.293   3.873  14.674  1.2979 -0.8478 -2.1436
 5225SOL    HW227309   3.344   4.010  14.668  0.7190 -0.2485 -0.4754
 5226SOL     OW27310   2.363   3.517   7.740 -0.6219 -0.0337 -0.1363
 5226SOL    HW127311   2.271   3.532   7.758 -0.8473  1.4372 -2.4225
 5226SOL    HW227312   2.359   3.423   7.759 -0.3820  0.0986  0.5630
 5227SOL     OW27313   3.722   1.040   2.920  0.5005 -0.2855  0.0804
 5227SOL    HW127314   3.740   1.113   2.861  1.3620 -0.7581 -0.2479
 5227SOL    HW227315   3.627   1.037   2.911  0.4223  0.2497  0.7397
 5228SOL     OW27316   0.661   4.070   8.730  0.1035  0.2115 -0.4254
 5228SOL    HW127317   0.630   3.999   8.786 -1.8677  0.9217 -0.6074
 5228SOL    HW227318   0.654   4.033   8.642  0.8792 -0.2603 -0.2814
 5229SOL     OW27319   3.375   2.641   4.580 -0.3259 -0.3410 -0.4430
 5229SOL    HW127320   3.346   2.563   4.533  1.5706 -0.7302 -0.9375
 5229SOL    HW227321   3.347   2.706   4.515 -2.3914 -2.6109 -1.8407
 5230SOL     OW27322   0.954   2.766  16.629 -0.0781 -0.1638  0.2078
 5230SOL    HW127323   0.901   2.845  16.638  2.0457  1.4952 -1.7154
 5230SOL    HW227324   0.950   2.719  16.713  2.2030 -0.2090  0.2928
 5231SOL     OW27325   3.430   1.519   9.819  0.2276 -0.2892 -0.8827
 5231SOL    HW127326   3.494   1.506   9.750  0.6991  1.2417 -0.7202
 5231SOL    HW227327   3.407   1.429   9.843 -2.3965  0.6670  0.1943
 5232SOL     OW27328   3.372   2.721   0.577  0.2274  0.1528  0.1013
 5232SOL    HW127329   3.452   2.766   0.550  0.1466  0.3227  0.1432
 5232SOL    HW227330   3.310   2.790   0.600 -0.8211 -0.5595 -0.5744
 5233SOL     OW27331   3.835   2.513   7.051 -0.4043  0.0626  0.2222
 5233SOL    HW127332   3.850   2.453   7.124  0.3563  1.0760  0.8944
 5233SOL    HW227333   3.921   2.503   7.009 -1.1103 -0.1541 -1.1886
 5234SOL     OW27334   2.115   3.188   7.830 -0.0002 -0.0041 -0.3033
 5234SOL    HW127335   2.135   3.262   7.887 -4.2478  1.3408 -0.5669
 5234SOL    HW227336   2.197   3.139   7.844  2.4071  4.1181  0.1278
 5235SOL     OW27337   1.512   1.691   8.741  0.5299  0.5089 -0.5468
 5235SOL    HW127338   1.606   1.695   8.725  0.6625  1.6788  0.5517
 5235SOL    HW227339   1.507   1.725   8.830 -0.1232 -0.2014 -0.3137
 5236SOL     OW27340   3.788   0.946   3.486 -0.0539 -0.2674  0.2440
 5236SOL    HW127341   3.782   1.040   3.498 -1.6276 -0.2440 -0.7488
 5236SOL    HW227342   3.851   0.921   3.554  2.6440 -1.5370 -2.7330
 5237SOL     OW27343   4.538   3.296   2.895  0.0740  0.1340 -0.1957
 5237SOL    HW127344   4.494   3.235   2.953  1.0272 -0.9350 -0.5979
 5237SOL    HW227345   4.506   3.374   2.941  0.9680 -0.9118  2.1927
 5238SOL     OW27346   2.850   1.785  14.634 -0.3743  0.1631 -0.2398
 5238SOL    HW127347   2.883   1.872  14.611  0.9582  0.2755  2.1302
 5238SOL    HW227348   2.757   1.805  14.642 -1.0928 -2.9813 -0.6344
 5239SOL     OW27349   1.691   3.957   2.614  0.7229  0.0299 -0.0455
 5239SOL    HW127350   1.753   3.924   2.549  0.3498  2.7507 -1.8048
 5239SOL    HW227351   1.688   3.886   2.678 -0.1974 -0.1577 -0.2992
 5240SOL     OW27352   0.241   0.189   6.666  0.1816 -0.4306  0.6911
 5240SOL    HW127353   0.202   0.264   6.710 -2.2150 -0.8846 -0.6281
 5240SOL    HW227354   0.178   0.123   6.694 -0.4009 -0.1661  0.0300
 5241SOL     OW27355   2.405   0.056   2.394 -0.0976  0.1432 -0.3861
 5241SOL    HW127356   2.393   0.088   2.484  1.5328 -1.9991  0.5787
 5241SOL    HW227357   2.453   0.122   2.343 -0.0811  0.4201 -0.0089
 5242SOL     OW27358   4.373   3.469   9.651 -0.1742  0.0442 -0.1545
 5242SOL    HW127359   4.282   3.488   9.628 -0.2651  0.7316  0.7631
 5242SOL    HW227360   4.399   3.441   9.564  1.9535  1.9568 -0.1432
 5243SOL     OW27361   1.687   1.250   7.059 -0.2235  0.7017  0.2131
 5243SOL    HW127362   1.709   1.343   7.048  1.1675  0.1555 -1.6678
 5243SOL    HW227363   1.595   1.253   7.031  0.3799  0.0043 -1.8470
 5244SOL     OW27364   1.000   1.492  15.936 -0.1218  0.3565 -0.1655
 5244SOL    HW127365   0.916   1.505  15.979  0.7922  3.7949  0.6137
 5244SOL    HW227366   0.983   1.429  15.867 -0.0101  2.9435 -2.5821
 5245SOL     OW27367   3.669   1.615   4.820  0.3646  0.2295  0.3686
 5245SOL    HW127368   3.638   1.703   4.841 -1.0959  0.8916 -4.3703
 5245SOL    HW227369   3.669   1.617   4.724 -1.5690 -0.4763  0.3467
 5246SOL     OW27370   3.271   1.482   9.320  0.3513  0.0023 -0.1648
 5246SOL    HW127371   3.205   1.429   9.365 -0.0018  0.5431 -0.0507
 5246SOL    HW227372   3.279   1.417   9.250 -0.4426 -1.0711  0.7339
 5247SOL     OW27373   4.512   0.191   6.725 -0.0385 -0.3946  0.0454
 5247SOL    HW127374   4.492   0.262   6.785 -0.7325 -1.6249  1.2848
 5247SOL    HW227375   4.444   0.197   6.657  0.2284 -0.6662 -0.2472
 5248SOL     OW27376   3.899   0.215   8.433 -0.1157 -0.0546  0.0765
 5248SOL    HW127377   3.804   0.215   8.442 -0.0218 -0.0341  0.9969
 5248SOL    HW227378   3.905   0.268   8.512 -0.2402  0.5796 -0.3406
 5249SOL     OW27379   2.163   4.532   6.666 -0.0843  0.5748  0.0211
 5249SOL    HW127380   2.101   4.517   6.737 -1.5617 -0.7929 -1.5657
 5249SOL    HW227381   2.113   4.485   6.599 -0.1649  1.0163 -0.2299
 5250SOL     OW27382   0.185   3.874  11.311  0.1736 -0.0388 -0.0153
 5250SOL    HW127383   0.147   3.841  11.230  0.5858 -0.0851 -0.1896
 5250SOL    HW227384   0.230   3.802  11.357  0.2632 -0.7400 -1.2053
 5251SOL     OW27385   3.477   0.142   7.779  0.1346  0.2472  0.1577
 5251SOL    HW127386   3.557   0.090   7.768  1.5540  1.9657  2.1206
 5251SOL    HW227387   3.478   0.170   7.871 -1.5696  0.8298 -0.0066
 5252SOL     OW27388   2.343   1.158   2.774 -0.3637 -0.0003 -0.5637
 5252SOL    HW127389   2.344   1.245   2.814  1.3049 -1.1758  1.9441
 5252SOL    HW227390   2.351   1.104   2.852  1.3229 -1.6238 -1.8442
 5253SOL     OW27391   0.584   3.958  11.760 -0.5338  0.7149  0.1293
 5253SOL    HW127392   0.679   3.954  11.744 -0.5519 -2.0194  0.7200
 5253SOL    HW227393   0.564   4.049  11.737  0.7224  1.1315  0.6795
 5254SOL     OW27394   1.332   2.331   1.306 -0.4730 -0.5834 -0.3522
 5254SOL    HW127395   1.267   2.310   1.239 -0.2187 -0.1653 -0.7265
 5254SOL    HW227396   1.419   2.330   1.266  0.3021 -0.1979  1.3199
 5255SOL     OW27397   2.853   2.384  10.172 -0.3342 -0.2724 -0.3191
 5255SOL    HW127398   2.785   2.396  10.106  0.0024  2.9677 -0.0781
 5255SOL    HW227399   2.801   2.338  10.238 -1.4686 -0.4184 -1.3375
 5256SOL     OW27400   1.300   4.568  16.082  0.4691  0.3742  0.3858
 5256SOL    HW127401   1.216   4.600  16.051  0.4303 -0.5843 -0.5079
 5256SOL    HW227402   1.355   4.576  16.004  1.3633 -1.1574  0.8498
 5257SOL     OW27403   3.194   0.956   2.234  0.3236  0.2417 -0.0875
 5257SOL    HW127404   3.266   1.015   2.212 -0.3107  1.3173  0.7224
 5257SOL    HW227405   3.186   0.903   2.155  4.4325  2.1799 -1.8062
 5258SOL     OW27406   1.404   0.653   5.319 -0.3857  0.0384 -0.2233
 5258SOL    HW127407   1.335   0.647   5.386 -0.2314 -0.9311 -0.1494
 5258SOL    HW227408   1.382   0.736   5.278 -0.4580  0.8829  1.4966
 5259SOL     OW27409   1.454   3.462  15.508  0.1082  0.3108 -0.2059
 5259SOL    HW127410   1.469   3.374  15.472 -1.5805 -0.6833  1.5120
 5259SOL    HW227411   1.482   3.455  15.599  0.9914  0.5368 -0.4599
 5260SOL     OW27412   4.527   0.400   7.566 -0.4460 -0.4596 -0.1125
 5260SOL    HW127413   4.529   0.349   7.647 -1.2135 -3.0646 -1.7426
 5260SOL    HW227414   4.608   0.376   7.520 -1.4637 -1.4548 -1.3696
 5261SOL     OW27415   2.122   4.504  10.186 -0.4137 -0.1687  0.1507
 5261SOL    HW127416   2.050   4.562  10.213 -0.2943 -1.5946  3.5259
 5261SOL    HW227417   2.086   4.426  10.144  0.8498 -0.6963  0.0724
 5262SOL     OW27418   1.449   3.310   3.201  0.0999  0.7374  0.6542
 5262SOL    HW127419   1.530   3.317   3.250  0.2258 -1.7458  0.8050
 5262SOL    HW227420   1.469   3.374   3.133 -0.3696 -0.8173 -0.9813
 5263SOL     OW27421   0.237   4.071  13.205 -0.0598  0.0879 -0.4770
 5263SOL    HW127422   0.264   4.002  13.145 -2.0825 -1.9403  0.9460
 5263SOL    HW227423   0.144   4.048  13.209  0.6581 -2.5525  0.9235
 5264SOL     OW27424   4.020   2.634   8.055  0.2470 -0.4508 -0.1373
 5264SOL    HW127425   3.982   2.704   8.002  2.5710 -0.4531 -1.8278
 5264SOL    HW227426   3.962   2.638   8.131  0.5820  0.2441  0.0892
 5265SOL     OW27427   3.157   4.480   6.778  0.4432 -0.1753  0.2126
 5265SOL    HW127428   3.205   4.562   6.768  1.3585 -1.0116 -2.1810
 5265SOL    HW227429   3.076   4.513   6.815 -0.4749  0.1089 -2.0896
 5266SOL     OW27430   2.257   1.650   7.003  0.0554  0.3625 -0.3396
 5266SOL    HW127431   2.284   1.690   7.085  0.5263 -1.4732  0.4165
 5266SOL    HW227432   2.162   1.660   7.011  0.1395 -0.1406  1.2671
 5267SOL     OW27433   2.596   1.021   8.056  0.4478 -0.3070  0.0900
 5267SOL    HW127434   2.588   0.943   8.002 -3.0131  0.0989  0.0517
 5267SOL    HW227435   2.669   1.075   8.024  0.3360 -0.7194 -0.8330
 5268SOL     OW27436   3.713   1.994   7.441  0.1292 -0.8567  0.2165
 5268SOL    HW127437   3.728   1.927   7.374  0.5193  0.4813 -1.0298
 5268SOL    HW227438   3.644   2.035   7.389  0.7230 -1.0486 -0.7259
 5269SOL     OW27439   3.802   4.063  17.340 -0.0198 -0.1791  0.6558
 5269SOL    HW127440   3.778   3.973  17.317  0.8302 -0.4742  0.9428
 5269SOL    HW227441   3.712   4.092  17.357  0.1408  0.7135 -0.0203
 5270SOL     OW27442   1.843   2.862   6.719  0.3585  0.3410  0.1478
 5270SOL    HW127443   1.849   2.779   6.766 -3.1399  0.4504  0.7939
 5270SOL    HW227444   1.821   2.837   6.629 -0.3285 -0.4565  0.5381
 5271SOL     OW27445   1.756   0.963  16.181  0.4485 -0.1727 -0.2955
 5271SOL    HW127446   1.790   0.877  16.159 -0.8338 -0.7925  0.1363
 5271SOL    HW227447   1.719   0.940  16.267 -1.4919  1.1164 -0.7671
 5272SOL     OW27448   2.697   0.063   7.030 -0.2445 -0.0839  0.4689
 5272SOL    HW127449   2.683   0.047   7.124 -2.2175 -2.3619 -0.2155
 5272SOL    HW227450   2.766   0.130   7.031 -0.0864 -0.2411  0.1426
 5273SOL     OW27451   1.037   0.634   2.609 -0.3001  0.1641  0.4702
 5273SOL    HW127452   0.963   0.639   2.550 -0.5067 -0.1718  0.7052
 5273SOL    HW227453   1.034   0.721   2.651  0.6803 -0.3137  1.5448
 5274SOL     OW27454   0.285   0.467   2.434 -0.2657  0.0916 -0.1470
 5274SOL    HW127455   0.376   0.440   2.423  0.0613  0.8675  0.6845
 5274SOL    HW227456   0.283   0.398   2.500 -0.1433  0.0294 -0.2083
 5275SOL     OW27457   2.808   4.600   7.568 -0.7036 -0.2362  0.0423
 5275SOL    HW127458   2.804   4.598   7.663 -0.9121 -0.9879  0.0227
 5275SOL    HW227459   2.716   4.581   7.551 -1.0888  2.8659 -1.1898
 5276SOL     OW27460   2.698   3.183   3.543  0.5250 -0.5800  0.1759
 5276SOL    HW127461   2.743   3.107   3.505  0.5773  0.9494 -2.8900
 5276SOL    HW227462   2.714   3.251   3.477  3.0178 -0.4724  0.8885
 5277SOL     OW27463   0.133   2.310  15.528  0.1262 -0.2871 -0.3016
 5277SOL    HW127464   0.208   2.285  15.581 -1.2012  2.3207  2.7797
 5277SOL    HW227465   0.085   2.366  15.590 -0.7889 -2.3123  0.8153
 5278SOL     OW27466   1.889   4.140   8.178 -1.0086  0.2684 -0.2048
 5278SOL    HW127467   1.860   4.171   8.264  0.4864  0.1554  0.3291
 5278SOL    HW227468   1.939   4.213   8.143 -1.7226 -0.5959 -3.0188
 5279SOL     OW27469   2.233   3.010   5.323  0.1278 -0.1464  0.2112
 5279SOL    HW127470   2.320   2.972   5.315  2.2795  4.6601  1.1420
 5279SOL    HW227471   2.255   3.095   5.284  0.0580  0.3170  1.1784
 5280SOL     OW27472   2.373   3.649  15.104 -0.3049  0.4375 -0.1974
 5280SOL    HW127473   2.367   3.737  15.067 -0.2295  0.7013  0.4330
 5280SOL    HW227474   2.397   3.673  15.193  3.7870 -0.4392 -1.0531
 5281SOL     OW27475   0.115   3.141   6.016  0.1841 -0.0099  0.0704
 5281SOL    HW127476   0.092   3.158   5.925 -0.6577 -0.2533  0.2352
 5281SOL    HW227477   0.199   3.095   6.019  0.6635  0.9865  2.0495
 5282SOL     OW27478   2.374   1.674   5.232 -0.0853 -0.6952  0.4398
 5282SOL    HW127479   2.394   1.609   5.299  2.2768 -0.5056 -0.0732
 5282SOL    HW227480   2.299   1.720   5.270  0.0638  1.3285 -1.6551
 5283SOL     OW27481   0.236   4.427  12.708 -0.4435  0.1866 -0.2768
 5283SOL    HW127482   0.248   4.334  12.726  2.3209  0.3804 -1.2572
 5283SOL    HW227483   0.156   4.444  12.759 -0.2464 -0.3476  0.2067
 5284SOL     OW27484   4.622   3.367  12.664 -0.2351 -0.2652 -0.2675
 5284SOL    HW127485   4.576   3.437  12.618 -1.5766 -0.3729  0.9071
 5284SOL    HW227486   4.565   3.294  12.641 -0.9322  0.6753 -1.4893
 5285SOL     OW27487   3.341   2.743   1.656  0.1453  0.2183  0.8730
 5285SOL    HW127488   3.257   2.774   1.692 -0.5610 -0.8301  0.0995
 5285SOL    HW227489   3.401   2.746   1.731  2.6847 -1.4097 -1.1245
 5286SOL     OW27490   3.457   4.449   3.086  0.0031  0.1411 -0.1284
 5286SOL    HW127491   3.395   4.424   3.154 -0.8447  1.9865 -0.2356
 5286SOL    HW227492   3.398   4.426   3.015  1.4852  1.1588 -1.6930
 5287SOL     OW27493   3.119   3.777   2.412  0.8489  0.1400 -0.2069
 5287SOL    HW127494   3.123   3.839   2.485  1.8744 -0.7380  0.4789
 5287SOL    HW227495   3.086   3.839   2.347 -0.9354 -0.3050  0.2798
 5288SOL     OW27496   0.671   3.123   9.952 -0.2373 -0.2666  0.1674
 5288SOL    HW127497   0.582   3.140   9.920 -0.1079  2.8117  1.4879
 5288SOL    HW227498   0.703   3.213   9.944  0.6399 -0.3519  2.8387
 5289SOL     OW27499   2.147   4.461   1.031 -0.0049  0.3679  0.3348
 5289SOL    HW127500   2.067   4.431   0.988 -1.1095 -0.4180  2.9285
 5289SOL    HW227501   2.157   4.404   1.107 -0.5800  0.6534  0.6300
 5290SOL     OW27502   3.920   2.093   8.650  0.0803 -0.1854 -0.0742
 5290SOL    HW127503   3.979   2.146   8.704  0.0983  1.1766 -1.4416
 5290SOL    HW227504   3.858   2.072   8.720  0.1582 -0.9182 -0.2308
 5291SOL     OW27505   2.990   1.524   3.037 -0.0498  0.5125  0.5869
 5291SOL    HW127506   3.030   1.567   2.962 -2.2649  1.2136 -0.1993
 5291SOL    HW227507   2.934   1.457   2.998  0.6392 -0.5714  1.4825
 5292SOL     OW27508   2.644   3.545   9.532 -0.1558 -0.3634 -0.8014
 5292SOL    HW127509   2.625   3.637   9.515  0.2881  0.1287  1.4626
 5292SOL    HW227510   2.729   3.534   9.489 -0.0651  0.5810 -0.8527
 5293SOL     OW27511   1.231   0.098   5.305  0.0219  0.6242  0.5184
 5293SOL    HW127512   1.316   0.110   5.348 -0.5064  1.7333  1.2738
 5293SOL    HW227513   1.221   0.191   5.281 -0.4007  0.2664 -0.7014
 5294SOL     OW27514   4.567   4.004  11.700  0.4650  0.2686  0.4347
 5294SOL    HW127515   4.489   3.969  11.656 -0.6713  1.8382  1.1624
 5294SOL    HW227516   4.553   4.095  11.674 -2.2761  0.2009  1.6791
 5295SOL     OW27517   0.192   1.504   9.569 -0.5397 -0.4243 -0.3529
 5295SOL    HW127518   0.156   1.464   9.491  0.6558 -3.5903  0.7414
 5295SOL    HW227519   0.178   1.429   9.626  1.8961 -0.5276  0.0857
 5296SOL     OW27520   0.346   2.649   7.639 -0.3001 -0.2269  0.1885
 5296SOL    HW127521   0.405   2.575   7.627 -0.2667 -0.3055  0.8689
 5296SOL    HW227522   0.382   2.732   7.607  1.1121 -0.2025  1.9025
 5297SOL     OW27523   0.029   2.406   1.045 -0.0897  0.5257 -0.3488
 5297SOL    HW127524   0.107   2.378   1.091 -2.4764 -1.1019  2.6970
 5297SOL    HW227525   0.029   2.337   0.978 -1.4087 -0.6854  0.9003
 5298SOL     OW27526   3.923   1.089   3.791  0.0139 -0.2084 -0.5458
 5298SOL    HW127527   3.981   1.148   3.742  2.1980 -0.4387  1.7864
 5298SOL    HW227528   3.963   1.091   3.878  2.5723  0.6179 -1.7532
 5299SOL     OW27529   3.929   0.396   1.165  0.3378 -0.9137  0.2961
 5299SOL    HW127530   3.965   0.313   1.134 -0.5482 -0.6171 -1.4977
 5299SOL    HW227531   3.966   0.394   1.254  0.3634  0.8425  0.3311
 5300SOL     OW27532   0.838   3.302  17.354  0.0078 -0.2516  0.0926
 5300SOL    HW127533   0.771   3.254  17.306 -0.0489  0.3666 -0.4461
 5300SOL    HW227534   0.903   3.298  17.284  0.4277 -0.5014  0.4974
 5301SOL     OW27535   1.785   1.521   2.393 -0.2432  0.4604 -0.4716
 5301SOL    HW127536   1.823   1.573   2.464 -1.9163  0.3059  0.5317
 5301SOL    HW227537   1.805   1.576   2.318  2.3583  0.8082  0.4549
 5302SOL     OW27538   0.738   0.623   9.296 -0.0786  0.0280 -0.0769
 5302SOL    HW127539   0.701   0.610   9.208  0.7592 -0.4806 -0.3562
 5302SOL    HW227540   0.721   0.715   9.315 -0.4828 -0.4991  2.1194
 5303SOL     OW27541   2.911   0.403   8.701  0.6548 -0.7083 -0.2881
 5303SOL    HW127542   2.990   0.456   8.691  0.0190  0.4601  0.9435
 5303SOL    HW227543   2.929   0.368   8.788 -0.6827 -1.6326 -0.3788
 5304SOL     OW27544   3.290   4.612   8.582 -0.6749  0.3933 -0.6262
 5304SOL    HW127545   3.372   4.580   8.544 -1.0424 -1.6994  0.3424
 5304SOL    HW227546   3.249   4.654   8.506  0.0841 -0.0590 -1.2733
 5305SOL     OW27547   3.091   0.864   1.624  0.3080  0.5986  0.2244
 5305SOL    HW127548   2.995   0.860   1.623  0.4145 -0.9924 -1.3277
 5305SOL    HW227549   3.101   0.960   1.621  0.0825  0.6488  0.9556
 5306SOL     OW27550   2.719   3.486   2.069  0.1116 -0.0976  0.5630
 5306SOL    HW127551   2.804   3.481   2.113  0.1870  0.8116  0.5070
 5306SOL    HW227552   2.678   3.556   2.120 -0.3757  0.2455 -0.2938
 5307SOL     OW27553   3.025   4.111  11.174  0.3593 -0.0360 -0.3385
 5307SOL    HW127554   3.076   4.074  11.246 -0.8908  0.6858  0.8953
 5307SOL    HW227555   3.074   4.074  11.100  0.4665 -1.9710  0.7294
 5308SOL     OW27556   1.895   1.708   3.311  0.4833 -0.2618 -0.3013
 5308SOL    HW127557   1.800   1.722   3.305  0.4891 -0.5602 -1.0166
 5308SOL    HW227558   1.917   1.775   3.375 -2.8614  1.4129 -0.8835
 5309SOL     OW27559   4.561   2.570   1.078  0.2949 -0.0646  0.3148
 5309SOL    HW127560   4.634   2.508   1.070  0.1399  0.0558 -2.3266
 5309SOL    HW227561   4.488   2.511   1.093 -0.3072  0.3783 -0.8813
 5310SOL     OW27562   1.803   1.645   7.850  0.7115  0.1544  0.3100
 5310SOL    HW127563   1.738   1.587   7.811 -1.6036  2.1641  1.1811
 5310SOL    HW227564   1.799   1.620   7.942  0.1508  1.9088  0.7694
 5311SOL     OW27565   1.086   2.327   2.561 -0.5432 -0.2497 -0.9125
 5311SOL    HW127566   1.085   2.411   2.515 -2.2510  0.3335  0.1756
 5311SOL    HW227567   1.050   2.259   2.505 -0.8427  0.8404 -2.0372
 5312SOL     OW27568   0.413   1.461  11.798 -0.4526 -0.1179 -0.4466
 5312SOL    HW127569   0.500   1.439  11.832 -1.0191  0.8681  1.6016
 5312SOL    HW227570   0.422   1.553  11.775  0.4135 -0.5866 -1.9896
 5313SOL     OW27571   3.127   4.084   6.028 -0.2565  0.3869 -0.2573
 5313SOL    HW127572   3.185   4.117   5.959 -0.7508  2.0253  0.1163
 5313SOL    HW227573   3.087   4.166   6.058 -1.5154 -0.3364  0.0483
 5314SOL     OW27574   1.169   3.586   4.966  0.1789 -0.1542  0.4686
 5314SOL    HW127575   1.141   3.622   5.050 -1.0344 -0.9433  0.4034
 5314SOL    HW227576   1.253   3.547   4.989  0.9632  1.3287  0.1194
 5315SOL     OW27577   0.313   2.299   4.473  0.3130 -0.0457 -0.0606
 5315SOL    HW127578   0.293   2.389   4.447  0.1469 -0.3636 -1.0355
 5315SOL    HW227579   0.307   2.296   4.568 -0.4290  1.0638 -0.0753
 5316SOL     OW27580   0.798   2.947   5.989 -0.3247  0.4209  0.2054
 5316SOL    HW127581   0.703   2.949   6.001 -0.4540  0.0832 -0.7507
 5316SOL    HW227582   0.832   2.993   6.065 -1.6453  2.2025 -0.2773
 5317SOL     OW27583   0.669   0.331   7.746  0.2885  0.0864 -0.5611
 5317SOL    HW127584   0.689   0.350   7.654  1.0774  1.8287 -0.0213
 5317SOL    HW227585   0.677   0.236   7.758 -1.9394  0.0471  0.6720
 5318SOL     OW27586   0.591   2.619  17.166 -0.6593  0.5523  0.4813
 5318SOL    HW127587   0.643   2.682  17.117  0.2536 -0.5883 -0.0332
 5318SOL    HW227588   0.640   2.594  17.244 -0.6092 -2.2853 -0.4557
 5319SOL     OW27589   3.405   1.401   2.446  0.4467  0.2133  0.1920
 5319SOL    HW127590   3.341   1.464   2.480 -2.8380 -2.8184 -0.3175
 5319SOL    HW227591   3.372   1.413   2.356  0.0462 -0.1505  0.2899
 5320SOL     OW27592   2.655   1.603  12.325 -0.4953 -0.3901 -0.6185
 5320SOL    HW127593   2.681   1.605  12.233  0.0422  2.3614 -0.4302
 5320SOL    HW227594   2.563   1.581  12.315 -0.2787 -0.2974 -2.7957
 5321SOL     OW27595   3.818   1.571   5.446 -0.5504 -0.5455 -0.3471
 5321SOL    HW127596   3.748   1.633   5.433  0.6701  0.3108 -2.7905
 5321SOL    HW227597   3.863   1.605   5.524 -1.4240  2.5571 -1.2086
 5322SOL     OW27598   0.490   3.036   2.171 -0.2385  0.1033  0.0910
 5322SOL    HW127599   0.471   2.955   2.219 -1.4930  0.6318  0.4810
 5322SOL    HW227600   0.585   3.042   2.185 -0.5096  1.0539  1.5025
 5323SOL     OW27601   0.245   3.818   4.305  0.6651  1.0761 -0.3979
 5323SOL    HW127602   0.335   3.810   4.275 -0.1164 -2.8954 -1.7845
 5323SOL    HW227603   0.197   3.854   4.230 -1.6289 -0.1395  0.4685
 5324SOL     OW27604   4.449   4.358   5.024  0.0364 -0.1061 -0.8050
 5324SOL    HW127605   4.412   4.270   5.023 -2.7568  1.0535  0.7283
 5324SOL    HW227606   4.374   4.398   4.980 -0.3668  1.1910  1.0316
 5325SOL     OW27607   3.512   1.602   6.589 -0.3142  0.0047 -0.1177
 5325SOL    HW127608   3.538   1.686   6.551  3.1740 -1.5573 -1.2018
 5325SOL    HW227609   3.542   1.612   6.679  1.6190 -0.3472 -0.7156
 5326SOL     OW27610   0.206   3.100   3.076  0.4736  0.1086  0.3071
 5326SOL    HW127611   0.239   3.184   3.106  0.4237  0.5314 -0.8361
 5326SOL    HW227612   0.192   3.051   3.157 -1.8460  2.7279  1.4914
 5327SOL     OW27613   4.627   4.606   5.105 -0.4248 -0.0573  0.7091
 5327SOL    HW127614   4.684   4.651   5.043  1.3999 -0.9062  1.7633
 5327SOL    HW227615   4.570   4.562   5.042 -0.0748 -1.8562  1.6303
 5328SOL     OW27616   1.599   3.853   5.153 -0.3616 -0.1925 -1.3873
 5328SOL    HW127617   1.581   3.942   5.123 -0.9000  0.9913  2.4399
 5328SOL    HW227618   1.653   3.823   5.080  0.6316 -1.7819  0.0011
 5329SOL     OW27619   3.066   1.249   7.329  0.4129 -0.4028  0.3646
 5329SOL    HW127620   3.128   1.189   7.369 -0.3146 -2.3830 -1.4554
 5329SOL    HW227621   2.984   1.202   7.344  1.9396 -3.5221 -1.0008
 5330SOL     OW27622   1.930   4.649  15.475  0.1914 -0.0206  0.3331
 5330SOL    HW127623   1.994   4.643  15.404  0.2455 -1.0740  0.4740
 5330SOL    HW227624   1.882   4.566  15.479 -0.3652  0.1902 -2.0021
 5331SOL     OW27625   2.403   4.001   0.510 -0.0044  0.3677  0.5775
 5331SOL    HW127626   2.468   4.069   0.495 -0.7693  0.9736  0.0517
 5331SOL    HW227627   2.454   3.927   0.474 -0.2251  0.3485  0.3100
 5332SOL     OW27628   4.166   3.935   8.885  0.0664  0.0103 -0.1776
 5332SOL    HW127629   4.199   3.876   8.817  0.7207  1.9547 -1.5486
 5332SOL    HW227630   4.179   3.876   8.959 -1.6075  0.4084  0.4368
 5333SOL     OW27631   2.771   1.185   7.937  0.1908  0.4656  0.1265
 5333SOL    HW127632   2.738   1.262   7.891  1.1266  1.1245  0.5754
 5333SOL    HW227633   2.817   1.232   8.006 -0.1708  0.0001  0.6812
 5334SOL     OW27634   0.786   3.396  17.602 -0.1572 -0.5789 -0.3291
 5334SOL    HW127635   0.795   3.349  17.519 -0.0346 -3.2536  1.1705
 5334SOL    HW227636   0.876   3.408  17.631  0.5398 -0.2610 -2.6417
 5335SOL     OW27637   3.031   2.023  15.784 -0.2756  0.2613 -0.3695
 5335SOL    HW127638   3.056   1.997  15.872  2.4103 -0.2205 -1.2725
 5335SOL    HW227639   3.078   2.105  15.769 -0.6544  0.8883  1.9035
 5336SOL     OW27640   0.194   2.533  13.529 -0.6469 -0.1440  0.2186
 5336SOL    HW127641   0.229   2.623  13.526 -2.7622  0.6705  0.0061
 5336SOL    HW227642   0.270   2.475  13.535  1.6880  2.7366 -0.9390
 5337SOL     OW27643   2.962   4.427   3.535  0.2178 -0.1079  0.4654
 5337SOL    HW127644   3.029   4.464   3.477 -0.6176  0.1735 -0.3219
 5337SOL    HW227645   3.001   4.344   3.562 -1.4622 -0.0127  3.1767
 5338SOL     OW27646   2.842   2.443   5.564  0.0062  0.3464 -0.4324
 5338SOL    HW127647   2.778   2.410   5.627 -0.9800  0.5054 -1.3554
 5338SOL    HW227648   2.796   2.522   5.535  1.2845  1.3947  0.3731
 5339SOL     OW27649   2.657   2.655   2.086 -0.6189  0.4085  0.1833
 5339SOL    HW127650   2.590   2.610   2.033 -0.8884  3.1317 -1.8013
 5339SOL    HW227651   2.673   2.588   2.152  0.5213  0.9619  0.4508
 5340SOL     OW27652   0.034   1.104   3.009  0.5013 -0.0170  0.4827
 5340SOL    HW127653   0.100   1.059   2.955 -0.5201 -0.7714 -0.1235
 5340SOL    HW227654   0.020   1.193   2.976 -2.5518 -0.7764 -0.1849
 5341SOL     OW27655   0.122   3.749  15.106  0.6761 -0.1168 -0.1665
 5341SOL    HW127656   0.077   3.673  15.143 -1.6697  1.8327  1.0628
 5341SOL    HW227657   0.054   3.788  15.051  1.4114  1.5239  0.0975
 5342SOL     OW27658   1.234   1.482   1.904  0.4923 -0.2375 -0.3099
 5342SOL    HW127659   1.259   1.405   1.954  2.3602  1.1172  0.8372
 5342SOL    HW227660   1.222   1.440   1.819 -0.7104  1.4305 -0.9735
 5343SOL     OW27661   1.003   0.326   6.671  0.0044 -1.0284  0.3565
 5343SOL    HW127662   1.020   0.237   6.700  1.8300 -0.6588  0.3925
 5343SOL    HW227663   1.034   0.379   6.745  2.2102 -1.1724 -0.4756
 5344SOL     OW27664   3.501   1.456   2.123 -0.2800  0.3009 -0.0033
 5344SOL    HW127665   3.452   1.422   2.048  0.0237  0.1327 -0.1231
 5344SOL    HW227666   3.590   1.462   2.089 -0.9505  3.2681 -1.2202
 5345SOL     OW27667   4.203   2.523  11.635 -0.4149  0.6823  0.1821
 5345SOL    HW127668   4.160   2.540  11.719 -0.2204 -2.1659  0.8904
 5345SOL    HW227669   4.255   2.445  11.658 -2.4181 -0.4684  0.9033
 5346SOL     OW27670   3.324   0.320  16.982 -0.1096  0.0309 -0.4151
 5346SOL    HW127671   3.288   0.403  17.011  0.6310  0.1139  0.2670
 5346SOL    HW227672   3.386   0.353  16.916 -2.0780  6.0106  0.7294
 5347SOL     OW27673   4.735   1.641   0.338  0.2890 -0.0014  0.2106
 5347SOL    HW127674   0.009   1.662   0.245 -0.3254  1.4014  0.4403
 5347SOL    HW227675   4.725   1.546   0.338  0.0181  0.0254  0.5647
 5348SOL     OW27676   3.728   1.810   5.820  0.2316 -0.3485 -0.4242
 5348SOL    HW127677   3.661   1.824   5.887 -0.9048  1.8908 -2.0229
 5348SOL    HW227678   3.689   1.740   5.769 -0.4669 -1.1646  1.2281
 5349SOL     OW27679   1.909   1.788  12.215  0.1143  0.0166 -0.2023
 5349SOL    HW127680   1.992   1.744  12.232 -0.1752 -0.0671  1.0189
 5349SOL    HW227681   1.946   1.876  12.207 -0.4748  0.2032 -0.9061
 5350SOL     OW27682   1.633   0.713   6.667  0.3719  0.1128 -0.4293
 5350SOL    HW127683   1.684   0.660   6.606  1.0119 -0.6934  0.8126
 5350SOL    HW227684   1.708   0.753   6.712  0.4255 -0.3539 -0.0984
 5351SOL     OW27685   4.277   1.240  15.691  0.2129  0.4150 -0.2097
 5351SOL    HW127686   4.321   1.261  15.773 -0.3626 -0.0800  0.2192
 5351SOL    HW227687   4.326   1.159  15.675  3.1085  2.2140 -0.5129
 5352SOL     OW27688   4.628   4.673  10.426  0.2400 -0.0376 -0.0731
 5352SOL    HW127689   4.565   0.003  10.448 -1.0003 -1.3259  0.3782
 5352SOL    HW227690   4.569   4.604  10.396  1.3542  0.0180 -2.3815
 5353SOL     OW27691   4.617   3.757   6.914 -0.4672  0.5917  0.2374
 5353SOL    HW127692   4.593   3.718   6.998  0.0170 -3.5098 -1.5583
 5353SOL    HW227693   4.647   3.844   6.941  1.5472  0.7321 -2.5601
 5354SOL     OW27694   1.590   1.703   3.283 -0.1764 -0.3791 -0.0093
 5354SOL    HW127695   1.495   1.696   3.288 -0.2358 -0.0892 -0.7678
 5354SOL    HW227696   1.601   1.739   3.371 -0.1238  0.4798 -0.3650
 5355SOL     OW27697   3.945   0.855   1.235  0.0711  0.4793 -0.1044
 5355SOL    HW127698   3.955   0.850   1.331 -2.9903  0.8446  0.2106
 5355SOL    HW227699   3.886   0.785   1.210  2.4252 -2.3827  2.3770
 5356SOL     OW27700   2.542   0.810   2.006 -0.0401  0.3410 -0.6200
 5356SOL    HW127701   2.632   0.796   1.975  0.0982 -0.8930  0.3514
 5356SOL    HW227702   2.519   0.727   2.047  0.9239  0.5039  0.2607
 5357SOL     OW27703   4.382   2.377   1.040  0.2944  0.1865 -0.1997
 5357SOL    HW127704   4.434   2.302   1.070 -1.5795 -0.2821  1.8654
 5357SOL    HW227705   4.337   2.387   1.124  0.2132  1.9389 -0.4589
 5358SOL     OW27706   2.489   2.884  10.036 -0.1390  0.0286 -0.1824
 5358SOL    HW127707   2.425   2.823   9.999 -1.9017  1.0786  1.1514
 5358SOL    HW227708   2.505   2.850  10.124 -1.1643  1.9394  0.7542
 5359SOL     OW27709   2.861   4.553   6.828 -0.4911 -0.3310  0.4682
 5359SOL    HW127710   2.775   4.593   6.842 -0.8086 -0.7163 -0.3424
 5359SOL    HW227711   2.846   4.458   6.831 -0.3534 -0.3803 -0.6202
 5360SOL     OW27712   0.856   4.345   2.357 -0.6060  0.1971 -0.4705
 5360SOL    HW127713   0.949   4.320   2.356 -0.4370  0.7683  1.2034
 5360SOL    HW227714   0.835   4.312   2.270  1.4909 -0.1461 -0.8584
 5361SOL     OW27715   2.441   3.162  11.773 -0.0383  0.2870 -0.0581
 5361SOL    HW127716   2.349   3.142  11.787  0.1891 -0.4623  0.3488
 5361SOL    HW227717   2.436   3.255  11.752 -0.2000  0.5977  1.3853
 5362SOL     OW27718   2.717   3.349   0.488  0.7720 -0.5798  0.4718
 5362SOL    HW127719   2.718   3.358   0.392  1.1022 -1.7545  0.3615
 5362SOL    HW227720   2.648   3.409   0.514  0.9614 -1.1765  2.3438
 5363SOL     OW27721   0.654   2.181   9.157 -0.8356 -0.0422  0.1928
 5363SOL    HW127722   0.561   2.185   9.176 -0.8333  0.5018  0.0961
 5363SOL    HW227723   0.692   2.173   9.244 -0.1815 -0.1868 -0.1073
 5364SOL     OW27724   1.976   2.948   2.237 -0.0343  0.3492 -0.4058
 5364SOL    HW127725   1.901   2.893   2.211  1.1631 -1.2080 -0.5904
 5364SOL    HW227726   1.953   3.033   2.200 -0.0311 -0.8348 -3.1517
 5365SOL     OW27727   1.146   2.529   2.918  0.6975  0.2042 -0.1654
 5365SOL    HW127728   1.087   2.513   2.845 -2.2101  2.4470  1.7159
 5365SOL    HW227729   1.192   2.445   2.913  0.9921  0.3353  0.2861
 5366SOL     OW27730   0.817   0.510   1.874 -0.0630 -0.2168 -0.0271
 5366SOL    HW127731   0.842   0.591   1.829 -3.4927  0.5293 -0.6285
 5366SOL    HW227732   0.905   0.478   1.896 -0.2566 -1.1855 -0.6252
 5367SOL     OW27733   3.322   4.311   6.282 -0.4880 -0.4180  0.5970
 5367SOL    HW127734   3.288   4.383   6.334  0.1959 -0.1666  0.7008
 5367SOL    HW227735   3.288   4.241   6.338 -1.5993 -0.8934 -0.6851
 5368SOL     OW27736   0.833   1.741  12.628  0.7358  0.1489 -0.0406
 5368SOL    HW127737   0.889   1.757  12.704  0.8959 -1.7650  0.2274
 5368SOL    HW227738   0.899   1.717  12.563  1.0153 -1.7508  0.9411
 5369SOL     OW27739   0.713   4.695  12.164  0.4200  0.0634  0.3313
 5369SOL    HW127740   0.732   4.714  12.256 -0.5264 -0.7732  0.6962
 5369SOL    HW227741   0.641   0.018  12.151 -0.2675 -1.1539 -1.5594
 5370SOL     OW27742   2.193   3.776   8.297 -0.1082  1.0215  0.3621
 5370SOL    HW127743   2.241   3.754   8.216  1.5289 -0.4515  1.7196
 5370SOL    HW227744   2.221   3.694   8.339 -0.5463  0.9225  0.4542
 5371SOL     OW27745   0.631   3.514   8.101  0.0623  0.3179 -0.0964
 5371SOL    HW127746   0.659   3.599   8.066  1.5775 -0.3135 -0.3953
 5371SOL    HW227747   0.636   3.458   8.024 -0.3522 -1.5757  1.2505
 5372SOL     OW27748   4.517   4.602   8.846  0.4198 -0.0629 -0.9489
 5372SOL    HW127749   4.451   4.545   8.886 -0.6171  0.3744 -2.0152
 5372SOL    HW227750   4.476   4.686   8.866 -0.9881 -1.5753  2.4970
 5373SOL     OW27751   2.232   1.572   7.896 -0.0744  0.7007  0.6743
 5373SOL    HW127752   2.297   1.591   7.964  0.3162 -0.1453  0.5459
 5373SOL    HW227753   2.270   1.584   7.809  0.1757 -1.4230  0.4863
 5374SOL     OW27754   2.578   1.918   0.915  0.4679 -0.4331  0.4741
 5374SOL    HW127755   2.527   1.912   0.995 -0.2537  0.9094  0.1058
 5374SOL    HW227756   2.519   1.980   0.872  0.7771 -1.2834 -1.2002
 5375SOL     OW27757   0.724   2.077   6.835  0.1623  0.3140 -0.0225
 5375SOL    HW127758   0.643   2.112   6.873 -0.4086 -1.5021  0.4267
 5375SOL    HW227759   0.787   2.066   6.906 -1.5861  0.2323  1.4987
 5376SOL     OW27760   4.504   3.454  11.873  0.1104 -0.2732 -0.1502
 5376SOL    HW127761   4.527   3.443  11.965 -0.5678 -2.6295 -0.2840
 5376SOL    HW227762   4.579   3.508  11.845 -0.1263  1.1929  1.9986
 5377SOL     OW27763   0.351   2.591   8.709  0.4950 -0.2445  0.0521
 5377SOL    HW127764   0.333   2.566   8.799  2.2951 -0.5001  0.3290
 5377SOL    HW227765   0.363   2.507   8.664 -2.6848 -1.6549  1.8421
 5378SOL     OW27766   2.238   0.951   9.421 -0.4255 -0.2490  0.2080
 5378SOL    HW127767   2.321   0.928   9.464  0.1906 -0.6015 -1.1798
 5378SOL    HW227768   2.248   0.899   9.342  1.1918  1.1550 -0.5154
 5379SOL     OW27769   3.323   1.205   7.857 -0.3949  0.3691  0.0075
 5379SOL    HW127770   3.333   1.146   7.931 -0.4502  2.2801  1.5270
 5379SOL    HW227771   3.256   1.162   7.803  2.5503 -1.9331 -1.8104
 5380SOL     OW27772   0.970   3.988   4.551 -0.1423  0.2554  0.2485
 5380SOL    HW127773   0.922   4.070   4.552 -1.1051 -0.2743 -1.8295
 5380SOL    HW227774   1.027   4.009   4.477 -1.3436  0.9312 -0.4788
 5381SOL     OW27775   4.517   3.939   8.986 -0.7297 -0.4249 -0.2158
 5381SOL    HW127776   4.549   4.028   8.973  0.7177 -1.2314 -2.1819
 5381SOL    HW227777   4.532   3.900   8.900  2.4121 -0.3282  0.2883
 5382SOL     OW27778   4.385   2.323   9.295 -0.0723 -0.9121  0.1755
 5382SOL    HW127779   4.437   2.332   9.375 -2.9061  1.2690  1.7542
 5382SOL    HW227780   4.447   2.371   9.240 -2.1468  0.3478 -1.0814
 5383SOL     OW27781   2.592   0.765   7.965  0.5630 -0.5019  0.0158
 5383SOL    HW127782   2.528   0.760   8.036  2.3044 -0.8040  1.5789
 5383SOL    HW227783   2.551   0.733   7.885  0.4804  0.1243 -0.1894
 5384SOL     OW27784   4.009   3.991   3.507  0.6059 -0.3463  0.3524
 5384SOL    HW127785   3.917   3.967   3.494  0.4733  0.4848 -0.2380
 5384SOL    HW227786   4.055   3.936   3.444 -1.2890 -1.0191 -0.4650
 5385SOL     OW27787   0.106   4.724   6.801  0.1451  0.3848  0.4542
 5385SOL    HW127788   0.157   4.652   6.839  1.2977  0.9036 -0.0988
 5385SOL    HW227789   0.033   4.674   6.767  0.3651  0.2595  0.1627
 5386SOL     OW27790   2.492   1.705  17.156 -0.1259  0.0979  0.4473
 5386SOL    HW127791   2.472   1.644  17.084  2.2598 -0.5435  0.3334
 5386SOL    HW227792   2.585   1.687  17.164  0.1306  2.0180  1.7751
 5387SOL     OW27793   0.896   2.406  14.432 -0.1277 -0.4424  0.0652
 5387SOL    HW127794   0.800   2.404  14.428 -0.0857  0.5618 -1.6085
 5387SOL    HW227795   0.928   2.316  14.427  0.6009 -0.3237  2.6696
 5388SOL     OW27796   1.224   4.423   7.251 -0.0955 -0.2455  0.0877
 5388SOL    HW127797   1.294   4.418   7.186  1.0769 -0.7212  1.3810
 5388SOL    HW227798   1.220   4.518   7.259 -4.8249 -0.4131 -0.3299
 5389SOL     OW27799   3.594   3.754   2.676 -0.1239  0.1619 -0.4120
 5389SOL    HW127800   3.687   3.754   2.654 -0.3912 -2.4025 -1.5349
 5389SOL    HW227801   3.597   3.766   2.771  0.5793 -1.6685 -0.1970
 5390SOL     OW27802   0.860   1.836   3.158 -0.2208  0.3039  0.2957
 5390SOL    HW127803   0.874   1.747   3.189  1.1613 -0.0712 -1.3999
 5390SOL    HW227804   0.780   1.856   3.206 -0.5002  2.4807 -1.0906
 5391SOL     OW27805   2.599   2.820   5.252  0.4435  0.0513 -0.5116
 5391SOL    HW127806   2.634   2.769   5.325 -0.2553 -1.2908 -1.1227
 5391SOL    HW227807   2.627   2.909   5.274  0.9923 -0.6416  1.6075
 5392SOL     OW27808   2.227   0.219   6.300  0.4944 -0.0201  0.0009
 5392SOL    HW127809   2.276   0.191   6.223 -0.9793  0.7962 -1.2514
 5392SOL    HW227810   2.192   0.297   6.256  2.6715 -0.2528 -2.1067
 5393SOL     OW27811   0.614   4.522   2.647 -0.3499  0.5986  0.3092
 5393SOL    HW127812   0.674   4.596   2.656  1.7064 -1.2613  1.8435
 5393SOL    HW227813   0.558   4.525   2.725  1.3869 -1.4329  1.6383
 5394SOL     OW27814   3.885   3.173   2.541 -0.1236 -0.3610 -0.4437
 5394SOL    HW127815   3.809   3.188   2.485 -0.5512  0.4952  0.3541
 5394SOL    HW227816   3.842   3.141   2.621 -0.3629 -1.0385 -0.8462
 5395SOL     OW27817   3.584   0.928   4.125 -0.2005  0.5484 -0.5285
 5395SOL    HW127818   3.647   0.912   4.195 -0.9154  3.6049  0.8312
 5395SOL    HW227819   3.633   1.001   4.085  0.6195  0.6609  0.6724
 5396SOL     OW27820   0.157   1.805   2.176 -0.0756  0.8165 -0.1077
 5396SOL    HW127821   0.110   1.732   2.216  0.7139  0.8822  0.9136
 5396SOL    HW227822   0.097   1.873   2.207  0.1716  0.6481  0.7158
 5397SOL     OW27823   0.057   1.877   2.451  0.1928 -0.2809 -0.4053
 5397SOL    HW127824   0.096   1.914   2.530 -1.6028 -2.6761  1.6040
 5397SOL    HW227825   0.073   1.783   2.455  0.4272 -0.2688 -1.1427
 5398SOL     OW27826   0.698   1.559   9.916 -0.1559 -0.4485 -0.0720
 5398SOL    HW127827   0.787   1.550   9.884  0.5376  2.0910  1.1303
 5398SOL    HW227828   0.690   1.481   9.971  1.5588  0.3650  1.3286
 5399SOL     OW27829   3.723   2.829   8.701  0.0728 -0.2403 -0.1401
 5399SOL    HW127830   3.658   2.855   8.767 -0.7214 -0.4099 -0.8494
 5399SOL    HW227831   3.795   2.893   8.699 -1.5053  1.4975 -1.5432
 5400SOL     OW27832   1.948   3.360  11.687 -0.4626 -0.1552  0.3290
 5400SOL    HW127833   1.976   3.280  11.643  0.5264 -0.7971  2.1507
 5400SOL    HW227834   1.909   3.408  11.613  2.8745  1.1073 -0.6068
 5401SOL     OW27835   1.927   2.056   1.766  0.0082 -0.4520 -0.1234
 5401SOL    HW127836   1.897   2.146   1.772  0.8873 -0.1706  0.1048
 5401SOL    HW227837   1.849   2.010   1.797 -0.8309  1.1746  0.1552
 5402SOL     OW27838   2.828   1.869  17.096  0.1709  0.4331  0.2405
 5402SOL    HW127839   2.914   1.854  17.136  0.0879 -0.9924 -0.1360
 5402SOL    HW227840   2.785   1.784  17.103 -1.0195  0.8134 -2.3941
 5403SOL     OW27841   4.303   2.910  14.655 -0.1128  0.4067  0.1023
 5403SOL    HW127842   4.340   2.959  14.582  1.0269 -0.5548  0.0391
 5403SOL    HW227843   4.258   2.840  14.608  0.7258 -0.3420  0.4240
 5404SOL     OW27844   0.685   3.187   4.231 -0.1589  0.4998 -0.4661
 5404SOL    HW127845   0.658   3.182   4.140  0.9484 -0.8783 -0.7159
 5404SOL    HW227846   0.775   3.210   4.210  0.2081 -0.0143  0.5570
 5405SOL     OW27847   3.871   0.258   8.876  0.0966 -0.3199  0.1358
 5405SOL    HW127848   3.837   0.251   8.965  1.1227 -0.2401  0.5268
 5405SOL    HW227849   3.894   0.351   8.874  2.4500 -0.8394  3.3260
 5406SOL     OW27850   3.665   2.928   5.968 -0.8401 -0.3376  0.6385
 5406SOL    HW127851   3.686   2.977   5.889  2.2890 -0.7388  1.1936
 5406SOL    HW227852   3.752   2.902   5.998 -0.2369  0.2577 -0.6064
 5407SOL     OW27853   1.868   1.701   7.255 -0.0401  0.4325 -0.4836
 5407SOL    HW127854   1.936   1.765   7.274 -0.1200 -0.0430  1.4434
 5407SOL    HW227855   1.904   1.623   7.298  2.5993  3.1413  2.2267
 5408SOL     OW27856   4.656   0.596   8.715  0.0322 -0.0125 -0.4581
 5408SOL    HW127857   4.700   0.645   8.784  1.1024  0.8293 -1.7391
 5408SOL    HW227858   4.699   0.511   8.726  0.8889  0.6069  0.9034
 5409SOL     OW27859   4.540   2.379   2.583  0.3130  0.4258 -0.0305
 5409SOL    HW127860   4.594   2.300   2.588 -1.8621 -0.9709  1.3336
 5409SOL    HW227861   4.476   2.359   2.651  2.3642 -0.3817  1.6538
 5410SOL     OW27862   3.443   0.271   7.558 -0.0980 -0.0736  0.6637
 5410SOL    HW127863   3.434   0.193   7.504 -1.7500  3.0322 -3.6013
 5410SOL    HW227864   3.426   0.243   7.648 -0.4568 -1.7246  0.0715
 5411SOL     OW27865   1.451   4.485   4.699 -0.1853  0.0085  0.0253
 5411SOL    HW127866   1.486   4.499   4.787 -2.5452  0.4355  0.9001
 5411SOL    HW227867   1.360   4.467   4.722 -0.2907 -0.3559 -0.6670
 5412SOL     OW27868   2.929   1.206  14.387 -0.3000 -0.0525  0.4758
 5412SOL    HW127869   2.848   1.234  14.431 -0.3687  1.1640 -0.4179
 5412SOL    HW227870   2.934   1.112  14.403 -2.9566 -0.1748  0.5784
 5413SOL     OW27871   1.649   0.642   3.857 -0.0378  0.5604 -0.0676
 5413SOL    HW127872   1.630   0.556   3.820  0.3729  0.9041 -1.0875
 5413SOL    HW227873   1.743   0.645   3.875 -0.5576  1.5360  2.5804
 5414SOL     OW27874   3.481   2.559   1.488  0.4410  0.3405  0.2356
 5414SOL    HW127875   3.509   2.587   1.401  1.3438 -1.9898 -0.2263
 5414SOL    HW227876   3.426   2.631   1.520 -2.7963 -1.3343 -1.4820
 5415SOL     OW27877   4.477   0.933  10.367  0.0787 -0.4944 -0.5299
 5415SOL    HW127878   4.542   0.867  10.391 -0.5818 -2.0442 -3.0165
 5415SOL    HW227879   4.429   0.881  10.302 -1.5186  2.3540 -1.6516
 5416SOL     OW27880   3.221   2.469   1.677  0.0582  0.2565  0.0139
 5416SOL    HW127881   3.242   2.557   1.647 -0.7569  0.6823  0.6908
 5416SOL    HW227882   3.306   2.439   1.707  1.6855  2.3425 -2.4503
 5417SOL     OW27883   0.889   4.029   2.343 -0.0260 -0.4823 -0.1651
 5417SOL    HW127884   0.970   4.079   2.343 -0.6266  0.4709 -2.2465
 5417SOL    HW227885   0.855   4.033   2.433  0.1445 -0.3183 -0.1093
 5418SOL     OW27886   1.917   3.360   8.734  0.3912  0.1909  0.2900
 5418SOL    HW127887   1.966   3.279   8.718 -0.5525 -0.8088  2.4128
 5418SOL    HW227888   1.830   3.321   8.723 -0.0907  1.6297 -1.0195
 5419SOL     OW27889   0.564   4.166   8.336 -0.4250 -0.4483 -0.4150
 5419SOL    HW127890   0.548   4.216   8.256  0.9543  1.9505  0.7706
 5419SOL    HW227891   0.577   4.241   8.395  1.1603 -1.0881  0.0553
 5420SOL     OW27892   1.149   1.824   4.365 -0.3896  0.3293  0.0488
 5420SOL    HW127893   1.072   1.857   4.412 -0.6725 -0.9796  0.5201
 5420SOL    HW227894   1.211   1.824   4.438  0.2117 -3.0742 -0.4599
 5421SOL     OW27895   2.207   2.177   8.295  0.0123  0.6086  0.3115
 5421SOL    HW127896   2.260   2.243   8.342  1.4488 -1.8058  2.0833
 5421SOL    HW227897   2.157   2.237   8.240  0.3687  1.0208  0.4325
 5422SOL     OW27898   0.287   3.102  14.111  0.0196  0.0063 -0.1923
 5422SOL    HW127899   0.373   3.063  14.104  0.0817 -0.6186  4.0910
 5422SOL    HW227900   0.237   3.055  14.177  0.4518 -0.7076 -0.3725
 5423SOL     OW27901   0.344   3.645   7.457 -0.3926 -0.3911 -0.3269
 5423SOL    HW127902   0.299   3.700   7.394 -1.9293  0.0231  1.1298
 5423SOL    HW227903   0.350   3.558   7.418  1.1159  0.2664 -1.5290
 5424SOL     OW27904   0.772   1.666  11.621  0.3566  0.4001  0.2535
 5424SOL    HW127905   0.730   1.602  11.563  2.4832  0.7686 -1.7130
 5424SOL    HW227906   0.691   1.711  11.645  0.9668  1.0464  1.1261
 5425SOL     OW27907   2.032   1.787   5.642  0.0081  0.2071 -0.0867
 5425SOL    HW127908   2.072   1.801   5.728 -0.5853  0.9893  0.0641
 5425SOL    HW227909   1.939   1.773   5.664  0.0840  1.8542  1.2570
 5426SOL     OW27910   4.037   4.241  15.036 -0.1254 -0.0931 -0.6467
 5426SOL    HW127911   4.004   4.236  14.946 -1.6319  2.3051 -0.1969
 5426SOL    HW227912   4.117   4.293  15.028 -0.1752  0.3806  2.0172
 5427SOL     OW27913   0.690   2.387  12.560  0.6000 -0.2080 -0.6258
 5427SOL    HW127914   0.672   2.439  12.481 -0.5957  0.4085  0.0545
 5427SOL    HW227915   0.784   2.381  12.542  0.0663  0.6345 -3.6402
 5428SOL     OW27916   1.747   2.987  10.661 -0.4534 -0.3425 -0.2970
 5428SOL    HW127917   1.743   2.905  10.611  3.3178 -1.2929  0.9839
 5428SOL    HW227918   1.699   3.052  10.609 -2.3801 -1.3960  0.1522
 5429SOL     OW27919   4.160   3.333   7.799  0.1267  0.4360 -0.0685
 5429SOL    HW127920   4.086   3.287   7.837  0.9464 -0.2927  0.6281
 5429SOL    HW227921   4.182   3.394   7.869 -3.4402  1.1839  0.3855
 5430SOL     OW27922   3.490   0.363   6.089  0.2651 -0.0441  0.1999
 5430SOL    HW127923   3.504   0.447   6.046  0.4991 -0.1208  0.1301
 5430SOL    HW227924   3.409   0.369   6.140  0.2038  1.8316 -0.1033
 5431SOL     OW27925   2.098   2.062  12.449  0.7921 -0.2701  0.3682
 5431SOL    HW127926   2.070   2.071  12.358  1.7386 -2.1060 -0.1192
 5431SOL    HW227927   2.058   2.143  12.479  1.2112  0.2419 -0.4695
 5432SOL     OW27928   1.875   1.189   2.535 -0.2429 -0.3052  0.2313
 5432SOL    HW127929   1.951   1.240   2.561  1.1758 -0.2984 -3.9718
 5432SOL    HW227930   1.810   1.233   2.590 -1.6448 -0.7176 -1.0763
 5433SOL     OW27931   2.367   1.664   0.888 -0.5517 -0.5468  0.7903
 5433SOL    HW127932   2.420   1.713   0.952  2.0877 -1.3281 -0.7871
 5433SOL    HW227933   2.410   1.686   0.805  0.2728 -1.2417  1.0256
 5434SOL     OW27934   0.111   4.283   2.492 -0.3467  0.4857 -0.3718
 5434SOL    HW127935   0.141   4.267   2.582 -1.5136 -0.9961 -0.2367
 5434SOL    HW227936   0.182   4.344   2.470  0.3993 -1.1552 -2.4863
 5435SOL     OW27937   1.455   3.727  12.362  0.4211  0.6299 -0.0701
 5435SOL    HW127938   1.448   3.639  12.324  1.7792  1.7400 -2.8693
 5435SOL    HW227939   1.366   3.758  12.379  0.8146  1.0908  1.1355
 5436SOL     OW27940   3.021   0.739   7.669 -0.0725  0.0592 -0.7539
 5436SOL    HW127941   2.962   0.771   7.737  1.5915  1.4317  0.0267
 5436SOL    HW227942   3.040   0.653   7.707  0.8785  0.7611  0.3786
 5437SOL     OW27943   0.096   2.939   6.953 -0.5544 -0.0961  0.0711
 5437SOL    HW127944   0.061   3.010   6.899 -0.0760  1.1830  1.4407
 5437SOL    HW227945   0.029   2.922   7.019  2.4028 -1.0603  2.7649
 5438SOL     OW27946   1.038   3.696   6.547  0.3348  0.3527 -0.1578
 5438SOL    HW127947   1.024   3.714   6.454 -0.4846  2.5251  0.3762
 5438SOL    HW227948   0.971   3.629   6.559 -0.2313  1.3412  2.2505
 5439SOL     OW27949   2.154   4.104   1.586 -0.3169 -0.1123 -0.0560
 5439SOL    HW127950   2.220   4.136   1.647 -1.5996  2.2052  0.1273
 5439SOL    HW227951   2.205   4.030   1.552 -0.9719 -0.5804 -0.0175
 5440SOL     OW27952   3.436   1.443  10.958 -0.3169 -0.5235  0.1351
 5440SOL    HW127953   3.520   1.460  10.915  0.3963 -0.3756  1.5969
 5440SOL    HW227954   3.420   1.352  10.931  1.6660 -0.9849  0.5333
 5441SOL     OW27955   4.515   2.072  13.603  0.1017  0.1098 -0.2547
 5441SOL    HW127956   4.471   2.146  13.645  0.6383  0.6649 -0.6854
 5441SOL    HW227957   4.545   2.026  13.681 -1.1999  1.2908  0.9333
 5442SOL     OW27958   2.558   0.519   2.063 -0.3209  0.2425 -0.2341
 5442SOL    HW127959   2.626   0.473   2.014 -1.5680  0.2726 -2.0159
 5442SOL    HW227960   2.476   0.486   2.027  0.4425 -2.4216  0.5010
 5443SOL     OW27961   4.463   1.827   1.288 -0.0905  0.2199 -0.2435
 5443SOL    HW127962   4.424   1.830   1.200 -0.1602  0.8537 -0.1932
 5443SOL    HW227963   4.508   1.912   1.298  2.4131 -1.2950  1.2522
 5444SOL     OW27964   0.111   1.296   9.714  0.4228  0.3883 -0.2060
 5444SOL    HW127965   0.026   1.253   9.719  0.0101  1.4298  1.7038
 5444SOL    HW227966   0.155   1.230   9.661  1.4409  0.1932  0.8624
 5445SOL     OW27967   0.598   3.715   3.495 -0.3702  0.6841 -0.5360
 5445SOL    HW127968   0.514   3.670   3.491  0.5737 -1.0469 -1.0247
 5445SOL    HW227969   0.620   3.728   3.403 -1.5225  1.0305 -0.7643
 5446SOL     OW27970   4.080   4.586   1.613  0.0857 -0.0127  0.1112
 5446SOL    HW127971   4.077   4.509   1.556  0.7662  0.6835 -0.8586
 5446SOL    HW227972   4.069   4.655   1.547  0.3163 -1.1498 -1.1044
 5447SOL     OW27973   3.079   4.643   8.010  0.3738 -0.4348 -0.5306
 5447SOL    HW127974   3.018   4.715   7.994 -1.0977 -1.1616  1.8969
 5447SOL    HW227975   3.030   4.591   8.073  1.0449 -0.5257 -0.0798
 5448SOL     OW27976   4.737   0.009   1.447  0.6375  0.2124 -0.0011
 5448SOL    HW127977   4.702   4.678   1.504 -1.0315  0.7726 -0.3438
 5448SOL    HW227978   0.060   4.698   1.393  0.3817 -0.0051 -0.0931
 5449SOL     OW27979   3.552   2.932   2.543  0.1684 -0.5424  0.4702
 5449SOL    HW127980   3.463   2.898   2.546 -0.1577  0.2744  0.0895
 5449SOL    HW227981   3.599   2.865   2.494  0.1373 -1.0590  1.1393
 5450SOL     OW27982   1.375   3.452   3.761 -0.1885 -0.2527 -0.0827
 5450SOL    HW127983   1.417   3.509   3.697 -1.4324  1.9302  1.0389
 5450SOL    HW227984   1.449   3.409   3.804 -1.4671 -0.8579  1.4998
 5451SOL     OW27985   3.750   3.704  16.586 -0.7703 -0.0317  0.5020
 5451SOL    HW127986   3.701   3.672  16.510 -1.1527 -0.4569  0.9248
 5451SOL    HW227987   3.836   3.665  16.570  0.4150  3.4859 -1.6963
 5452SOL     OW27988   3.498   2.766   7.992 -0.2639  0.0249  0.7370
 5452SOL    HW127989   3.547   2.846   8.008 -1.8971  1.2539 -0.4408
 5452SOL    HW227990   3.485   2.720   8.075  0.1639  0.2775  0.9422
 5453SOL     OW27991   3.803   3.163   7.671 -0.4343 -0.4378 -0.3317
 5453SOL    HW127992   3.803   3.256   7.648  2.6145 -0.4506 -0.3296
 5453SOL    HW227993   3.713   3.167   7.703 -0.4165  0.0311 -0.3444
 5454SOL     OW27994   0.926   3.281   4.121 -0.0052  0.1497  0.0329
 5454SOL    HW127995   0.962   3.353   4.069 -0.3371 -1.1497 -1.9786
 5454SOL    HW227996   0.917   3.217   4.051  0.1876 -0.2602  0.3897
 5455SOL     OW27997   2.201   1.731  10.533  0.5384  0.6893 -0.1600
 5455SOL    HW127998   2.294   1.732  10.509  1.2603  0.5418  2.7162
 5455SOL    HW227999   2.200   1.821  10.564  0.6712  0.8574 -0.6386
 5456SOL     OW28000   0.207   1.597  16.804 -0.3109  0.2552  0.0223
 5456SOL    HW128001   0.123   1.620  16.844  1.2383  4.3629  0.8850
 5456SOL    HW228002   0.193   1.615  16.712 -2.2465 -0.5138  0.1652
 5457SOL     OW28003   1.696   2.442  15.124 -0.2611  0.0015  0.7012
 5457SOL    HW128004   1.702   2.512  15.190 -2.1271  1.1446 -0.3550
 5457SOL    HW228005   1.603   2.420  15.122  0.2637 -1.8928 -1.4113
 5458SOL     OW28006   2.843   0.152   3.784  0.2565  0.0355  0.2336
 5458SOL    HW128007   2.772   0.173   3.723  1.2947  2.5493 -0.1419
 5458SOL    HW228008   2.911   0.185   3.726 -0.3085  0.6905 -0.0627
 5459SOL     OW28009   2.315   2.414   7.862 -0.1384 -0.1230  0.0321
 5459SOL    HW128010   2.224   2.402   7.835  0.7302  0.0245 -2.9946
 5459SOL    HW228011   2.350   2.326   7.859 -0.9083 -0.3716 -1.5521
 5460SOL     OW28012   1.711   2.773   5.563 -0.0275 -0.2125  0.8161
 5460SOL    HW128013   1.800   2.738   5.575 -1.4479 -4.4831 -1.1345
 5460SOL    HW228014   1.653   2.703   5.593 -1.7438  0.7595 -0.3053
 5461SOL     OW28015   4.671   0.695   4.463 -0.2751 -0.2138  0.4243
 5461SOL    HW128016   4.733   0.706   4.535  0.8517 -1.8714 -0.3019
 5461SOL    HW228017   4.689   0.603   4.444  1.9275  0.5729 -1.3545
 5462SOL     OW28018   4.586   1.123   7.937  0.1936  0.6921 -0.5000
 5462SOL    HW128019   4.545   1.037   7.935  0.9641  0.3057  0.1371
 5462SOL    HW228020   4.517   1.174   7.895 -0.1879  1.2796  0.8615
 5463SOL     OW28021   1.549   4.296   6.780 -0.2318  0.2459  0.0716
 5463SOL    HW128022   1.509   4.210   6.774  2.0479 -0.7694 -0.6288
 5463SOL    HW228023   1.565   4.322   6.689  4.0057  0.6968  0.9123
 5464SOL     OW28024   3.512   0.333   2.312  0.2058  0.0870 -0.1000
 5464SOL    HW128025   3.428   0.296   2.336  0.9740 -0.6197  1.5001
 5464SOL    HW228026   3.569   0.266   2.349 -0.4775 -0.5337 -0.1847
 5465SOL     OW28027   3.819   2.565  12.704  0.0851  0.5143  0.0893
 5465SOL    HW128028   3.901   2.515  12.714  0.3297  0.3321 -2.6688
 5465SOL    HW228029   3.859   2.646  12.670 -0.6395  0.1774 -1.5765
 5466SOL     OW28030   1.005   4.209   3.874 -0.5044 -0.5975 -0.6386
 5466SOL    HW128031   1.048   4.131   3.839  0.2443 -0.9577  1.1034
 5466SOL    HW228032   0.938   4.218   3.807 -0.8146  0.4143 -0.1952
 5467SOL     OW28033   3.501   0.495   4.394  0.4943  0.2852 -0.2382
 5467SOL    HW128034   3.414   0.534   4.390 -1.6151 -4.4000  0.5334
 5467SOL    HW228035   3.517   0.497   4.489 -1.3310  2.8830 -0.0106
 5468SOL     OW28036   0.072   2.459  12.725 -0.2614  0.0705  0.1875
 5468SOL    HW128037   0.109   2.520  12.661 -1.0741 -0.7558 -1.0656
 5468SOL    HW228038   0.093   2.370  12.695 -0.3313  0.1903 -0.2139
 5469SOL     OW28039   0.009   0.124   8.940  0.1196  0.7009 -0.1285
 5469SOL    HW128040   0.068   0.050   8.924 -0.0097  0.2408  1.5073
 5469SOL    HW228041   4.659   0.102   8.910 -0.3638  2.6492 -0.1144
 5470SOL     OW28042   0.150   4.602   0.635 -0.4806  0.5417 -0.0673
 5470SOL    HW128043   0.214   4.636   0.572  1.7521 -1.6997  0.9780
 5470SOL    HW228044   0.199   4.615   0.716 -1.1511  0.6272  0.3245
 5471SOL     OW28045   2.043   0.364   3.385 -0.7744 -0.2813 -0.2905
 5471SOL    HW128046   2.098   0.387   3.310  1.7303  0.2155  1.7139
 5471SOL    HW228047   2.015   0.279   3.351  0.2528 -1.0627  0.8343
 5472SOL     OW28048   3.217   0.296   4.454 -0.6371 -0.4284 -0.4305
 5472SOL    HW128049   3.200   0.323   4.364 -0.1363  1.3094 -0.0220
 5472SOL    HW228050   3.232   0.387   4.480  1.2658 -0.7564 -0.3673
 5473SOL     OW28051   2.349   3.269   0.198  0.3181 -0.5449  0.2982
 5473SOL    HW128052   2.429   3.265   0.250  0.7483  0.5440 -0.2736
 5473SOL    HW228053   2.337   3.174   0.200  0.0931 -0.5150  0.3393
 5474SOL     OW28054   2.343   4.631   5.985  0.6155  1.0569 -0.0222
 5474SOL    HW128055   2.321   4.585   6.066 -1.5001 -2.0713 -2.4073
 5474SOL    HW228056   2.354   4.551   5.935  1.6925  0.8810  0.4809
 5475SOL     OW28057   1.220   3.208   6.961  0.2957  0.4353 -0.0212
 5475SOL    HW128058   1.247   3.121   6.989 -1.3231  0.2124  0.8679
 5475SOL    HW228059   1.128   3.213   6.986  0.3803  0.7767  0.2281
 5476SOL     OW28060   2.132   3.717   1.195 -0.3769 -0.4705  0.2849
 5476SOL    HW128061   2.083   3.664   1.132 -0.1087 -0.4946  0.0960
 5476SOL    HW228062   2.223   3.686   1.187 -0.6427 -1.2301  0.2710
 5477SOL     OW28063   2.282   1.547   2.492 -0.5623  0.2375 -0.3738
 5477SOL    HW128064   2.303   1.596   2.572  0.7602  1.5833 -1.5348
 5477SOL    HW228065   2.215   1.596   2.444 -1.5203 -2.2011 -1.5139
 5478SOL     OW28066   4.252   4.388   6.112  0.0200 -0.8228 -0.5881
 5478SOL    HW128067   4.267   4.295   6.098  1.3262 -0.7964  0.6227
 5478SOL    HW228068   4.158   4.389   6.129 -0.1217  0.5761 -1.4667
 5479SOL     OW28069   1.084   2.478  16.786 -0.1692 -0.6705  1.1915
 5479SOL    HW128070   1.172   2.496  16.817 -0.2672 -0.3342  1.2716
 5479SOL    HW228071   1.102   2.428  16.707  1.1251 -0.6034  1.4514
 5480SOL     OW28072   4.297   4.119   9.124  0.0269  0.4505 -0.1943
 5480SOL    HW128073   4.221   4.138   9.178 -0.1777 -0.2824 -0.2227
 5480SOL    HW228074   4.315   4.027   9.145  0.4334 -0.2054 -3.4385
 5481SOL     OW28075   0.086   3.577  12.259  0.2775 -0.4795 -0.1949
 5481SOL    HW128076   0.073   3.582  12.354 -0.2076 -0.5860 -0.2593
 5481SOL    HW228077   0.173   3.535  12.253  0.0277 -1.0587  0.2528
 5482SOL     OW28078   2.454   4.523   2.104  0.7276  0.2224 -0.1186
 5482SOL    HW128079   2.538   4.553   2.138 -0.3326 -0.7147  3.2876
 5482SOL    HW228080   2.398   4.529   2.182  3.0228  1.1665  1.4376
 5483SOL     OW28081   2.164   0.063  13.995 -0.6141 -0.2069 -0.1599
 5483SOL    HW128082   2.110   0.040  14.071  0.2722 -2.0135 -0.0815
 5483SOL    HW228083   2.179   0.153  14.024 -0.9742 -1.0409  2.6171
 5484SOL     OW28084   3.161   1.629  16.380 -0.3103 -0.0366 -0.2057
 5484SOL    HW128085   3.088   1.599  16.435 -1.3826  0.1937 -1.5072
 5484SOL    HW228086   3.111   1.664  16.307 -2.5943 -0.5415  1.1243
 5485SOL     OW28087   0.643   4.440   6.028  0.7092 -0.0735  0.5862
 5485SOL    HW128088   0.638   4.526   6.069  0.1906 -0.5442  1.5201
 5485SOL    HW228089   0.708   4.451   5.959  2.2126 -1.2401  1.7949
 5486SOL     OW28090   1.880   2.688   8.682 -0.0119  0.2238  0.6111
 5486SOL    HW128091   1.825   2.612   8.658  0.1705  0.4238 -0.4511
 5486SOL    HW228092   1.960   2.643   8.707  1.0098  0.7116 -1.7422
 5487SOL     OW28093   1.681   1.311   4.227 -0.3465 -0.2561  0.1379
 5487SOL    HW128094   1.686   1.299   4.322  0.2517 -0.8594  0.0314
 5487SOL    HW228095   1.679   1.407   4.222  1.8853 -0.1565  1.3175
 5488SOL     OW28096   1.820   4.467   9.806 -0.2470  0.0878  0.0251
 5488SOL    HW128097   1.765   4.408   9.857 -0.1115  0.6255  0.8015
 5488SOL    HW228098   1.786   4.553   9.832  1.4405  0.0651  2.3951
 5489SOL     OW28099   3.445   3.866   6.517  0.0415 -0.1773  0.6160
 5489SOL    HW128100   3.410   3.917   6.444  0.9051 -0.4215  0.0204
 5489SOL    HW228101   3.450   3.783   6.469 -1.0423  0.7456 -1.1107
 5490SOL     OW28102   0.962   0.098   9.374  0.2094 -0.4255 -0.3353
 5490SOL    HW128103   0.943   0.118   9.465 -0.0841  0.4213 -0.5821
 5490SOL    HW228104   0.911   0.018   9.361  1.7148 -1.6731  1.5234
 5491SOL     OW28105   1.838   0.190  14.307 -0.1603 -0.2543 -0.5639
 5491SOL    HW128106   1.819   0.254  14.237 -1.0280  1.8590  1.6049
 5491SOL    HW228107   1.787   0.223  14.381 -1.0462  0.1020 -1.3191
 5492SOL     OW28108   0.970   1.934   9.743 -0.2057  0.3226  0.0359
 5492SOL    HW128109   1.039   2.000   9.738  1.4455 -1.2728  1.6342
 5492SOL    HW228110   0.895   1.986   9.772  1.4423  2.9690 -0.4579
 5493SOL     OW28111   3.138   3.910   7.348  0.1039  0.0603  0.1894
 5493SOL    HW128112   3.109   3.825   7.314  0.3335 -0.2662  0.7974
 5493SOL    HW228113   3.155   3.959   7.268 -1.3116  2.2636  1.2351
 5494SOL     OW28114   1.187   2.970   3.208  0.3015  0.1919  0.4012
 5494SOL    HW128115   1.156   2.895   3.259 -2.1745  0.4052 -0.8244
 5494SOL    HW228116   1.110   2.982   3.153  1.3989 -0.0849 -1.1661
 5495SOL     OW28117   0.966   2.370   5.700  0.3026  0.0137  0.0770
 5495SOL    HW128118   0.904   2.315   5.749  0.9840 -0.5710  0.2760
 5495SOL    HW228119   0.911   2.403   5.628 -1.7259 -0.9149  1.1977
 5496SOL     OW28120   3.138   2.130   7.785 -0.0855 -0.3887  0.3823
 5496SOL    HW128121   3.176   2.097   7.703  2.2319  0.8944  0.9292
 5496SOL    HW228122   3.206   2.194   7.807 -0.2355  0.0021 -0.2929
 5497SOL     OW28123   0.653   4.254   4.132  0.0196  0.7960  0.1414
 5497SOL    HW128124   0.563   4.257   4.165 -0.1378 -0.3524 -0.1914
 5497SOL    HW228125   0.707   4.285   4.204 -2.0282  1.3917  1.4274
 5498SOL     OW28126   4.701   3.939   0.032 -0.1728 -0.2717  0.1296
 5498SOL    HW128127   0.021   4.015   0.038  0.3853 -0.6058 -0.9352
 5498SOL    HW228128   4.648   3.971  17.709 -1.3383  0.7783  1.4252
 5499SOL     OW28129   2.872   0.752   7.910 -0.3379  0.1493  0.1922
 5499SOL    HW128130   2.785   0.756   7.950 -0.8269  1.9535 -1.0521
 5499SOL    HW228131   2.929   0.766   7.985 -1.7258  2.2815  0.8327
 5500SOL     OW28132   0.290   3.242  15.763  0.2210 -0.3232  0.6771
 5500SOL    HW128133   0.291   3.296  15.842  0.0579 -1.0884  1.2048
 5500SOL    HW228134   0.359   3.181  15.789  1.0859  1.6516  3.0770
 5501SOL     OW28135   4.647   4.600   5.617 -0.2719 -0.3073  0.2535
 5501SOL    HW128136   4.654   4.522   5.672  0.8160 -0.6117 -0.3233
 5501SOL    HW228137   4.575   4.571   5.560  1.0603  0.3314 -1.7575
 5502SOL     OW28138   0.334   3.123   5.690  0.5420  0.1032  0.0018
 5502SOL    HW128139   0.377   3.207   5.706 -1.5059  1.1808 -0.1998
 5502SOL    HW228140   0.328   3.137   5.595 -0.6664 -2.0406 -0.2424
 5503SOL     OW28141   3.313   0.153   3.368  0.0954  0.4414 -0.0758
 5503SOL    HW128142   3.395   0.115   3.337  0.8141  1.3770  0.6850
 5503SOL    HW228143   3.253   0.139   3.295  0.5657 -2.2365  0.0340
 5504SOL     OW28144   3.794   0.074   7.561 -0.5077 -0.4607  0.2495
 5504SOL    HW128145   3.750   0.158   7.546  0.4619  0.5838  3.2920
 5504SOL    HW228146   3.802   0.031   7.476 -0.0067 -0.2517  0.1908
 5505SOL     OW28147   2.957   0.763   8.451 -0.5597  0.0287  0.0458
 5505SOL    HW128148   3.007   0.770   8.532  0.4696  0.5846 -0.6295
 5505SOL    HW228149   2.891   0.695   8.464  0.1411 -0.8905 -1.1261
 5506SOL     OW28150   1.038   3.192   7.595 -0.6144 -0.3886  0.0588
 5506SOL    HW128151   1.011   3.119   7.652  0.2265  0.2394  1.2544
 5506SOL    HW228152   1.120   3.163   7.556 -0.0476  0.6778  0.4684
 5507SOL     OW28153   2.150   3.838   2.045  0.2491 -0.3312 -0.3502
 5507SOL    HW128154   2.103   3.904   1.994  0.2056  0.5432  0.8092
 5507SOL    HW228155   2.239   3.872   2.033  0.1798  0.6592  1.8880
 5508SOL     OW28156   2.500   4.208  11.943 -0.1617 -0.8799  0.3441
 5508SOL    HW128157   2.580   4.168  11.909 -0.3581 -1.2150  0.2697
 5508SOL    HW228158   2.467   4.139  12.000  0.8136 -0.4610  1.4154
 5509SOL     OW28159   3.770   4.593   4.014 -0.2447 -0.3673  0.4770
 5509SOL    HW128160   3.730   4.646   4.083 -0.6662 -0.4780  0.3142
 5509SOL    HW228161   3.859   4.578   4.046 -1.1375 -1.6263  2.3505
 5510SOL     OW28162   4.183   1.349   9.348  0.1179 -0.1127 -0.6536
 5510SOL    HW128163   4.139   1.429   9.377  0.7995  0.9001 -2.4726
 5510SOL    HW228164   4.120   1.282   9.376 -1.1268  1.6054  0.6417
 5511SOL     OW28165   3.851   1.273   2.791  0.2303 -0.2200 -0.2724
 5511SOL    HW128166   3.913   1.339   2.823  1.3215 -0.8673 -1.0637
 5511SOL    HW228167   3.845   1.284   2.696  1.2655 -0.8440 -0.3999
 5512SOL     OW28168   4.534   3.421  11.461 -0.1074  0.4969  0.1762
 5512SOL    HW128169   4.565   3.491  11.403 -0.6344  1.9847  1.6656
 5512SOL    HW228170   4.522   3.346  11.403 -3.3191  1.1201  0.0176
 5513SOL     OW28171   0.403   0.821   5.665 -0.4425 -0.0475  0.1139
 5513SOL    HW128172   0.397   0.854   5.575 -0.8951 -1.5891 -0.4286
 5513SOL    HW228173   0.310   0.797   5.672 -0.7713  1.3878  0.6395
 5514SOL     OW28174   0.132   1.887  17.407 -0.0683 -0.2971 -0.1908
 5514SOL    HW128175   0.062   1.931  17.454  0.8509 -0.6749  1.5266
 5514SOL    HW228176   0.203   1.893  17.471  0.0122  1.1768 -0.4129
 5515SOL     OW28177   3.857   3.733   2.590  0.0009 -0.2721 -0.1130
 5515SOL    HW128178   3.918   3.671   2.550 -0.0640 -0.8345  0.6671
 5515SOL    HW228179   3.920   3.798   2.622 -1.8004  0.8337  1.1947
 5516SOL     OW28180   2.583   3.224  12.535  0.4812  0.4133  0.0033
 5516SOL    HW128181   2.651   3.177  12.486  1.1674 -1.4845  2.7922
 5516SOL    HW228182   2.555   3.289  12.471 -2.9475 -1.2976 -0.2263
 5517SOL     OW28183   1.434   2.842   8.396 -0.0771 -0.6366  0.2383
 5517SOL    HW128184   1.474   2.926   8.375  0.2726 -0.3906  1.8357
 5517SOL    HW228185   1.496   2.783   8.354 -0.6989 -0.6035 -0.7172
 5518SOL     OW28186   0.370   1.696   7.712  0.3492 -0.2031  0.1757
 5518SOL    HW128187   0.342   1.605   7.721  2.4579 -0.6278  2.2549
 5518SOL    HW228188   0.284   1.738   7.708  1.0323  0.8689 -3.2503
 5519SOL     OW28189   3.765   2.237   4.386 -0.0754 -0.6005 -0.0744
 5519SOL    HW128190   3.836   2.269   4.330 -0.5216  1.0817  0.3049
 5519SOL    HW228191   3.781   2.143   4.382  2.6907 -0.0938 -0.5581
 5520SOL     OW28192   0.699   2.905   0.185  0.4085 -0.0968 -0.0185
 5520SOL    HW128193   0.655   2.965   0.245  1.1942  2.0448 -1.5591
 5520SOL    HW228194   0.645   2.930   0.110  0.6926 -2.3386 -0.9884
 5521SOL     OW28195   2.046   4.623  10.639 -0.0445 -0.3102 -0.0739
 5521SOL    HW128196   2.023   4.680  10.712 -2.5491  0.4996 -1.4904
 5521SOL    HW228197   2.124   4.595  10.687  0.7271  0.8786 -0.6446
 5522SOL     OW28198   2.084   3.171  12.558 -0.5129  0.4354  0.4598
 5522SOL    HW128199   2.051   3.152  12.646 -1.2468 -0.0319  0.0767
 5522SOL    HW228200   2.164   3.224  12.568  1.4472 -2.0708 -1.8330
 5523SOL     OW28201   4.056   3.774   2.791  0.1870  0.8012 -0.5776
 5523SOL    HW128202   4.014   3.762   2.876  0.3361  0.7535 -0.5114
 5523SOL    HW228203   4.037   3.866   2.768  0.2776  0.1650 -3.2010
 5524SOL     OW28204   0.399   1.701   4.929  0.0863 -0.4865  0.4077
 5524SOL    HW128205   0.460   1.774   4.926  0.2104 -0.6222 -0.2320
 5524SOL    HW228206   0.385   1.668   4.840  0.9117  1.8070 -0.5785
 5525SOL     OW28207   1.472   2.534   2.122 -0.8489  0.7876 -0.1055
 5525SOL    HW128208   1.419   2.470   2.169 -0.7963 -0.8942 -2.3333
 5525SOL    HW228209   1.425   2.554   2.041 -0.5159  0.2494 -0.4299
 5526SOL     OW28210   4.700   3.417   5.314  0.0824  0.7607 -0.0596
 5526SOL    HW128211   4.604   3.414   5.321  0.1747  1.4504  1.5201
 5526SOL    HW228212   4.708   3.505   5.277  0.5462  1.2668  1.2248
 5527SOL     OW28213   4.138   2.451   6.122  0.8879  0.0163 -0.1030
 5527SOL    HW128214   4.071   2.383   6.117 -0.0962  0.9958 -0.2458
 5527SOL    HW228215   4.081   2.528   6.128  0.7199 -0.2190  1.2466
 5528SOL     OW28216   0.128   4.531   6.524  0.1450  0.0010 -0.3653
 5528SOL    HW128217   0.193   4.460   6.526  0.0007 -0.0803  1.1606
 5528SOL    HW228218   0.190   4.592   6.563 -1.9027  0.9275  1.3903
 5529SOL     OW28219   2.704   1.189  11.780  0.4826 -0.1817  0.5865
 5529SOL    HW128220   2.609   1.191  11.764  1.0093 -4.0593 -2.8606
 5529SOL    HW228221   2.706   1.240  11.862  1.0447  0.8095 -0.0435
 5530SOL     OW28222   2.408   4.179  15.749 -0.2167 -0.1119 -0.0998
 5530SOL    HW128223   2.376   4.267  15.731 -1.4059 -0.4651  0.2965
 5530SOL    HW228224   2.384   4.165  15.841  0.5610 -2.3423 -0.2522
 5531SOL     OW28225   4.240   0.436   5.303 -0.2975 -0.2359 -0.1265
 5531SOL    HW128226   4.226   0.391   5.386  1.3707 -0.6723 -0.0674
 5531SOL    HW228227   4.320   0.392   5.273 -0.4024 -0.6707  0.2355
 5532SOL     OW28228   0.706   4.656   7.409  0.8535 -0.5254 -0.2607
 5532SOL    HW128229   0.708   4.595   7.335  1.8721 -0.9326  0.1065
 5532SOL    HW228230   0.792   4.658   7.451  1.8788 -2.1691 -2.3066
 5533SOL     OW28231   3.769   1.466   2.099 -0.0831  0.2932  0.2919
 5533SOL    HW128232   3.803   1.498   2.015 -1.0428  0.7197  0.0655
 5533SOL    HW228233   3.821   1.386   2.110 -0.7638 -0.0810  0.7655
 5534SOL     OW28234   2.351   3.121  15.922  0.3384 -0.4363 -0.0480
 5534SOL    HW128235   2.291   3.087  15.988  1.1156 -0.3946  0.6930
 5534SOL    HW228236   2.283   3.168  15.874  1.3363  1.8461  0.7689
 5535SOL     OW28237   2.899   2.642   6.862  0.1476  0.0305 -0.2654
 5535SOL    HW128238   2.905   2.734   6.837 -0.9107  0.4614  1.0565
 5535SOL    HW228239   2.907   2.598   6.777 -0.8194 -1.2387  0.3017
 5536SOL     OW28240   4.483   3.262   5.666 -0.0981  0.0940 -0.3390
 5536SOL    HW128241   4.394   3.288   5.643  0.0397  0.8421 -0.0268
 5536SOL    HW228242   4.508   3.329   5.730  1.3022  0.7357 -1.5508
 5537SOL     OW28243   3.466   4.727   5.204  0.3630  0.4611  0.2248
 5537SOL    HW128244   3.536   4.662   5.200  0.0765 -0.0007  3.0372
 5537SOL    HW228245   3.449   4.715   5.297  0.4793 -3.0022 -0.2092
 5538SOL     OW28246   0.306   3.480   5.397  0.4103  0.1063  0.4866
 5538SOL    HW128247   0.380   3.496   5.338  0.9302 -0.1147  1.0841
 5538SOL    HW228248   0.257   3.562   5.388  0.2173  0.0315  0.8378
 5539SOL     OW28249   1.518   2.395   4.394  0.5572  0.0275  0.1223
 5539SOL    HW128250   1.552   2.430   4.312  0.3513  1.8776  0.8126
 5539SOL    HW228251   1.518   2.302   4.374  2.2700  0.2486 -0.9401
 5540SOL     OW28252   0.904   2.900   3.985  0.8157 -0.3724  0.1500
 5540SOL    HW128253   0.922   2.983   3.941 -0.1757 -0.1270  0.2143
 5540SOL    HW228254   0.950   2.840   3.926 -1.7230 -1.1363 -1.0293
 5541SOL     OW28255   1.858   2.603   6.807 -0.3853  0.2564  0.5804
 5541SOL    HW128256   1.843   2.586   6.900 -0.2869  0.2096  0.5877
 5541SOL    HW228257   1.953   2.605   6.798 -0.5229 -0.7808 -1.0700
 5542SOL     OW28258   0.828   4.553   5.868 -0.3491  0.1516  0.3177
 5542SOL    HW128259   0.793   4.640   5.889 -0.2635  0.1706  0.3808
 5542SOL    HW228260   0.917   4.576   5.845 -0.0319  1.0098  2.3654
 5543SOL     OW28261   4.369   4.326  12.602  0.2623 -0.1949  0.0411
 5543SOL    HW128262   4.307   4.260  12.571  0.8516 -1.2916  1.1882
 5543SOL    HW228263   4.402   4.363  12.521  0.6817 -1.9278 -0.5763
 5544SOL     OW28264   1.881   1.246   7.997 -0.2290 -0.1279 -0.3258
 5544SOL    HW128265   1.955   1.296   8.031  0.2293 -0.9810 -0.0906
 5544SOL    HW228266   1.863   1.181   8.065 -0.7057  1.7212  1.3384
 5545SOL     OW28267   0.241   1.409   7.241 -0.1532 -0.1150  0.7213
 5545SOL    HW128268   0.267   1.436   7.153 -1.1982 -1.5853 -0.0421
 5545SOL    HW228269   0.153   1.376   7.220 -1.1299  1.5744  2.1078
 5546SOL     OW28270   0.763   1.134   2.202 -0.3862  0.5632 -0.3239
 5546SOL    HW128271   0.761   1.222   2.240 -0.6009  0.2550  0.3789
 5546SOL    HW228272   0.784   1.144   2.109 -1.4071 -0.7604 -0.6844
 5547SOL     OW28273   0.364   1.693   9.535 -0.2188  0.7686 -0.1275
 5547SOL    HW128274   0.279   1.655   9.555  0.5504  0.9941  3.7265
 5547SOL    HW228275   0.407   1.623   9.485  0.3263  0.7360  0.3850
 5548SOL     OW28276   3.809   0.970   6.278  0.2786  0.5888 -0.2955
 5548SOL    HW128277   3.880   0.917   6.243  0.2757  0.3297  0.0982
 5548SOL    HW228278   3.789   0.928   6.361  0.8870  1.7912  0.4605
 5549SOL     OW28279   1.752   1.096  10.321 -0.7117  0.1301 -0.1683
 5549SOL    HW128280   1.711   1.169  10.368 -3.3836 -1.7851  0.4826
 5549SOL    HW228281   1.805   1.053  10.388 -2.3498 -1.1703  0.2868
 5550SOL     OW28282   4.420   0.748  15.412 -0.0341 -0.5863 -0.5369
 5550SOL    HW128283   4.352   0.717  15.351  0.7494  0.8799 -2.1638
 5550SOL    HW228284   4.499   0.744  15.359  0.7503  0.9071  0.5393
 5551SOL     OW28285   4.605   3.977  10.436 -0.4654  0.0119  0.3167
 5551SOL    HW128286   4.648   4.057  10.467  1.9729 -1.2425  0.0934
 5551SOL    HW228287   4.512   4.000  10.427 -0.9676 -2.6835 -1.3552
 5552SOL     OW28288   0.776   0.568   8.749  0.0271 -0.0025 -0.3276
 5552SOL    HW128289   0.819   0.630   8.691  0.5176 -0.8430 -0.8605
 5552SOL    HW228290   0.805   0.489   8.703 -3.0944 -1.0062 -0.6410
 5553SOL     OW28291   2.618   4.122   6.619  0.6029 -0.1524  0.3529
 5553SOL    HW128292   2.682   4.105   6.688  0.0551  0.2997  0.9716
 5553SOL    HW228293   2.542   4.065   6.631 -0.6717  0.6870 -3.6361
 5554SOL     OW28294   4.650   4.243   5.494 -0.5574  0.4399 -0.7122
 5554SOL    HW128295   4.637   4.296   5.573 -1.6782 -0.8909  0.0050
 5554SOL    HW228296   4.699   4.164   5.518 -0.2610  0.8272 -0.0519
 5555SOL     OW28297   1.987   4.525   4.055  0.1531  0.2292  0.9062
 5555SOL    HW128298   2.012   4.607   4.011  1.7077 -1.5247 -1.4610
 5555SOL    HW228299   1.919   4.561   4.112 -1.9216  0.5337 -1.7214
 5556SOL     OW28300   3.294   0.015   4.221  0.3746  0.2190  0.5702
 5556SOL    HW128301   3.325   4.668   4.192  0.3034  0.6413 -0.7453
 5556SOL    HW228302   3.254   4.722   4.303  3.0036 -0.8141  1.4628
 5557SOL     OW28303   2.617   4.457   8.672 -0.5638 -0.0599  0.5353
 5557SOL    HW128304   2.630   4.508   8.592  1.4064  2.1060  2.2330
 5557SOL    HW228305   2.688   4.492   8.726 -2.1592 -1.6065  3.6022
 5558SOL     OW28306   2.444   4.676   1.212  0.3557 -0.0949 -0.1235
 5558SOL    HW128307   2.458   4.711   1.300 -1.3577  1.2946 -0.4056
 5558SOL    HW228308   2.417   0.011   1.157  1.0141  0.0909 -0.1939
 5559SOL     OW28309   4.323   3.246   1.684  0.1164  0.3096  0.0313
 5559SOL    HW128310   4.402   3.300   1.688 -0.1617  0.8166 -1.3906
 5559SOL    HW228311   4.354   3.175   1.739  0.7219  0.7352  0.2403
 5560SOL     OW28312   1.836   1.227   6.618 -0.0223  1.1562 -0.2479
 5560SOL    HW128313   1.799   1.314   6.605 -0.2179  0.6819 -2.8744
 5560SOL    HW228314   1.795   1.174   6.549 -1.3137  0.0256  1.3844
 5561SOL     OW28315   1.765   2.318   8.360 -0.0495  0.2940 -0.2435
 5561SOL    HW128316   1.769   2.225   8.339 -0.9890  0.2369 -0.1708
 5561SOL    HW228317   1.803   2.356   8.280 -0.5104 -1.5213 -1.3110
 5562SOL     OW28318   0.886   0.946   4.526 -0.0942  0.0449 -0.0435
 5562SOL    HW128319   0.881   0.924   4.433 -2.6501  0.2847  0.0415
 5562SOL    HW228320   0.908   0.863   4.568  0.4717  1.0001  1.5411
 5563SOL     OW28321   1.785   0.789   1.896  0.2884  0.3364  0.1371
 5563SOL    HW128322   1.841   0.724   1.855  0.4094 -0.5597  1.7160
 5563SOL    HW228323   1.723   0.724   1.929  1.5095 -0.6773  0.4212
 5564SOL     OW28324   4.441   3.607   5.652  0.2026  0.7120  0.1505
 5564SOL    HW128325   4.481   3.693   5.644 -0.5591  1.0160 -0.4268
 5564SOL    HW228326   4.374   3.629   5.717 -1.1242 -0.0475 -0.9380
 5565SOL     OW28327   1.475   1.765   9.048  0.4748 -0.6582  0.1405
 5565SOL    HW128328   1.473   1.691   9.109  0.1659 -1.1842 -0.5168
 5565SOL    HW228329   1.381   1.781   9.045  0.5883  0.1805  1.0302
 5566SOL     OW28330   0.549   3.246  12.443  0.2340 -0.5474  0.0630
 5566SOL    HW128331   0.539   3.322  12.387  1.9853 -0.4757 -0.1422
 5566SOL    HW228332   0.482   3.190  12.403  0.4488 -0.0626 -0.9750
 5567SOL     OW28333   3.098   1.780   7.122  0.3776 -0.5323  0.6311
 5567SOL    HW128334   3.034   1.759   7.054 -1.5966  1.4988  1.8561
 5567SOL    HW228335   3.154   1.702   7.119  1.6649  0.3493  2.1271
 5568SOL     OW28336   2.655   0.867  14.401 -0.0091  0.7333  0.4434
 5568SOL    HW128337   2.639   0.778  14.434  1.3272  0.8455  1.3908
 5568SOL    HW228338   2.575   0.912  14.427 -2.2986 -2.1798 -1.5182
 5569SOL     OW28339   2.122   1.281   0.134 -0.1660 -0.1445  0.4422
 5569SOL    HW128340   2.209   1.241   0.143  0.5952  1.4057  0.0002
 5569SOL    HW228341   2.090   1.219   0.069  0.0050 -0.7424  0.9354
 5570SOL     OW28342   1.350   1.562   7.715 -0.0343 -0.3034 -0.4413
 5570SOL    HW128343   1.366   1.603   7.630 -0.7495  0.4133 -0.2357
 5570SOL    HW228344   1.257   1.577   7.729 -0.2529 -3.3805  1.3080
 5571SOL     OW28345   1.126   1.282   2.318  0.2285 -0.2707  0.3105
 5571SOL    HW128346   1.115   1.278   2.413 -1.7248 -1.7776  0.0285
 5571SOL    HW228347   1.039   1.294   2.278  0.2206 -3.0302 -0.5081
 5572SOL     OW28348   2.969   4.431   3.100 -0.1035  0.5030 -0.0850
 5572SOL    HW128349   2.929   4.362   3.047 -0.2699 -0.7407  1.6455
 5572SOL    HW228350   3.027   4.372   3.149 -0.1593 -0.9305 -1.7280
 5573SOL     OW28351   0.443   0.570  12.566  0.2145 -0.3480  0.1217
 5573SOL    HW128352   0.409   0.648  12.609 -1.5282 -1.1485  0.1716
 5573SOL    HW228353   0.533   0.554  12.594  0.8167 -0.5966 -1.9705
 5574SOL     OW28354   1.416   3.657  13.110 -0.3577 -0.0443  0.2809
 5574SOL    HW128355   1.356   3.632  13.180  0.5342 -1.0618  0.6956
 5574SOL    HW228356   1.447   3.745  13.130 -0.7157  0.4126 -1.2091
 5575SOL     OW28357   2.537   2.512  10.260  0.4737  0.1547 -0.2709
 5575SOL    HW128358   2.631   2.500  10.261  0.1905 -2.0454  0.1171
 5575SOL    HW228359   2.515   2.605  10.261 -2.0406 -0.4150 -0.9573
 5576SOL     OW28360   2.816   1.126   8.308  0.1544 -0.3789 -0.4601
 5576SOL    HW128361   2.765   1.207   8.316  0.2252 -0.3959  0.1495
 5576SOL    HW228362   2.905   1.163   8.304 -1.1721  2.8893  0.5000
 5577SOL     OW28363   0.311   4.267   1.363  0.7868  0.8893  0.1487
 5577SOL    HW128364   0.262   4.261   1.445  1.6413  1.3586  0.6866
 5577SOL    HW228365   0.240   4.293   1.304  1.3192  3.0232  0.4357
 5578SOL     OW28366   3.301   2.363   6.654 -0.2914 -0.5215 -0.1527
 5578SOL    HW128367   3.243   2.389   6.583 -0.2801 -0.2364 -0.0552
 5578SOL    HW228368   3.262   2.279   6.681  2.6928 -1.2950  1.7312
 5579SOL     OW28369   0.579   0.761   8.509  0.4505  0.3290 -0.3307
 5579SOL    HW128370   0.654   0.702   8.504 -0.0456 -0.1090 -2.5941
 5579SOL    HW228371   0.583   0.787   8.601 -0.9285 -2.5642  0.5505
 5580SOL     OW28372   4.409   1.736   3.666 -0.1257  0.6880 -0.4770
 5580SOL    HW128373   4.422   1.687   3.748 -0.3092  0.9180 -0.3118
 5580SOL    HW228374   4.328   1.782   3.685 -1.3678 -1.5029 -0.4983
 5581SOL     OW28375   4.634   0.044   5.319 -0.1486  0.2877  0.0016
 5581SOL    HW128376   4.659   4.717   5.384  0.5288  0.9148  0.3709
 5581SOL    HW228377   4.619   4.726   5.243  0.8120 -1.6306  1.2525
 5582SOL     OW28378   2.068   0.405   2.074 -0.6376 -0.1712 -0.2001
 5582SOL    HW128379   1.973   0.392   2.077 -0.6981  0.6680  1.5352
 5582SOL    HW228380   2.090   0.355   2.153  1.6201  1.5135  0.2377
 5583SOL     OW28381   4.112   2.759   4.988  0.3743 -0.6207  0.1503
 5583SOL    HW128382   4.159   2.809   4.921 -0.4054  0.0529  0.1052
 5583SOL    HW228383   4.165   2.692   5.031 -0.1967 -0.9710  0.3026
 5584SOL     OW28384   1.869   4.537   8.584 -0.4752  0.0583 -0.6975
 5584SOL    HW128385   1.858   4.456   8.633 -6.2023  0.3328 -1.4637
 5584SOL    HW228386   1.934   4.509   8.520 -1.6952 -0.4723 -1.6983
 5585SOL     OW28387   4.520   2.254   4.310  0.4760 -0.0166  0.7789
 5585SOL    HW128388   4.558   2.313   4.245 -1.8913  0.6464  0.0164
 5585SOL    HW228389   4.588   2.265   4.377  0.4088 -2.5880  1.2687
 5586SOL     OW28390   2.071   4.027   5.139 -0.3103  0.3665 -0.0489
 5586SOL    HW128391   2.141   3.992   5.195 -0.9224  1.4759  1.4323
 5586SOL    HW228392   2.061   3.956   5.077 -0.9865 -0.3343  0.8626
 5587SOL     OW28393   0.799   1.297  13.015 -0.1966 -0.0692 -0.3837
 5587SOL    HW128394   0.763   1.221  13.061  1.5391 -0.0966  0.9737
 5587SOL    HW228395   0.732   1.365  13.015  0.9687  1.1100  2.7372
 5588SOL     OW28396   1.646   0.653   2.147 -0.0878 -0.2131  0.3884
 5588SOL    HW128397   1.569   0.706   2.126 -0.8129 -1.7474 -0.8051
 5588SOL    HW228398   1.683   0.703   2.220  1.0312 -1.9105  0.9924
 5589SOL     OW28399   1.346   4.051   2.129  0.2980 -0.0432  0.0952
 5589SOL    HW128400   1.314   3.986   2.191 -1.0961 -0.0132 -0.5926
 5589SOL    HW228401   1.427   4.075   2.174 -1.3368 -0.3748  3.2102
 5590SOL     OW28402   4.041   2.490   7.824 -0.1272 -0.3369  0.0857
 5590SOL    HW128403   4.066   2.548   7.896  0.1603  0.1759 -0.4331
 5590SOL    HW228404   4.122   2.441   7.812  0.5323  0.3649  1.6804
 5591SOL     OW28405   1.473   4.107   6.050  0.2122  0.2626 -0.1239
 5591SOL    HW128406   1.502   4.133   6.138  0.1436 -2.4499  0.6824
 5591SOL    HW228407   1.548   4.130   5.996  0.9374 -0.8367  0.4220
 5592SOL     OW28408   3.367   2.642   3.736  0.2434 -0.2948 -0.4819
 5592SOL    HW128409   3.419   2.570   3.699 -0.9677 -0.8254 -1.1510
 5592SOL    HW228410   3.282   2.609   3.708  0.4326  0.4100 -1.8956
 5593SOL     OW28411   0.523   2.058   0.910  0.1852 -0.7144  0.0032
 5593SOL    HW128412   0.476   1.987   0.954 -0.3413 -1.0859 -1.1782
 5593SOL    HW228413   0.559   1.995   0.848 -0.7387  0.8579 -2.1339
 5594SOL     OW28414   1.839   0.988   2.919  0.6036  0.2265 -0.2646
 5594SOL    HW128415   1.853   0.916   2.858  1.6333 -0.7784  1.1503
 5594SOL    HW228416   1.828   0.939   3.001 -0.9083 -1.2549 -1.3514
 5595SOL     OW28417   0.156   1.738   7.246 -0.3561  0.1891  0.3232
 5595SOL    HW128418   0.156   1.647   7.216 -0.8900  0.1375  0.4789
 5595SOL    HW228419   0.143   1.730   7.341  0.1542  0.4304  0.4178
 5596SOL     OW28420   0.415   2.834   7.857 -0.3237  0.4219 -0.1876
 5596SOL    HW128421   0.343   2.878   7.902 -0.9696 -0.0916 -0.7166
 5596SOL    HW228422   0.373   2.756   7.820  1.5347 -0.1574 -1.0927
 5597SOL     OW28423   3.109   0.608   8.122  0.2294  0.5979 -0.1778
 5597SOL    HW128424   3.153   0.541   8.069 -0.6585 -0.8334  0.9027
 5597SOL    HW228425   3.137   0.585   8.210 -2.2652  2.5276  1.1194
 5598SOL     OW28426   0.871   0.580   2.894  0.6557 -0.4696  0.7919
 5598SOL    HW128427   0.833   0.667   2.888  3.1693  0.5674 -0.0397
 5598SOL    HW228428   0.802   0.554   2.955 -1.6976 -1.2154 -2.2205
 5599SOL     OW28429   1.649   3.320   3.718 -0.2455 -0.1677 -0.1358
 5599SOL    HW128430   1.718   3.284   3.662  0.7539  0.5176  0.6532
 5599SOL    HW228431   1.677   3.411   3.706  0.4694 -0.1261  1.9550
 5600SOL     OW28432   1.560   0.186   9.006 -0.3446 -0.2326  0.0304
 5600SOL    HW128433   1.471   0.150   9.009 -1.1257  1.7209  0.3385
 5600SOL    HW228434   1.612   0.106   8.996 -1.9377 -1.2940  0.0526
 5601SOL     OW28435   0.266   2.370   2.191 -0.5808  0.4280  0.0586
 5601SOL    HW128436   0.247   2.341   2.281  0.4110 -0.8618 -0.1480
 5601SOL    HW228437   0.207   2.320   2.134 -1.1300 -1.4211  2.2414
 5602SOL     OW28438   1.856   4.576   0.153 -0.1039 -0.3134 -0.0576
 5602SOL    HW128439   1.930   4.591   0.095 -1.2855  1.4731 -1.1045
 5602SOL    HW228440   1.880   4.605   0.241 -1.6337 -1.0032  0.5955
 5603SOL     OW28441   4.375   1.876   1.015  0.2005  0.2681 -1.0216
 5603SOL    HW128442   4.283   1.893   1.032  0.4877  0.3651  0.3793
 5603SOL    HW228443   4.374   1.804   0.951  0.3998 -0.5989 -0.0424
 5604SOL     OW28444   4.023   3.551   2.474  0.0004 -0.1981 -0.4245
 5604SOL    HW128445   3.993   3.553   2.383 -0.4227 -2.2692 -0.3322
 5604SOL    HW228446   4.118   3.561   2.470  0.1443 -1.2965  0.4333
 5605SOL     OW28447   1.421   3.100  16.261 -0.0464 -0.0891 -0.4026
 5605SOL    HW128448   1.439   3.096  16.355 -1.2342  1.0145 -0.1330
 5605SOL    HW228449   1.335   3.141  16.261  0.2348  0.5511  2.4825
 5606SOL     OW28450   3.869   4.032   7.834  0.0894 -0.7792  0.4242
 5606SOL    HW128451   3.884   4.125   7.820 -0.3332 -0.7828 -0.0493
 5606SOL    HW228452   3.959   3.998   7.827 -0.2759 -1.7931  0.5904
 5607SOL     OW28453   0.622   1.818   4.358 -0.5041  0.1478 -0.1537
 5607SOL    HW128454   0.636   1.738   4.408  2.0545  0.4973 -0.3251
 5607SOL    HW228455   0.542   1.789   4.316 -0.6911  1.1201 -0.4863
 5608SOL     OW28456   0.024   1.592   5.876  0.3354  0.2439  0.6319
 5608SOL    HW128457   0.038   1.681   5.910  3.1220 -0.5024  1.3950
 5608SOL    HW228458   0.028   1.541   5.957 -0.8428  0.6041  0.9231
 5609SOL     OW28459   2.725   2.689   3.936  0.0843  0.6399  0.0642
 5609SOL    HW128460   2.762   2.608   3.972  2.5705  0.9215 -1.8630
 5609SOL    HW228461   2.637   2.696   3.974 -0.0011  0.3420 -0.0738
 5610SOL     OW28462   0.255   4.733   9.125 -0.3121 -0.4825  0.3021
 5610SOL    HW128463   0.243   0.089   9.141  3.0805  0.0015  0.1929
 5610SOL    HW228464   0.269   4.705   9.215  0.7024  0.6349  0.4998
 5611SOL     OW28465   4.407   2.338  11.597 -0.0742 -0.0678  0.3155
 5611SOL    HW128466   4.497   2.340  11.631 -0.1708  0.3618  0.5509
 5611SOL    HW228467   4.403   2.253  11.554  1.9957  1.0976 -2.2148
 5612SOL     OW28468   3.248   3.543  17.671  0.2639 -0.0939 -0.6105
 5612SOL    HW128469   3.304   3.494  17.731 -0.4223 -0.0397  0.0700
 5612SOL    HW228470   3.273   3.635  17.680  2.0626 -0.6136 -0.2022
 5613SOL     OW28471   3.426   3.530   7.674  0.5484 -0.4786 -0.4053
 5613SOL    HW128472   3.495   3.594   7.694 -1.2197  0.5717  2.3359
 5613SOL    HW228473   3.447   3.489   7.590  0.4524  0.4864 -0.9064
 5614SOL     OW28474   4.179   3.777   5.213 -0.1333 -0.0688 -0.4532
 5614SOL    HW128475   4.233   3.832   5.156 -0.2215  0.3041 -0.1717
 5614SOL    HW228476   4.226   3.698   5.186 -0.5964  0.3459 -2.4901
 5615SOL     OW28477   1.305   0.008  13.390  0.3209  0.6553 -0.2885
 5615SOL    HW128478   1.392   4.729  13.424  0.8043  0.7413 -1.5006
 5615SOL    HW228479   1.256   4.697  13.456  2.2497 -3.0941 -1.6554
 5616SOL     OW28480   0.712   3.476   1.827  0.1338 -0.4347 -0.1965
 5616SOL    HW128481   0.745   3.493   1.915  0.7479  1.9200 -0.8676
 5616SOL    HW228482   0.792   3.451   1.780 -0.5949 -0.2988 -1.5036
 5617SOL     OW28483   4.112   1.035   2.830 -0.3258  0.0323 -0.4942
 5617SOL    HW128484   4.205   1.012   2.827 -0.5424 -0.8399 -0.5902
 5617SOL    HW228485   4.102   1.126   2.802 -2.0665  0.1821  0.6163
 5618SOL     OW28486   1.120   0.830   2.016  0.0937 -0.1924  0.0325
 5618SOL    HW128487   1.176   0.772   1.965  0.2072 -1.7106  1.8790
 5618SOL    HW228488   1.073   0.774   2.077 -2.2414 -0.5232 -2.1178
 5619SOL     OW28489   3.681   3.306   1.720  1.2380  0.3549  0.0815
 5619SOL    HW128490   3.668   3.252   1.642  4.0105 -0.1673 -0.0035
 5619SOL    HW228491   3.763   3.346   1.691  1.3795  0.6306  0.8655
 5620SOL     OW28492   3.185   0.051   4.811 -0.0011  0.4172 -0.0654
 5620SOL    HW128493   3.253   0.118   4.817  0.1190  0.6363 -3.8575
 5620SOL    HW228494   3.117   0.083   4.870  0.8507 -2.8142  2.6884
 5621SOL     OW28495   3.218   4.350   3.267 -0.0084  0.1231 -0.6019
 5621SOL    HW128496   3.216   4.403   3.347 -0.8268  1.5157 -1.5369
 5621SOL    HW228497   3.263   4.272   3.299  0.0226  0.7422  0.9134
 5622SOL     OW28498   4.538   3.532   4.698  0.5216  0.0843 -0.4654
 5622SOL    HW128499   4.512   3.572   4.781  2.5763  0.8988 -0.2026
 5622SOL    HW228500   4.481   3.455   4.708  0.0322  0.4930 -0.1447
 5623SOL     OW28501   2.868   4.602   8.609 -0.4299 -0.0354  0.5566
 5623SOL    HW128502   2.948   4.552   8.628  1.1319  1.5563 -1.8238
 5623SOL    HW228503   2.860   4.663   8.682  0.0734  1.1896 -0.4257
 5624SOL     OW28504   3.244   0.973  14.364  0.1520 -0.2658 -0.0653
 5624SOL    HW128505   3.303   1.011  14.300  1.2724  0.5765  1.4647
 5624SOL    HW228506   3.178   0.926  14.312 -0.6864 -0.1668  0.8987
 5625SOL     OW28507   3.272   1.849   1.648 -0.0132 -0.2609 -0.3832
 5625SOL    HW128508   3.198   1.858   1.707  1.5921  1.4252  1.3803
 5625SOL    HW228509   3.236   1.811   1.568  0.6870  0.4111 -1.0297
 5626SOL     OW28510   0.984   0.098   8.478 -0.2550  0.4461 -0.1845
 5626SOL    HW128511   1.067   0.062   8.447 -0.9464 -1.1304 -0.1777
 5626SOL    HW228512   0.937   0.024   8.517 -1.9255  0.7702 -1.6160
 5627SOL     OW28513   1.006   1.608   6.846 -0.2527 -0.9205  0.0933
 5627SOL    HW128514   0.952   1.624   6.924  0.8478  0.4953  0.5584
 5627SOL    HW228515   0.968   1.683   6.800  1.7852 -1.2218 -2.1072
 5628SOL     OW28516   2.623   4.274   6.397  0.2299 -0.2394  0.4405
 5628SOL    HW128517   2.627   4.202   6.459  0.4677 -0.8453 -0.2708
 5628SOL    HW228518   2.546   4.320   6.432  0.6434  2.0933 -1.6855
 5629SOL     OW28519   0.537   0.913   2.741 -0.1985 -0.1783  0.2375
 5629SOL    HW128520   0.461   0.914   2.683  0.1701 -1.0208 -0.2611
 5629SOL    HW228521   0.602   0.856   2.699 -1.1897  0.0682 -1.6335
 5630SOL     OW28522   4.594   3.421   7.798 -0.1436 -0.5279  0.8150
 5630SOL    HW128523   4.633   3.508   7.791 -0.2553 -0.4058  1.8616
 5630SOL    HW228524   4.666   3.370   7.835 -1.6770 -1.5410  2.3597
 5631SOL     OW28525   0.986   2.206  11.870 -0.2961  0.2483 -0.1820
 5631SOL    HW128526   0.967   2.298  11.848  0.6824  0.4761 -0.0591
 5631SOL    HW228527   0.955   2.195  11.960  1.4782 -1.0542  0.2647
 5632SOL     OW28528   3.885   2.643   4.110 -0.1957 -0.1061  0.2334
 5632SOL    HW128529   3.854   2.582   4.043 -0.9276  0.9951 -0.4307
 5632SOL    HW228530   3.962   2.594   4.140  0.3681  1.5590  1.4858
 5633SOL     OW28531   2.059   0.558   6.705  0.3307  0.0899  0.0521
 5633SOL    HW128532   2.101   0.475   6.682  2.1029  1.3623 -1.3111
 5633SOL    HW228533   2.029   0.538   6.794 -0.6309  1.8094  0.1217
 5634SOL     OW28534   4.214   0.911   6.051  0.1277 -0.6567  0.0376
 5634SOL    HW128535   4.209   0.984   5.989  1.0914 -1.4972 -1.0231
 5634SOL    HW228536   4.258   0.838   6.007 -0.9698 -0.0116 -2.1119
 5635SOL     OW28537   0.781   1.288   8.078 -0.5203 -0.4491 -0.4844
 5635SOL    HW128538   0.837   1.282   8.001 -1.6530 -1.7660 -1.1952
 5635SOL    HW228539   0.842   1.309   8.149  2.6995 -1.9643 -2.8140
 5636SOL     OW28540   3.333   2.044   1.853  0.1742 -0.4552  0.3471
 5636SOL    HW128541   3.353   2.064   1.944 -2.3341  0.3627  0.7039
 5636SOL    HW228542   3.255   1.992   1.872  0.8264 -0.8314  1.9733
 5637SOL     OW28543   3.425   1.526  13.821 -0.4086 -0.7349 -0.0068
 5637SOL    HW128544   3.441   1.451  13.878  0.5738  0.3258  1.0961
 5637SOL    HW228545   3.329   1.523  13.815 -0.4262 -1.8925  0.8443
 5638SOL     OW28546   3.685   2.701   4.298 -0.1560  0.0378  0.0090
 5638SOL    HW128547   3.641   2.617   4.311  0.2164  0.0299  1.2390
 5638SOL    HW228548   3.759   2.686   4.239 -1.6459 -1.9136 -1.3439
 5639SOL     OW28549   3.953   1.363  16.420 -0.2050  0.0361  0.4649
 5639SOL    HW128550   4.037   1.352  16.464 -0.1222  1.6655  0.6939
 5639SOL    HW228551   3.982   1.364  16.329 -0.6120  1.8838  0.3592
 5640SOL     OW28552   0.502   2.297   6.066 -0.0319 -0.7249 -0.3311
 5640SOL    HW128553   0.588   2.276   6.103  0.0150 -1.8616 -1.0840
 5640SOL    HW228554   0.507   2.389   6.092  1.0058 -1.2044  1.1553
 5641SOL     OW28555   3.218   0.348  17.324 -0.1042  0.1492  0.0130
 5641SOL    HW128556   3.186   0.427  17.281 -0.8284 -0.9199 -1.4118
 5641SOL    HW228557   3.148   0.287  17.300 -0.4939  0.8562 -0.6052
 5642SOL     OW28558   3.380   1.751   3.492  0.1924 -0.1279  0.7414
 5642SOL    HW128559   3.330   1.793   3.422  0.1403  1.0724  1.4921
 5642SOL    HW228560   3.376   1.826   3.552  1.6482 -0.7299  1.5815
 5643SOL     OW28561   4.696   2.022  11.846 -0.2505 -0.3969 -0.1843
 5643SOL    HW128562   4.667   2.027  11.754  2.1742  1.9018 -0.8300
 5643SOL    HW228563   4.658   1.939  11.872  0.4363 -0.4651  0.5866
 5644SOL     OW28564   0.322   2.147   9.023 -0.2668  0.6635  0.0739
 5644SOL    HW128565   0.339   2.236   9.052 -0.6065  0.7172  0.1015
 5644SOL    HW228566   0.255   2.164   8.957 -0.7811  1.1296  0.7271
 5645SOL     OW28567   0.970   0.627   3.602  0.1211  0.2251 -0.0106
 5645SOL    HW128568   0.941   0.594   3.517 -1.6286  0.1200  0.6290
 5645SOL    HW228569   1.016   0.707   3.576  0.2106  0.3338  0.4966
 5646SOL     OW28570   2.090   0.238  12.070 -0.7358 -0.2227  0.4291
 5646SOL    HW128571   2.084   0.224  11.976  2.6532 -0.4940  0.2618
 5646SOL    HW228572   2.022   0.303  12.088 -0.5585  0.1632 -0.2758
 5647SOL     OW28573   4.487   4.516  14.393 -0.6316  0.1060 -0.1719
 5647SOL    HW128574   4.409   4.502  14.447 -1.5766 -2.7606 -2.2400
 5647SOL    HW228575   4.450   4.583  14.335  0.7211  0.6579 -0.4003
 5648SOL     OW28576   2.547   3.383   2.780 -0.3430 -0.4411 -0.1766
 5648SOL    HW128577   2.599   3.306   2.756 -3.5060 -1.9700 -2.1030
 5648SOL    HW228578   2.613   3.423   2.837 -0.3756 -0.2544 -0.2720
 5649SOL     OW28579   0.202   4.550  12.987  0.4951  0.0276 -0.5200
 5649SOL    HW128580   0.245   4.616  13.042 -1.0163  3.0370 -2.9237
 5649SOL    HW228581   0.120   4.543  13.037  1.8250  0.2253  1.6881
 5650SOL     OW28582   2.434   0.263  12.349 -0.0422 -0.2141 -0.5271
 5650SOL    HW128583   2.348   0.251  12.389 -0.1400  0.0936 -0.6484
 5650SOL    HW228584   2.476   0.183  12.383 -3.2828 -1.6604  0.1165
 5651SOL     OW28585   3.290   1.394  10.593 -0.3451  0.6549  0.7398
 5651SOL    HW128586   3.308   1.485  10.616 -1.0950  0.3549  2.4877
 5651SOL    HW228587   3.378   1.360  10.577 -1.3430 -1.1426 -1.0000
 5652SOL     OW28588   4.232   3.181  16.695 -0.3302  0.3970  0.6505
 5652SOL    HW128589   4.274   3.095  16.702 -1.2046  0.0295  1.2808
 5652SOL    HW228590   4.144   3.151  16.674 -0.1660 -0.8653  1.8060
 5653SOL     OW28591   1.439   2.362   2.382  0.3291 -0.2893 -0.0212
 5653SOL    HW128592   1.435   2.350   2.477 -1.0013  0.3912  0.0021
 5653SOL    HW228593   1.377   2.295   2.353  0.5065 -1.3472  2.0016
 5654SOL     OW28594   1.893   1.408   3.205 -0.2940 -0.0886 -0.0429
 5654SOL    HW128595   1.918   1.408   3.113 -0.2269 -2.1044 -0.0188
 5654SOL    HW228596   1.962   1.467   3.236  0.4505 -1.1264  0.2837
 5655SOL     OW28597   3.525   0.950   1.541 -0.7214  0.2341 -0.6168
 5655SOL    HW128598   3.587   0.897   1.491  2.6783  1.2426  2.5879
 5655SOL    HW228599   3.553   0.931   1.630  1.6271 -1.2734 -1.6954
 5656SOL     OW28600   2.891   1.999  10.048  0.4908  0.6240 -0.4503
 5656SOL    HW128601   2.903   1.906  10.028 -1.7023  0.7537 -2.3464
 5656SOL    HW228602   2.966   2.002  10.107  1.2640  0.0120 -1.4205
 5657SOL     OW28603   1.103   1.686   6.495 -0.7435  0.4025  0.8194
 5657SOL    HW128604   1.147   1.759   6.539 -0.2589 -0.2643  1.4470
 5657SOL    HW228605   1.159   1.609   6.489 -2.0396 -0.6567  2.2242
 5658SOL     OW28606   3.263   3.390   8.177 -0.6769 -0.5701 -0.0384
 5658SOL    HW128607   3.261   3.481   8.150 -0.4415 -0.6814 -0.4300
 5658SOL    HW228608   3.347   3.389   8.223 -1.1010 -0.0244  0.7319
 5659SOL     OW28609   1.172   1.103   5.272  0.0282 -0.2361  0.1102
 5659SOL    HW128610   1.176   1.194   5.242  0.1075  0.2248  1.5095
 5659SOL    HW228611   1.221   1.110   5.353 -0.7820  0.4013  0.5445
 5660SOL     OW28612   1.488   2.153   6.677  1.0274  0.3493 -0.4416
 5660SOL    HW128613   1.446   2.123   6.597  1.4681 -1.0468 -0.1537
 5660SOL    HW228614   1.442   2.235   6.694 -0.0020 -0.4732  0.7033
 5661SOL     OW28615   0.970   0.834   5.417  0.4390  0.9001  0.0013
 5661SOL    HW128616   1.026   0.845   5.340  0.4619  1.5233  0.1045
 5661SOL    HW228617   0.884   0.823   5.376  0.0664  0.6870  0.8487
 5662SOL     OW28618   2.309   4.575   4.372 -0.0060  0.7747 -0.3211
 5662SOL    HW128619   2.371   4.624   4.316 -0.0338  0.8074 -0.3230
 5662SOL    HW228620   2.293   4.632   4.447 -1.5404 -0.8374  0.5650
 5663SOL     OW28621   0.239   2.421   5.528  0.1809 -0.2285 -0.1043
 5663SOL    HW128622   0.334   2.409   5.523  0.8132  3.5725  2.9025
 5663SOL    HW228623   0.231   2.409   5.623  1.6484  1.1890  0.1912
 5664SOL     OW28624   0.233   0.792  14.329 -0.3778 -0.7397 -0.3961
 5664SOL    HW128625   0.151   0.777  14.282 -1.1245  3.4631 -0.4657
 5664SOL    HW228626   0.287   0.846  14.271 -1.9476  0.3320 -0.8536
 5665SOL     OW28627   1.349   3.690  11.847  0.2403  0.1837 -0.3328
 5665SOL    HW128628   1.375   3.613  11.898 -0.6836  0.3107  0.3129
 5665SOL    HW228629   1.394   3.674  11.763 -0.4230  1.0576 -0.8568
 5666SOL     OW28630   2.120   1.510  15.894 -0.2185  0.1759  0.2709
 5666SOL    HW128631   2.069   1.561  15.831  0.5999  0.4727 -0.1489
 5666SOL    HW228632   2.203   1.556  15.883 -0.6380  0.4086 -1.8867
 5667SOL     OW28633   0.606   2.846   8.793 -0.5516  0.0839  0.0638
 5667SOL    HW128634   0.687   2.798   8.807  0.1377  1.0543 -0.5675
 5667SOL    HW228635   0.569   2.786   8.728  0.5079  1.6288 -1.9814
 5668SOL     OW28636   1.475   4.006  14.963 -0.0042 -0.5199 -0.9422
 5668SOL    HW128637   1.457   3.921  15.003 -0.8576 -0.4570 -1.1926
 5668SOL    HW228638   1.438   3.996  14.875  0.4283 -0.7927 -1.0934
 5669SOL     OW28639   2.431   1.003   3.349  0.3790 -0.3350  0.5388
 5669SOL    HW128640   2.349   1.015   3.397  0.1529 -0.0366  0.0814
 5669SOL    HW228641   2.484   1.078   3.377  1.5116 -0.2160 -1.8479
 5670SOL     OW28642   0.022   0.832   2.221 -0.3486 -0.8127 -0.0759
 5670SOL    HW128643   4.713   0.789   2.150  2.6362 -3.1371 -0.6162
 5670SOL    HW228644   0.108   0.791   2.218  0.3058  0.5316  0.2661
 5671SOL     OW28645   0.321   2.294   0.528  0.5849  0.1208  0.2961
 5671SOL    HW128646   0.337   2.231   0.597 -1.4877 -1.6246 -0.8280
 5671SOL    HW228647   0.389   2.271   0.465  0.1970 -1.8463  0.6123
 5672SOL     OW28648   2.862   0.824   2.601  0.0125 -0.5409  0.4714
 5672SOL    HW128649   2.903   0.833   2.515  2.5280 -0.6217  1.6785
 5672SOL    HW228650   2.774   0.846   2.571 -0.2575 -0.0662  1.6106
 5673SOL     OW28651   3.890   4.114   4.195  0.2200 -0.0000  0.4840
 5673SOL    HW128652   3.902   4.081   4.284 -1.5427 -0.3243  0.5932
 5673SOL    HW228653   3.880   4.205   4.224 -0.5620  0.4131 -1.0823
 5674SOL     OW28654   2.291   1.729  14.431 -0.9218 -0.2387 -0.3449
 5674SOL    HW128655   2.321   1.819  14.447 -0.2001 -0.6833  0.7721
 5674SOL    HW228656   2.217   1.722  14.492 -0.9163  0.2392 -0.2830
 5675SOL     OW28657   3.315   1.886   5.693  0.0350  0.6010  0.1164
 5675SOL    HW128658   3.232   1.910   5.651 -0.4445  0.9603  1.2572
 5675SOL    HW228659   3.306   1.912   5.785 -1.4426 -0.8680  0.3983
 5676SOL     OW28660   3.168   3.670   6.510  0.0803 -1.0996 -0.1707
 5676SOL    HW128661   3.226   3.624   6.449 -1.2668 -2.1485 -0.6709
 5676SOL    HW228662   3.160   3.755   6.468 -0.6953 -0.3227  1.5421
 5677SOL     OW28663   0.947   4.623  13.252 -0.0511  1.0617 -0.3684
 5677SOL    HW128664   0.951   4.549  13.312  0.5675  0.7642 -0.7743
 5677SOL    HW228665   0.913   4.696  13.303 -0.4942 -0.8090  2.0117
 5678SOL     OW28666   2.705   0.496   5.970  0.2672 -0.3444 -0.0783
 5678SOL    HW128667   2.776   0.509   6.033 -0.3033 -0.9589  0.6972
 5678SOL    HW228668   2.632   0.475   6.029  0.1844  0.1489 -0.0092
 5679SOL     OW28669   1.879   4.707   2.492  0.0941 -0.1318  0.0888
 5679SOL    HW128670   1.814   4.638   2.485 -0.4808  0.2755  1.6402
 5679SOL    HW228671   1.909   4.709   2.401  0.6659 -1.4498  0.2444
 5680SOL     OW28672   1.102   1.131   8.461 -0.5775 -0.1633  0.4757
 5680SOL    HW128673   1.126   1.216   8.499  1.2517  0.3966 -1.9401
 5680SOL    HW228674   1.172   1.108   8.400  0.1539  0.3850  1.1045
 5681SOL     OW28675   1.105   1.143   7.202 -0.7872  0.4225  0.0871
 5681SOL    HW128676   1.089   1.087   7.126 -2.1788  1.5397 -0.4468
 5681SOL    HW228677   1.058   1.223   7.176  2.9103  2.7842  0.7384
 5682SOL     OW28678   3.794   0.500   2.651 -0.5020 -0.2038 -0.4187
 5682SOL    HW128679   3.810   0.408   2.672 -2.0580 -0.7055 -1.4175
 5682SOL    HW228680   3.761   0.524   2.738  0.6248  1.2250 -0.3906
 5683SOL     OW28681   1.395   2.081   5.466  0.1473  0.3437 -0.1167
 5683SOL    HW128682   1.328   2.098   5.532 -1.1805 -0.3877 -1.2824
 5683SOL    HW228683   1.355   2.116   5.387 -1.3292 -1.8829 -0.3739
 5684SOL     OW28684   2.418   1.170   5.060  0.9673  0.0354  0.5009
 5684SOL    HW128685   2.410   1.075   5.068  0.5635 -0.0814 -1.0952
 5684SOL    HW228686   2.401   1.209   5.146  0.2780  0.6563  0.0889
 5685SOL     OW28687   3.986   0.175   5.809 -0.1738  0.0893  0.2937
 5685SOL    HW128688   3.905   0.150   5.852 -1.5022  1.0754 -1.6459
 5685SOL    HW228689   3.952   0.189   5.721 -3.0427  0.7048  1.5146
 5686SOL     OW28690   1.170   2.004   8.062  0.1079  0.8803 -0.5407
 5686SOL    HW128691   1.121   2.068   8.113  0.0428  0.1418  0.3222
 5686SOL    HW228692   1.176   2.054   7.980  0.8872 -0.6799 -1.4485
 5687SOL     OW28693   1.506   0.119  17.628  0.2508  0.6652 -0.3608
 5687SOL    HW128694   1.502   0.179  17.553 -1.4570 -0.3832 -1.1119
 5687SOL    HW228695   1.504   0.030  17.593 -1.0003 -0.2354  2.0002
 5688SOL     OW28696   2.692   3.766   4.177 -0.3505 -0.4936  0.0064
 5688SOL    HW128697   2.735   3.780   4.092  0.8833 -0.8356  0.5656
 5688SOL    HW228698   2.765   3.790   4.234  0.0806 -2.3149  0.2372
 5689SOL     OW28699   2.327   3.180   3.913 -0.4706 -0.1029 -0.3423
 5689SOL    HW128700   2.300   3.113   3.976  2.8633 -0.7344  0.3744
 5689SOL    HW228701   2.385   3.136   3.850 -0.0605 -1.4978  1.0172
 5690SOL     OW28702   2.027   2.897   0.531 -0.1634 -0.8567  0.0864
 5690SOL    HW128703   2.009   2.984   0.495  1.8596 -0.5508 -0.2227
 5690SOL    HW228704   2.075   2.932   0.606 -1.3461 -1.5354  1.1605
 5691SOL     OW28705   0.234   0.665   2.212 -0.6415  0.0883 -0.1562
 5691SOL    HW128706   0.327   0.678   2.227 -0.3413 -2.5408  0.1142
 5691SOL    HW228707   0.230   0.575   2.244 -3.1918 -0.2617 -1.3962
 5692SOL     OW28708   2.854   1.315   5.083  0.4918 -0.1074  0.3134
 5692SOL    HW128709   2.802   1.264   5.145  0.1012  0.2323  0.2618
 5692SOL    HW228710   2.795   1.390   5.077  1.3573  0.6235  0.7831
 5693SOL     OW28711   2.555   3.055   2.202  0.7068  0.4631 -0.5439
 5693SOL    HW128712   2.479   2.999   2.187  0.9069 -0.5702  2.2949
 5693SOL    HW228713   2.543   3.135   2.151 -1.8463  1.4513  1.5879
 5694SOL     OW28714   3.591   2.538   4.861  0.5493 -0.0670 -0.6146
 5694SOL    HW128715   3.529   2.496   4.801  0.7058 -1.1330 -0.0263
 5694SOL    HW228716   3.653   2.548   4.788  0.6181 -0.5167 -0.6202
 5695SOL     OW28717   2.336   3.253   4.560  0.4019 -0.2480  0.1011
 5695SOL    HW128718   2.313   3.339   4.526  1.1886  0.4462  1.3495
 5695SOL    HW228719   2.387   3.221   4.485  0.2494  2.3956 -1.1090
 5696SOL     OW28720   2.745   0.087  14.913  0.3725  0.4441 -0.3532
 5696SOL    HW128721   2.750   0.156  14.979 -1.7394  0.8929 -0.6657
 5696SOL    HW228722   2.655   0.106  14.888  0.8290 -1.1305 -3.1598
 5697SOL     OW28723   3.356   4.501  14.324  0.2755  0.1181 -0.0524
 5697SOL    HW128724   3.329   4.409  14.325  0.1397  0.1390 -2.9876
 5697SOL    HW228725   3.270   4.539  14.306 -0.5914 -1.3305  1.0484
 5698SOL     OW28726   4.652   0.095   7.427  0.1962  0.2265  0.5308
 5698SOL    HW128727   4.563   0.130   7.437  0.2452  0.3894  0.4046
 5698SOL    HW228728   4.694   0.168   7.381  1.3424 -0.6410  0.2033
 5699SOL     OW28729   3.494   2.458   7.054 -0.0364 -0.3086  0.1125
 5699SOL    HW128730   3.505   2.460   6.959 -4.4587 -0.8461 -0.4139
 5699SOL    HW228731   3.560   2.398   7.088 -1.0038 -1.0970  0.6268
 5700SOL     OW28732   0.300   0.403   7.029 -0.2183  0.7647  0.8629
 5700SOL    HW128733   0.386   0.374   6.999 -1.3685 -1.6651 -0.1456
 5700SOL    HW228734   0.245   0.326   7.010 -0.5044  1.3290 -0.5746
 5701SOL     OW28735   1.867   0.821   6.292 -0.8920  0.5381 -0.1689
 5701SOL    HW128736   1.857   0.794   6.384 -1.3639 -0.3496 -0.4790
 5701SOL    HW228737   1.860   0.735   6.250 -0.1025  0.3944 -0.0203
 5702SOL     OW28738   4.446   3.280   5.232  0.0232 -0.3579  0.1787
 5702SOL    HW128739   4.413   3.191   5.235  1.0081 -0.7751 -1.2594
 5702SOL    HW228740   4.497   3.273   5.151 -0.4009  0.0966 -0.1358
 5703SOL     OW28741   2.090   4.565   6.978  0.5274  0.3653  0.3098
 5703SOL    HW128742   2.088   4.636   7.042 -2.7096  0.2088  0.3591
 5703SOL    HW228743   2.178   4.530   6.993  1.6519  2.3347 -1.6075
 5704SOL     OW28744   3.703   0.735  11.226 -0.0471 -0.2982  0.2476
 5704SOL    HW128745   3.712   0.757  11.319 -0.9533  3.0841 -0.4764
 5704SOL    HW228746   3.737   0.812  11.179 -0.2089  0.2409  1.0086
 5705SOL     OW28747   0.783   0.838   2.114 -0.1640  0.6038 -0.0235
 5705SOL    HW128748   0.802   0.916   2.062  2.6426  0.0252  0.1047
 5705SOL    HW228749   0.692   0.824   2.087 -0.1486  2.1266 -0.8235
 5706SOL     OW28750   3.369   4.045   8.727 -0.6307  0.3127  0.0041
 5706SOL    HW128751   3.324   3.969   8.763  0.2383  0.3751  1.2067
 5706SOL    HW228752   3.294   4.094   8.693  0.9337  1.3599 -1.9623
 5707SOL     OW28753   0.258   4.172  12.760 -0.2588  0.2594  0.6710
 5707SOL    HW128754   0.348   4.145  12.742 -0.6296 -0.5068 -0.0371
 5707SOL    HW228755   0.192   4.128  12.706 -0.1060 -0.6419  1.2169
 5708SOL     OW28756   0.538   1.133   8.110  0.1318 -0.0096 -0.0531
 5708SOL    HW128757   0.615   1.187   8.126  1.5608 -3.0256  3.3085
 5708SOL    HW228758   0.559   1.065   8.175  0.9892  1.9792  1.7493
 5709SOL     OW28759   0.481   3.557   5.175 -0.1652  0.1305 -0.8285
 5709SOL    HW128760   0.547   3.590   5.237  1.2055 -1.4924 -1.4424
 5709SOL    HW228761   0.504   3.598   5.092  1.4141  2.5321  0.7673
 5710SOL     OW28762   2.786   2.180   4.406  0.2780  0.2225  0.0132
 5710SOL    HW128763   2.856   2.245   4.400  0.8398 -0.3765  0.1667
 5710SOL    HW228764   2.701   2.220   4.383 -0.2935  0.3528  2.3779
 5711SOL     OW28765   2.790   3.727   5.547  0.0512 -0.2153  0.1880
 5711SOL    HW128766   2.777   3.783   5.623 -0.0264 -1.0854  0.8217
 5711SOL    HW228767   2.838   3.791   5.495 -2.1441  0.7411 -0.6653
 5712SOL     OW28768   2.577   1.425   2.855 -0.2044 -0.6480 -0.2800
 5712SOL    HW128769   2.594   1.381   2.938 -2.4939  0.0693  0.5638
 5712SOL    HW228770   2.482   1.419   2.843 -0.2777 -0.8655  0.4259
 5713SOL     OW28771   1.905   4.376   9.044 -0.0603 -0.0781 -0.0233
 5713SOL    HW128772   1.917   4.348   9.135 -0.7858 -1.2420 -0.2829
 5713SOL    HW228773   1.931   4.293   9.003  3.5697  0.6006  0.9502
 5714SOL     OW28774   0.179   3.781   6.178  0.0902 -0.0739  0.2875
 5714SOL    HW128775   0.212   3.816   6.261  0.1819  0.3574  0.0711
 5714SOL    HW228776   0.094   3.823   6.190 -0.5430 -0.7434 -1.8596
 5715SOL     OW28777   0.824   2.900   7.985 -0.3584 -0.4174 -0.5412
 5715SOL    HW128778   0.821   2.975   8.045 -1.9475 -1.2961  0.4617
 5715SOL    HW228779   0.814   2.830   8.050 -0.7348  0.0931 -0.0450
 5716SOL     OW28780   1.722   3.652   2.950  0.1758 -0.2505 -0.1017
 5716SOL    HW128781   1.769   3.731   2.923 -0.1833 -0.2368 -0.6840
 5716SOL    HW228782   1.799   3.596   2.955 -0.1378 -0.7835 -1.2116
 5717SOL     OW28783   3.101   2.325  12.983 -0.0878 -0.3772 -0.4903
 5717SOL    HW128784   3.175   2.386  12.983  0.6783 -1.2983 -1.5637
 5717SOL    HW228785   3.118   2.257  13.049 -1.0188 -0.3376 -0.2031
 5718SOL     OW28786   3.799   0.260   6.433 -0.2307  0.2607  0.3316
 5718SOL    HW128787   3.876   0.220   6.473  0.2754  0.9073  0.0014
 5718SOL    HW228788   3.736   0.222   6.495 -2.7813  3.3507 -0.3326
 5719SOL     OW28789   1.077   1.066   7.825  0.4675 -0.1437  0.1589
 5719SOL    HW128790   1.164   1.060   7.785 -0.2729  0.1546 -1.5104
 5719SOL    HW228791   1.093   1.008   7.900  4.7540  0.5457 -0.2434
 5720SOL     OW28792   2.359   0.304   1.309 -0.0899  0.0713 -0.5557
 5720SOL    HW128793   2.335   0.223   1.264  0.4968 -1.3437  1.7135
 5720SOL    HW228794   2.340   0.364   1.236 -0.0923  1.3427  0.4905
 5721SOL     OW28795   1.976   3.516   2.936 -0.5133  0.0521  0.1201
 5721SOL    HW128796   2.016   3.525   2.850 -0.5385  2.7219  0.3742
 5721SOL    HW228797   1.966   3.421   2.942 -0.4178  0.0307 -0.0580
 5722SOL     OW28798   3.328   2.910  16.819  0.1154 -0.2965 -0.5768
 5722SOL    HW128799   3.301   2.927  16.729  1.2398 -1.4608 -1.1317
 5722SOL    HW228800   3.335   2.815  16.820 -0.0754 -0.2941  1.2859
 5723SOL     OW28801   1.105   1.657   7.139 -0.4253  0.3049  0.2645
 5723SOL    HW128802   1.094   1.743   7.098 -1.5374 -0.1891 -0.4434
 5723SOL    HW228803   1.198   1.637   7.128 -1.1078 -2.0589 -1.1449
 5724SOL     OW28804   3.892   0.490   3.232  0.4813  0.0294 -0.0436
 5724SOL    HW128805   3.826   0.483   3.301  0.6804  3.7162  0.4969
 5724SOL    HW228806   3.913   0.583   3.234  1.1155 -0.0916 -1.2484
 5725SOL     OW28807   0.947   1.155   0.758 -0.2281 -0.3821  0.2703
 5725SOL    HW128808   1.016   1.099   0.792  0.9297 -0.1741 -1.7186
 5725SOL    HW228809   0.873   1.135   0.815 -0.4518  1.8839  0.7492
 5726SOL     OW28810   1.132   0.946   1.444 -0.3532  0.0906 -0.0807
 5726SOL    HW128811   1.209   0.952   1.387 -0.3631  0.5299 -0.0468
 5726SOL    HW228812   1.166   0.873   1.495  0.0380 -0.9451 -1.7946
 5727SOL     OW28813   2.033   2.356  12.207 -0.2080 -0.5621  0.6187
 5727SOL    HW128814   1.957   2.414  12.205  1.0626  1.0959  0.5653
 5727SOL    HW228815   2.055   2.356  12.300  1.2915 -2.6795  0.2861
 5728SOL     OW28816   3.266   2.937   4.522  0.7030 -0.1093  0.4633
 5728SOL    HW128817   3.345   2.945   4.468 -0.1870  1.0567 -0.6360
 5728SOL    HW228818   3.223   3.018   4.498  2.2474  0.0338 -1.7920
 5729SOL     OW28819   4.043   3.871  15.881  0.1410  0.2563 -0.0150
 5729SOL    HW128820   4.035   3.913  15.795 -1.2971  2.6022  1.2411
 5729SOL    HW228821   3.953   3.855  15.910  0.4287 -4.1575 -1.5971
 5730SOL     OW28822   2.479   1.099  15.855 -0.2244  0.1774  0.1798
 5730SOL    HW128823   2.476   1.023  15.797 -1.7233  1.4125 -1.3767
 5730SOL    HW228824   2.511   1.061  15.936 -2.8922 -0.6150  0.8709
 5731SOL     OW28825   1.255   1.194   4.447  0.2477 -0.4737 -0.5413
 5731SOL    HW128826   1.288   1.255   4.514 -0.6045  1.4004 -1.8308
 5731SOL    HW228827   1.167   1.193   4.483  0.9307  0.4295  1.1432
 5732SOL     OW28828   3.173   2.762   6.423 -0.0993 -0.3089 -0.1248
 5732SOL    HW128829   3.250   2.725   6.379 -0.7201 -2.1555  0.3296
 5732SOL    HW228830   3.205   2.767   6.513  1.6501  0.6846 -0.7891
 5733SOL     OW28831   1.990   1.467   9.015  0.6876  0.0803 -0.0663
 5733SOL    HW128832   1.945   1.468   9.099 -0.4175  2.4079 -0.6613
 5733SOL    HW228833   2.033   1.553   9.024  0.0300  0.3412  0.5570
 5734SOL     OW28834   3.159   3.640   4.067  0.0115  0.3550  0.4964
 5734SOL    HW128835   3.237   3.617   4.016 -0.8645  1.1817 -1.2340
 5734SOL    HW228836   3.103   3.675   3.997 -1.6919  0.3969  1.8789
 5735SOL     OW28837   2.820   3.697  13.675  0.0194  0.3162 -0.6899
 5735SOL    HW128838   2.792   3.723  13.587 -0.3349 -0.4957 -0.8177
 5735SOL    HW228839   2.903   3.658  13.647  0.0332  0.7301 -1.2239
 5736SOL     OW28840   1.027   1.582   8.937 -0.1361 -0.1714  0.1328
 5736SOL    HW128841   0.942   1.572   8.895 -0.1823  1.3136 -0.1160
 5736SOL    HW228842   1.072   1.506   8.900 -0.1551 -0.9952  1.7960
 5737SOL     OW28843   4.640   0.647   8.444 -0.1193  0.1114  0.5698
 5737SOL    HW128844   4.641   0.632   8.539 -0.1404  1.2647  0.7514
 5737SOL    HW228845   4.654   0.559   8.409  1.9769  1.6850 -2.4836
 5738SOL     OW28846   2.245   1.362  16.125  0.1201  0.2535 -0.5893
 5738SOL    HW128847   2.281   1.443  16.088  3.0418 -0.2534  1.1041
 5738SOL    HW228848   2.259   1.374  16.219 -2.3795  0.5758 -0.2536
 5739SOL     OW28849   4.125   1.674   9.657 -0.8270  0.4133 -0.0356
 5739SOL    HW128850   4.099   1.633   9.575  1.3011  0.3315 -0.6549
 5739SOL    HW228851   4.111   1.601   9.717  2.0458  0.1999  0.3817
 5740SOL     OW28852   0.524   1.462   6.876 -0.2578 -0.6407 -0.1716
 5740SOL    HW128853   0.533   1.555   6.897  0.7248 -0.4704 -1.3086
 5740SOL    HW228854   0.439   1.455   6.919 -0.3971 -1.5255 -0.5797
 5741SOL     OW28855   2.689   4.179  15.733 -0.9324 -0.5533  0.2429
 5741SOL    HW128856   2.733   4.198  15.650 -0.2808  1.6373  1.0931
 5741SOL    HW228857   2.598   4.177  15.702 -0.0992 -1.3834 -2.1409
 5742SOL     OW28858   0.504   4.673   2.909  0.2716  0.2770 -0.0670
 5742SOL    HW128859   0.553   4.615   2.967  0.4076  1.5336  1.0802
 5742SOL    HW228860   0.449   4.714   2.976 -1.0628 -1.8978  0.1407
 5743SOL     OW28861   4.370   2.759   8.912  0.1007  0.2709  0.4359
 5743SOL    HW128862   4.301   2.817   8.945  0.1536  1.4795 -1.5659
 5743SOL    HW228863   4.314   2.684   8.894  1.6800 -0.3756 -1.7758
 5744SOL     OW28864   4.476   0.612  15.656  0.1991 -0.3851 -0.5681
 5744SOL    HW128865   4.466   0.662  15.575 -1.5368 -0.1270 -0.2108
 5744SOL    HW228866   4.521   0.538  15.615 -2.5993 -3.4198  1.7569
 5745SOL     OW28867   3.221   4.467  14.781  0.2718 -0.1749  0.1627
 5745SOL    HW128868   3.251   4.378  14.763  0.0035 -0.5183  1.3816
 5745SOL    HW228869   3.154   4.473  14.714 -1.3543  2.1508  1.9671
 5746SOL     OW28870   1.036   2.045   6.351 -0.7012 -0.2485  0.5111
 5746SOL    HW128871   0.991   2.057   6.435 -0.0642 -1.5392  1.0451
 5746SOL    HW228872   1.113   2.103   6.350 -2.0564  1.5118 -0.8662
 5747SOL     OW28873   4.634   2.546   2.370  0.1421 -0.2810 -0.0031
 5747SOL    HW128874   4.700   2.485   2.336 -0.2461 -1.3029  1.0759
 5747SOL    HW228875   4.614   2.500   2.451 -0.3441  1.8636  1.0775
 5748SOL     OW28876   1.078   3.450   3.910 -0.1820 -0.1835 -0.0748
 5748SOL    HW128877   1.087   3.432   3.816 -0.4057  1.6264 -0.4337
 5748SOL    HW228878   1.171   3.441   3.934 -0.3527 -1.3305  0.1463
 5749SOL     OW28879   3.718   0.771   1.429  0.1243 -0.3985  0.0526
 5749SOL    HW128880   3.740   0.728   1.346 -1.7735 -0.9114 -0.1779
 5749SOL    HW228881   3.645   0.716   1.455 -2.1029  2.6193  0.2112
 5750SOL     OW28882   3.039   2.773  14.887  0.2832 -0.3319 -0.1788
 5750SOL    HW128883   3.052   2.847  14.828  0.0291  0.2102  0.4386
 5750SOL    HW228884   2.944   2.784  14.890  0.2773 -0.2321 -0.8100
 5751SOL     OW28885   4.638   2.548   5.051  0.1759  0.2401 -0.1869
 5751SOL    HW128886   4.690   2.467   5.052 -1.6503 -0.9656 -1.9076
 5751SOL    HW228887   4.638   2.576   5.142  0.8222 -0.6399  0.0939
 5752SOL     OW28888   1.017   3.444  14.456  0.1624  0.5919 -0.1536
 5752SOL    HW128889   0.988   3.535  14.464  0.9133  0.7408  0.8999
 5752SOL    HW228890   0.937   3.405  14.422 -0.7668 -0.5766  3.3728
 5753SOL     OW28891   2.132   0.764   5.390  1.2954  0.2927  0.3371
 5753SOL    HW128892   2.163   0.685   5.434  1.0949 -0.0139 -0.0759
 5753SOL    HW228893   2.211   0.812   5.366  0.4979  0.6720 -1.5557
 5754SOL     OW28894   2.517   1.739   5.996 -0.3430 -0.0882 -0.2775
 5754SOL    HW128895   2.490   1.775   6.080  1.3875  0.7705 -0.0845
 5754SOL    HW228896   2.544   1.648   6.013  2.8575  0.7732 -0.8501
 5755SOL     OW28897   1.203   2.228   2.230  0.2438 -0.0807 -0.7599
 5755SOL    HW128898   1.139   2.201   2.296 -0.6012  0.4816 -1.3597
 5755SOL    HW228899   1.191   2.323   2.232 -1.2120 -0.2834  0.3371
 5756SOL     OW28900   1.823   2.113   3.525  0.1365  0.5678  0.5172
 5756SOL    HW128901   1.873   2.168   3.585  1.2015  1.0541 -0.8020
 5756SOL    HW228902   1.738   2.158   3.531 -0.6881 -0.5334 -2.4554
 5757SOL     OW28903   0.404   0.551   8.682 -0.3544  0.6448 -0.2029
 5757SOL    HW128904   0.350   0.581   8.608  1.2936  2.3872 -0.7107
 5757SOL    HW228905   0.407   0.629   8.736 -1.0233 -1.0886  2.3134
 5758SOL     OW28906   2.704   3.839   8.949  0.1495 -0.4208 -0.2479
 5758SOL    HW128907   2.704   3.759   9.002  0.5358  1.6238  2.8144
 5758SOL    HW228908   2.730   3.902   9.016 -1.8513  0.3610 -0.2030
 5759SOL     OW28909   4.267   1.999   1.884  0.4769  0.3794  0.1285
 5759SOL    HW128910   4.310   1.947   1.952  2.7993  1.4466 -0.5422
 5759SOL    HW228911   4.271   1.936   1.812 -0.7893  1.0873 -0.5648
 5760SOL     OW28912   3.363   0.992   1.852 -0.4284 -0.2568  0.0222
 5760SOL    HW128913   3.360   0.928   1.923  0.9708  1.1875  1.4053
 5760SOL    HW228914   3.394   0.935   1.782 -0.1525 -0.7880  0.5816
 5761SOL     OW28915   4.488   3.680   3.653  0.0974  0.2148  0.5037
 5761SOL    HW128916   4.433   3.706   3.727  2.8540  3.4766  1.4025
 5761SOL    HW228917   4.511   3.591   3.680 -0.7711 -0.5188 -1.1553
 5762SOL     OW28918   1.766   1.528  15.929  0.0172 -0.5084 -0.1445
 5762SOL    HW128919   1.799   1.526  16.019 -1.1517  0.7078  0.3126
 5762SOL    HW228920   1.829   1.474  15.880 -0.8043 -0.8535 -0.8201
 5763SOL     OW28921   2.781   2.096   0.091  0.2099 -0.3472  0.1463
 5763SOL    HW128922   2.729   2.079   0.013 -0.5788  1.6980  0.2204
 5763SOL    HW228923   2.772   2.190   0.109 -0.9003 -0.3885 -0.1754
 5764SOL     OW28924   0.864   4.011  14.303 -0.1687  0.0399 -0.3272
 5764SOL    HW128925   0.781   4.054  14.326  0.4122  0.1096  1.6589
 5764SOL    HW228926   0.826   3.952  14.237 -1.6898  0.9048 -0.2213
 5765SOL     OW28927   2.117   3.258  14.357 -0.3639  0.2213  0.2008
 5765SOL    HW128928   2.160   3.174  14.364  0.7497  0.8797  1.1691
 5765SOL    HW228929   2.162   3.298  14.282  0.7854  0.1704  0.8747
 5766SOL     OW28930   3.193   4.518   6.418  0.0386  0.1252 -0.1621
 5766SOL    HW128931   3.232   4.605   6.406 -0.0285  0.5356  2.4896
 5766SOL    HW228932   3.122   4.531   6.482  0.0700  0.1548 -0.1331
 5767SOL     OW28933   4.534   4.588   2.606 -0.4472  0.6072 -0.0401
 5767SOL    HW128934   4.603   4.531   2.642 -0.4501 -0.5508 -1.8972
 5767SOL    HW228935   4.541   4.559   2.515  1.4041 -0.7179  0.5244
 5768SOL     OW28936   1.119   3.131  10.667  0.3525  0.0289  0.7172
 5768SOL    HW128937   1.207   3.111  10.698 -0.2356 -0.3441  2.1450
 5768SOL    HW228938   1.063   3.087  10.731  1.9817 -2.0173  0.7447
 5769SOL     OW28939   2.074   0.557   4.986 -0.4518 -0.0324 -0.0638
 5769SOL    HW128940   1.985   0.591   4.973 -0.5625 -0.5514 -0.6444
 5769SOL    HW228941   2.120   0.591   4.909 -0.8096 -0.5307 -0.4988
 5770SOL     OW28942   4.454   4.138   7.608  0.1287  0.1732  0.5065
 5770SOL    HW128943   4.414   4.174   7.529 -1.3854  1.3295  1.7866
 5770SOL    HW228944   4.504   4.215   7.636 -0.2219  0.5780  0.0190
 5771SOL     OW28945   4.433   1.261  15.928  0.5010 -0.3712 -0.8930
 5771SOL    HW128946   4.429   1.325  15.999  0.7388 -2.0187  0.5853
 5771SOL    HW228947   4.522   1.228  15.938 -0.8413 -3.2542  1.4154
 5772SOL     OW28948   1.122   0.865   2.862  0.9075  0.2196  0.1362
 5772SOL    HW128949   1.057   0.876   2.793  0.8471  0.9791  0.3177
 5772SOL    HW228950   1.133   0.954   2.895 -1.3707  0.7918 -0.6354
 5773SOL     OW28951   0.882   3.874  11.777  0.3883 -0.2166  0.3054
 5773SOL    HW128952   0.872   3.806  11.843 -1.9471 -0.7530 -0.6164
 5773SOL    HW228953   0.973   3.860  11.748  0.7175 -1.8307  2.1385
 5774SOL     OW28954   1.845   2.610   6.217  0.5526 -0.4832 -0.1254
 5774SOL    HW128955   1.890   2.552   6.156 -0.5671 -1.7451  0.2597
 5774SOL    HW228956   1.801   2.552   6.278  0.2421 -0.6163 -0.4838
 5775SOL     OW28957   3.840   4.717   6.932  0.7779  0.1902  0.7885
 5775SOL    HW128958   3.809   0.061   6.969  0.1095  0.7797 -1.0677
 5775SOL    HW228959   3.759   4.667   6.933 -0.4141  2.1207  0.8754
 5776SOL     OW28960   3.768   1.609   3.090  0.0069  0.0776 -0.0088
 5776SOL    HW128961   3.756   1.516   3.071  1.6303  0.1984 -1.5971
 5776SOL    HW228962   3.862   1.606   3.105 -0.0065 -0.1082  0.0433
 5777SOL     OW28963   2.897   3.678  11.602 -0.1371 -0.0853 -1.5026
 5777SOL    HW128964   2.986   3.709  11.621 -1.6471  3.7843 -0.8204
 5777SOL    HW228965   2.917   3.621  11.527  1.4858  1.1168 -1.9984
 5778SOL     OW28966   2.940   0.331  13.447 -0.0283 -0.2210 -0.3211
 5778SOL    HW128967   2.906   0.368  13.365  0.2724  0.8861  0.0583
 5778SOL    HW228968   2.930   0.239  13.423 -0.5133 -0.6801  1.6528
 5779SOL     OW28969   2.978   0.192   6.427 -0.3348  0.0738 -0.2854
 5779SOL    HW128970   2.948   0.248   6.355 -3.7306 -0.8244  0.4425
 5779SOL    HW228971   2.908   0.127   6.431  1.4106 -1.8279 -1.4168
 5780SOL     OW28972   2.950   2.354   7.074  0.9800 -0.4929  0.0805
 5780SOL    HW128973   3.027   2.401   7.041  0.1176  1.2017  0.4671
 5780SOL    HW228974   2.882   2.419   7.056  1.2029  0.5427  3.0478
 5781SOL     OW28975   4.298   1.349   5.938  0.5399  0.1631  0.3726
 5781SOL    HW128976   4.334   1.371   6.024  3.1310 -1.7866 -0.2222
 5781SOL    HW228977   4.365   1.394   5.886  0.5216  0.1795  0.3635
 5782SOL     OW28978   2.536   4.114   8.388 -0.0233 -0.5917  0.1133
 5782SOL    HW128979   2.461   4.088   8.441 -0.3853 -1.2990 -0.7540
 5782SOL    HW228980   2.593   4.163   8.448 -1.7622 -1.5280  2.5304
 5783SOL     OW28981   2.867   4.107   4.310  0.1481 -0.4828  0.0670
 5783SOL    HW128982   2.919   4.170   4.260  2.3274 -1.4464  1.1336
 5783SOL    HW228983   2.804   4.169   4.347  0.3290  0.0896 -0.5853
 5784SOL     OW28984   4.418   4.659  12.338 -0.0606 -0.0631  0.2164
 5784SOL    HW128985   4.367   4.720  12.391 -1.6033 -1.0166 -0.1719
 5784SOL    HW228986   4.348   4.620  12.286  2.3214 -0.4848 -2.6864
 5785SOL     OW28987   0.491   3.049   3.263  0.3102 -0.0627  0.7266
 5785SOL    HW128988   0.513   3.109   3.334 -0.5788  1.2119 -0.0708
 5785SOL    HW228989   0.439   2.983   3.311 -1.6116 -0.2275 -1.5726
 5786SOL     OW28990   1.757   1.526   7.053  0.0578 -0.1360  0.1506
 5786SOL    HW128991   1.775   1.594   7.117 -0.0387 -0.0987  0.1375
 5786SOL    HW228992   1.682   1.567   7.011  1.5831  0.4878 -1.9442
 5787SOL     OW28993   3.358   3.952   8.455 -0.4813 -0.0338  0.0235
 5787SOL    HW128994   3.293   4.012   8.419 -1.1055 -1.8049 -1.7796
 5787SOL    HW228995   3.405   3.998   8.525 -0.0739 -1.3155  0.5927
 5788SOL     OW28996   2.413   0.507   9.325 -0.1775  0.3535 -0.2237
 5788SOL    HW128997   2.403   0.465   9.410  2.8720  2.1282  1.0133
 5788SOL    HW228998   2.318   0.509   9.312 -0.1339 -0.0848 -0.5930
 5789SOL     OW28999   0.032   2.722   9.893  0.5442  0.6431  0.1564
 5789SOL    HW129000   0.058   2.745   9.982 -1.6105 -0.6942  1.1616
 5789SOL    HW229001   4.708   2.651   9.912  1.5066  0.4619  2.5361
 5790SOL     OW29002   4.614   3.117   4.595 -0.4786 -0.1671 -0.0958
 5790SOL    HW129003   4.614   3.082   4.685  3.2389 -0.7420 -0.3343
 5790SOL    HW229004   4.646   3.206   4.606 -0.6888  0.0926 -1.5678
 5791SOL     OW29005   3.758   3.023   2.774  0.6794 -0.1188 -0.9480
 5791SOL    HW129006   3.789   3.024   2.864 -1.0825  0.3473 -0.3347
 5791SOL    HW229007   3.820   2.958   2.742  1.0160 -0.0703 -0.3855
 5792SOL     OW29008   4.639   4.055  11.290  0.6781 -0.5287  0.2395
 5792SOL    HW129009   4.599   4.050  11.203  1.6390 -1.1778 -0.1628
 5792SOL    HW229010   4.625   3.963  11.311 -1.3472 -0.7009 -1.8048
 5793SOL     OW29011   1.688   3.859   1.611 -0.1652 -0.0998 -0.0345
 5793SOL    HW129012   1.600   3.878   1.579 -0.2813 -0.6101 -0.0131
 5793SOL    HW229013   1.737   3.886   1.534 -2.6174 -1.9408 -2.2382
 5794SOL     OW29014   1.575   2.255  16.421  0.7930  0.1762 -0.3918
 5794SOL    HW129015   1.536   2.198  16.355  0.7553  1.1874 -1.2560
 5794SOL    HW229016   1.521   2.230  16.496  1.6849  0.9588  0.5185
 5795SOL     OW29017   3.266   1.868   6.793  0.0313 -0.4122  0.1680
 5795SOL    HW129018   3.260   1.810   6.869  1.3238  1.8053  1.9448
 5795SOL    HW229019   3.361   1.879   6.790 -0.1681  1.2872  0.2096
 5796SOL     OW29020   0.031   3.205  11.912 -0.0105 -0.0927  0.1269
 5796SOL    HW129021   0.112   3.252  11.890 -0.0176 -0.4520 -0.6931
 5796SOL    HW229022   4.718   3.269  11.961  2.5906  0.6514  1.8971
 5797SOL     OW29023   3.017   3.000   6.900 -0.7689  0.8460 -0.0886
 5797SOL    HW129024   2.964   2.983   6.978 -2.5389  1.5008 -1.1562
 5797SOL    HW229025   2.963   2.952   6.838 -1.0710 -0.2694  1.0315
 5798SOL     OW29026   4.239   2.067   4.713 -0.0825  0.0536 -0.5176
 5798SOL    HW129027   4.194   2.035   4.635  0.3811 -0.6520 -0.4930
 5798SOL    HW229028   4.166   2.083   4.773  0.1438  0.9736 -0.4840
 5799SOL     OW29029   4.615   2.018   7.307  0.1958  0.1625 -0.3498
 5799SOL    HW129030   4.615   1.925   7.331  0.4518  0.1658 -0.3324
 5799SOL    HW229031   4.634   2.019   7.213  0.0904  0.4759 -0.3665
 5800SOL     OW29032   2.434   0.424   6.961 -0.1156  0.6134  0.2497
 5800SOL    HW129033   2.450   0.399   7.052 -1.8871  0.4859  0.5140
 5800SOL    HW229034   2.502   0.377   6.912 -1.8779 -0.2271 -1.3665
 5801SOL     OW29035   1.737   2.696   1.904 -0.1509  0.0199  0.2195
 5801SOL    HW129036   1.651   2.656   1.894 -0.6474  1.3937 -1.0401
 5801SOL    HW229037   1.702   2.784   1.921  0.5568  0.4121 -0.3755
 5802SOL     OW29038   1.088   4.057   9.356 -0.2043 -0.1225 -0.3007
 5802SOL    HW129039   1.142   4.136   9.361 -1.5731  0.7355  1.0013
 5802SOL    HW229040   1.002   4.095   9.335 -0.2357  0.2911  0.5762
 5803SOL     OW29041   2.775   0.358   1.936 -0.2140  0.1896  0.9056
 5803SOL    HW129042   2.761   0.292   2.004 -1.0228 -0.7225 -0.1558
 5803SOL    HW229043   2.834   0.308   1.880 -1.5352  0.0094 -0.3219
 5804SOL     OW29044   3.140   3.260   6.481  0.2572 -0.3542  0.3204
 5804SOL    HW129045   3.121   3.267   6.388  1.2140 -0.5451  0.1211
 5804SOL    HW229046   3.235   3.265   6.477  0.3081 -1.8008 -0.0687
 5805SOL     OW29047   0.102   2.743   8.479 -0.3238  0.5422 -0.0140
 5805SOL    HW129048   0.110   2.649   8.492  0.5782  0.5728 -0.3406
 5805SOL    HW229049   0.142   2.778   8.559 -2.6567 -0.5431  1.6324
 5806SOL     OW29050   3.412   2.821   3.964 -0.0531 -0.4534  1.2728
 5806SOL    HW129051   3.507   2.808   3.956 -0.2062 -1.2054  0.6144
 5806SOL    HW229052   3.384   2.754   3.902  1.4274  1.0325 -1.0320
 5807SOL     OW29053   1.677   1.117  14.062  0.0910 -0.1268 -0.0027
 5807SOL    HW129054   1.687   1.199  14.013  0.5469  0.6155  1.3175
 5807SOL    HW229055   1.695   1.045  14.002 -1.8747 -1.8747  1.4855
 5808SOL     OW29056   0.865   3.834   8.675 -0.4149  0.2147 -0.0941
 5808SOL    HW129057   0.807   3.836   8.751 -0.2032 -0.5873  0.0936
 5808SOL    HW229058   0.794   3.802   8.620  1.4760 -2.6459 -0.9159
 5809SOL     OW29059   3.727   4.133  10.056  0.1238 -0.3361  0.1411
 5809SOL    HW129060   3.685   4.145   9.971  0.6624 -0.2924 -0.1137
 5809SOL    HW229061   3.801   4.077  10.032 -1.1267 -1.4030 -1.2386
 5810SOL     OW29062   4.187   4.291   3.814  0.4380 -0.6435  0.1272
 5810SOL    HW129063   4.256   4.235   3.848 -0.1608 -0.5934  1.4417
 5810SOL    HW229064   4.190   4.266   3.722  1.3803 -0.5964  0.1521
 5811SOL     OW29065   0.477   2.828   5.131  0.0155  0.1157 -0.6067
 5811SOL    HW129066   0.502   2.908   5.086  0.0112  0.9024  0.7927
 5811SOL    HW229067   0.512   2.840   5.219 -0.4613 -0.8246 -0.2869
 5812SOL     OW29068   0.815   1.652   7.016  0.2224  0.5775 -0.5706
 5812SOL    HW129069   0.738   1.669   6.962  0.4399  0.2982 -0.9644
 5812SOL    HW229070   0.782   1.588   7.079  0.9841  0.7020 -0.0518
 5813SOL     OW29071   4.172   4.265  17.671  0.2349  0.2889 -0.0555
 5813SOL    HW129072   4.230   4.189  17.665  0.0249  0.1062  0.2370
 5813SOL    HW229073   4.100   4.251  17.609 -0.4447  1.5808  0.4630
 5814SOL     OW29074   4.651   1.473   4.343  0.2811  0.3205 -0.0714
 5814SOL    HW129075   4.627   1.566   4.340  0.9713  0.5144  0.2916
 5814SOL    HW229076   4.666   1.454   4.436 -1.6487  1.4985  0.4659
 5815SOL     OW29077   2.272   1.892  14.196 -0.8357 -0.6498  0.4172
 5815SOL    HW129078   2.215   1.838  14.142  0.1416  0.0554 -1.3153
 5815SOL    HW229079   2.259   1.843  14.277  0.3690  1.9467  2.2058
 5816SOL     OW29080   1.354   2.508   7.677 -0.4532  1.1278  0.0286
 5816SOL    HW129081   1.390   2.591   7.708  1.0600  0.3487  0.3337
 5816SOL    HW229082   1.308   2.476   7.755 -0.9102 -1.3177 -1.2269
 5817SOL     OW29083   1.261   2.713  17.617 -0.0310  0.2140  0.0296
 5817SOL    HW129084   1.197   2.645  17.639  1.6280 -1.1733  0.5630
 5817SOL    HW229085   1.208   2.792  17.610 -1.9532 -1.2556 -2.3645
 5818SOL     OW29086   3.940   1.828   5.145  0.2745  0.1407  0.1952
 5818SOL    HW129087   3.940   1.824   5.049  1.7745  0.9234  0.1704
 5818SOL    HW229088   3.849   1.808   5.167 -0.5391 -1.1583 -4.2651
 5819SOL     OW29089   1.511   0.853   3.830  0.0030  0.3762  0.1312
 5819SOL    HW129090   1.564   0.933   3.821 -4.6412  3.4427  0.2400
 5819SOL    HW229091   1.581   0.789   3.840  1.3628  1.9174  0.6480
 5820SOL     OW29092   4.193   3.066   7.231  0.1925  0.6238 -1.0038
 5820SOL    HW129093   4.230   2.982   7.202 -1.6214 -0.4468 -0.1822
 5820SOL    HW229094   4.271   3.101   7.273 -2.5253  3.3354  1.7041
 5821SOL     OW29095   2.322   1.066   6.904  0.5570 -0.1995  0.2760
 5821SOL    HW129096   2.241   1.064   6.854 -0.2232 -2.6131  1.6260
 5821SOL    HW229097   2.301   1.057   6.997  0.1674  0.6849  0.2711
 5822SOL     OW29098   1.881   2.357   2.766  0.0459 -0.0465 -0.9013
 5822SOL    HW129099   1.883   2.301   2.843 -3.2485  0.8088 -0.1927
 5822SOL    HW229100   1.885   2.449   2.792  3.1000 -0.5560  0.3918
 5823SOL     OW29101   1.452   1.965   8.079  0.1558  0.5402 -0.1226
 5823SOL    HW129102   1.484   1.911   8.006 -1.5516 -0.4467 -0.1506
 5823SOL    HW229103   1.367   1.991   8.046 -0.1672  1.1998  1.2334
 5824SOL     OW29104   1.616   1.384   1.175  0.0462  0.1456 -0.3031
 5824SOL    HW129105   1.675   1.374   1.249 -0.6606  0.3557  0.2951
 5824SOL    HW229106   1.677   1.405   1.105  0.1662  1.5367  0.2187
 5825SOL     OW29107   4.499   1.639  14.480 -0.1869  0.8108  0.1736
 5825SOL    HW129108   4.560   1.709  14.458  0.0067  0.2330 -1.1583
 5825SOL    HW229109   4.468   1.623  14.391 -0.7538 -1.1826  0.7236
 5826SOL     OW29110   1.801   3.208   6.436 -0.1316  0.3106 -0.6315
 5826SOL    HW129111   1.761   3.144   6.377  1.6396 -1.9632  0.6534
 5826SOL    HW229112   1.890   3.217   6.403  0.1546 -0.4102 -0.0629
 5827SOL     OW29113   0.274   0.974  17.135 -0.0870  0.0988 -0.3981
 5827SOL    HW129114   0.271   1.070  17.135  1.8537  0.1657  0.0364
 5827SOL    HW229115   0.198   0.965  17.192  1.4723  3.1601  2.1439
 5828SOL     OW29116   0.721   2.097   8.899  0.4744  0.0565 -0.2410
 5828SOL    HW129117   0.799   2.043   8.915 -0.7220 -1.4734  0.4194
 5828SOL    HW229118   0.703   2.114   8.992 -0.8334  1.9212 -0.8427
 5829SOL     OW29119   4.044   3.546  11.467  0.1556 -0.2137 -0.2692
 5829SOL    HW129120   3.983   3.500  11.524 -0.4164 -0.5785 -1.1713
 5829SOL    HW229121   4.014   3.520  11.380  1.7807  1.8725 -1.4558
 5830SOL     OW29122   1.075   0.016   8.862 -0.0484 -0.5252  0.5615
 5830SOL    HW129123   1.031   4.671   8.842  0.4104 -0.4827 -0.6288
 5830SOL    HW229124   0.999   0.074   8.865 -1.8272 -2.7375 -1.7683
 5831SOL     OW29125   3.052   4.641   7.014 -0.2126  0.4930 -0.1854
 5831SOL    HW129126   2.971   4.656   6.965 -0.8153 -1.0850  0.3548
 5831SOL    HW229127   3.015   4.610   7.096 -3.0161 -0.1583 -1.6958
 5832SOL     OW29128   1.389   0.155   1.708 -0.1025  0.5342  0.2180
 5832SOL    HW129129   1.416   0.063   1.710 -0.7734  0.3830  2.0424
 5832SOL    HW229130   1.460   0.197   1.659  0.9342 -0.2080  1.0806
 5833SOL     OW29131   2.844   2.238   8.672  0.0627 -0.2603  0.0518
 5833SOL    HW129132   2.930   2.217   8.634  0.7438 -1.4941  2.2646
 5833SOL    HW229133   2.788   2.230   8.595 -1.4314  1.5549  0.9787
 5834SOL     OW29134   3.984   3.468   6.416  0.2623  0.2547 -0.0471
 5834SOL    HW129135   3.994   3.386   6.369  0.3071 -0.2649  0.8637
 5834SOL    HW229136   4.060   3.459   6.474  0.5261 -1.1732 -0.6255
 5835SOL     OW29137   2.814   4.723   5.750 -0.1712  0.1054  0.0529
 5835SOL    HW129138   2.890   4.723   5.808 -1.2335  0.2981  1.4322
 5835SOL    HW229139   2.767   0.067   5.766 -1.9317 -0.8755 -0.0290
 5836SOL     OW29140   1.330   0.599   3.803 -0.0909 -0.3604 -0.9243
 5836SOL    HW129141   1.362   0.570   3.718  2.3507  1.0009 -0.4811
 5836SOL    HW229142   1.362   0.690   3.802 -0.2263 -0.3481 -2.8730
 5837SOL     OW29143   3.866   2.124  16.889 -0.2133  0.2470 -0.4468
 5837SOL    HW129144   3.850   2.109  16.983 -0.9895 -1.1979 -0.8067
 5837SOL    HW229145   3.934   2.191  16.893 -0.5322  0.5606 -0.2845
 5838SOL     OW29146   3.238   2.467   5.322 -0.3562  0.0855 -0.2274
 5838SOL    HW129147   3.231   2.560   5.302  2.5127  0.5685  1.0847
 5838SOL    HW229148   3.274   2.464   5.410 -0.2015 -0.4421 -0.3074
 5839SOL     OW29149   0.529   4.578   8.810  0.0871 -0.8409 -0.3596
 5839SOL    HW129150   0.503   4.521   8.883  1.0275  1.7700  1.9897
 5839SOL    HW229151   0.601   4.626   8.852 -0.0942  2.5914 -3.9914
 5840SOL     OW29152   2.211   0.674  16.219 -0.5195 -0.6045  0.6355
 5840SOL    HW129153   2.198   0.700  16.128  1.4221 -3.1597 -0.3659
 5840SOL    HW229154   2.286   0.731  16.237 -1.6795  1.0447  0.2383
 5841SOL     OW29155   2.019   0.427   8.090 -0.2773  0.0775  0.3794
 5841SOL    HW129156   2.055   0.354   8.139 -2.7525 -2.1131 -1.0494
 5841SOL    HW229157   1.927   0.401   8.097 -0.3006  0.1856  0.4790
 5842SOL     OW29158   0.773   0.870   7.166  0.4040  0.3506 -0.0425
 5842SOL    HW129159   0.778   0.965   7.180  0.0688  0.2427  0.8409
 5842SOL    HW229160   0.863   0.838   7.171  0.9700  2.2204  1.9866
 5843SOL     OW29161   0.571   0.821   8.032 -0.3115 -0.3045 -0.4767
 5843SOL    HW129162   0.550   0.823   8.125 -0.8917 -0.0591 -0.6196
 5843SOL    HW229163   0.624   0.741   8.032 -1.8603 -1.3162 -1.0796
 5844SOL     OW29164   1.582   0.773   3.463 -0.2633  0.2348 -0.4128
 5844SOL    HW129165   1.601   0.853   3.512 -0.3557 -1.6701  2.7222
 5844SOL    HW229166   1.665   0.729   3.483  0.4775  1.5149 -0.6113
 5845SOL     OW29167   3.132   2.390   0.121 -0.0411 -0.0935  0.0191
 5845SOL    HW129168   3.047   2.350   0.101 -0.2002  0.3986 -0.2944
 5845SOL    HW229169   3.151   2.411   0.029  0.0213 -0.5834 -0.0809
 5846SOL     OW29170   1.352   2.920   6.381  0.1821 -0.8668 -0.6258
 5846SOL    HW129171   1.331   2.969   6.460 -2.6250 -0.3868 -1.6753
 5846SOL    HW229172   1.340   2.984   6.311 -0.7525  0.2622  0.5690
 5847SOL     OW29173   1.472   1.423   8.209  0.6299 -0.2728  0.3800
 5847SOL    HW129174   1.553   1.455   8.249 -0.5306 -0.0349  2.5299
 5847SOL    HW229175   1.399   1.422   8.270 -1.1721  0.5374 -1.7740
 5848SOL     OW29176   2.894   0.358   8.117  0.2412  0.0709  0.2307
 5848SOL    HW129177   2.862   0.398   8.197  0.3735  0.8633 -0.1131
 5848SOL    HW229178   2.988   0.377   8.123  0.5292 -0.9409 -0.9920
 5849SOL     OW29179   3.650   4.228   6.011 -0.5535 -0.4604 -0.3135
 5849SOL    HW129180   3.628   4.303   6.066 -1.7562  0.5062 -2.0885
 5849SOL    HW229181   3.622   4.153   6.063 -0.6815  0.2087  0.5855
 5850SOL     OW29182   1.389   3.778  12.865  0.6403  0.4816  0.1881
 5850SOL    HW129183   1.300   3.808  12.887 -0.5720 -2.6599 -0.3445
 5850SOL    HW229184   1.399   3.735  12.950 -1.2745 -1.0910 -0.3708
 5851SOL     OW29185   1.543   1.341   5.279 -0.5672 -0.4288  0.1287
 5851SOL    HW129186   1.517   1.273   5.217 -3.3904 -0.4046  1.2685
 5851SOL    HW229187   1.618   1.295   5.317 -0.1702 -2.7786 -3.5546
 5852SOL     OW29188   0.830   1.922   8.214  0.2321 -0.2922 -0.3670
 5852SOL    HW129189   0.881   2.002   8.214 -0.6837  0.2912  0.9827
 5852SOL    HW229190   0.855   1.880   8.131 -3.2827 -0.8139 -1.1611
 5853SOL     OW29191   3.964   4.367  12.658 -0.2050  0.0426  0.0218
 5853SOL    HW129192   3.981   4.425  12.733 -0.1916 -0.0696  0.1054
 5853SOL    HW229193   4.029   4.410  12.602 -1.0078  1.4426  0.1529
 5854SOL     OW29194   0.783   4.449   7.245 -0.7018 -0.2479  0.5553
 5854SOL    HW129195   0.855   4.412   7.296 -0.9177 -1.7571 -0.2484
 5854SOL    HW229196   0.710   4.392   7.268 -0.8838  0.4541  1.7625
 5855SOL     OW29197   3.299   3.156  14.795  0.1604 -0.4088 -0.3541
 5855SOL    HW129198   3.351   3.144  14.715  0.5643 -1.0218  0.0007
 5855SOL    HW229199   3.370   3.172  14.857 -1.8671 -0.9792  2.0840
 5856SOL     OW29200   0.315   3.611  13.447 -0.5542  0.3519  0.0891
 5856SOL    HW129201   0.314   3.566  13.363 -0.0029  2.0356 -0.8260
 5856SOL    HW229202   0.266   3.555  13.507  2.2515 -2.5166 -0.3192
 5857SOL     OW29203   1.810   2.808   4.112 -0.5182  0.0501 -0.0565
 5857SOL    HW129204   1.753   2.782   4.183 -1.2502  0.4793 -0.4816
 5857SOL    HW229205   1.787   2.752   4.038 -0.3582  1.5117 -1.2374
 5858SOL     OW29206   2.082   3.165   1.355  0.1453 -0.1141 -0.2387
 5858SOL    HW129207   2.069   3.258   1.335  0.2107 -0.0029  0.2381
 5858SOL    HW229208   2.032   3.162   1.436  0.5665  0.6712  0.0597
 5859SOL     OW29209   1.419   4.007  12.729 -0.4661  0.3544 -0.1255
 5859SOL    HW129210   1.437   3.921  12.767  0.1140  0.2826 -0.5700
 5859SOL    HW229211   1.328   4.020  12.754 -1.0077 -3.6004 -0.0496
 5860SOL     OW29212   2.657   2.795  12.823  0.1251 -1.0018 -0.0250
 5860SOL    HW129213   2.735   2.806  12.878 -0.7188  0.0573  0.9637
 5860SOL    HW229214   2.623   2.885  12.826 -0.5774 -1.2607 -0.1683
 5861SOL     OW29215   3.136   0.728   4.603 -0.0337 -0.3137 -0.3677
 5861SOL    HW129216   3.103   0.784   4.533  1.5225  0.6930 -0.2869
 5861SOL    HW229217   3.226   0.758   4.616 -0.0577 -0.6092  0.4877
 5862SOL     OW29218   1.905   4.354   6.951  0.1012  0.6623  0.0795
 5862SOL    HW129219   1.871   4.384   6.867 -0.4714  1.6417  0.6682
 5862SOL    HW229220   1.965   4.423   6.980  0.9837 -0.5345  1.1163
 5863SOL     OW29221   3.498   1.594  11.623 -0.5965 -0.1358 -0.1016
 5863SOL    HW129222   3.453   1.677  11.605 -2.1757 -0.3739  2.8468
 5863SOL    HW229223   3.456   1.547  11.550 -1.3716 -0.7288  0.7284
 5864SOL     OW29224   0.268   1.594   8.465  0.5840  0.0341 -0.0838
 5864SOL    HW129225   0.198   1.575   8.527  0.6415 -3.7942 -1.2007
 5864SOL    HW229226   0.237   1.679   8.433 -2.1267 -1.0203 -0.2794
 5865SOL     OW29227   0.813   2.491  10.196  0.7629  0.1154  0.3633
 5865SOL    HW129228   0.871   2.533  10.133 -0.3372 -1.2747 -1.5430
 5865SOL    HW229229   0.878   2.449  10.252 -0.4208 -2.3575 -0.1146
 5866SOL     OW29230   1.623   4.369   2.256  0.2718  0.1964 -0.0008
 5866SOL    HW129231   1.697   4.327   2.298 -0.0873 -0.0724  0.3591
 5866SOL    HW229232   1.643   4.354   2.163  1.4144 -0.3145  0.3373
 5867SOL     OW29233   1.518   0.571  12.095  0.5632  0.2385  0.7207
 5867SOL    HW129234   1.484   0.630  12.162  0.0506  1.7837 -0.8944
 5867SOL    HW229235   1.512   0.483  12.131 -2.7319 -0.5621 -1.7449
 5868SOL     OW29236   3.820   4.735   7.301 -0.0844 -0.1424  0.3248
 5868SOL    HW129237   3.829   0.075   7.247  0.5683 -1.1620 -1.0301
 5868SOL    HW229238   3.884   4.681   7.254 -0.6027 -0.3175 -0.1771
 5869SOL     OW29239   3.192   4.179  17.731  0.1469  0.1700  0.1530
 5869SOL    HW129240   3.271   4.152  17.684  0.7430 -0.4450  1.4850
 5869SOL    HW229241   3.165   4.247  17.669 -2.4164 -0.0878  0.9852
 5870SOL     OW29242   3.231   0.836  16.750  0.2140 -0.1011  0.4411
 5870SOL    HW129243   3.284   0.756  16.753  2.3014  1.3182  0.8385
 5870SOL    HW229244   3.277   0.909  16.791  0.6122  0.6587 -1.3292
 5871SOL     OW29245   3.258   3.716   8.767  0.0355 -0.1074  0.4291
 5871SOL    HW129246   3.252   3.701   8.672 -1.2579  1.6553  0.2490
 5871SOL    HW229247   3.327   3.657   8.798  1.1718  0.3547 -1.1848
 5872SOL     OW29248   1.655   0.378   3.065 -0.3615  0.3325 -0.4332
 5872SOL    HW129249   1.573   0.427   3.057 -1.5289 -1.2534  1.7424
 5872SOL    HW229250   1.713   0.443   3.026  2.5461 -2.4775 -0.8034
 5873SOL     OW29251   4.467   3.613   6.709  0.9202 -0.2425  0.7067
 5873SOL    HW129252   4.392   3.610   6.768  0.6054  4.1658  0.5392
 5873SOL    HW229253   4.525   3.671   6.759 -0.3423 -0.1443  2.0637
 5874SOL     OW29254   1.314   3.160  17.015 -0.8088 -0.2467  0.1320
 5874SOL    HW129255   1.266   3.157  16.931  4.0948 -0.7693 -2.6375
 5874SOL    HW229256   1.248   3.151  17.084 -1.0152 -0.2500 -0.0646
 5875SOL     OW29257   2.197   2.408   2.911 -0.1351 -0.0797 -0.6081
 5875SOL    HW129258   2.273   2.402   2.969  0.5148 -1.3421 -1.5872
 5875SOL    HW229259   2.187   2.503   2.913 -3.6243 -0.4777  1.3067
 5876SOL     OW29260   3.477   4.242   7.080  0.3728  0.2399 -0.9429
 5876SOL    HW129261   3.404   4.180   7.077 -1.3338  2.1813  0.4048
 5876SOL    HW229262   3.460   4.308   7.012 -0.8804 -0.4105 -1.2626
 5877SOL     OW29263   1.704   3.026   2.385  0.4395  0.5504  0.2787
 5877SOL    HW129264   1.750   2.999   2.464 -1.3324 -2.1318  0.4218
 5877SOL    HW229265   1.666   2.940   2.364  0.2195  0.8067 -0.3688
 5878SOL     OW29266   1.017   1.097  12.487 -0.1232 -0.4051  0.5202
 5878SOL    HW129267   1.020   1.193  12.481  1.6000 -0.3964  1.4065
 5878SOL    HW229268   0.975   1.070  12.406  0.8741  0.8647 -0.4093
 5879SOL     OW29269   0.813   2.640  12.682  0.1570 -0.3931  0.1685
 5879SOL    HW129270   0.728   2.683  12.679  0.7088  0.7034  0.2340
 5879SOL    HW229271   0.790   2.552  12.651 -0.4186 -0.8552  1.9022
 5880SOL     OW29272   2.692   1.317  14.533  0.2079  0.0619  0.3596
 5880SOL    HW129273   2.710   1.311  14.626  2.4967 -1.1766 -0.1490
 5880SOL    HW229274   2.616   1.375  14.525 -2.5722 -3.6845 -0.3711
 5881SOL     OW29275   2.145   3.635   7.514 -0.4528 -0.2690 -0.3886
 5881SOL    HW129276   2.142   3.682   7.598 -1.2551  0.6291 -0.9258
 5881SOL    HW229277   2.220   3.677   7.473 -0.4750  2.4863  2.3496
 5882SOL     OW29278   1.917   3.768   4.755 -0.2377 -0.0669  0.0512
 5882SOL    HW129279   1.852   3.729   4.696 -1.3264 -0.2674  1.3739
 5882SOL    HW229280   1.950   3.841   4.703 -0.9605  0.7766  0.7658
 5883SOL     OW29281   0.758   3.974  10.215  0.0703  0.4443  0.1701
 5883SOL    HW129282   0.785   3.969  10.307 -1.7125  1.9186  0.7771
 5883SOL    HW229283   0.679   3.922  10.229  0.1901  0.4408  0.8532
 5884SOL     OW29284   2.365   2.588   8.581 -0.3474 -0.0218  1.0513
 5884SOL    HW129285   2.366   2.680   8.554  0.1361 -0.4331 -0.3300
 5884SOL    HW229286   2.369   2.610   8.674 -0.8382 -1.2290  1.3684
 5885SOL     OW29287   1.500   0.217   4.754 -0.2649  0.1258 -0.2507
 5885SOL    HW129288   1.488   0.285   4.687 -2.2899  2.6541  2.7005
 5885SOL    HW229289   1.495   0.137   4.702 -1.2810  1.3140 -1.9634
 5886SOL     OW29290   0.356   1.306  14.245  0.5655 -0.2043 -0.9590
 5886SOL    HW129291   0.268   1.288  14.278  0.2549  0.3713 -1.4711
 5886SOL    HW229292   0.398   1.244  14.304 -0.6868 -0.7115 -0.6080
 5887SOL     OW29293   0.292   3.797   8.238 -0.7155  0.5934 -1.0350
 5887SOL    HW129294   0.382   3.776   8.212 -0.7117 -0.6640 -0.0035
 5887SOL    HW229295   0.305   3.875   8.292  0.9810  1.0790 -2.1379
 5888SOL     OW29296   1.618   3.459  10.212  0.0075 -0.1360  0.1457
 5888SOL    HW129297   1.592   3.367  10.215  5.5384 -1.6859  1.0014
 5888SOL    HW229298   1.609   3.501  10.298  0.1403  0.6794 -0.2363
 5889SOL     OW29299   0.271   4.481   9.338 -0.4331  0.1137  0.4381
 5889SOL    HW129300   0.182   4.447   9.328 -0.6334  0.0866  2.3043
 5889SOL    HW229301   0.314   4.399   9.360 -0.2120  1.0652  3.5999
 5890SOL     OW29302   3.533   1.542   0.677  0.2202  0.5216  0.2060
 5890SOL    HW129303   3.547   1.512   0.767  1.8638 -2.0357 -0.8916
 5890SOL    HW229304   3.586   1.621   0.677 -0.5199  1.0185  0.5047
 5891SOL     OW29305   3.189   2.460  17.614 -0.6455 -0.4490  0.5996
 5891SOL    HW129306   3.134   2.448  17.536 -0.0295  2.0394 -0.2268
 5891SOL    HW229307   3.217   2.552  17.612 -0.6161 -0.4371  1.5864
 5892SOL     OW29308   2.367   0.638   6.326 -0.5821  0.4644  0.5372
 5892SOL    HW129309   2.369   0.619   6.420  0.8813 -1.5569  0.0890
 5892SOL    HW229310   2.304   0.711   6.321 -1.1522 -0.2485 -2.7970
 5893SOL     OW29311   3.259   1.685   4.745  0.0165 -0.0289 -0.5003
 5893SOL    HW129312   3.309   1.615   4.786 -0.0080 -0.6768 -1.5704
 5893SOL    HW229313   3.199   1.712   4.814  1.4090  0.4172  0.5251
 5894SOL     OW29314   3.910   4.263   2.755  0.1650 -0.2586  0.1909
 5894SOL    HW129315   3.927   4.309   2.838  0.6131 -0.8029  0.3981
 5894SOL    HW229316   3.817   4.249   2.771  0.7150 -1.6179  2.2072
 5895SOL     OW29317   3.589   3.960   4.906 -0.0893 -0.4758 -0.5751
 5895SOL    HW129318   3.602   3.880   4.855  0.1647 -1.2205  0.6622
 5895SOL    HW229319   3.561   4.025   4.842  0.7785 -1.7379 -2.2743
 5896SOL     OW29320   3.281   4.423   8.283  0.0194 -0.3202 -0.2426
 5896SOL    HW129321   3.245   4.509   8.306  2.0154  0.8337 -1.4475
 5896SOL    HW229322   3.293   4.441   8.190  0.2180 -0.5082 -0.2535
 5897SOL     OW29323   4.276   1.016   6.557 -0.2309  0.3460 -0.0797
 5897SOL    HW129324   4.306   0.983   6.473  0.8796 -0.6388  0.7109
 5897SOL    HW229325   4.349   1.065   6.595 -1.5417  2.4404 -0.2270
 5898SOL     OW29326   4.621   0.752   8.193  0.6134  0.2142 -0.0144
 5898SOL    HW129327   4.670   0.766   8.273  2.3113  1.7437 -1.3539
 5898SOL    HW229328   4.566   0.676   8.215  1.5494 -0.7625 -1.0073
 5899SOL     OW29329   1.322   3.103   6.593  0.1453  0.0879  0.3488
 5899SOL    HW129330   1.235   3.138   6.577  0.1943 -0.1070 -0.3923
 5899SOL    HW229331   1.309   3.049   6.671 -2.5788 -1.9966 -1.5289
 5900SOL     OW29332   2.940   1.641   6.720 -0.3731 -0.1835 -0.1031
 5900SOL    HW129333   2.931   1.596   6.804 -1.6082  0.2250 -0.0248
 5900SOL    HW229334   2.848   1.659   6.703 -0.7103 -1.0886  0.7754
 5901SOL     OW29335   0.279   1.094   6.819 -0.1019  0.0767 -0.0873
 5901SOL    HW129336   0.252   1.003   6.828 -2.0506  0.4844 -1.6946
 5901SOL    HW229337   0.324   1.105   6.903 -3.5029  2.1533  1.4653
 5902SOL     OW29338   4.131   1.983   4.501 -0.1664 -0.0475 -0.1601
 5902SOL    HW129339   4.184   1.988   4.422 -0.8540 -1.5829 -0.7056
 5902SOL    HW229340   4.070   1.911   4.484 -0.7812  0.3005  0.5726
 5903SOL     OW29341   3.132   3.428   8.566  0.5474  0.1183 -0.3420
 5903SOL    HW129342   3.059   3.407   8.624 -0.9934 -0.5210 -2.5281
 5903SOL    HW229343   3.152   3.520   8.585 -0.9313  0.6094 -1.1824
 5904SOL     OW29344   2.152   0.604  16.465 -0.2907  0.0797 -0.1229
 5904SOL    HW129345   2.126   0.605  16.373 -1.6836  2.8984  0.3071
 5904SOL    HW229346   2.167   0.510  16.477  1.5217  0.0058 -3.1797
 5905SOL     OW29347   4.695   2.856   8.756 -0.4503 -0.1810  0.5722
 5905SOL    HW129348   0.049   2.831   8.759 -0.9316 -2.0586  0.2695
 5905SOL    HW229349   4.658   2.768   8.768 -0.1764 -0.2228  1.0752
 5906SOL     OW29350   0.324   3.469  10.819  0.2417  0.4688  0.5569
 5906SOL    HW129351   0.266   3.412  10.769  1.6476 -0.3629 -0.1330
 5906SOL    HW229352   0.359   3.407  10.883  2.4760  1.6590  0.4826
 5907SOL     OW29353   2.380   1.493   5.457 -0.0749 -0.0769 -0.4618
 5907SOL    HW129354   2.394   1.508   5.551  3.1438  1.0605 -1.1092
 5907SOL    HW229355   2.462   1.453   5.426 -0.6767 -1.7441  0.1145
 5908SOL     OW29356   3.622   2.168   2.257 -0.3771  0.2040  0.2800
 5908SOL    HW129357   3.659   2.081   2.245 -2.4786 -0.9168  1.7285
 5908SOL    HW229358   3.568   2.146   2.334 -0.2158  0.9344  0.6101
 5909SOL     OW29359   1.781   2.989   1.704  0.4930 -0.3793 -0.7034
 5909SOL    HW129360   1.767   2.899   1.734 -4.0603  0.7739  0.7968
 5909SOL    HW229361   1.688   3.013   1.712  0.2811 -1.9494  1.5463
 5910SOL     OW29362   2.547   1.318   5.771 -0.6682 -0.3061 -0.7600
 5910SOL    HW129363   2.461   1.284   5.746 -0.0073 -2.7902  0.3913
 5910SOL    HW229364   2.535   1.359   5.857  1.0642  0.8174 -1.0403
 5911SOL     OW29365   1.577   2.844   9.176 -0.5053  0.0094 -0.3550
 5911SOL    HW129366   1.502   2.792   9.147 -0.4634 -0.5378  0.5088
 5911SOL    HW229367   1.626   2.844   9.094  0.2911 -1.9303  0.1176
 5912SOL     OW29368   0.376   1.488   3.443  0.4113 -0.3386  0.7232
 5912SOL    HW129369   0.470   1.503   3.435  0.4319  0.0584  1.6649
 5912SOL    HW229370   0.365   1.495   3.538 -1.9055  0.3362  0.3994
 5913SOL     OW29371   0.298   3.855   2.279  0.0614  0.3273 -0.0435
 5913SOL    HW129372   0.384   3.877   2.244 -0.4737  3.7041  0.7787
 5913SOL    HW229373   0.269   3.788   2.217  0.5755  1.2562 -1.2835
 5914SOL     OW29374   0.906   0.657   3.856  0.9406 -0.4788  0.0120
 5914SOL    HW129375   0.944   0.651   3.768 -0.9884 -0.7768 -0.8057
 5914SOL    HW229376   0.820   0.616   3.846 -0.1165  1.8576 -0.4834
 5915SOL     OW29377   4.127   3.926   7.826  0.3595  0.6309 -0.2206
 5915SOL    HW129378   4.195   3.955   7.887 -1.9986  0.2026  2.5933
 5915SOL    HW229379   4.170   3.861   7.771 -1.8264 -0.9944  0.0180
 5916SOL     OW29380   0.477   1.082   5.052  0.1631  0.6927 -0.0922
 5916SOL    HW129381   0.429   1.121   5.125 -1.6955  1.9345 -1.9641
 5916SOL    HW229382   0.398   1.048   5.010  1.2414 -0.8727 -0.8552
 5917SOL     OW29383   4.449   2.315   9.566  0.7876  0.1240 -0.2553
 5917SOL    HW129384   4.353   2.313   9.567  0.7966 -0.3891 -0.4870
 5917SOL    HW229385   4.462   2.230   9.608  2.0271  0.6800  0.4854
 5918SOL     OW29386   4.207   0.776   6.702  0.0974  0.0821 -0.8481
 5918SOL    HW129387   4.206   0.860   6.656 -2.3428  0.6616  0.2713
 5918SOL    HW229388   4.191   0.807   6.791  0.7791  0.2823 -0.7872
 5919SOL     OW29389   4.379   4.370  11.924  0.1034  0.3257  0.2421
 5919SOL    HW129390   4.439   4.332  11.860 -3.4002 -2.5876 -1.3569
 5919SOL    HW229391   4.401   4.461  11.907  1.2429  0.2046  1.1636
 5920SOL     OW29392   3.237   3.113   8.132 -0.3364  0.2640 -0.4058
 5920SOL    HW129393   3.282   3.195   8.111 -1.0946  0.5388 -0.9207
 5920SOL    HW229394   3.171   3.140   8.196 -0.9517  0.8169 -1.2851
 5921SOL     OW29395   0.232   1.344  11.428  0.1154  0.1679 -0.0007
 5921SOL    HW129396   0.298   1.287  11.390 -0.0227 -1.1577  1.7557
 5921SOL    HW229397   0.190   1.282  11.487 -3.1242  1.3141 -1.0976
 5922SOL     OW29398   0.828   3.691   3.793 -0.1907 -0.3008 -0.1286
 5922SOL    HW129399   0.904   3.715   3.844 -1.4706 -1.5327  2.3401
 5922SOL    HW229400   0.773   3.642   3.854 -1.2212 -1.7876 -2.2331
 5923SOL     OW29401   2.675   1.342   8.344  0.5535  0.2553 -0.1360
 5923SOL    HW129402   2.688   1.302   8.430  0.0712  2.8826  1.1431
 5923SOL    HW229403   2.581   1.342   8.359  0.5893  1.2607  0.0748
 5924SOL     OW29404   4.422   3.843   1.769 -0.1220 -0.5551 -0.6171
 5924SOL    HW129405   4.381   3.924   1.800  1.0521 -0.7063  1.3407
 5924SOL    HW229406   4.354   3.776   1.771 -0.1477 -0.4990  0.2248
 5925SOL     OW29407   3.374   4.516   7.618 -0.2241  0.5521  0.0676
 5925SOL    HW129408   3.292   4.529   7.664 -0.1594  0.8685  0.0994
 5925SOL    HW229409   3.427   4.470   7.683 -0.8093  1.3984  1.1403
 5926SOL     OW29410   3.720   1.741   0.344  0.2901 -0.1203  0.3800
 5926SOL    HW129411   3.664   1.780   0.277  0.3891  0.7540  0.8017
 5926SOL    HW229412   3.666   1.671   0.379  1.3472 -1.2983 -0.3270
 5927SOL     OW29413   0.798   2.388   7.575 -0.1172 -0.1369 -0.0688
 5927SOL    HW129414   0.785   2.476   7.611  0.2195  0.3215 -1.0848
 5927SOL    HW229415   0.892   2.389   7.559  0.2392 -2.7278  1.8362
 5928SOL     OW29416   1.909   1.915  16.225 -0.1556 -0.0609 -0.5457
 5928SOL    HW129417   1.975   1.951  16.165 -0.0435  2.5291  1.1094
 5928SOL    HW229418   1.834   1.949  16.177 -0.7777 -1.5033 -0.5893
 5929SOL     OW29419   1.178   2.553   5.680 -0.6335  0.4344 -0.0552
 5929SOL    HW129420   1.141   2.592   5.601  0.8032 -0.3687 -1.1350
 5929SOL    HW229421   1.126   2.475   5.696 -0.8152  0.3804 -0.9212
 5930SOL     OW29422   2.393   2.211   8.570 -0.4152 -0.4506  0.0701
 5930SOL    HW129423   2.437   2.157   8.636  0.4709 -2.0793 -1.8399
 5930SOL    HW229424   2.464   2.257   8.524 -0.4960  0.7804  1.1745
 5931SOL     OW29425   4.331   3.031  12.217  0.4549  0.1431  0.5154
 5931SOL    HW129426   4.253   2.977  12.234 -0.1445  0.4930 -1.1091
 5931SOL    HW229427   4.372   2.970  12.156 -1.7498  0.0007 -0.8405
 5932SOL     OW29428   3.531   3.694   8.458  0.4343  0.5398  0.2734
 5932SOL    HW129429   3.536   3.773   8.512  3.4849  0.2132  0.4929
 5932SOL    HW229430   3.436   3.679   8.459  0.2279  1.8229 -0.9087
 5933SOL     OW29431   3.815   1.577  17.692  0.7895 -0.0583  0.6403
 5933SOL    HW129432   3.835   1.497  17.643  1.7851 -0.6757  2.0472
 5933SOL    HW229433   3.798   1.544   0.029  1.5916  1.7940  1.4971
 5934SOL     OW29434   0.921   2.580  14.030  0.4899 -0.3200 -0.2893
 5934SOL    HW129435   0.920   2.517  13.957  0.2595  1.2379 -1.6212
 5934SOL    HW229436   0.989   2.640  13.999  0.6642  0.3527  1.4158
 5935SOL     OW29437   3.461   2.312   6.159 -0.7153 -0.1472  0.3446
 5935SOL    HW129438   3.392   2.246   6.168  0.0972 -0.8242  1.6192
 5935SOL    HW229439   3.535   2.276   6.209 -1.4890 -0.0054  1.5985
 5936SOL     OW29440   1.563   3.752   8.709 -0.0888  0.1038  0.0128
 5936SOL    HW129441   1.632   3.803   8.666  0.7358 -0.3603  0.7886
 5936SOL    HW229442   1.579   3.776   8.800 -1.6937  2.0972 -0.2269
 5937SOL     OW29443   0.080   3.720   8.085 -0.0939 -0.1210 -0.2136
 5937SOL    HW129444   0.160   3.749   8.128  0.6594  1.4831 -2.6631
 5937SOL    HW229445   0.036   3.805   8.079  0.2447  0.0615 -0.1047
 5938SOL     OW29446   1.085   2.316   6.291 -0.2738 -0.6690  0.1178
 5938SOL    HW129447   1.099   2.411   6.290 -1.4817 -0.4754  1.1918
 5938SOL    HW229448   1.003   2.319   6.340 -0.6756 -0.5657 -0.5664
 5939SOL     OW29449   0.127   3.822   1.852 -0.2374 -0.0634 -0.3095
 5939SOL    HW129450   0.079   3.888   1.902  2.6791  1.0012  1.0918
 5939SOL    HW229451   0.074   3.823   1.773  0.0776 -0.4006 -0.5262
 5940SOL     OW29452   4.188   1.137   2.494 -0.1253  0.4547 -0.1554
 5940SOL    HW129453   4.167   1.192   2.570  0.3089  0.4396 -0.0215
 5940SOL    HW229454   4.104   1.119   2.452 -1.5782  1.1372  2.4532
 5941SOL     OW29455   4.379   0.809  11.063 -0.0767 -0.4207  0.1927
 5941SOL    HW129456   4.402   0.730  11.112 -4.5323 -3.1357 -2.1326
 5941SOL    HW229457   4.319   0.765  11.003 -0.4069 -0.3672  0.4844
 5942SOL     OW29458   2.394   4.060   3.639 -0.4934  0.6780 -0.1452
 5942SOL    HW129459   2.377   4.132   3.578  1.5253  1.2874 -0.0238
 5942SOL    HW229460   2.488   4.078   3.652 -0.5702 -1.2908  3.0390
 5943SOL     OW29461   2.339   2.557   5.125  0.0741  0.2736  0.2647
 5943SOL    HW129462   2.267   2.551   5.063 -1.0060 -0.9232  1.6364
 5943SOL    HW229463   2.337   2.462   5.136 -2.3600  0.3617  0.4983
 5944SOL     OW29464   3.652   1.094   3.842 -0.4462 -0.5305  0.1615
 5944SOL    HW129465   3.644   1.000   3.824  1.5332 -0.5406 -0.6841
 5944SOL    HW229466   3.743   1.099   3.813 -0.5466  0.5519  0.0415
 5945SOL     OW29467   3.168   2.246   1.041 -0.3970 -0.0116  0.5136
 5945SOL    HW129468   3.186   2.337   1.018  1.3025 -0.4070  0.2501
 5945SOL    HW229469   3.133   2.249   1.130  1.3083  1.2150  1.1421
 5946SOL     OW29470   1.385   0.288   6.091  0.6297  0.3999  0.6085
 5946SOL    HW129471   1.339   0.275   6.009  0.8379  0.9913  0.4007
 5946SOL    HW229472   1.472   0.250   6.078  0.9732  0.9978  1.1517
 5947SOL     OW29473   3.666   3.978   6.339  0.0558 -0.1662 -0.5156
 5947SOL    HW129474   3.589   4.024   6.305 -0.6386 -0.2666  0.9419
 5947SOL    HW229475   3.629   3.935   6.415  0.0508 -1.5708 -1.3116
 5948SOL     OW29476   2.103   4.253   9.938  0.4412 -0.2527  0.4056
 5948SOL    HW129477   2.049   4.292   9.869  0.1500  1.2903  1.4865
 5948SOL    HW229478   2.040   4.263  10.010 -0.7296  0.7863 -0.7678
 5949SOL     OW29479   3.506   3.541   1.701  0.0255 -0.3774  0.2784
 5949SOL    HW129480   3.591   3.574   1.671  0.2174 -0.5743  0.5984
 5949SOL    HW229481   3.494   3.463   1.646  0.9347  0.1873 -0.7309
 5950SOL     OW29482   3.186   1.848  13.669 -0.0045  0.3481 -0.4907
 5950SOL    HW129483   3.262   1.855  13.726 -0.4575  0.6369  0.0745
 5950SOL    HW229484   3.158   1.763  13.704  0.2968  1.1026  1.5546
 5951SOL     OW29485   3.763   2.187   8.474  0.3499  0.3537 -0.8525
 5951SOL    HW129486   3.771   2.136   8.393 -0.3025  1.2752 -1.5044
 5951SOL    HW229487   3.831   2.150   8.531 -2.3865 -0.8164  1.6278
 5952SOL     OW29488   2.668   2.280   8.154 -0.7897 -0.2517 -0.1537
 5952SOL    HW129489   2.608   2.354   8.161 -1.5620 -1.1764  3.0900
 5952SOL    HW229490   2.743   2.327   8.119 -0.6080 -1.1235 -0.9271
 5953SOL     OW29491   0.488   1.974   4.047 -0.5369 -0.2295 -0.9535
 5953SOL    HW129492   0.447   1.895   4.080 -1.9698  1.5809  1.6522
 5953SOL    HW229493   0.423   2.003   3.983  1.0920  0.8435 -2.1445
 5954SOL     OW29494   0.233   0.878   1.987  0.5967  0.0462  0.1514
 5954SOL    HW129495   0.157   0.868   1.930  0.3767 -1.6824  0.7412
 5954SOL    HW229496   0.234   0.806   2.050  1.1565  0.7507  0.9473
 5955SOL     OW29497   2.962   2.274   3.554  0.1895  0.2327 -0.2021
 5955SOL    HW129498   2.925   2.309   3.635  2.5678  1.4110  0.3722
 5955SOL    HW229499   2.887   2.250   3.500  2.6222 -0.3936 -3.3526
 5956SOL     OW29500   2.668   4.366   3.474 -0.0439 -0.4440 -0.1656
 5956SOL    HW129501   2.648   4.283   3.432 -0.2666 -0.8808  0.8011
 5956SOL    HW229502   2.761   4.368   3.497  0.4532  1.3424 -2.2520
 5957SOL     OW29503   1.241   3.575   2.926  0.2161 -0.4075  0.4493
 5957SOL    HW129504   1.176   3.645   2.930 -0.5030 -0.9458 -2.0690
 5957SOL    HW229505   1.190   3.496   2.944 -1.1416  0.8785  2.2841
 5958SOL     OW29506   2.347   0.102   5.825 -0.1744 -0.1085 -0.4199
 5958SOL    HW129507   2.315   0.169   5.885  1.1363 -0.5981  0.8577
 5958SOL    HW229508   2.362   0.023   5.877 -1.8685 -1.1858 -1.5942
 5959SOL     OW29509   1.961   2.700   3.649  0.2399 -0.6558  0.2205
 5959SOL    HW129510   1.954   2.772   3.712  2.1643  0.2734 -0.6416
 5959SOL    HW229511   1.929   2.633   3.709 -0.2452 -1.5574 -1.0477
 5960SOL     OW29512   4.673   4.657   5.903  0.7380 -0.0897  0.0024
 5960SOL    HW129513   4.607   4.599   5.940 -0.2214  1.2333  0.3293
 5960SOL    HW229514   4.665   4.642   5.809  1.8707  1.1390 -0.2909
 5961SOL     OW29515   1.649   4.414   4.063  0.1130 -0.1709 -0.1921
 5961SOL    HW129516   1.738   4.411   4.028  0.9712 -1.5102  2.1221
 5961SOL    HW229517   1.593   4.421   3.986  0.0597  0.7741 -0.0599
 5962SOL     OW29518   1.505   4.642   2.623 -0.3800 -0.1809 -0.2012
 5962SOL    HW129519   1.556   4.583   2.567  0.3480  0.9465 -0.7201
 5962SOL    HW229520   1.555   4.664   2.701 -1.7918 -1.7145  1.1549
 5963SOL     OW29521   2.150   0.544   9.220  0.3552  0.7380 -0.0627
 5963SOL    HW129522   2.088   0.477   9.248  0.2090 -0.2143 -2.6519
 5963SOL    HW229523   2.121   0.556   9.129  1.3358  2.4210 -0.1581
 5964SOL     OW29524   4.003   0.664   8.257  0.5222 -0.0972  0.1682
 5964SOL    HW129525   3.933   0.729   8.261  0.1722 -0.4331 -0.5233
 5964SOL    HW229526   4.078   0.719   8.282  0.6447  0.0326 -0.4968
 5965SOL     OW29527   0.821   1.809   2.824 -0.3092  0.1744 -0.4509
 5965SOL    HW129528   0.808   1.872   2.895  1.1308 -1.3645  1.1738
 5965SOL    HW229529   0.898   1.760   2.852  0.2180  1.4275  0.3165
 5966SOL     OW29530   4.589   1.065   3.591 -0.3409  0.2780  0.3985
 5966SOL    HW129531   4.623   1.109   3.669 -0.6866 -0.6733  1.0869
 5966SOL    HW229532   4.604   1.123   3.517  2.5970  0.3796  1.0794
 5967SOL     OW29533   0.171   0.720  15.514 -0.4462  0.2839 -0.2617
 5967SOL    HW129534   0.263   0.721  15.540 -0.5966 -0.4695  0.2899
 5967SOL    HW229535   0.131   0.764  15.590  1.9614  1.5534  0.2693
 5968SOL     OW29536   4.023   0.093  11.045  0.3347  0.0911  0.4090
 5968SOL    HW129537   4.058   0.131  11.125  1.1909  0.0611  0.0476
 5968SOL    HW229538   3.948   0.151  11.057 -0.5716 -1.0804  0.4406
 5969SOL     OW29539   3.897   3.988   8.375  0.7039  0.4022 -0.1326
 5969SOL    HW129540   3.836   4.005   8.302  0.8761  2.7873  0.2679
 5969SOL    HW229541   3.965   3.949   8.320  0.2317  1.0602 -1.2059
 5970SOL     OW29542   3.418   2.772   6.029  0.2057 -0.0943  0.6287
 5970SOL    HW129543   3.500   2.821   6.034 -1.0340  1.8688  1.8016
 5970SOL    HW229544   3.445   2.681   6.014 -2.7145 -1.3029  2.5867
 5971SOL     OW29545   4.507   4.428  10.391  0.2670  0.6133 -0.1000
 5971SOL    HW129546   4.502   4.357  10.328  0.1710  0.1710  0.4075
 5971SOL    HW229547   4.527   4.372  10.466 -1.2044  0.8445  0.4658
 5972SOL     OW29548   3.187   1.634   7.368  0.1020 -1.0059  0.1075
 5972SOL    HW129549   3.272   1.665   7.338 -0.8156  0.9044 -0.4875
 5972SOL    HW229550   3.214   1.603   7.455 -1.7707 -0.9552  0.7036
 5973SOL     OW29551   1.504   2.108   6.210 -0.1820 -0.0421  0.0095
 5973SOL    HW129552   1.586   2.102   6.161  1.0427 -2.9649  2.4085
 5973SOL    HW229553   1.437   2.103   6.142 -1.0505  0.0589  0.8529
 5974SOL     OW29554   3.825   2.059   6.565  0.4026 -0.1664 -0.1431
 5974SOL    HW129555   3.874   1.989   6.521  0.1847 -0.5479  0.2098
 5974SOL    HW229556   3.887   2.106   6.620  2.4664 -2.1033 -0.8337
 5975SOL     OW29557   4.231   2.250   7.553  0.2596  0.5681 -0.2111
 5975SOL    HW129558   4.323   2.240   7.529 -0.5434 -0.1756 -2.8763
 5975SOL    HW229559   4.205   2.303   7.478  0.2780 -1.2319 -1.4783
 5976SOL     OW29560   1.635   0.439  13.793 -0.3745 -0.4826  0.3604
 5976SOL    HW129561   1.618   0.523  13.750 -0.8258 -1.2053 -0.8925
 5976SOL    HW229562   1.594   0.459  13.877  2.2870  1.1723  1.2671
 5977SOL     OW29563   0.676   0.781   3.387 -0.0270 -0.3145 -0.4235
 5977SOL    HW129564   0.609   0.837   3.348 -0.3600 -0.1536  0.3733
 5977SOL    HW229565   0.623   0.748   3.460 -0.5506 -0.5121 -0.8959
 5978SOL     OW29566   0.546   1.547   5.139 -0.2021 -0.1378  0.0438
 5978SOL    HW129567   0.538   1.576   5.048  0.5946  0.2125  0.0897
 5978SOL    HW229568   0.480   1.477   5.135 -0.3620 -0.1022  2.4985
 5979SOL     OW29569   3.456   2.232   3.723  0.0444  0.4008 -0.4786
 5979SOL    HW129570   3.483   2.292   3.653 -2.6941  1.0458 -1.0042
 5979SOL    HW229571   3.535   2.237   3.776 -0.7321  1.7090  0.5530
 5980SOL     OW29572   2.949   2.809  12.679  0.0181  0.1055 -0.5136
 5980SOL    HW129573   2.862   2.821  12.642  0.3294 -0.4559 -1.4316
 5980SOL    HW229574   2.972   2.893  12.718  1.2326  0.2596 -1.5410
 5981SOL     OW29575   0.366   3.315  16.382 -0.0963 -0.4017  0.1590
 5981SOL    HW129576   0.442   3.297  16.325 -0.7717  0.9805 -1.1679
 5981SOL    HW229577   0.367   3.411  16.386 -0.6910 -0.4212  0.6688
 5982SOL     OW29578   0.723   1.491  16.003 -0.0352 -0.3998 -0.0762
 5982SOL    HW129579   0.669   1.562  15.968  1.8057  1.7681  1.5045
 5982SOL    HW229580   0.710   1.441  15.922 -0.9643 -0.3435  0.0405
 5983SOL     OW29581   0.140   3.487  16.587  0.4478 -0.7707 -0.0782
 5983SOL    HW129582   0.076   3.559  16.591  1.7751  0.4344 -0.6126
 5983SOL    HW229583   0.208   3.518  16.527 -0.0070 -0.8615 -0.6424
 5984SOL     OW29584   1.744   4.714   1.531  0.0016  0.2690 -0.1146
 5984SOL    HW129585   1.839   4.719   1.519 -0.4996  1.5493 -3.5028
 5984SOL    HW229586   1.721   4.668   1.450 -0.2571  0.8200 -0.3563
 5985SOL     OW29587   2.474   3.993   4.079  0.0284  0.5072 -0.2415
 5985SOL    HW129588   2.477   3.898   4.072  0.6054  0.3433  2.2330
 5985SOL    HW229589   2.382   3.999   4.107 -0.4705 -0.5565 -1.6745
 5986SOL     OW29590   0.488   4.224   7.194  0.2422  0.3680  0.2969
 5986SOL    HW129591   0.416   4.249   7.137 -0.3424 -0.2227  0.7730
 5986SOL    HW229592   0.542   4.192   7.122 -1.4107  1.1453 -1.2532
 5987SOL     OW29593   0.658   2.207   4.503 -0.1040 -0.2041  0.3503
 5987SOL    HW129594   0.592   2.178   4.440  0.3494  1.2343 -0.7791
 5987SOL    HW229595   0.657   2.302   4.496  1.9614 -0.1995  0.0958
 5988SOL     OW29596   2.731   4.062  15.984 -0.3584 -0.0798 -0.0591
 5988SOL    HW129597   2.659   4.073  16.046 -0.1290 -0.7761  0.3219
 5988SOL    HW229598   2.701   4.100  15.902  1.7722  2.2807  0.2480
 5989SOL     OW29599   2.952   0.569  14.283  0.3520  0.1223  0.4912
 5989SOL    HW129600   2.975   0.484  14.320  0.1937  0.4291  1.2986
 5989SOL    HW229601   2.870   0.539  14.242  2.4087 -4.4163 -0.2708
 5990SOL     OW29602   3.598   1.517   4.241 -0.1379 -0.0357 -0.6866
 5990SOL    HW129603   3.586   1.580   4.171  1.2718  3.3688  2.1208
 5990SOL    HW229604   3.570   1.434   4.203  0.9133 -1.2464  1.1573
 5991SOL     OW29605   1.883   3.868   2.899 -0.0472 -0.3914  0.5368
 5991SOL    HW129606   1.963   3.899   2.942 -0.0830 -0.3003  0.5375
 5991SOL    HW229607   1.908   3.882   2.808 -1.9609  0.2694  0.1186
 5992SOL     OW29608   2.442   2.205   7.000  0.1092  0.2029  0.2728
 5992SOL    HW129609   2.531   2.184   6.971  0.3343 -0.0715  1.1559
 5992SOL    HW229610   2.439   2.298   6.977  0.4165  0.0350 -0.4606
 5993SOL     OW29611   3.247   4.238  16.353 -0.6014 -0.2988 -0.0949
 5993SOL    HW129612   3.179   4.177  16.323  0.2268 -1.0268 -0.4955
 5993SOL    HW229613   3.286   4.188  16.425 -1.7591 -1.0037  0.0434
 5994SOL     OW29614   3.629   1.079   7.154  0.8589 -0.4846  0.0614
 5994SOL    HW129615   3.599   1.136   7.083 -1.4449 -2.5994 -0.6566
 5994SOL    HW229616   3.552   1.027   7.177 -1.0592  2.7171  0.8286
 5995SOL     OW29617   3.671   4.029   1.261  1.0030  0.0756 -0.0759
 5995SOL    HW129618   3.688   3.976   1.183  1.7705 -1.7053  1.3005
 5995SOL    HW229619   3.671   3.964   1.331  1.1243  0.3604  0.1909
 5996SOL     OW29620   0.602   4.508   3.086 -0.9740 -0.6930 -1.3270
 5996SOL    HW129621   0.576   4.435   3.143  0.9234  2.0528  3.1182
 5996SOL    HW229622   0.690   4.515   3.123 -1.3547  0.2159 -0.5792
 5997SOL     OW29623   3.566   1.195   8.531 -0.0848  0.3673 -0.6953
 5997SOL    HW129624   3.524   1.210   8.446  0.2372  0.1485 -0.8918
 5997SOL    HW229625   3.497   1.141   8.572  0.2469  0.3389 -0.1767
 5998SOL     OW29626   3.373   2.732  12.860 -0.2555  0.0774 -0.1258
 5998SOL    HW129627   3.329   2.714  12.777  0.7402  0.6063 -0.7602
 5998SOL    HW229628   3.314   2.800  12.893  0.5555  1.9878 -2.5781
 5999SOL     OW29629   4.604   3.583  13.745  0.2122  0.1607  0.1364
 5999SOL    HW129630   4.543   3.654  13.723 -1.8877 -1.4637  0.6791
 5999SOL    HW229631   4.666   3.632  13.798 -0.1704  3.3461 -2.3311
 6000SOL     OW29632   3.411   1.115   3.699 -0.4025  0.0987 -0.3389
 6000SOL    HW129633   3.341   1.140   3.760 -1.2424 -3.2506  0.1117
 6000SOL    HW229634   3.484   1.109   3.761  0.3434 -1.2547 -1.3578
 6001SOL     OW29635   0.621   3.006   7.736  0.5093 -0.2224  0.2254
 6001SOL    HW129636   0.547   2.949   7.757 -0.9945  2.6987  2.9641
 6001SOL    HW229637   0.663   3.014   7.822  0.1502  0.7038  0.3173
 6002SOL     OW29638   1.322   4.692   5.804  0.4285  0.5185 -0.5072
 6002SOL    HW129639   1.320   0.047   5.826  2.7501  0.2573  0.8414
 6002SOL    HW229640   1.408   4.683   5.844 -0.9214 -2.3298  1.7678
 6003SOL     OW29641   1.340   2.116   6.434 -0.5984 -0.1786 -0.1856
 6003SOL    HW129642   1.348   2.202   6.392  1.0981 -0.6417 -0.8199
 6003SOL    HW229643   1.404   2.069   6.380  0.6362  1.6822 -0.3542
 6004SOL     OW29644   2.952   1.008   8.555 -0.0161 -0.1904 -0.7804
 6004SOL    HW129645   2.862   1.018   8.586 -0.4033 -1.2579 -1.5469
 6004SOL    HW229646   2.937   0.949   8.482  1.2451  0.7675 -1.8084
 6005SOL     OW29647   2.558   3.723  13.212  0.0973  0.3916  0.1171
 6005SOL    HW129648   2.500   3.754  13.142 -0.2105  0.5232  0.4292
 6005SOL    HW229649   2.581   3.638  13.175 -1.6394  0.7291 -1.7343
 6006SOL     OW29650   4.137   1.439   8.868  0.1907 -0.5164 -1.0569
 6006SOL    HW129651   4.086   1.490   8.932  1.6474 -0.8177  0.3428
 6006SOL    HW229652   4.213   1.419   8.922 -0.0968  1.5486  0.1192
 6007SOL     OW29653   0.188   3.079   7.852 -0.1626 -0.7658 -0.1276
 6007SOL    HW129654   0.195   3.172   7.830 -2.4230  0.2929  3.7424
 6007SOL    HW229655   0.111   3.074   7.908  0.4914 -0.3911  0.8110
 6008SOL     OW29656   4.342   2.833   0.716 -0.1546 -0.2264  0.0578
 6008SOL    HW129657   4.267   2.799   0.765 -0.8117 -0.3191 -1.0001
 6008SOL    HW229658   4.416   2.781   0.747 -1.4191 -1.3078  1.2962
 6009SOL     OW29659   4.437   1.062   8.868 -0.5143  0.3411 -0.2699
 6009SOL    HW129660   4.439   1.124   8.795  0.1554  0.6946  0.0479
 6009SOL    HW229661   4.529   1.061   8.894 -0.4189 -0.3105 -0.6413
 6010SOL     OW29662   4.311   1.305   7.561  0.7814 -0.3073 -1.2389
 6010SOL    HW129663   4.262   1.363   7.620  3.1169  0.7961 -0.3606
 6010SOL    HW229664   4.274   1.218   7.580 -0.3374  0.4027 -0.1301
 6011SOL     OW29665   4.167   4.677  11.654  0.3890  1.0485  0.3861
 6011SOL    HW129666   4.179   4.733  11.730 -0.2408  0.1393  1.1582
 6011SOL    HW229667   4.184   4.727  11.574 -1.1814  0.3767 -0.3820
 6012SOL     OW29668   0.213   4.733   2.981  0.0287  0.0576 -0.1186
 6012SOL    HW129669   0.189   4.645   3.012 -0.6630 -0.7102 -2.8427
 6012SOL    HW229670   0.194   0.051   3.056 -1.8723 -0.5822 -0.1155
 6013SOL     OW29671   2.356   0.918   5.794  0.5012 -0.3160 -0.0768
 6013SOL    HW129672   2.338   0.843   5.850 -0.7769  0.0909  0.0554
 6013SOL    HW229673   2.440   0.882   5.765  0.5321 -0.2891 -0.0211
 6014SOL     OW29674   4.437   0.299  15.924 -0.0881  0.3651  0.1737
 6014SOL    HW129675   4.451   0.276  16.016  1.5638  1.2936  0.1396
 6014SOL    HW229676   4.528   0.309  15.896 -0.3378 -0.7822 -1.0598
 6015SOL     OW29677   1.370   0.122   8.734  0.0673  0.2409  0.0655
 6015SOL    HW129678   1.301   0.058   8.717  0.0127 -0.1385  1.7566
 6015SOL    HW229679   1.374   0.103   8.827 -1.5962 -1.1392 -0.1420
 6016SOL     OW29680   3.264   4.457   2.350  0.3829  0.0549  0.1516
 6016SOL    HW129681   3.181   4.491   2.317  1.1157 -0.7906 -2.5239
 6016SOL    HW229682   3.288   4.400   2.277  0.2174  1.8605 -1.2992
 6017SOL     OW29683   2.710   4.688   4.807 -0.2464 -0.5281 -0.1499
 6017SOL    HW129684   2.707   0.010   4.732  0.8441  0.6039  0.7180
 6017SOL    HW229685   2.716   0.007   4.883  0.1710  0.2781 -0.7914
 6018SOL     OW29686   2.991   4.016  10.577 -0.0414 -0.5147 -0.0341
 6018SOL    HW129687   2.954   3.979  10.497 -1.7188 -0.1481  0.5879
 6018SOL    HW229688   2.954   3.954  10.640  2.9359 -1.3962  0.8501
 6019SOL     OW29689   2.008   1.088   2.115 -0.1577 -0.2649 -0.5865
 6019SOL    HW129690   1.944   1.121   2.178  0.0627 -1.9215  0.4986
 6019SOL    HW229691   1.964   1.038   2.046  0.8238 -0.4358 -1.0867
 6020SOL     OW29692   2.382   3.302   2.331 -0.2827  0.6281  0.7625
 6020SOL    HW129693   2.475   3.311   2.309 -0.7120  0.3079 -1.2000
 6020SOL    HW229694   2.359   3.378   2.385  1.3455  0.0991  2.1982
 6021SOL     OW29695   0.777   2.711   5.123  0.5143 -0.3031  0.0987
 6021SOL    HW129696   0.697   2.763   5.121 -0.1431 -1.4396 -2.8739
 6021SOL    HW229697   0.843   2.774   5.094 -2.1810  3.1319  1.4391
 6022SOL     OW29698   3.673   2.756   2.387 -0.6455  0.3328  0.2155
 6022SOL    HW129699   3.765   2.740   2.366 -0.3346  1.8597  0.4483
 6022SOL    HW229700   3.643   2.674   2.347 -0.2027  0.7325 -0.9137
 6023SOL     OW29701   2.711   1.251   8.602 -0.3286  0.1314  0.1011
 6023SOL    HW129702   2.687   1.158   8.608  0.8579 -0.2124 -0.4173
 6023SOL    HW229703   2.767   1.260   8.679 -2.5556 -1.4158  1.9131
 6024SOL     OW29704   2.934   3.453   3.133 -0.0582  0.0735 -0.7326
 6024SOL    HW129705   2.854   3.449   3.080 -0.6978  1.4099  0.1458
 6024SOL    HW229706   2.988   3.389   3.086 -1.0308 -0.1976 -1.4882
 6025SOL     OW29707   3.739   4.517  17.384 -0.0994  0.0914 -0.1770
 6025SOL    HW129708   3.774   4.468  17.310  1.4078 -1.3723  1.5019
 6025SOL    HW229709   3.679   4.575  17.337  2.3837  1.3596 -1.7889
 6026SOL     OW29710   1.342   2.839   6.997 -0.2157 -0.5724 -0.2860
 6026SOL    HW129711   1.258   2.885   6.998 -0.0535 -0.3290  2.9912
 6026SOL    HW229712   1.369   2.827   7.088  2.0027  0.2087 -0.8483
 6027SOL     OW29713   1.997   0.467   3.630  0.0777 -0.1144  0.2495
 6027SOL    HW129714   2.012   0.415   3.551 -4.3679 -3.2832  1.5131
 6027SOL    HW229715   2.021   0.393   3.686 -2.2376 -2.2219 -1.5739
 6028SOL     OW29716   2.779   1.886   7.527 -0.1945 -0.3546 -0.4132
 6028SOL    HW129717   2.694   1.847   7.544  2.0195 -3.9685  2.3996
 6028SOL    HW229718   2.820   1.810   7.484  0.7161  0.5247 -1.0962
 6029SOL     OW29719   4.428   3.458   3.801 -0.2537 -0.5460 -0.2620
 6029SOL    HW129720   4.350   3.453   3.856 -2.1513 -0.3495 -2.9060
 6029SOL    HW229721   4.496   3.461   3.868  0.1264 -3.0117 -0.5270
 6030SOL     OW29722   4.608   3.409   2.422 -0.0841  0.7986  0.3274
 6030SOL    HW129723   4.652   3.485   2.383 -1.3619  2.1996  1.5658
 6030SOL    HW229724   4.661   3.387   2.499 -2.4228 -0.2783  1.6465
 6031SOL     OW29725   1.746   2.729   4.539  0.2212 -0.8177 -0.1939
 6031SOL    HW129726   1.723   2.642   4.570  0.1417 -0.5861  0.3906
 6031SOL    HW229727   1.832   2.747   4.577 -0.4259  1.6009  0.1522
 6032SOL     OW29728   4.607   2.795   3.934  0.3763 -0.6580  0.1457
 6032SOL    HW129729   4.697   2.799   3.904  1.5620 -3.0701  3.4029
 6032SOL    HW229730   4.609   2.836   4.021 -1.2743  0.6776 -0.4321
 6033SOL     OW29731   0.271   0.905   8.510 -0.2501  0.2367 -0.4553
 6033SOL    HW129732   0.353   0.862   8.534  0.4106  1.4893 -0.4832
 6033SOL    HW229733   0.226   0.827   8.477 -0.7598 -0.2073  1.2824
 6034SOL     OW29734   3.365   0.227   3.021 -0.0216 -0.0225 -0.1026
 6034SOL    HW129735   3.357   0.132   3.028 -0.2847 -0.0419 -0.6498
 6034SOL    HW229736   3.409   0.236   2.937 -1.7739 -0.0207 -1.0179
 6035SOL     OW29737   3.659   1.947  12.621 -0.0695 -0.0111 -0.2478
 6035SOL    HW129738   3.639   2.041  12.630 -0.5342 -0.1480  0.1411
 6035SOL    HW229739   3.584   1.915  12.572 -1.1179  1.7464  0.1800
 6036SOL     OW29740   3.274   0.615   4.294 -0.5987 -0.1767 -0.0385
 6036SOL    HW129741   3.250   0.557   4.222  1.2058 -0.2894 -0.5462
 6036SOL    HW229742   3.299   0.690   4.241  0.4632  0.3858  1.2441
 6037SOL     OW29743   3.948   0.254   9.467 -0.4641  0.6483 -0.0322
 6037SOL    HW129744   3.981   0.287   9.550  2.8355  0.5510 -1.2875
 6037SOL    HW229745   3.938   0.330   9.410  1.7097  0.1871 -1.0590
 6038SOL     OW29746   0.994   1.787   8.491 -0.5313  0.5381 -0.0188
 6038SOL    HW129747   1.039   1.852   8.437 -1.4946  0.3487 -1.0414
 6038SOL    HW229748   1.057   1.716   8.479 -1.2653  0.6761 -4.8430
 6039SOL     OW29749   3.699   2.864   3.914 -0.7249  0.0174  0.3856
 6039SOL    HW129750   3.785   2.904   3.917  0.7551 -2.9732 -1.5988
 6039SOL    HW229751   3.695   2.853   3.819  0.4037  1.6181  0.1528
 6040SOL     OW29752   0.890   1.400   4.639 -0.3839 -0.2558 -0.0019
 6040SOL    HW129753   0.894   1.473   4.577 -1.3870 -0.2614 -0.0706
 6040SOL    HW229754   0.939   1.431   4.715  0.6819  2.1089 -1.6446
 6041SOL     OW29755   4.294   4.563   3.659  0.5568  0.0016  0.2024
 6041SOL    HW129756   4.371   4.597   3.705  0.3641  0.6704  0.0375
 6041SOL    HW229757   4.247   4.505   3.719 -1.9782 -0.1886 -1.9457
 6042SOL     OW29758   1.800   2.443   5.880 -0.3789  0.1070 -0.3541
 6042SOL    HW129759   1.862   2.387   5.926 -1.6680 -0.3560  0.8197
 6042SOL    HW229760   1.717   2.399   5.901  0.7428 -2.0630 -0.4169
 6043SOL     OW29761   4.706   4.118  15.813 -0.3406  0.5252 -0.0327
 6043SOL    HW129762   4.689   4.024  15.808 -0.1512  0.3934  1.8708
 6043SOL    HW229763   4.644   4.141  15.744 -0.3741 -1.2622 -0.6005
 6044SOL     OW29764   1.578   4.067   2.317  0.2496 -0.5856  0.8524
 6044SOL    HW129765   1.654   4.019   2.351 -1.2940 -2.2586  1.9143
 6044SOL    HW229766   1.586   4.147   2.369  0.2257 -0.1617  0.2088
 6045SOL     OW29767   3.964   1.382  15.395  0.1709 -0.0638  0.4969
 6045SOL    HW129768   3.871   1.405  15.384 -0.0933 -0.4252  1.9665
 6045SOL    HW229769   3.956   1.307  15.454 -2.5528 -1.2731 -1.3563
 6046SOL     OW29770   2.372   3.592   1.176 -0.1246  0.1160  0.1676
 6046SOL    HW129771   2.338   3.518   1.127 -1.5078  2.0665 -1.8133
 6046SOL    HW229772   2.464   3.584   1.150  0.0479 -1.5357  1.2753
 6047SOL     OW29773   2.822   3.656   8.347 -0.2628 -0.4071  0.2035
 6047SOL    HW129774   2.787   3.621   8.266 -1.4554 -0.0303  0.5623
 6047SOL    HW229775   2.756   3.629   8.411 -0.1767 -1.3634 -0.1048
 6048SOL     OW29776   3.307   1.022   6.643  0.3258 -0.1004 -0.2027
 6048SOL    HW129777   3.240   1.049   6.580 -0.0116 -1.2268 -0.3214
 6048SOL    HW229778   3.305   0.927   6.643  2.3097 -0.1487 -0.6451
 6049SOL     OW29779   3.687   2.356   1.923  0.2889  0.1059 -0.3967
 6049SOL    HW129780   3.690   2.260   1.919  0.2975  0.0020  2.1862
 6049SOL    HW229781   3.600   2.366   1.884 -0.6432 -0.3806  1.5630
 6050SOL     OW29782   1.638   0.848  11.074  0.3731 -0.1943 -0.1389
 6050SOL    HW129783   1.574   0.809  11.015  1.5083 -0.7293 -1.0232
 6050SOL    HW229784   1.704   0.885  11.015  0.9193  0.5035  0.9099
 6051SOL     OW29785   2.464   1.514  13.895  0.5640  0.0890  0.1692
 6051SOL    HW129786   2.456   1.440  13.836 -2.0789  1.6380 -1.4008
 6051SOL    HW229787   2.375   1.533  13.923  0.3954  0.8467 -0.8736
 6052SOL     OW29788   2.411   3.106   9.440 -0.1115 -0.3804  0.3224
 6052SOL    HW129789   2.323   3.121   9.475 -0.3309  0.9219 -0.7943
 6052SOL    HW229790   2.403   3.011   9.437 -1.0848 -0.3062  0.3681
 6053SOL     OW29791   3.033   2.400  15.109  0.2365  0.2213 -0.6157
 6053SOL    HW129792   3.117   2.443  15.095 -0.3911  1.1165 -1.6417
 6053SOL    HW229793   3.051   2.315  15.151 -0.9867  0.3299  0.1240
 6054SOL     OW29794   3.731   1.171   5.445  0.4800 -0.2832  0.8453
 6054SOL    HW129795   3.746   1.247   5.500  3.1588  0.8727 -1.4819
 6054SOL    HW229796   3.819   1.135   5.450  0.7467  0.1400 -0.8516
 6055SOL     OW29797   2.450   3.422   7.197 -0.3154  0.9085 -0.2672
 6055SOL    HW129798   2.504   3.370   7.138 -2.1829  0.1335 -1.2696
 6055SOL    HW229799   2.456   3.511   7.161  0.6774 -0.0277 -2.4240
 6056SOL     OW29800   1.228   0.479  17.646  0.2179  0.4825  0.2136
 6056SOL    HW129801   1.231   0.571  17.671  1.0604  0.9191 -1.5047
 6056SOL    HW229802   1.221   0.469  17.551  0.5230 -3.8784  0.6594
 6057SOL     OW29803   1.863   3.642  16.310 -0.3714  0.1784 -0.5158
 6057SOL    HW129804   1.854   3.608  16.399 -0.9224 -2.7294 -1.6705
 6057SOL    HW229805   1.896   3.729  16.332 -0.7225 -0.0911  1.0546
 6058SOL     OW29806   1.987   3.883  16.457  0.2427 -0.2769 -0.2477
 6058SOL    HW129807   1.957   3.974  16.453 -0.0046 -0.4487 -2.7185
 6058SOL    HW229808   1.969   3.856  16.546  1.7803 -0.4135  0.0290
 6059SOL     OW29809   0.673   2.969  14.232 -0.0462 -0.0341  0.4111
 6059SOL    HW129810   0.744   2.980  14.295  0.6100  2.9072 -0.8641
 6059SOL    HW229811   0.598   2.994  14.287 -1.2249  0.5044 -1.4467
 6060SOL     OW29812   0.744   2.168   0.186  0.2238 -0.4706  0.1334
 6060SOL    HW129813   0.795   2.108   0.240  1.1791  0.4758  0.2696
 6060SOL    HW229814   0.768   2.129   0.102  0.4487  0.5234 -0.2648
 6061SOL     OW29815   0.414   2.825  17.132 -0.3990  0.0159  0.9090
 6061SOL    HW129816   0.341   2.784  17.086 -1.8008  0.5363  2.6761
 6061SOL    HW229817   0.469   2.754  17.165 -0.9972 -2.4309 -3.2523
 6062SOL     OW29818   4.656   4.737   7.794  0.5283  0.5249 -0.6253
 6062SOL    HW129819   4.620   4.693   7.871 -2.9397 -0.2541 -2.6924
 6062SOL    HW229820   4.734   4.692   7.761  0.2428  0.4851 -1.2280
 6063SOL     OW29821   0.790   2.383   9.418 -0.1724 -0.1672 -0.3821
 6063SOL    HW129822   0.882   2.384   9.443 -0.4733  1.2384  0.7110
 6063SOL    HW229823   0.760   2.307   9.468 -0.8484 -0.5361 -1.3432
 6064SOL     OW29824   0.871   0.980   8.734  0.6743  0.4172 -0.4087
 6064SOL    HW129825   0.833   1.058   8.691  0.2293  0.8751  0.8056
 6064SOL    HW229826   0.932   1.012   8.800  2.2067 -0.6443 -1.3075
 6065SOL     OW29827   2.508   3.339   6.797 -0.4693 -0.2453 -0.2518
 6065SOL    HW129828   2.439   3.404   6.785 -0.9534 -0.5216  1.1090
 6065SOL    HW229829   2.492   3.287   6.718 -1.8427  1.9433 -1.4356
 6066SOL     OW29830   4.361   4.039   6.625  0.4952 -0.0173  0.1794
 6066SOL    HW129831   4.309   4.107   6.582  0.7610 -0.4157 -0.7766
 6066SOL    HW229832   4.391   4.074   6.709  0.6270  4.6182 -1.8256
 6067SOL     OW29833   2.155   4.221   7.734 -0.7250 -0.4560 -0.5930
 6067SOL    HW129834   2.238   4.186   7.704  0.4004  0.8622  0.9600
 6067SOL    HW229835   2.182   4.241   7.823 -2.1505 -0.8500 -0.0696
 6068SOL     OW29836   4.214   2.395   1.251  0.7997 -0.3453 -0.0671
 6068SOL    HW129837   4.126   2.418   1.280  0.8460 -2.6114  1.8564
 6068SOL    HW229838   4.248   2.344   1.324 -1.2605 -0.1955  1.0111
 6069SOL     OW29839   1.599   1.036   9.027 -0.1674  0.4046 -0.0686
 6069SOL    HW129840   1.645   1.117   9.047  0.9909 -0.3284  0.2313
 6069SOL    HW229841   1.643   0.978   9.088  0.0215 -2.5293 -2.9819
 6070SOL     OW29842   1.341   3.291   5.304 -0.4263  0.1152 -0.5961
 6070SOL    HW129843   1.425   3.259   5.270 -1.0235 -1.5885 -0.4801
 6070SOL    HW229844   1.330   3.240   5.384 -0.1257  2.4356  0.9198
 6071SOL     OW29845   1.315   1.739   3.352  0.0409 -0.0951  0.4852
 6071SOL    HW129846   1.258   1.781   3.288  0.4672  0.7317  0.6330
 6071SOL    HW229847   1.339   1.818   3.401  1.8437 -1.5282  1.9385
 6072SOL     OW29848   4.492   4.340  11.239  0.3718  0.4182  0.0624
 6072SOL    HW129849   4.504   4.246  11.255 -0.2641  0.2743 -0.3095
 6072SOL    HW229850   4.396   4.340  11.232  0.4112 -0.2882 -0.4436
 6073SOL     OW29851   1.978   1.231   8.667  0.1768  0.3651 -0.6046
 6073SOL    HW129852   1.957   1.161   8.729 -0.5645  0.9657 -0.1796
 6073SOL    HW229853   1.965   1.185   8.584  1.3956 -1.8775  0.4492
 6074SOL     OW29854   3.128   0.699  14.541 -0.1768 -0.2984  0.4918
 6074SOL    HW129855   3.137   0.700  14.446 -2.3756 -0.6207  0.2863
 6074SOL    HW229856   3.088   0.612  14.540  1.9106 -1.2352 -1.3553
 6075SOL     OW29857   3.772   2.561  15.670 -0.5417 -0.9642  0.0660
 6075SOL    HW129858   3.782   2.604  15.585 -1.0633 -0.7599  0.1087
 6075SOL    HW229859   3.827   2.483  15.658  0.8571 -0.1025  0.9195
 6076SOL     OW29860   0.017   1.066  10.210  0.2064 -0.0078  0.5131
 6076SOL    HW129861   0.095   1.081  10.263 -0.3801  0.4673  1.2354
 6076SOL    HW229862   0.015   0.971  10.221  0.4648  0.1756  2.1301
 6077SOL     OW29863   1.436   2.302   7.039 -0.6124  0.4829  0.2237
 6077SOL    HW129864   1.476   2.367   6.981 -0.0886 -0.7818 -0.8273
 6077SOL    HW229865   1.354   2.346   7.061 -1.2027  0.3995 -1.8176
 6078SOL     OW29866   3.455   2.037  11.373 -0.7081  0.1220 -0.6121
 6078SOL    HW129867   3.431   1.971  11.438  1.4194 -0.0836 -0.0250
 6078SOL    HW229868   3.396   2.014  11.300  0.7160  2.6525 -2.5450
 6079SOL     OW29869   1.883   1.558  15.270 -0.0135  0.3042  0.2476
 6079SOL    HW129870   1.878   1.475  15.222  1.0452  1.8927 -2.6434
 6079SOL    HW229871   1.862   1.536  15.361  1.7674  1.5944  0.9639
 6080SOL     OW29872   0.106   1.532   6.128  0.3647  0.4872 -0.4883
 6080SOL    HW129873   0.155   1.614   6.133 -0.3421  0.8871 -0.2079
 6080SOL    HW229874   0.180   1.471   6.123  0.3025  0.4112 -0.4675
 6081SOL     OW29875   1.938   2.304   0.596  0.1268  0.4141  0.1821
 6081SOL    HW129876   1.982   2.288   0.679 -1.2106 -1.4458  0.5174
 6081SOL    HW229877   2.007   2.358   0.556  0.8786 -1.1767 -0.6758
 6082SOL     OW29878   4.271   3.614   6.932 -0.0317 -0.4375 -0.4407
 6082SOL    HW129879   4.265   3.656   7.017  1.4766 -0.2871 -0.4113
 6082SOL    HW229880   4.189   3.565   6.924  0.0233 -0.6783  0.5433
 6083SOL     OW29881   0.702   1.457   2.599 -0.1750  0.4035  0.2144
 6083SOL    HW129882   0.659   1.449   2.685  0.2041  0.7821  0.4367
 6083SOL    HW229883   0.753   1.376   2.597 -1.9064 -0.7135  0.6716
 6084SOL     OW29884   2.000   2.653   1.831 -0.0125  0.9263  0.1111
 6084SOL    HW129885   1.907   2.660   1.854  0.1780  1.6050  0.6856
 6084SOL    HW229886   1.981   2.591   1.760  2.3854 -1.5919  1.6628
 6085SOL     OW29887   0.799   3.876  12.788  0.0613 -0.3560 -0.6923
 6085SOL    HW129888   0.735   3.832  12.733  1.3719 -1.2616 -1.4969
 6085SOL    HW229889   0.746   3.940  12.836  0.0286 -0.7494 -0.2123
 6086SOL     OW29890   1.541   2.572   4.150 -0.1051 -0.2323  0.4194
 6086SOL    HW129891   1.474   2.604   4.090 -0.3230 -1.3927  0.0488
 6086SOL    HW229892   1.550   2.658   4.192 -2.2008  0.3828 -0.4085
 6087SOL     OW29893   4.653   3.877  10.151  0.1342 -0.3214 -0.0098
 6087SOL    HW129894   4.626   3.920  10.232 -1.6958 -0.9097 -0.3114
 6087SOL    HW229895   0.009   3.895  10.153  0.1076 -0.3505  2.4008
 6088SOL     OW29896   3.043   1.479   7.184 -0.2008  0.3622 -0.3395
 6088SOL    HW129897   3.094   1.535   7.243 -0.9615  2.3961 -1.6124
 6088SOL    HW229898   3.057   1.395   7.228 -0.7112  1.2616  1.5508
 6089SOL     OW29899   0.259   1.414   9.920 -0.0010  0.1865  0.0482
 6089SOL    HW129900   0.206   1.488   9.950  0.7412  0.8356 -0.2522
 6089SOL    HW229901   0.189   1.388   9.860 -0.4308 -1.9840  1.4876
 6090SOL     OW29902   2.602   0.073   8.252 -0.1459 -0.0252  0.9265
 6090SOL    HW129903   2.570   0.051   8.165  2.5645 -1.6615  0.3554
 6090SOL    HW229904   2.523   0.110   8.293  0.1264  0.1392  1.3045
 6091SOL     OW29905   0.189   3.180  14.404  0.3164  0.0761 -0.0171
 6091SOL    HW129906   0.239   3.161  14.483 -2.2291  1.9583  2.0563
 6091SOL    HW229907   0.105   3.135  14.415 -0.0922  0.4883 -1.4421
 6092SOL     OW29908   3.661   3.677   2.366  0.0271  0.4944  0.2792
 6092SOL    HW129909   3.726   3.717   2.424  0.7126 -0.4946  0.1943
 6092SOL    HW229910   3.582   3.670   2.418  0.6404 -1.3536  0.9561
 6093SOL     OW29911   0.990   1.699   4.063 -0.2631 -0.2443  0.2770
 6093SOL    HW129912   1.061   1.760   4.086  0.4789 -0.4117 -1.6213
 6093SOL    HW229913   0.931   1.760   4.018 -0.3427 -1.8822 -1.8371
 6094SOL     OW29914   0.943   0.416   5.268 -0.3436  0.3626  0.8711
 6094SOL    HW129915   0.890   0.464   5.332  0.5444  1.5603  0.7016
 6094SOL    HW229916   1.003   0.478   5.227 -0.8575 -0.0261 -0.4796
 6095SOL     OW29917   2.601   1.000   3.054 -0.1013  0.0143 -0.6974
 6095SOL    HW129918   2.639   1.014   2.967 -2.1087 -0.5886 -1.6664
 6095SOL    HW229919   2.512   0.993   3.020 -0.4670 -2.3086  0.8284
 6096SOL     OW29920   0.823   3.767  12.501 -0.3113  0.2907 -0.2367
 6096SOL    HW129921   0.808   3.677  12.473 -1.1208  0.1903  0.4933
 6096SOL    HW229922   0.750   3.820  12.468 -0.0898  1.6020  1.3646
 6097SOL     OW29923   0.016   1.919   6.678  0.8945  0.0544  0.4451
 6097SOL    HW129924   4.669   1.890   6.645  1.6910  0.4447 -1.9760
 6097SOL    HW229925   0.036   1.992   6.620  0.0047 -0.8790 -1.0290
 6098SOL     OW29926   0.496   1.823   0.711  0.3808  0.3348 -0.1268
 6098SOL    HW129927   0.476   1.848   0.621  1.4800  0.8652 -0.2242
 6098SOL    HW229928   0.417   1.829   0.765  0.5690 -0.2139  0.2146
 6099SOL     OW29929   2.542   3.275   2.019  0.2425  0.1864 -0.2260
 6099SOL    HW129930   2.458   3.319   2.014  0.5150  0.7269 -0.0244
 6099SOL    HW229931   2.605   3.340   2.050  0.7038 -0.1777 -0.4007
 6100SOL     OW29932   0.510   0.377   4.610  0.4073 -0.1377  0.4672
 6100SOL    HW129933   0.578   0.421   4.558  0.1532 -0.6002 -0.2586
 6100SOL    HW229934   0.527   0.285   4.588 -3.3259 -0.8897  0.7075
 6101SOL     OW29935   1.741   3.516   3.515 -0.0546  0.8156  0.3857
 6101SOL    HW129936   1.723   3.460   3.439 -2.5480 -0.7235  2.1130
 6101SOL    HW229937   1.831   3.546   3.504  0.5549 -1.5178 -0.9207
 6102SOL     OW29938   1.402   0.810   2.141 -0.8919 -0.2120  0.2820
 6102SOL    HW129939   1.468   0.879   2.144  0.0859 -1.1589  0.6012
 6102SOL    HW229940   1.344   0.827   2.067  0.7095 -0.6100 -1.0556
 6103SOL     OW29941   0.316   3.553   8.040  0.3505  0.2879 -0.0277
 6103SOL    HW129942   0.236   3.602   8.059  0.1233  0.4277 -1.3355
 6103SOL    HW229943   0.315   3.502   8.121 -0.8115  1.3422  0.6104
 6104SOL     OW29944   1.082   3.996   1.771 -1.0338 -0.5823  0.2134
 6104SOL    HW129945   1.029   4.014   1.694 -1.5830 -0.6887  0.5647
 6104SOL    HW229946   1.126   4.081   1.772 -0.6646 -0.7747  0.2367
 6105SOL     OW29947   3.189   1.624   3.632 -0.7256  0.0877  0.5879
 6105SOL    HW129948   3.153   1.560   3.570  1.0237  0.1379 -0.4987
 6105SOL    HW229949   3.271   1.646   3.588 -2.0539 -2.0124 -2.9503
 6106SOL     OW29950   0.111   2.860   4.773 -0.3006  0.1499  0.8275
 6106SOL    HW129951   0.180   2.901   4.720  0.0747 -0.3450  0.9378
 6106SOL    HW229952   0.113   2.907   4.857 -1.3397  1.5765  0.0680
 6107SOL     OW29953   4.456   2.565  11.453 -0.3848 -0.4277  0.0797
 6107SOL    HW129954   4.482   2.500  11.518  1.1548  0.7619  0.6432
 6107SOL    HW229955   4.365   2.542  11.435 -0.0039 -1.6167 -0.3408
 6108SOL     OW29956   3.106   1.247  10.809  0.5620  0.1563 -0.1769
 6108SOL    HW129957   3.066   1.315  10.862  2.1569 -1.2882  2.8491
 6108SOL    HW229958   3.058   1.261  10.727  4.4602  1.7198 -2.1887
 6109SOL     OW29959   1.592   0.155   3.190  0.7815  0.1561 -0.1790
 6109SOL    HW129960   1.602   0.231   3.132  0.4084  1.3561  1.3484
 6109SOL    HW229961   1.650   0.176   3.262  0.5377  1.8362 -0.4759
 6110SOL     OW29962   2.974   4.668  14.981  1.2185  0.2561  0.3553
 6110SOL    HW129963   2.962   4.576  14.955 -1.3012  0.6026  0.3230
 6110SOL    HW229964   2.909   4.710  14.925  0.3806  1.5610  2.3163
 6111SOL     OW29965   4.557   1.884  16.250 -0.2268 -0.0299 -0.0067
 6111SOL    HW129966   4.467   1.884  16.218 -0.6693 -1.2074  1.2185
 6111SOL    HW229967   4.603   1.867  16.168 -0.5528  1.5344 -0.5231
 6112SOL     OW29968   0.382   4.063   2.926  0.1502  0.1937 -0.3768
 6112SOL    HW129969   0.387   3.997   2.857  0.2650  0.4531 -0.6225
 6112SOL    HW229970   0.287   4.076   2.924  0.2443  1.0070  0.7671
 6113SOL     OW29971   4.614   3.277   3.204  0.3125  0.0336 -0.5761
 6113SOL    HW129972   4.650   3.366   3.204  0.8881 -0.2114  2.2490
 6113SOL    HW229973   4.528   3.277   3.162 -0.6196  3.6731  1.3290
 6114SOL     OW29974   2.750   4.173   8.548  0.1980 -0.2650  0.1492
 6114SOL    HW129975   2.791   4.218   8.622  0.7354 -1.8851  0.8493
 6114SOL    HW229976   2.698   4.103   8.588  1.2688 -1.2603 -0.1759
 6115SOL     OW29977   4.634   3.791  14.937  0.5410  0.4030  0.0116
 6115SOL    HW129978   4.566   3.797  14.869 -0.5047  1.0860  1.1088
 6115SOL    HW229979   4.635   3.696  14.929 -0.0756  0.1444  3.2150
 6116SOL     OW29980   3.375   0.886   2.560  0.3196  0.0306  0.0579
 6116SOL    HW129981   3.293   0.847   2.589 -0.6355  0.1836 -2.4128
 6116SOL    HW229982   3.345   0.969   2.524  0.9392 -0.5471 -1.7928
 6117SOL     OW29983   0.839   0.332   9.182  0.4451  0.2157  0.0609
 6117SOL    HW129984   0.755   0.288   9.190  0.8624 -0.5815  0.0038
 6117SOL    HW229985   0.871   0.328   9.273 -0.7995 -3.5761  0.2960
 6118SOL     OW29986   3.993   1.057   6.864  0.3048 -0.0657 -0.7411
 6118SOL    HW129987   3.932   1.109   6.810 -1.9817 -2.0853 -0.1078
 6118SOL    HW229988   4.062   1.123   6.859  0.7438 -0.4649  0.2108
 6119SOL     OW29989   4.445   1.259   5.254 -0.7141 -0.1519  0.6195
 6119SOL    HW129990   4.473   1.173   5.225  0.1128  0.2252  0.3017
 6119SOL    HW229991   4.353   1.252   5.228 -0.5658  0.6610 -0.1483
 6120SOL     OW29992   0.881   2.936  17.178  0.4452 -0.0433 -0.1251
 6120SOL    HW129993   0.840   2.900  17.100 -2.6827 -0.1866  1.5878
 6120SOL    HW229994   0.861   2.874  17.248  1.6180 -0.4326 -0.1335
 6121SOL     OW29995   2.681   3.009   9.890 -0.4825 -0.0944 -0.1350
 6121SOL    HW129996   2.638   2.930   9.924  0.1939  0.0005  0.9432
 6121SOL    HW229997   2.639   3.081   9.938  1.2160  0.3939  0.6124
 6122SOL     OW29998   3.650   3.467   0.561 -0.5717 -0.2381  0.0177
 6122SOL    HW129999   3.683   3.384   0.594  2.0290  0.2893 -1.2387
 6122SOL    HW230000   3.684   3.535   0.619 -2.4536  0.2260  0.5696
 6123SOL     OW30001   0.747   0.627   6.592  0.0818 -0.1556 -0.2848
 6123SOL    HW130002   0.800   0.669   6.660 -1.6875  0.7284  0.5365
 6123SOL    HW230003   0.749   0.533   6.608 -0.2359 -0.2086 -0.5580
 6124SOL     OW30004   3.769   3.678   0.691  0.7631  0.4020 -0.5067
 6124SOL    HW130005   3.810   3.605   0.737 -3.1788 -2.1745 -1.0383
 6124SOL    HW230006   3.834   3.741   0.721 -0.5654  0.1785  2.7862
 6125SOL     OW30007   2.296   3.497   4.370  0.1925 -0.2438 -0.1510
 6125SOL    HW130008   2.268   3.582   4.404 -3.2904 -0.9940 -1.0832
 6125SOL    HW230009   2.345   3.532   4.296 -0.5343  1.4589  0.1649
 6126SOL     OW30010   3.552   2.714   1.272  0.8697  0.7781 -0.3947
 6126SOL    HW130011   3.516   2.757   1.194 -1.4465 -0.7767 -0.1911
 6126SOL    HW230012   3.644   2.700   1.252  0.0570 -2.8366 -1.7396
 6127SOL     OW30013   4.461   1.175   2.092  0.0822  0.1622 -0.2859
 6127SOL    HW130014   4.437   1.233   2.165  1.3778  0.1834  0.1184
 6127SOL    HW230015   4.553   1.195   2.078  0.2432  0.4106  1.1145
 6128SOL     OW30016   0.685   3.361   5.520  0.6147  0.6612  0.5310
 6128SOL    HW130017   0.762   3.362   5.577  0.2273 -1.3838  1.0973
 6128SOL    HW230018   0.675   3.456   5.509  1.8124  0.7051 -0.1798
 6129SOL     OW30019   1.117   3.731  11.738 -0.4730 -0.1133  0.0524
 6129SOL    HW130020   1.074   3.694  11.815  2.6252  0.7508  2.1946
 6129SOL    HW230021   1.201   3.738  11.781  0.0292  1.5687 -1.1998
 6130SOL     OW30022   1.606   0.784  11.331  0.6016  0.0043 -0.3895
 6130SOL    HW130023   1.641   0.859  11.379  0.5722 -0.1893 -0.0689
 6130SOL    HW230024   1.609   0.812  11.239 -1.8912  2.9508  0.4084
 6131SOL     OW30025   4.588   1.987   4.336  0.2170  0.4174 -0.1446
 6131SOL    HW130026   4.574   2.079   4.315  1.0020  0.7700  0.8645
 6131SOL    HW230027   4.571   1.985   4.430  0.2047 -0.9392 -0.1826
 6132SOL     OW30028   4.190   1.136   8.978  0.6138 -0.0565  0.4936
 6132SOL    HW130029   4.222   1.225   8.997 -0.5414  0.9174 -2.0929
 6132SOL    HW230030   4.266   1.112   8.925 -0.6432  2.4358 -2.4914
 6133SOL     OW30031   0.068   2.712   6.671 -0.7853 -0.1462  0.1800
 6133SOL    HW130032   0.053   2.771   6.598  0.0006 -0.8989 -0.5907
 6133SOL    HW230033   0.067   2.629   6.623  1.3825 -1.7953  2.9404
 6134SOL     OW30034   2.538   3.765   5.292 -0.0037  0.0114 -0.2373
 6134SOL    HW130035   2.447   3.766   5.263  0.0155 -1.4794 -0.3668
 6134SOL    HW230036   2.540   3.773   5.387  1.8718  0.0263 -0.2860
 6135SOL     OW30037   3.757   3.596   6.413  0.1061 -0.5579  0.1590
 6135SOL    HW130038   3.751   3.690   6.431 -3.1243 -1.0574  1.6389
 6135SOL    HW230039   3.849   3.571   6.422  0.8219  2.2442  0.7473
 6136SOL     OW30040   2.662   0.733   2.921  0.5890 -0.2680  0.1321
 6136SOL    HW130041   2.628   0.696   3.002 -0.3282  0.6563  0.1659
 6136SOL    HW230042   2.580   0.743   2.873  0.1938 -2.5322  0.3280
 6137SOL     OW30043   4.591   2.596   5.338 -0.1254 -0.2453 -0.1606
 6137SOL    HW130044   4.686   2.595   5.351 -0.2454  1.7208  0.9946
 6137SOL    HW230045   4.564   2.583   5.429  0.5366  1.2543  0.2610
 6138SOL     OW30046   4.566   3.588   3.112  0.0986  0.0998  0.0868
 6138SOL    HW130047   4.500   3.636   3.063 -1.4680 -3.6204 -1.4298
 6138SOL    HW230048   4.502   3.545   3.168  0.8961  0.1297  1.0273
 6139SOL     OW30049   2.403   2.046   0.768  0.2749 -0.2695  0.3172
 6139SOL    HW130050   2.328   1.986   0.763 -0.4696  0.8537 -1.8258
 6139SOL    HW230051   2.437   2.006   0.687  0.9622  0.7779  0.0931
 6140SOL     OW30052   3.208   2.068   1.453 -0.1241  0.5118 -0.7183
 6140SOL    HW130053   3.164   1.988   1.423 -0.0037  1.2749 -2.9860
 6140SOL    HW230054   3.212   2.057   1.548  0.3085 -0.8650 -0.8954
 6141SOL     OW30055   4.372   2.467   7.787  0.1905 -0.6516 -0.1326
 6141SOL    HW130056   4.467   2.455   7.792 -0.0689 -1.8276  2.0287
 6141SOL    HW230057   4.376   2.520   7.708  0.4082  0.3204  0.5289
 6142SOL     OW30058   3.604   4.565   7.008  0.6246 -0.0938 -0.2944
 6142SOL    HW130059   3.565   4.516   6.935 -2.4612 -1.0373  1.9756
 6142SOL    HW230060   3.523   4.578   7.059  0.0624 -1.1103 -0.9234
 6143SOL     OW30061   0.709   1.429   3.901 -0.0070  0.3901 -0.2875
 6143SOL    HW130062   0.696   1.468   3.988 -1.1337 -2.2094  0.7019
 6143SOL    HW230063   0.737   1.341   3.925 -1.3871 -0.6671 -2.5148
 6144SOL     OW30064   3.551   0.146   6.274  0.0239  0.3086 -0.3400
 6144SOL    HW130065   3.505   0.187   6.201 -2.7831  1.1395  1.8818
 6144SOL    HW230066   3.583   0.226   6.315 -1.4651  0.6244  0.2246
 6145SOL     OW30067   4.257   1.867   6.727 -0.3593  0.1745 -0.4684
 6145SOL    HW130068   4.295   1.787   6.763  0.3286  1.1982  1.0782
 6145SOL    HW230069   4.251   1.837   6.636 -2.8246 -1.1754  0.1426
 6146SOL     OW30070   1.464   0.032   3.544  0.9135  0.0001  0.4520
 6146SOL    HW130071   1.493   0.111   3.590  1.9952 -0.1337 -0.0014
 6146SOL    HW230072   1.423   4.724   3.617 -1.2735  1.6887  0.3119
 6147SOL     OW30073   2.989   0.891   4.838 -0.0227  0.0570  0.1452
 6147SOL    HW130074   2.947   0.935   4.765  0.1044  0.0409  0.0624
 6147SOL    HW230075   3.050   0.956   4.872 -0.1250 -0.4772  1.3601
 6148SOL     OW30076   1.115   2.339  16.539 -0.9115 -0.4732 -0.0116
 6148SOL    HW130077   1.025   2.350  16.509 -0.5525 -0.4412 -1.1097
 6148SOL    HW230078   1.157   2.324  16.453 -1.8059 -2.9131 -0.0306
 6149SOL     OW30079   0.839   4.553   0.450  0.0789  0.0385 -0.2347
 6149SOL    HW130080   0.826   4.461   0.472 -0.9765  0.7560  2.2432
 6149SOL    HW230081   0.930   4.557   0.422  0.5038 -0.9663  0.9975
 6150SOL     OW30082   2.105   1.263   5.970 -0.1655  0.2796 -0.2503
 6150SOL    HW130083   2.135   1.347   6.006 -3.4288  1.2127  0.3024
 6150SOL    HW230084   2.013   1.250   5.993 -0.2447  0.5468 -0.4215
 6151SOL     OW30085   4.616   4.075   2.846  0.2751  0.5910 -0.3258
 6151SOL    HW130086   4.583   4.128   2.774 -1.0254  0.6308  0.2870
 6151SOL    HW230087   4.528   4.051   2.876  0.8988  0.1887  1.1910
 6152SOL     OW30088   3.456   1.174   9.084 -0.2602  0.0893  0.0557
 6152SOL    HW130089   3.549   1.171   9.108 -0.3336  0.5255  0.4012
 6152SOL    HW230090   3.452   1.237   9.011 -0.6229  0.4333  0.3744
 6153SOL     OW30091   3.058   4.337  11.352  0.2468  0.2161  0.5030
 6153SOL    HW130092   3.152   4.328  11.336  0.3109 -0.1947  1.1321
 6153SOL    HW230093   3.018   4.297  11.275  1.3814 -0.5976  0.3272
 6154SOL     OW30094   0.163   1.108  16.765 -0.2370 -0.1503 -0.0561
 6154SOL    HW130095   0.177   1.184  16.821  0.1223 -0.4153  0.2131
 6154SOL    HW230096   0.100   1.053  16.812  0.3634 -1.0597 -0.3205
 6155SOL     OW30097   0.455   4.091   6.632 -0.0619 -0.6482 -0.3631
 6155SOL    HW130098   0.400   4.031   6.582  1.0571 -2.4007  0.5104
 6155SOL    HW230099   0.480   4.040   6.708  0.5447  0.1455 -0.0179
 6156SOL     OW30100   0.088   1.356  15.524  0.3288  0.7733 -0.5974
 6156SOL    HW130101   0.175   1.354  15.484  1.5491 -0.5131  2.1627
 6156SOL    HW230102   0.076   1.261  15.516 -0.9055  1.0753 -2.5466
 6157SOL     OW30103   2.802   1.643   7.704  0.6014 -0.7644  0.0261
 6157SOL    HW130104   2.795   1.698   7.782  0.3424  0.7289 -1.0589
 6157SOL    HW230105   2.896   1.633   7.687  0.5949 -0.4443 -0.1902
 6158SOL     OW30106   3.276   2.082   9.022  0.4264  0.2161  0.2108
 6158SOL    HW130107   3.285   2.176   9.036 -0.1421  0.5592 -1.6916
 6158SOL    HW230108   3.315   2.053   9.104 -5.7441 -0.1461  2.9906
 6159SOL     OW30109   1.433   1.518   3.989 -0.2109  0.2887 -0.6871
 6159SOL    HW130110   1.441   1.588   4.054  1.2494 -0.0679 -0.4687
 6159SOL    HW230111   1.338   1.513   3.980 -0.2342  1.7835 -1.2261
 6160SOL     OW30112   1.515   3.710   2.242 -0.2403  0.1920  0.2095
 6160SOL    HW130113   1.548   3.693   2.154 -3.5954  0.2876 -1.0677
 6160SOL    HW230114   1.591   3.734   2.295 -0.0967 -1.6922  0.8840
 6161SOL     OW30115   2.738   1.653   1.735  0.1029  0.8638 -0.4947
 6161SOL    HW130116   2.740   1.698   1.651  1.8219  1.0497 -0.3543
 6161SOL    HW230117   2.781   1.568   1.725 -0.9315  0.1566  0.9816
 6162SOL     OW30118   1.499   1.844   5.999 -0.3306  0.2172 -0.5649
 6162SOL    HW130119   1.563   1.908   6.031 -3.0939  2.4369  0.5461
 6162SOL    HW230120   1.458   1.903   5.937  2.3332  1.6321 -0.9687
 6163SOL     OW30121   0.289   4.105  13.473  0.0599 -0.0770  0.5568
 6163SOL    HW130122   0.276   4.091  13.379  0.9002 -0.2874  0.4694
 6163SOL    HW230123   0.319   4.022  13.512 -1.9559 -0.6373  0.9253
 6164SOL     OW30124   3.696   2.326   2.664 -0.2351  0.2899  0.1383
 6164SOL    HW130125   3.638   2.366   2.598  0.5454  1.1549 -0.0254
 6164SOL    HW230126   3.771   2.296   2.613 -0.7599  0.3272 -0.6583
 6165SOL     OW30127   0.026   1.470   4.593  0.1208 -0.4187 -0.4662
 6165SOL    HW130128   0.024   1.388   4.641 -1.9353  0.0299  0.2291
 6165SOL    HW230129   4.693   1.524   4.626  0.3160  2.3529 -4.5773
 6166SOL     OW30130   3.918   3.853  11.765  0.1052  0.3593  0.5369
 6166SOL    HW130131   3.974   3.807  11.827 -2.2145 -1.1070  1.5108
 6166SOL    HW230132   3.978   3.881  11.695  0.8563 -0.7725  0.7349
 6167SOL     OW30133   0.657   4.592  16.964  0.1161 -0.4234  0.6350
 6167SOL    HW130134   0.646   4.539  16.885 -1.3366 -2.5716  2.2672
 6167SOL    HW230135   0.726   4.649  16.930  1.3491 -2.9397 -1.0973
 6168SOL     OW30136   2.178   4.101   4.415 -0.0588  0.0635 -0.1923
 6168SOL    HW130137   2.265   4.093   4.453 -1.1456 -1.3331  2.0018
 6168SOL    HW230138   2.146   4.184   4.450  4.3525  1.7081 -0.0416
 6169SOL     OW30139   1.295   0.939   2.400 -0.4436  0.0915  0.0510
 6169SOL    HW130140   1.283   0.877   2.328 -0.6447 -0.4327  0.5371
 6169SOL    HW230141   1.382   0.920   2.437 -1.0817 -2.1100  0.3837
 6170SOL     OW30142   1.078   3.039   8.997 -0.4191  0.2653  0.6745
 6170SOL    HW130143   1.009   2.978   9.024 -0.2623  0.5231  1.6578
 6170SOL    HW230144   1.140   3.029   9.069 -1.8382  0.9298  2.0072
 6171SOL     OW30145   1.978   3.813   6.386  0.1123 -0.3570  0.4288
 6171SOL    HW130146   2.040   3.741   6.376 -0.9840 -1.1322 -0.6289
 6171SOL    HW230147   1.942   3.781   6.469  0.8073  1.9560  1.6282
 6172SOL     OW30148   2.909   3.163   4.571  0.2600 -0.0388  0.0815
 6172SOL    HW130149   2.955   3.224   4.629  0.6220 -0.4881  0.2666
 6172SOL    HW230150   2.986   3.139   4.519  0.7021  0.4290  0.5192
 6173SOL     OW30151   0.664   1.963   3.315  0.2768  0.1792 -0.4273
 6173SOL    HW130152   0.645   1.887   3.370  0.7960 -0.1247 -0.6609
 6173SOL    HW230153   0.687   2.028   3.382  0.8709 -0.7842  0.3193
 6174SOL     OW30154   0.098   4.505   7.689 -0.0562  0.2730  0.1414
 6174SOL    HW130155   0.141   4.483   7.606  1.2310 -0.3726  0.9683
 6174SOL    HW230156   0.178   4.522   7.739  0.1206 -0.5719  0.1414
 6175SOL     OW30157   2.748   2.123   7.051  0.0867 -1.3287 -0.8631
 6175SOL    HW130158   2.735   2.096   7.141 -0.8116 -2.6428 -1.3960
 6175SOL    HW230159   2.838   2.158   7.056 -0.6594  0.3808  0.6530
 6176SOL     OW30160   1.436   4.509  13.514  0.0649 -0.7013  0.1455
 6176SOL    HW130161   1.520   4.501  13.468  0.7816  2.0099  0.9809
 6176SOL    HW230162   1.384   4.455  13.455  0.1356 -1.0796  0.4256
 6177SOL     OW30163   4.619   2.023   1.818  0.3782  0.2778  0.2836
 6177SOL    HW130164   4.671   2.012   1.897  0.6298 -2.5291 -0.2622
 6177SOL    HW230165   4.537   2.044   1.862 -0.5459 -0.4772 -1.0590
 6178SOL     OW30166   4.589   2.070   1.382  0.4141 -0.2092 -0.0524
 6178SOL    HW130167   4.652   2.120   1.435  0.0750  0.6293 -0.4384
 6178SOL    HW230168   4.585   2.117   1.299  0.0864  0.2181  0.2020
 6179SOL     OW30169   0.366   0.127   7.507 -0.4884 -0.5060  0.3692
 6179SOL    HW130170   0.305   0.144   7.435  0.3637  1.7895  0.2025
 6179SOL    HW230171   0.450   0.158   7.474 -1.5187  1.7332 -0.1750
 6180SOL     OW30172   0.214   2.949  11.787 -0.2200  0.1411  0.9739
 6180SOL    HW130173   0.158   2.877  11.816 -0.0844 -0.7911 -1.1230
 6180SOL    HW230174   0.161   3.000  11.726  1.1715  2.2904  1.5505
 6181SOL     OW30175   0.566   3.371   4.667 -0.3822 -0.0684 -0.1305
 6181SOL    HW130176   0.532   3.358   4.578 -1.0334 -2.1813  0.4358
 6181SOL    HW230177   0.548   3.465   4.678 -0.7157 -0.0872 -0.5095
 6182SOL     OW30178   3.405   0.573   4.970 -0.5951  0.4776  0.2848
 6182SOL    HW130179   3.425   0.591   4.878 -0.5973  1.1756  0.4207
 6182SOL    HW230180   3.493   0.579   5.007 -0.8404  1.0141  0.7712
 6183SOL     OW30181   3.452   1.270   1.919  0.1148  0.5201  0.0353
 6183SOL    HW130182   3.540   1.244   1.945 -0.0635 -0.9066 -0.8000
 6183SOL    HW230183   3.427   1.212   1.847  1.4212 -1.7234  1.3886
 6184SOL     OW30184   2.940   1.358   8.076  0.2317  0.1304  0.0876
 6184SOL    HW130185   2.968   1.322   8.160  2.0594  1.5480  0.0813
 6184SOL    HW230186   2.876   1.426   8.100  1.4449  1.2260  0.1900
 6185SOL     OW30187   3.146   3.593   3.292 -0.4571 -0.3860  0.2317
 6185SOL    HW130188   3.146   3.554   3.379  0.2839 -3.1483 -1.0012
 6185SOL    HW230189   3.082   3.547   3.237 -2.3746 -0.1867  2.3100
 6186SOL     OW30190   0.511   3.308   4.417 -0.1003  0.2226 -0.4546
 6186SOL    HW130191   0.434   3.253   4.401  0.5122  0.3566 -3.9971
 6186SOL    HW230192   0.575   3.263   4.362  2.3487 -0.0464  2.6222
 6187SOL     OW30193   0.572   1.439   6.541 -0.3675  0.4905 -0.5234
 6187SOL    HW130194   0.531   1.376   6.600 -0.6498  1.8215  0.7188
 6187SOL    HW230195   0.655   1.454   6.587 -0.8666 -2.2708  1.2779
 6188SOL     OW30196   4.439   4.655   4.203  0.8533 -0.2237  0.2578
 6188SOL    HW130197   4.415   4.619   4.118  0.5575  1.2507 -0.2825
 6188SOL    HW230198   4.394   0.001   4.198  1.5551  0.2837  2.1942
 6189SOL     OW30199   0.395   0.421   7.442  0.4622  0.0911 -0.2424
 6189SOL    HW130200   0.411   0.454   7.531  2.3309 -0.0628 -0.5220
 6189SOL    HW230201   0.462   0.353   7.447 -0.7846 -0.9927  1.8406
 6190SOL     OW30202   4.298   3.887  11.212  0.5629 -0.3628  0.0057
 6190SOL    HW130203   4.209   3.880  11.245  0.0029 -0.9089 -1.6392
 6190SOL    HW230204   4.306   3.982  11.199 -0.1884 -0.3449 -0.2968
 6191SOL     OW30205   0.695   3.118   8.062 -0.4152  0.0763  0.1998
 6191SOL    HW130206   0.666   3.209   8.061 -3.0438 -0.7665 -0.6951
 6191SOL    HW230207   0.621   3.071   8.100  0.0670 -1.2539 -0.4976
 6192SOL     OW30208   2.841   2.633   2.961  0.0728  0.0670 -0.3314
 6192SOL    HW130209   2.881   2.683   3.032 -0.8151  1.4724 -0.8201
 6192SOL    HW230210   2.908   2.565   2.960 -0.4570 -0.4743  1.3856
 6193SOL     OW30211   0.269   3.985   6.424  0.0526  0.1904 -0.4555
 6193SOL    HW130212   0.176   4.007   6.432  0.4246  1.9196 -0.8375
 6193SOL    HW230213   0.317   4.056   6.382 -0.3349  0.6155 -0.1826
 6194SOL     OW30214   0.166   4.524   6.139  0.1300 -0.5050  0.6177
 6194SOL    HW130215   0.127   4.602   6.178 -0.3290 -0.4689  0.0796
 6194SOL    HW230216   0.245   4.527   6.193 -0.1507  0.2157  0.9825
 6195SOL     OW30217   2.872   1.830   3.490  0.3705  0.0281 -0.5147
 6195SOL    HW130218   2.942   1.849   3.553 -1.7643 -0.9574  2.1350
 6195SOL    HW230219   2.807   1.838   3.560 -0.4278  1.6337 -1.4235
 6196SOL     OW30220   3.871   1.697   4.127 -0.1967  0.5221  0.0058
 6196SOL    HW130221   3.866   1.625   4.064  0.2970 -0.6081  1.2660
 6196SOL    HW230222   3.790   1.742   4.102  0.6352  2.0173  0.0605
 6197SOL     OW30223   4.529   3.766  11.291  0.5521 -0.2139 -0.4056
 6197SOL    HW130224   4.560   3.684  11.252 -0.3223 -0.3138 -0.8847
 6197SOL    HW230225   4.448   3.790  11.247  0.4679  0.1196 -0.0738
 6198SOL     OW30226   0.336   3.701   7.714 -0.2283 -0.4105  0.0653
 6198SOL    HW130227   0.408   3.761   7.733 -0.5386 -0.4812  1.4437
 6198SOL    HW230228   0.332   3.695   7.618 -1.7938  0.8743  0.0447
 6199SOL     OW30229   0.927   0.503   7.004 -0.1724  0.2225 -0.4745
 6199SOL    HW130230   0.851   0.537   6.957 -0.3275 -1.0446 -1.1572
 6199SOL    HW230231   0.994   0.559   6.964 -0.5391  0.0354 -1.3620
 6200SOL     OW30232   3.038   2.768   4.581 -0.2709 -0.3380 -0.0700
 6200SOL    HW130233   3.024   2.807   4.667  0.6467  0.7036 -0.3849
 6200SOL    HW230234   3.108   2.827   4.552  1.7880 -2.4971  0.5576
 6201SOL     OW30235   2.342   4.734   4.595  0.2237 -0.4195 -0.5766
 6201SOL    HW130236   2.429   0.021   4.565  0.7578  0.3554  1.6747
 6201SOL    HW230237   2.284   0.071   4.601 -1.6047 -2.0670  2.3842
 6202SOL     OW30238   3.098   1.016   6.188  0.2839 -0.3666 -0.2579
 6202SOL    HW130239   3.187   0.998   6.217  1.0257  2.3193 -0.8643
 6202SOL    HW230240   3.083   1.096   6.238  1.1354 -1.0073  1.0211
 6203SOL     OW30241   4.403   1.322  15.487  0.0132 -0.0475  0.0983
 6203SOL    HW130242   4.408   1.231  15.457  2.4092 -0.9013  3.2434
 6203SOL    HW230243   4.361   1.320  15.573 -2.1659  0.5143 -0.9473
 6204SOL     OW30244   3.148   1.777   2.736  0.1539  0.2991  0.4297
 6204SOL    HW130245   3.195   1.825   2.805  0.4018  0.0272  0.4550
 6204SOL    HW230246   3.152   1.838   2.663  0.3592 -0.9304 -0.5936
 6205SOL     OW30247   0.574   1.697   6.651 -0.1948 -0.3315 -0.2413
 6205SOL    HW130248   0.538   1.615   6.619 -1.6019  0.0373  0.4030
 6205SOL    HW230249   0.505   1.727   6.711 -0.5809 -1.3517 -0.1797
 6206SOL     OW30250   4.003   0.043   1.442  0.4351  0.3022 -0.1624
 6206SOL    HW130251   3.910   0.065   1.437  0.0295 -1.1905  0.5282
 6206SOL    HW230252   4.044   0.127   1.459 -1.7431  1.3357 -0.0677
 6207SOL     OW30253   0.692   0.041  12.409  0.4800  0.0081 -0.1891
 6207SOL    HW130254   0.619   4.733  12.451 -0.0139 -0.9345 -2.1216
 6207SOL    HW230255   0.670   0.134  12.411  0.2208 -0.0734  0.8447
 6208SOL     OW30256   3.755   3.199   3.791  0.6009  0.1538 -0.0385
 6208SOL    HW130257   3.734   3.292   3.797 -0.8386 -0.3396  2.6599
 6208SOL    HW230258   3.795   3.181   3.876  1.5170 -0.6848 -0.6473
 6209SOL     OW30259   3.106   2.995  14.703  0.1663  0.0362 -0.0713
 6209SOL    HW130260   3.110   3.029  14.614  1.1596  0.0830 -0.0053
 6209SOL    HW230261   3.162   3.051  14.757  0.2774 -1.2163  1.1204
 6210SOL     OW30262   2.956   0.928   3.774  0.3811  0.3234 -0.3421
 6210SOL    HW130263   2.869   0.936   3.814  0.1922  2.9751 -1.2411
 6210SOL    HW230264   2.995   0.856   3.823 -0.7082  0.3577  0.5955
 6211SOL     OW30265   0.829   2.818   5.526 -0.3759 -0.1413 -0.6067
 6211SOL    HW130266   0.892   2.747   5.518  1.1545  1.2450 -0.7260
 6211SOL    HW230267   0.792   2.799   5.612 -0.0167 -0.3353 -0.4950
 6212SOL     OW30268   2.444   3.656   4.216 -0.5713 -0.0345 -0.1032
 6212SOL    HW130269   2.528   3.701   4.205 -0.9767  0.5264 -0.9166
 6212SOL    HW230270   2.422   3.657   4.123 -1.2073  1.2103  0.0606
 6213SOL     OW30271   4.407   0.703   5.243 -0.2473  0.6781  0.2714
 6213SOL    HW130272   4.353   0.625   5.257 -0.0988  0.5316  0.0340
 6213SOL    HW230273   4.409   0.696   5.147  2.9890  0.2464  0.3634
 6214SOL     OW30274   2.780   4.132   2.163  0.0055 -0.0411 -0.3712
 6214SOL    HW130275   2.863   4.180   2.158 -0.6469  1.2192  0.7490
 6214SOL    HW230276   2.784   4.084   2.245 -1.2587 -1.7764 -1.3347
 6215SOL     OW30277   1.083   4.407   6.926 -0.7464 -0.1921 -0.1117
 6215SOL    HW130278   1.071   4.317   6.955 -0.4183  0.6273  2.5782
 6215SOL    HW230279   1.099   4.408   6.831  1.7928 -0.5321  0.3111
 6216SOL     OW30280   2.181   0.320   6.687 -0.1894 -0.4191 -0.2649
 6216SOL    HW130281   2.123   0.249   6.662  0.1470 -0.8953  0.3060
 6216SOL    HW230282   2.263   0.294   6.644  0.9812  0.1750  1.5801
 6217SOL     OW30283   2.661   3.605   5.119 -0.2677 -0.0000  0.8583
 6217SOL    HW130284   2.639   3.516   5.147  0.5891 -0.6143 -0.4464
 6217SOL    HW230285   2.628   3.655   5.194 -1.1076  1.4597 -0.4918
 6218SOL     OW30286   1.012   4.086   2.036  0.4991  0.0994 -0.1536
 6218SOL    HW130287   1.035   3.998   2.067 -0.4310 -0.2200 -0.3632
 6218SOL    HW230288   1.051   4.081   1.949 -1.7912 -1.3428 -1.1116
 6219SOL     OW30289   2.372   1.483  10.632  0.3685  0.4274 -0.1022
 6219SOL    HW130290   2.401   1.571  10.656  0.4313  0.6680 -1.0831
 6219SOL    HW230291   2.344   1.493  10.542 -0.1499  1.4006  0.1739
 6220SOL     OW30292   2.628   0.930   9.979  0.3412 -0.6294 -0.0114
 6220SOL    HW130293   2.579   0.990   9.923  1.8151  0.5414 -0.0477
 6220SOL    HW230294   2.659   0.859   9.922  0.9800 -1.6388  1.5786
 6221SOL     OW30295   1.450   1.681   8.195 -0.0988 -0.0483  0.2519
 6221SOL    HW130296   1.355   1.696   8.204 -0.1176  0.1782 -0.3320
 6221SOL    HW230297   1.461   1.596   8.154  0.4844  0.2162 -0.1312
 6222SOL     OW30298   0.076   3.065   2.517  0.1223  0.6572  0.0151
 6222SOL    HW130299   0.032   3.105   2.592 -0.2146  3.8033 -1.8702
 6222SOL    HW230300   0.048   2.974   2.524 -1.6599  1.1675 -0.3136
 6223SOL     OW30301   2.014   3.395   2.273  0.6690  0.2158  0.1799
 6223SOL    HW130302   2.061   3.319   2.240 -1.7998 -1.1388 -0.1775
 6223SOL    HW230303   2.066   3.459   2.224 -0.5052  0.7136 -0.4045
 6224SOL     OW30304   1.154   3.335   2.982 -0.3573  0.1183 -0.0977
 6224SOL    HW130305   1.093   3.262   2.988 -0.2558 -0.0323 -0.8886
 6224SOL    HW230306   1.220   3.294   2.925  1.5652  0.4336  1.9092
 6225SOL     OW30307   2.329   1.180   5.783 -0.5497 -0.8678  0.0248
 6225SOL    HW130308   2.270   1.219   5.848 -0.0893  0.2307 -0.2180
 6225SOL    HW230309   2.311   1.087   5.778 -3.6784 -0.2874  0.5356
 6226SOL     OW30310   2.154   1.563   6.528 -0.5947  0.6688 -0.0847
 6226SOL    HW130311   2.229   1.591   6.581  1.1653  0.0039 -2.1912
 6226SOL    HW230312   2.190   1.482   6.493  0.3328  1.0015  0.0709
 6227SOL     OW30313   1.278   2.349  13.903 -0.0410 -0.0649  0.0883
 6227SOL    HW130314   1.229   2.282  13.855 -0.2766 -0.4250  0.8354
 6227SOL    HW230315   1.370   2.327  13.888  1.0460  3.2550  1.6970
 6228SOL     OW30316   1.723   2.520   7.334  0.0450  0.2142 -0.7539
 6228SOL    HW130317   1.816   2.508   7.353 -0.4721  0.0140  1.6116
 6228SOL    HW230318   1.689   2.436   7.365 -0.4951  0.2727 -1.1918
 6229SOL     OW30319   2.759   2.875   7.295  0.2274 -0.1906 -0.1762
 6229SOL    HW130320   2.751   2.783   7.318  0.9495  0.0184  0.9264
 6229SOL    HW230321   2.853   2.890   7.296  0.1565  0.3367 -0.9645
 6230SOL     OW30322   4.577   0.116   3.951 -0.3063  0.3961 -0.5352
 6230SOL    HW130323   4.671   0.111   3.968 -0.2632 -0.0097 -0.8930
 6230SOL    HW230324   4.538   0.156   4.029 -1.0862 -0.6382 -0.3878
 6231SOL     OW30325   0.803   3.195   3.746 -0.5613 -0.0105  0.9364
 6231SOL    HW130326   0.897   3.181   3.761 -0.4007  1.2683  1.1072
 6231SOL    HW230327   0.806   3.279   3.700  0.5588  0.2453  1.4733
 6232SOL     OW30328   2.737   2.869   0.476 -0.0083  0.6653 -0.5936
 6232SOL    HW130329   2.763   2.782   0.509  1.8244  1.5309  0.2552
 6232SOL    HW230330   2.816   2.921   0.462 -0.7791  1.5599 -1.5912
 6233SOL     OW30331   3.375   3.117  14.030  0.4849 -0.4021 -0.4650
 6233SOL    HW130332   3.387   3.050  13.963 -1.4176 -0.6183 -0.5935
 6233SOL    HW230333   3.396   3.196  13.980 -1.7605 -0.0322 -0.8209
 6234SOL     OW30334   0.355   1.985  12.165 -0.2541  0.2067  0.2345
 6234SOL    HW130335   0.357   1.901  12.118  0.7666 -0.4001  1.3739
 6234SOL    HW230336   0.394   2.035  12.093  0.0789 -1.5847 -0.8585
 6235SOL     OW30337   1.819   1.778   2.272 -0.3982 -0.0826 -0.6158
 6235SOL    HW130338   1.852   1.866   2.253  1.1213 -0.6391 -0.5344
 6235SOL    HW230339   1.845   1.735   2.190 -2.9095  0.0686 -1.4967
 6236SOL     OW30340   1.909   0.861   5.252  0.3268  0.2633  0.1760
 6236SOL    HW130341   1.836   0.844   5.311  0.2429 -0.0907 -0.0302
 6236SOL    HW230342   1.983   0.845   5.311  1.9500  1.4189 -1.5488
 6237SOL     OW30343   1.257   0.854  11.438  0.4925  0.3755 -0.5523
 6237SOL    HW130344   1.254   0.936  11.488 -1.2327  0.6985 -1.1645
 6237SOL    HW230345   1.339   0.816  11.468  0.9546  2.1644  0.4707
 6238SOL     OW30346   4.133   3.363   4.690 -0.1307 -0.5019  0.2735
 6238SOL    HW130347   4.145   3.409   4.606  0.9586  2.6595  2.1642
 6238SOL    HW230348   4.130   3.273   4.659  0.1011 -0.2374 -0.5337
 6239SOL     OW30349   2.809   4.396   6.231 -0.3743  0.6030  0.4239
 6239SOL    HW130350   2.809   4.491   6.223  0.3004  0.5161 -0.6271
 6239SOL    HW230351   2.738   4.378   6.293  0.0214 -1.7070  0.2353
 6240SOL     OW30352   0.295   2.109   0.739 -0.6433  0.4513  0.7247
 6240SOL    HW130353   0.342   2.167   0.798  1.9424 -1.9467  1.0139
 6240SOL    HW230354   0.266   2.031   0.787 -0.7302  0.7761  1.1915
 6241SOL     OW30355   2.631   1.980   8.056  0.2644  0.0504 -0.0642
 6241SOL    HW130356   2.601   2.055   8.003 -1.6953 -1.3217 -0.9016
 6241SOL    HW230357   2.596   2.012   8.139 -1.6260 -2.5071  0.1112
 6242SOL     OW30358   3.385   4.520   1.592  0.1860 -0.5993 -0.3192
 6242SOL    HW130359   3.387   4.571   1.673 -0.4219  2.9137 -2.4937
 6242SOL    HW230360   3.475   4.524   1.560 -0.1646  1.3745 -1.0753
 6243SOL     OW30361   4.119   3.377   5.088 -0.6120  0.2168  0.0240
 6243SOL    HW130362   4.116   3.436   5.012 -2.4083 -2.8830 -2.2795
 6243SOL    HW230363   4.035   3.333   5.085 -1.0805  0.9804  1.6378
 6244SOL     OW30364   2.207   3.585  11.490 -0.4215  0.5136  0.0969
 6244SOL    HW130365   2.179   3.610  11.402  2.2515  1.0099 -0.6178
 6244SOL    HW230366   2.165   3.654  11.541 -0.6160  1.3917 -1.2728
 6245SOL     OW30367   1.907   0.157   6.141 -0.1243  0.2738 -0.2401
 6245SOL    HW130368   1.926   0.171   6.234 -0.3680  2.7504 -0.5700
 6245SOL    HW230369   1.961   0.080   6.123  0.2835  0.6233 -0.5077
 6246SOL     OW30370   2.118   3.622   2.707  0.4623 -0.6985  0.0780
 6246SOL    HW130371   2.051   3.682   2.674  2.1292 -0.2993 -2.5882
 6246SOL    HW230372   2.163   3.673   2.774  0.6450 -1.6040  0.6411
 6247SOL     OW30373   3.183   2.784  17.649 -0.1972  0.0833  0.4866
 6247SOL    HW130374   3.103   2.821  17.687 -0.9944 -0.1953 -0.9353
 6247SOL    HW230375   3.226   2.748  17.727  0.0352  0.6324  0.6171
 6248SOL     OW30376   4.623   1.480   4.074 -0.0212  0.2153 -0.2436
 6248SOL    HW130377   4.634   1.456   4.167 -1.7813  1.9092  0.3834
 6248SOL    HW230378   4.555   1.417   4.050  2.1280 -2.8237  1.5198
 6249SOL     OW30379   4.346   0.858   9.038 -0.3468 -0.4000 -0.3523
 6249SOL    HW130380   4.302   0.798   8.977 -2.0430  1.5413 -1.0665
 6249SOL    HW230381   4.390   0.915   8.975 -0.1424  2.8857  2.7796
 6250SOL     OW30382   4.492   0.822  12.885  0.1573  0.0161 -0.0029
 6250SOL    HW130383   4.570   0.869  12.856  0.2768 -0.3504 -0.2763
 6250SOL    HW230384   4.417   0.860  12.839 -0.7577 -0.0079  1.4885
 6251SOL     OW30385   2.814   2.567   7.816 -0.1029 -0.2421  0.2033
 6251SOL    HW130386   2.808   2.498   7.750  0.2364  0.0215 -0.1029
 6251SOL    HW230387   2.882   2.616   7.770  1.3825  1.5358  4.3111
 6252SOL     OW30388   2.573   4.221   3.256  0.0542 -0.2711 -0.0960
 6252SOL    HW130389   2.626   4.262   3.188 -1.2559  0.7522 -0.5009
 6252SOL    HW230390   2.585   4.126   3.244  0.9977 -0.2401  0.6693
 6253SOL     OW30391   0.646   1.871   9.515  0.2420  0.8516 -0.5800
 6253SOL    HW130392   0.665   1.779   9.534  0.7133  0.8134 -1.2232
 6253SOL    HW230393   0.598   1.859   9.432  0.5583 -3.0419 -0.2164
 6254SOL     OW30394   4.427   0.481   4.797 -0.1149  0.1975 -0.1069
 6254SOL    HW130395   4.500   0.419   4.796  0.5294  0.9659 -0.1049
 6254SOL    HW230396   4.433   0.520   4.710  2.4631  0.0490  0.0084
 6255SOL     OW30397   1.657   4.663   6.448  0.0249 -0.3093 -0.5494
 6255SOL    HW130398   1.618   0.005   6.415 -0.5402 -0.8197 -1.1246
 6255SOL    HW230399   1.736   4.662   6.394  0.6676 -0.0192  0.3730
 6256SOL     OW30400   1.489   2.189   4.091  0.1736  0.1817  0.2773
 6256SOL    HW130401   1.561   2.247   4.069 -1.5788  1.4964 -1.9551
 6256SOL    HW230402   1.480   2.145   4.006 -1.4058  0.4420  0.3114
 6257SOL     OW30403   0.288   1.800  11.514  0.3103 -0.4827  0.1239
 6257SOL    HW130404   0.198   1.776  11.537 -1.3627  0.8908 -5.0066
 6257SOL    HW230405   0.274   1.771  11.424  2.0168  0.0021 -0.2964
 6258SOL     OW30406   3.780   2.895  12.153 -0.3627 -0.3639  0.6566
 6258SOL    HW130407   3.791   2.886  12.248 -0.6680  0.2129  0.7450
 6258SOL    HW230408   3.857   2.947  12.130 -1.0667 -0.4977 -1.9686
 6259SOL     OW30409   0.986   2.282   9.043 -0.6815  0.6398 -0.3010
 6259SOL    HW130410   0.900   2.289   9.085 -1.5154  0.1181 -1.9146
 6259SOL    HW230411   1.029   2.211   9.090 -3.0163 -0.2474  0.4959
 6260SOL     OW30412   0.434   3.844  13.383  0.3347 -0.4911  0.4166
 6260SOL    HW130413   0.408   3.843  13.291 -2.1787  0.5621  1.1116
 6260SOL    HW230414   0.406   3.760  13.419  1.8257 -0.8493  0.7299
 6261SOL     OW30415   1.116   3.092  12.923 -0.5734 -0.0571  0.3680
 6261SOL    HW130416   1.096   3.042  12.844 -0.2378 -0.3599  0.4770
 6261SOL    HW230417   1.170   3.165  12.893  0.7532 -1.1428  0.1164
 6262SOL     OW30418   0.061   3.121  11.559 -0.0090 -0.8966  0.4134
 6262SOL    HW130419   0.102   3.205  11.539 -1.7818 -0.3739 -1.1169
 6262SOL    HW230420   4.716   3.143  11.600  0.2952 -1.6713  1.4379
 6263SOL     OW30421   0.005   3.672   5.245  0.3424  0.5772 -0.3150
 6263SOL    HW130422   0.085   3.715   5.276  1.0931 -1.3552  0.3770
 6263SOL    HW230423   4.684   3.733   5.289  0.6403  1.7276 -1.4730
 6264SOL     OW30424   0.749   3.471   3.611  0.2077 -0.2468  0.0886
 6264SOL    HW130425   0.777   3.518   3.690  0.8503  1.0890 -0.9329
 6264SOL    HW230426   0.721   3.538   3.548  0.4506 -2.0221 -1.8979
 6265SOL     OW30427   2.130   3.404   9.605 -0.5433 -0.4863 -0.2780
 6265SOL    HW130428   2.096   3.491   9.582 -0.1285 -0.7050 -1.7009
 6265SOL    HW230429   2.210   3.423   9.654 -0.9213 -1.3666  0.6679
 6266SOL     OW30430   1.023   4.508  11.713 -0.0765 -0.1145  0.2066
 6266SOL    HW130431   1.006   4.432  11.770 -2.1991 -0.6852 -1.1686
 6266SOL    HW230432   1.038   4.575  11.780  1.2761  0.7628 -1.0016
 6267SOL     OW30433   0.782   2.502   6.986  0.0724 -0.0536 -0.4454
 6267SOL    HW130434   0.857   2.558   6.965 -0.4137  1.1804  1.0987
 6267SOL    HW230435   0.720   2.531   6.919 -0.3983  0.3628  0.1721
 6268SOL     OW30436   3.915   2.951   1.217  0.2554 -0.8118 -0.0943
 6268SOL    HW130437   3.935   2.994   1.134 -0.6096 -0.3307 -0.0614
 6268SOL    HW230438   3.954   3.012   1.280 -2.3639  0.2268  0.5642
 6269SOL     OW30439   1.408   3.762   3.333  0.1003 -0.6949  0.3624
 6269SOL    HW130440   1.378   3.673   3.312 -0.3766 -0.1786 -1.1297
 6269SOL    HW230441   1.417   3.772   3.428  1.8399 -2.3808  0.3889
 6270SOL     OW30442   0.285   3.364  15.002  0.1002  0.1185  0.1884
 6270SOL    HW130443   0.369   3.410  15.007 -0.0996  0.3766  1.2590
 6270SOL    HW230444   0.299   3.315  14.922 -0.1264  2.8095 -1.5049
 6271SOL     OW30445   3.588   3.950   7.154 -0.2686  0.6250  0.1274
 6271SOL    HW130446   3.676   3.985   7.166 -1.1016  2.2661  1.3397
 6271SOL    HW230447   3.559   4.016   7.091 -0.3199  0.0806 -0.4292
 6272SOL     OW30448   2.543   3.206  16.861 -0.0899  0.1785 -0.3986
 6272SOL    HW130449   2.537   3.302  16.860  3.4974  0.4082 -0.5474
 6272SOL    HW230450   2.476   3.171  16.920  1.3373  0.8502  1.6188
 6273SOL     OW30451   3.802   4.205   3.764 -0.0091  0.1089  0.0989
 6273SOL    HW130452   3.893   4.220   3.789 -1.0367  3.2757  1.9265
 6273SOL    HW230453   3.761   4.174   3.844  0.9386 -1.5872 -0.0725
 6274SOL     OW30454   4.243   2.775   4.503  0.5828  0.3444  0.2510
 6274SOL    HW130455   4.271   2.694   4.460 -0.9414 -0.5125  0.8937
 6274SOL    HW230456   4.280   2.839   4.442 -1.3719 -0.8165 -2.1134
 6275SOL     OW30457   0.428   4.264  13.652 -0.6146 -0.3214 -0.0295
 6275SOL    HW130458   0.421   4.204  13.726 -1.9763  0.8762  0.8288
 6275SOL    HW230459   0.361   4.230  13.593 -0.8915  2.1052 -1.1398
 6276SOL     OW30460   3.764   2.945   1.696 -0.0271  0.0644 -0.1566
 6276SOL    HW130461   3.767   2.851   1.682  0.6565  0.1075 -0.2922
 6276SOL    HW230462   3.737   2.977   1.610 -0.3648  0.2441  0.0137
 6277SOL     OW30463   0.324   2.144   2.972 -0.4202 -0.1791 -0.4146
 6277SOL    HW130464   0.397   2.127   2.912 -0.5813  1.0050 -0.9423
 6277SOL    HW230465   0.372   2.107   3.046 -3.7784  0.4475  2.0735
 6278SOL     OW30466   4.415   3.778  13.715  0.4617 -0.0685 -0.4912
 6278SOL    HW130467   4.387   3.841  13.782  1.1866  0.5999 -0.8180
 6278SOL    HW230468   4.349   3.799  13.648 -0.9776 -1.2257  0.5625
 6279SOL     OW30469   3.578   2.445   2.440 -0.6885 -0.1495  0.1969
 6279SOL    HW130470   3.545   2.404   2.360  1.2513 -0.1394 -0.5902
 6279SOL    HW230471   3.507   2.510   2.442 -0.8376 -0.3080  0.0982
 6280SOL     OW30472   1.644   4.267  15.684  0.3139  0.0012 -0.0613
 6280SOL    HW130473   1.729   4.296  15.649 -1.0378  1.2145 -2.3108
 6280SOL    HW230474   1.584   4.329  15.642  0.3076  1.3376  1.9254
 6281SOL     OW30475   1.313   2.626   2.742  0.3650  0.0095  0.0776
 6281SOL    HW130476   1.267   2.610   2.824  0.3813  0.1780  0.1184
 6281SOL    HW230477   1.275   2.707   2.710  0.8272  0.4507  0.6612
 6282SOL     OW30478   1.521   4.299   4.275 -0.3735  0.3825  0.4366
 6282SOL    HW130479   1.562   4.348   4.346 -1.0921  0.2037  0.9813
 6282SOL    HW230480   1.572   4.320   4.198 -2.9063  0.9823 -1.0795
 6283SOL     OW30481   2.179   4.233  16.800  0.7294 -0.5651 -0.0200
 6283SOL    HW130482   2.222   4.218  16.716 -0.0995  2.1873 -0.9267
 6283SOL    HW230483   2.226   4.315  16.816 -0.3751  0.5022 -2.3888
 6284SOL     OW30484   4.713   0.282  16.322 -0.2496 -0.0073  0.1802
 6284SOL    HW130485   4.709   0.377  16.336 -1.1691 -0.1181  0.6730
 6284SOL    HW230486   0.050   0.267  16.265  0.9171 -1.9677  2.2137
 6285SOL     OW30487   2.297   2.891   8.775  0.1046 -0.8561 -0.0888
 6285SOL    HW130488   2.233   2.823   8.799  1.2854 -0.8754  3.0439
 6285SOL    HW230489   2.288   2.955   8.846  2.1511 -1.8840  1.0932
 6286SOL     OW30490   0.383   1.111   7.425 -0.0683 -0.6078 -0.8169
 6286SOL    HW130491   0.424   1.027   7.449  0.6157 -0.4934 -1.5860
 6286SOL    HW230492   0.427   1.163   7.493  0.6545 -0.0834 -1.6939
 6287SOL     OW30493   2.711   1.155   6.434  0.1550 -1.0179 -0.2901
 6287SOL    HW130494   2.656   1.186   6.363 -0.1585  0.5216  0.6306
 6287SOL    HW230495   2.790   1.207   6.418 -0.8173  0.3918 -0.4942
 6288SOL     OW30496   4.508   4.071   3.580  0.2448  0.1313 -0.0971
 6288SOL    HW130497   4.558   3.990   3.573  0.3119  0.1256  0.4482
 6288SOL    HW230498   4.527   4.104   3.492  3.8970  1.0956  1.0483
 6289SOL     OW30499   1.693   3.780  13.009  0.6465  0.3097 -0.0525
 6289SOL    HW130500   1.607   3.820  13.022  0.9070  0.9232 -0.2363
 6289SOL    HW230501   1.705   3.746  13.098  2.1730  0.5896 -0.1413
 6290SOL     OW30502   2.853   0.262   7.036  0.9853 -0.0271 -0.0029
 6290SOL    HW130503   2.916   0.246   7.106  0.2947  0.3926  0.7039
 6290SOL    HW230504   2.906   0.311   6.973  1.9222  1.7588  2.2176
 6291SOL     OW30505   1.083   0.964  12.074 -0.3320 -0.1634  0.5290
 6291SOL    HW130506   1.013   1.000  12.129  0.2108  1.2044  0.3264
 6291SOL    HW230507   1.035   0.894  12.030 -1.7265  1.6795 -0.8954
 6292SOL     OW30508   0.818   3.093  12.463 -0.7625  0.8354 -0.0119
 6292SOL    HW130509   0.739   3.103  12.517 -0.8228  0.9449 -0.1188
 6292SOL    HW230510   0.768   3.071  12.384  0.6328  0.1158 -0.6817
 6293SOL     OW30511   2.649   2.810   3.262  0.0136  0.5604 -0.3242
 6293SOL    HW130512   2.690   2.894   3.243  2.4097 -0.2493  1.2793
 6293SOL    HW230513   2.655   2.810   3.357 -1.5901  0.0341 -0.2264
 6294SOL     OW30514   2.085   4.557   2.613  0.6764 -0.6592 -0.7106
 6294SOL    HW130515   2.148   4.624   2.640  0.4735 -1.2426  1.1467
 6294SOL    HW230516   2.017   4.614   2.577  0.6062  0.4303  1.1964
 6295SOL     OW30517   0.828   2.162   5.822 -0.4570  0.3651 -0.0217
 6295SOL    HW130518   0.743   2.160   5.778 -0.3091 -2.0782 -0.1904
 6295SOL    HW230519   0.879   2.100   5.769 -3.1239 -1.9856  0.1473
 6296SOL     OW30520   4.432   0.199   4.943 -0.0507  0.1131  0.5009
 6296SOL    HW130521   4.468   0.113   4.920  1.3736  0.2198  2.4179
 6296SOL    HW230522   4.351   0.179   4.990  0.9231 -0.5646  1.8862
 6297SOL     OW30523   0.380   0.675   0.183  0.8188  0.0521  0.1719
 6297SOL    HW130524   0.367   0.589   0.223  1.6729  0.6538  1.7573
 6297SOL    HW230525   0.336   0.656   0.101  1.1426  0.8248 -0.1759
 6298SOL     OW30526   3.926   1.720   1.268  0.3695  0.3435  0.0332
 6298SOL    HW130527   3.944   1.695   1.358  1.5270 -0.6182 -0.4662
 6298SOL    HW230528   3.830   1.725   1.267  0.2726 -1.5042  1.1600
 6299SOL     OW30529   4.356   4.155   6.874  0.6961 -0.5465  0.4434
 6299SOL    HW130530   4.301   4.233   6.876  1.7561  0.2177 -0.2507
 6299SOL    HW230531   4.356   4.126   6.965  2.7641 -1.6057  0.1208
 6300SOL     OW30532   2.829   1.173  11.564  0.3869 -0.0207  0.0363
 6300SOL    HW130533   2.781   1.168  11.647 -1.0653  0.6064 -0.7554
 6300SOL    HW230534   2.858   1.083  11.551 -0.2446 -0.1523 -0.4687
 6301SOL     OW30535   4.375   0.423   3.211 -0.2467 -0.4241  0.4002
 6301SOL    HW130536   4.305   0.441   3.274  0.1157 -0.4489  0.8123
 6301SOL    HW230537   4.346   0.339   3.175 -0.1347 -0.2749 -0.0367
 6302SOL     OW30538   2.007   3.246   4.438  0.9203 -0.8749  0.0633
 6302SOL    HW130539   2.000   3.276   4.347  2.3390 -0.1749  0.1870
 6302SOL    HW230540   2.039   3.322   4.487  0.3500  0.1950 -1.2021
 6303SOL     OW30541   4.286   4.117   8.375 -0.2093 -0.0300 -0.0194
 6303SOL    HW130542   4.234   4.049   8.331  0.2921  1.7329 -3.3143
 6303SOL    HW230543   4.289   4.070   8.459  2.4186  0.2149  0.0058
 6304SOL     OW30544   1.820   0.197   8.050  0.0693 -0.1634 -0.3750
 6304SOL    HW130545   1.842   0.110   8.084 -0.5750 -0.7165 -1.3631
 6304SOL    HW230546   1.877   0.197   7.973  1.4978  0.8380  0.6670
 6305SOL     OW30547   2.526   0.466   8.662 -0.0567  0.1042 -0.0695
 6305SOL    HW130548   2.452   0.475   8.722  0.1548  0.5284  0.1278
 6305SOL    HW230549   2.532   0.371   8.650 -0.8181  0.2261 -1.3863
 6306SOL     OW30550   4.586   3.614   7.156  0.3790 -0.1062 -0.4465
 6306SOL    HW130551   4.658   3.572   7.203 -0.0311  1.1382  1.3010
 6306SOL    HW230552   4.505   3.584   7.197  0.7361  1.3446  1.3259
 6307SOL     OW30553   1.403   4.481   7.868  0.1639 -0.1171 -0.1380
 6307SOL    HW130554   1.441   4.395   7.886 -0.3699 -0.1151  1.0333
 6307SOL    HW230555   1.473   4.544   7.878 -1.0018  1.4272 -1.6172
 6308SOL     OW30556   3.203   0.557   8.367  0.1852  0.3101  0.4606
 6308SOL    HW130557   3.172   0.596   8.448 -0.0869  0.6791  0.1768
 6308SOL    HW230558   3.215   0.468   8.400  2.8092  0.1119 -1.0824
 6309SOL     OW30559   0.933   1.833   6.737 -0.2017  0.3782 -0.2667
 6309SOL    HW130560   0.844   1.862   6.718 -0.5369 -1.6102 -1.8053
 6309SOL    HW230561   0.988   1.900   6.698  1.6545  0.3282  2.2775
 6310SOL     OW30562   1.954   4.076   7.637 -0.1780 -0.0709  0.3684
 6310SOL    HW130563   1.973   4.020   7.562 -1.6109 -1.3312  0.9328
 6310SOL    HW230564   2.024   4.139   7.651 -0.8916  0.7047  0.4062
 6311SOL     OW30565   1.110   0.616   7.933  0.3075  0.2339  0.8594
 6311SOL    HW130566   1.093   0.689   7.873  1.6515 -0.9934 -0.9932
 6311SOL    HW230567   1.059   0.545   7.894 -1.1908  0.9641  1.4778
 6312SOL     OW30568   0.813   2.763   2.524  0.0647 -0.0565  0.2226
 6312SOL    HW130569   0.798   2.857   2.511 -2.1801 -0.6245 -1.3063
 6312SOL    HW230570   0.787   2.716   2.445 -0.6333 -2.1530  1.6947
 6313SOL     OW30571   1.339   4.648   4.445 -0.1954 -0.5583 -0.3236
 6313SOL    HW130572   1.421   4.613   4.481 -0.8729 -1.4126  0.3780
 6313SOL    HW230573   1.283   4.614   4.515 -0.0101 -0.9686 -0.3753
 6314SOL     OW30574   0.282   4.362  10.703 -0.5465  0.2942 -0.7300
 6314SOL    HW130575   0.249   4.327  10.620 -0.5133  1.2819 -1.1714
 6314SOL    HW230576   0.270   4.287  10.760 -0.8041  0.1520 -0.9702
 6315SOL     OW30577   0.490   0.217  12.740  0.0644  0.0272 -0.0132
 6315SOL    HW130578   0.562   0.212  12.802  0.5780  0.5911 -0.5588
 6315SOL    HW230579   0.459   0.305  12.762  1.0127 -0.0088  1.4321
 6316SOL     OW30580   0.525   2.715   7.212  0.1002  0.5733  0.5952
 6316SOL    HW130581   0.567   2.698   7.296  0.8730 -0.5696 -0.0087
 6316SOL    HW230582   0.583   2.656   7.165  0.4727  0.0344  1.7391
 6317SOL     OW30583   3.214   2.602   9.937 -0.2374 -0.1451 -0.7358
 6317SOL    HW130584   3.297   2.587   9.981 -0.1413 -1.1587 -1.2531
 6317SOL    HW230585   3.159   2.587  10.014  1.6647 -1.6284  0.3210
 6318SOL     OW30586   4.304   3.873   8.549 -0.1198 -0.6060 -0.7312
 6318SOL    HW130587   4.342   3.881   8.461  0.6840  0.1279 -0.3211
 6318SOL    HW230588   4.237   3.805   8.540  0.9057 -1.6237 -0.6301
 6319SOL     OW30589   4.360   1.749  17.047 -0.4945  0.1184  0.3192
 6319SOL    HW130590   4.361   1.786  16.959 -3.1419  0.4465  0.4277
 6319SOL    HW230591   4.266   1.736  17.058 -0.6356  0.9772  0.1340
 6320SOL     OW30592   2.382   0.071   7.252 -0.3638  0.0372  0.1010
 6320SOL    HW130593   2.418   0.034   7.332  1.0983 -0.9123 -0.9965
 6320SOL    HW230594   2.416   0.160   7.247  1.0874 -0.6108 -1.5238
 6321SOL     OW30595   3.636   1.998  17.086  0.2301  0.1301 -0.0899
 6321SOL    HW130596   3.553   1.990  17.040 -0.4061 -1.6164  1.3424
 6321SOL    HW230597   3.694   1.938  17.039 -0.4502 -0.5907 -0.0104
 6322SOL     OW30598   0.340   2.802   2.511  0.3528 -0.0835 -0.1154
 6322SOL    HW130599   0.388   2.869   2.559  0.6128  0.9547 -1.8103
 6322SOL    HW230600   0.361   2.817   2.418  0.3679 -0.2025 -0.1318
 6323SOL     OW30601   0.481   1.190   0.218  0.4755  0.1485 -0.3335
 6323SOL    HW130602   0.568   1.211   0.250 -0.5124  2.1826  1.0219
 6323SOL    HW230603   0.497   1.171   0.125 -2.0580  2.5308 -1.2597
 6324SOL     OW30604   0.049   2.227   0.857 -0.1050  0.1210 -0.1641
 6324SOL    HW130605   0.139   2.219   0.891 -0.6504  0.1900  1.2979
 6324SOL    HW230606   0.012   2.140   0.873  4.1179 -1.4540  1.1223
 6325SOL     OW30607   4.412   1.632   8.708 -0.4036  0.1125 -0.0609
 6325SOL    HW130608   4.410   1.700   8.641  0.0579  1.2276  1.0652
 6325SOL    HW230609   4.343   1.570   8.685 -0.2304 -0.2672  0.4458
 6326SOL     OW30610   2.058   3.290   3.223 -0.3008 -0.0022  0.0155
 6326SOL    HW130611   2.105   3.280   3.140 -0.7015  1.1579 -0.3527
 6326SOL    HW230612   2.095   3.377   3.241  0.2232  0.1077 -1.6167
 6327SOL     OW30613   0.768   1.671   2.155 -0.3947  0.2819  0.3117
 6327SOL    HW130614   0.801   1.639   2.071  0.3717 -0.7335  1.0134
 6327SOL    HW230615   0.690   1.719   2.126 -2.5006 -3.5279 -0.3487
 6328SOL     OW30616   0.556   3.115  13.187 -0.2883  0.1104  0.1989
 6328SOL    HW130617   0.563   3.090  13.095 -1.6648 -0.6925  0.3150
 6328SOL    HW230618   0.618   3.188  13.192 -1.9504  1.5999 -1.0422
 6329SOL     OW30619   2.668   4.163   1.509  0.2647  0.5359  0.6508
 6329SOL    HW130620   2.667   4.074   1.543 -1.8674  0.5499  0.6433
 6329SOL    HW230621   2.761   4.184   1.497  0.2283 -0.6394 -1.5887
 6330SOL     OW30622   1.223   1.864   6.984 -0.1266  0.2469  0.3973
 6330SOL    HW130623   1.279   1.934   6.950  0.1627 -0.5581 -0.7808
 6330SOL    HW230624   1.212   1.811   6.905 -0.5561  0.8988  0.0230
 6331SOL     OW30625   0.237   1.040  14.044 -0.7897  0.3821  0.4783
 6331SOL    HW130626   0.297   1.005  13.979 -0.7065  0.3360  0.5788
 6331SOL    HW230627   0.271   1.026  14.133  1.9845 -2.1374 -0.9999
 6332SOL     OW30628   3.151   1.326  16.319  0.8045  0.4161 -0.5686
 6332SOL    HW130629   3.177   1.417  16.311 -2.0673  1.0339 -2.7065
 6332SOL    HW230630   3.096   1.320  16.241 -0.7159  3.2926  0.2978
 6333SOL     OW30631   1.662   3.253   5.242  0.3780 -0.2317  0.6337
 6333SOL    HW130632   1.728   3.304   5.195 -1.0115  0.6450 -0.3817
 6333SOL    HW230633   1.676   3.171   5.194 -1.3506 -0.2369  0.1381
 6334SOL     OW30634   1.940   0.216   2.984  0.0157 -0.3004 -0.3486
 6334SOL    HW130635   1.892   0.266   2.919 -0.1812 -0.7001 -0.5118
 6334SOL    HW230636   1.922   0.260   3.067  1.4368  1.7591 -1.1426
 6335SOL     OW30637   4.644   3.372  12.096  0.1020 -0.2114 -0.1023
 6335SOL    HW130638   4.693   3.447  12.129  0.1618 -0.3492  0.1179
 6335SOL    HW230639   4.617   3.328  12.177  0.2634  2.9326  1.6672
 6336SOL     OW30640   0.526   3.664   4.656 -0.0543 -0.6678 -0.1042
 6336SOL    HW130641   0.480   3.725   4.598  0.1549 -1.8537 -1.5189
 6336SOL    HW230642   0.613   3.662   4.616  1.5596  1.2403  3.3053
 6337SOL     OW30643   0.272   3.540   4.744  0.0142 -0.1724  0.0834
 6337SOL    HW130644   0.337   3.603   4.711 -2.2997  0.9622 -2.3310
 6337SOL    HW230645   0.272   3.563   4.837  0.7817 -0.8801  0.2576
 6338SOL     OW30646   2.063   2.940   8.146  0.1271 -0.3018  0.3478
 6338SOL    HW130647   1.980   2.973   8.111 -0.1049 -1.6960 -0.3849
 6338SOL    HW230648   2.106   2.899   8.072  1.0837  2.4584 -0.6320
 6339SOL     OW30649   0.992   4.442  13.445 -0.2287  0.0380 -0.0445
 6339SOL    HW130650   1.078   4.408  13.419  1.0200  1.9312  1.5728
 6339SOL    HW230651   0.939   4.371  13.409  0.3133  0.5386 -1.7921
 6340SOL     OW30652   3.496   1.312   7.702 -0.3594  0.3346 -0.6845
 6340SOL    HW130653   3.546   1.364   7.765  0.4915 -1.3171  0.0042
 6340SOL    HW230654   3.424   1.274   7.752 -1.3527  2.4236 -0.4966
 6341SOL     OW30655   1.111   4.337   7.881 -0.5092  0.0646  0.2006
 6341SOL    HW130656   1.131   4.243   7.873 -0.1924  0.1216  0.3122
 6341SOL    HW230657   1.198   4.368   7.907 -0.1513  0.0830 -1.0046
 6342SOL     OW30658   1.738   2.770   2.270 -0.0250 -0.3640 -0.2268
 6342SOL    HW130659   1.705   2.682   2.289  0.9680 -0.8053 -0.5420
 6342SOL    HW230660   1.695   2.793   2.188 -0.5321 -1.1170 -0.1716
 6343SOL     OW30661   2.941   4.701   3.399  0.6088  0.4105  0.1700
 6343SOL    HW130662   3.009   4.694   3.465 -0.3163 -1.1548  0.9686
 6343SOL    HW230663   2.985   4.733   3.320 -1.5778  1.3836 -0.6541
 6344SOL     OW30664   2.886   3.241   1.313  0.9907 -0.0136 -0.3431
 6344SOL    HW130665   2.846   3.328   1.326 -1.1113 -0.9483 -0.5650
 6344SOL    HW230666   2.870   3.241   1.219 -0.4504 -1.2622 -0.1090
 6345SOL     OW30667   1.207   2.051   7.262 -0.4643  0.4106  0.0213
 6345SOL    HW130668   1.204   2.024   7.170 -1.7578 -1.8484  0.7192
 6345SOL    HW230669   1.114   2.073   7.263 -0.3289  0.8731  1.6545
 6346SOL     OW30670   1.989   3.148   1.616  0.3228  0.3065  0.2111
 6346SOL    HW130671   1.914   3.097   1.646 -0.5978  1.0609 -0.7814
 6346SOL    HW230672   1.987   3.222   1.677  0.9640  0.0892  0.4909
 6347SOL     OW30673   2.653   0.712   8.687  0.2654 -0.2104 -0.4786
 6347SOL    HW130674   2.624   0.621   8.688  0.2944 -0.2257 -2.1617
 6347SOL    HW230675   2.665   0.720   8.782  1.2057 -0.3306 -0.5880
 6348SOL     OW30676   3.953   1.731   8.936 -0.3043  0.7335  0.4792
 6348SOL    HW130677   4.018   1.774   8.881 -0.1320  0.8188  0.7465
 6348SOL    HW230678   3.870   1.772   8.913 -1.2464 -1.1190  0.6237
 6349SOL     OW30679   0.993   3.006   5.377 -0.0678 -0.0509 -0.7798
 6349SOL    HW130680   0.940   2.938   5.418  0.1209 -0.7006 -1.6051
 6349SOL    HW230681   0.974   2.980   5.287 -0.4108  0.5778 -0.8898
 6350SOL     OW30682   1.397   2.377   7.912 -0.2500  0.3929  0.0791
 6350SOL    HW130683   1.481   2.371   7.868 -0.0036  2.5756  0.2135
 6350SOL    HW230684   1.428   2.406   7.998 -1.4201  0.9418  0.3222
 6351SOL     OW30685   3.189   1.514   7.613 -0.2769  0.1824 -0.0640
 6351SOL    HW130686   3.174   1.586   7.674  2.6080 -0.0102  0.8711
 6351SOL    HW230687   3.284   1.510   7.602 -0.1101  1.4884  0.9084
 6352SOL     OW30688   0.280   4.478   5.466  0.5328 -0.2071  0.1483
 6352SOL    HW130689   0.206   4.484   5.405  0.4649 -1.4796  0.0945
 6352SOL    HW230690   0.355   4.499   5.411 -0.1367  0.8390 -0.3658
 6353SOL     OW30691   2.877   0.292   6.187  0.2748 -0.6353 -0.2683
 6353SOL    HW130692   2.786   0.280   6.158  0.0768 -2.2834  1.0829
 6353SOL    HW230693   2.893   0.381   6.156 -1.0421 -0.3923 -0.2408
 6354SOL     OW30694   3.670   2.074   0.113 -0.5557 -0.0842  0.1904
 6354SOL    HW130695   3.707   1.990   0.087  1.4771  1.1658 -0.8994
 6354SOL    HW230696   3.673   2.064   0.208 -1.4674 -0.4945  0.1752
 6355SOL     OW30697   2.841   1.728   3.120  0.1317  0.0571 -0.2868
 6355SOL    HW130698   2.904   1.672   3.076  1.3830 -1.1788  3.0893
 6355SOL    HW230699   2.809   1.678   3.196 -1.3425 -2.2798 -2.4439
 6356SOL     OW30700   0.350   1.623  12.723 -0.2537  0.3519  0.1592
 6356SOL    HW130701   0.320   1.564  12.792  1.4205 -0.4873  0.1688
 6356SOL    HW230702   0.445   1.618  12.729 -0.1047  2.0410 -0.9529
 6357SOL     OW30703   4.545   0.265   2.637 -0.0412  0.4780 -0.4869
 6357SOL    HW130704   4.608   0.192   2.640  1.9239  2.2482  1.4190
 6357SOL    HW230705   4.501   0.227   2.561 -1.6461 -0.1966  0.7639
 6358SOL     OW30706   0.310   1.741   6.133  0.5454  0.0194 -0.1383
 6358SOL    HW130707   0.375   1.798   6.174  1.2539 -0.9533  0.0805
 6358SOL    HW230708   0.350   1.748   6.046  0.4467 -1.6412 -0.3237
 6359SOL     OW30709   2.627   0.868   3.548 -0.4151 -0.3985 -0.2187
 6359SOL    HW130710   2.606   0.893   3.458 -0.5426  0.0921 -0.0555
 6359SOL    HW230711   2.554   0.815   3.579  0.8239 -1.0628  1.5846
 6360SOL     OW30712   0.552   1.277   3.047 -0.7252 -0.2015 -0.0890
 6360SOL    HW130713   0.497   1.307   2.975 -1.0148 -1.2814 -0.3150
 6360SOL    HW230714   0.546   1.183   3.033  2.4545 -0.7305  1.9935
 6361SOL     OW30715   0.317   2.514  11.645 -0.0536  0.1878  0.0357
 6361SOL    HW130716   0.291   2.437  11.595 -4.6826  1.4941  0.3976
 6361SOL    HW230717   0.246   2.527  11.708  1.3455  3.2119  0.9881
 6362SOL     OW30718   2.452   2.878   7.243 -0.2879 -0.4409  0.0669
 6362SOL    HW130719   2.403   2.832   7.310 -1.7124 -1.1754 -1.4918
 6362SOL    HW230720   2.539   2.839   7.232  0.7988  1.8808  0.1710
 6363SOL     OW30721   3.421   4.210  17.584 -0.7674 -0.0119  0.5733
 6363SOL    HW130722   3.400   4.285  17.529 -0.8976  0.1459  0.8370
 6363SOL    HW230723   3.494   4.245  17.634 -0.4471  1.9659 -1.2779
 6364SOL     OW30724   1.118   0.752  15.227  0.0319 -1.0310 -0.0898
 6364SOL    HW130725   1.186   0.694  15.194 -0.5669 -1.2675 -0.8959
 6364SOL    HW230726   1.046   0.701  15.191 -0.1442 -1.0553  0.2951
 6365SOL     OW30727   0.580   1.375   7.565 -0.0457 -0.1647  0.8838
 6365SOL    HW130728   0.557   1.375   7.658 -3.5009  1.6791  0.0596
 6365SOL    HW230729   0.505   1.420   7.525  0.6135  0.2523  0.1292
 6366SOL     OW30730   1.074   4.103  16.368 -0.3854 -0.1395  0.3233
 6366SOL    HW130731   1.069   4.032  16.432  0.4594 -0.1269  0.4024
 6366SOL    HW230732   0.985   4.138  16.360 -0.7402 -0.8438  1.1483
 6367SOL     OW30733   1.355   1.415   9.055  0.2222  0.2052  0.6485
 6367SOL    HW130734   1.412   1.373   9.119  2.9929 -1.4697 -2.9360
 6367SOL    HW230735   1.369   1.354   8.982  1.1419 -0.3638  1.3000
 6368SOL     OW30736   3.294   1.826   8.279 -0.0871  0.7111  0.4000
 6368SOL    HW130737   3.242   1.780   8.213  2.4448 -0.4008 -0.8120
 6368SOL    HW230738   3.299   1.750   8.337  1.7889  0.4969 -0.0632
 6369SOL     OW30739   0.700   1.876   1.937 -0.1046  0.1434  0.0367
 6369SOL    HW130740   0.696   1.834   1.851  1.3134  1.6430 -0.7508
 6369SOL    HW230741   0.655   1.959   1.920  0.9461  0.4628 -1.1368
 6370SOL     OW30742   2.081   1.750   6.372 -0.5647 -0.3637 -0.0817
 6370SOL    HW130743   2.098   1.681   6.436 -0.9967  0.2388  0.6705
 6370SOL    HW230744   2.141   1.819   6.399 -1.8911  0.6192  0.2942
 6371SOL     OW30745   4.351   0.704   4.255  0.0085 -0.3050 -0.3433
 6371SOL    HW130746   4.320   0.655   4.178  2.0730  0.3673 -1.5925
 6371SOL    HW230747   4.375   0.632   4.313  1.2005  0.8114  0.5554
 6372SOL     OW30748   2.820   3.263   7.891  0.7375 -0.0551 -0.2986
 6372SOL    HW130749   2.737   3.277   7.938 -0.8095 -1.2367 -2.7188
 6372SOL    HW230750   2.849   3.179   7.928 -0.7934  0.1257  1.3483
 6373SOL     OW30751   4.090   1.439  16.163 -0.5010  0.4925 -0.3115
 6373SOL    HW130752   4.084   1.345  16.145  0.3053  0.4734 -0.4959
 6373SOL    HW230753   4.095   1.466  16.072 -2.2218 -0.6161 -0.7359
 6374SOL     OW30754   1.251   4.279   5.375  0.2199  0.0096  0.2199
 6374SOL    HW130755   1.184   4.320   5.429 -1.5805 -2.0285 -0.4909
 6374SOL    HW230756   1.198   4.202   5.355  1.3123 -0.8921  0.7770
 6375SOL     OW30757   0.221   0.097   2.156  0.0077  0.1039  0.0488
 6375SOL    HW130758   0.271   0.160   2.104  1.0032 -1.2123 -0.5889
 6375SOL    HW230759   0.277   0.020   2.142  0.5601  0.4330  0.4734
 6376SOL     OW30760   4.157   2.871   7.676 -0.1667  0.7125  0.1426
 6376SOL    HW130761   4.202   2.794   7.641 -0.5616  0.6456 -0.2240
 6376SOL    HW230762   4.211   2.934   7.627  0.9022 -1.5114 -1.5195
 6377SOL     OW30763   1.344   2.667   3.973  0.1714  0.2334 -0.0495
 6377SOL    HW130764   1.306   2.671   3.885  1.3494 -2.0341 -0.6677
 6377SOL    HW230765   1.346   2.760   3.995  1.4661  0.4486 -1.0711
 6378SOL     OW30766   3.090   3.524   1.976  0.3182  0.2377 -0.0329
 6378SOL    HW130767   3.119   3.471   1.902  1.5292 -0.4463  0.9318
 6378SOL    HW230768   3.010   3.482   2.007  0.8267 -1.8418 -1.5215
 6379SOL     OW30769   1.927   2.680  10.248 -0.0532  0.4081  0.5189
 6379SOL    HW130770   1.958   2.770  10.237  2.1905 -0.3224  0.7446
 6379SOL    HW230771   1.999   2.623  10.218  0.0206  0.2912  0.9208
 6380SOL     OW30772   0.279   3.915   0.945 -0.4006 -0.3833  0.2225
 6380SOL    HW130773   0.186   3.924   0.922 -0.7703 -0.7159  1.5954
 6380SOL    HW230774   0.279   3.942   1.036 -3.3086  2.1050 -0.4985
 6381SOL     OW30775   1.335   0.482  10.778 -0.3751  0.0774  0.1744
 6381SOL    HW130776   1.278   0.408  10.797  0.3802 -0.7029 -0.5878
 6381SOL    HW230777   1.303   0.516  10.694 -0.7439  2.1830  1.1522
 6382SOL     OW30778   1.458   4.284   7.453  0.8377 -0.5891 -0.0047
 6382SOL    HW130779   1.485   4.307   7.364 -0.4886  1.7747  0.2169
 6382SOL    HW230780   1.527   4.322   7.508  0.8791 -0.8919  0.1507
 6383SOL     OW30781   0.051   3.372   5.051 -0.7880 -0.0075 -0.2667
 6383SOL    HW130782   0.012   3.368   5.138 -3.9608 -1.7781 -1.7750
 6383SOL    HW230783   0.141   3.352   5.077 -1.2725 -0.8997  0.7372
 6384SOL     OW30784   4.260   2.095   6.869 -0.2260  0.1318 -0.4003
 6384SOL    HW130785   4.270   2.150   6.791 -0.7949 -1.2693 -1.4680
 6384SOL    HW230786   4.250   2.013   6.821  2.1046 -0.7455  0.6570
 6385SOL     OW30787   3.459   1.562   7.550  0.4461  0.5018 -0.3588
 6385SOL    HW130788   3.484   1.482   7.595  2.1929  0.9028 -0.6345
 6385SOL    HW230789   3.527   1.577   7.485 -0.2126 -1.4013 -1.4699
 6386SOL     OW30790   0.790   1.592   9.544  0.1114  0.2428  0.5114
 6386SOL    HW130791   0.870   1.645   9.544  0.9157 -0.9582  0.8906
 6386SOL    HW230792   0.809   1.511   9.591 -1.9354 -0.4548  0.1092
 6387SOL     OW30793   3.232   0.535   3.685  0.3324 -0.1339  0.5930
 6387SOL    HW130794   3.265   0.447   3.705 -0.1654 -0.6434 -0.8201
 6387SOL    HW230795   3.147   0.527   3.728  1.9287 -0.5179  3.6409
 6388SOL     OW30796   3.171   3.769  16.385  0.5290 -0.8161 -0.2468
 6388SOL    HW130797   3.116   3.846  16.367  1.4606 -0.0843  0.0457
 6388SOL    HW230798   3.105   3.701  16.396 -1.0788  0.7355 -0.2007
 6389SOL     OW30799   2.713   0.555   4.092  0.1575  0.4850 -0.3529
 6389SOL    HW130800   2.788   0.556   4.151 -0.0750  0.6542 -0.0636
 6389SOL    HW230801   2.659   0.488   4.133  0.2787  1.8617  2.0296
 6390SOL     OW30802   2.527   3.677   4.872 -0.0055  0.5402 -0.8154
 6390SOL    HW130803   2.483   3.755   4.905  1.3004  1.5454 -1.4280
 6390SOL    HW230804   2.586   3.648   4.941  0.0152  0.1781 -0.9836
 6391SOL     OW30805   0.282   3.844  12.655 -0.1421 -0.2829  0.0055
 6391SOL    HW130806   0.302   3.838  12.562  0.5109  0.2772  0.1149
 6391SOL    HW230807   0.277   3.751  12.680  0.5279 -0.7213 -1.5420
 6392SOL     OW30808   3.640   2.658   8.508 -0.0448  0.5604  0.0693
 6392SOL    HW130809   3.658   2.722   8.577  0.1941 -0.0000  0.5281
 6392SOL    HW230810   3.593   2.587   8.551  0.4367 -0.3280 -0.8788
 6393SOL     OW30811   1.861   0.235   8.529 -0.1381 -0.2038 -0.5823
 6393SOL    HW130812   1.771   0.213   8.503 -0.6120 -0.6079  1.3630
 6393SOL    HW230813   1.872   0.182   8.608  1.4869  0.7199 -0.2081
 6394SOL     OW30814   3.736   4.617   5.650  0.2519 -0.2719  0.0793
 6394SOL    HW130815   3.700   4.530   5.667  0.8719 -0.3673  0.9051
 6394SOL    HW230816   3.827   4.618   5.680 -0.7234 -2.0115  3.1592
 6395SOL     OW30817   0.506   3.851  11.175 -0.0542  0.2548  0.5305
 6395SOL    HW130818   0.599   3.830  11.165  0.1616  1.5886 -0.2300
 6395SOL    HW230819   0.493   3.889  11.262 -0.7144 -1.8954  1.3793
 6396SOL     OW30820   1.108   4.506  10.643 -0.0611 -0.4077  1.1276
 6396SOL    HW130821   1.022   4.546  10.626 -0.6299 -1.1515  2.2732
 6396SOL    HW230822   1.119   4.445  10.571 -1.8752  0.1280  0.3810
 6397SOL     OW30823   1.468   0.559  11.424  0.0570  0.6787  0.1011
 6397SOL    HW130824   1.520   0.639  11.421 -0.4377  1.0349  1.3708
 6397SOL    HW230825   1.426   0.574  11.339 -0.3643  1.5987  0.4779
 6398SOL     OW30826   1.229   0.309   3.488  0.7762 -0.2247  0.4849
 6398SOL    HW130827   1.183   0.300   3.404  0.4790  0.1501  0.6053
 6398SOL    HW230828   1.152   0.285   3.541 -0.2372 -0.2244 -0.9801
 6399SOL     OW30829   3.852   3.879   3.288 -0.2403 -0.0046 -0.0902
 6399SOL    HW130830   3.884   3.797   3.251  0.0431  0.8301 -1.7063
 6399SOL    HW230831   3.888   3.952   3.238 -0.9333  0.3818 -0.0286
 6400SOL     OW30832   2.917   0.436   7.635  0.0613 -0.2388 -0.5136
 6400SOL    HW130833   3.005   0.400   7.650 -0.2702 -0.8457 -0.0521
 6400SOL    HW230834   2.885   0.455   7.723  0.1791  1.9775 -0.9288
 6401SOL     OW30835   2.716   2.275   3.411 -0.2339 -0.0855  0.2576
 6401SOL    HW130836   2.670   2.219   3.473 -1.2181  1.1698  0.6715
 6401SOL    HW230837   2.660   2.352   3.420 -0.2186  0.1934 -1.9548
 6402SOL     OW30838   1.740   3.396   1.277  0.2764 -0.2194  0.0049
 6402SOL    HW130839   1.826   3.427   1.248  0.4256  1.7133  2.4625
 6402SOL    HW230840   1.717   3.471   1.332  0.8584 -0.2567  0.2981
 6403SOL     OW30841   2.450   2.120   3.012 -0.2847 -0.0022  0.5318
 6403SOL    HW130842   2.366   2.121   2.967 -0.7033  0.6823  1.3465
 6403SOL    HW230843   2.438   2.196   3.069  2.5779  1.8988 -1.3369
 6404SOL     OW30844   1.487   1.389   5.697 -0.6762 -0.0330 -0.0117
 6404SOL    HW130845   1.580   1.370   5.689 -0.8758 -0.7957 -0.4893
 6404SOL    HW230846   1.487   1.385   5.792  0.6801  0.6839  0.0243
 6405SOL     OW30847   4.601   2.889   8.420  0.7393  0.0390 -0.1045
 6405SOL    HW130848   4.571   2.820   8.360  1.1479  1.0037 -1.4227
 6405SOL    HW230849   4.685   2.852   8.447  1.5820  2.8173  1.0577
 6406SOL     OW30850   2.022   1.413   9.699  0.2592 -0.1963  0.1859
 6406SOL    HW130851   2.033   1.399   9.605 -2.0159 -0.8023  0.0265
 6406SOL    HW230852   1.950   1.357   9.728  1.1889  0.5664  3.9758
 6407SOL     OW30853   0.203   0.049   8.504  0.2419 -0.3484 -0.4245
 6407SOL    HW130854   0.168   0.038   8.593 -1.8262  0.1170 -1.1865
 6407SOL    HW230855   0.292   0.015   8.519 -0.0403  0.0966  2.2902
 6408SOL     OW30856   4.173   1.098   5.831  0.2097 -0.0210  0.2674
 6408SOL    HW130857   4.081   1.119   5.818  0.3738  0.8054  0.4392
 6408SOL    HW230858   4.215   1.178   5.865  1.0087 -1.2303  2.1118
 6409SOL     OW30859   2.716   0.051   7.325  0.4239 -0.0306  0.3023
 6409SOL    HW130860   2.730   0.144   7.341  1.5978 -0.2078  0.2968
 6409SOL    HW230861   2.681   0.019   7.408  0.7549 -0.8122  0.1412
 6410SOL     OW30862   3.588   2.456   4.338 -0.1762  0.1610  0.0881
 6410SOL    HW130863   3.496   2.433   4.355 -0.7777  1.2820 -1.7194
 6410SOL    HW230864   3.629   2.370   4.327  0.1609  0.2876  0.3519
 6411SOL     OW30865   1.794   0.621   4.624 -0.0604 -0.4589  0.3552
 6411SOL    HW130866   1.822   0.646   4.713  0.7554  0.9380 -0.2910
 6411SOL    HW230867   1.876   0.584   4.591 -0.7576 -2.0745  0.4601
 6412SOL     OW30868   0.798   3.794  15.506 -0.2492  0.1831 -0.2650
 6412SOL    HW130869   0.825   3.709  15.539 -1.3505 -0.2204 -0.4150
 6412SOL    HW230870   0.761   3.832  15.586  1.9457  1.0569  0.3356
 6413SOL     OW30871   2.797   0.429   9.411 -0.2128 -0.0702  0.0044
 6413SOL    HW130872   2.819   0.377   9.488 -0.1956 -0.0447  0.0170
 6413SOL    HW230873   2.751   0.363   9.360  1.2544 -1.4154  0.4103
 6414SOL     OW30874   2.913   0.458   3.919 -0.0149  0.0459  0.1293
 6414SOL    HW130875   2.906   0.370   3.883 -1.2245 -0.3849  1.4366
 6414SOL    HW230876   2.839   0.460   3.979  1.3850  2.0964  1.8007
 6415SOL     OW30877   0.818   3.663  13.572  0.2780  0.1920  0.2542
 6415SOL    HW130878   0.791   3.653  13.481  0.4097  0.0713  0.2290
 6415SOL    HW230879   0.744   3.710  13.611  0.1130 -1.6365  2.1323
 6416SOL     OW30880   3.712   1.171   9.188  0.4731  0.2079 -0.1295
 6416SOL    HW130881   3.745   1.081   9.190  0.9275  0.3402 -1.8365
 6416SOL    HW230882   3.748   1.198   9.104 -1.5339  0.2115 -0.9809
 6417SOL     OW30883   4.296   3.851  13.503 -0.0385 -0.3153  0.4990
 6417SOL    HW130884   4.205   3.872  13.482  0.0267 -3.4015 -2.9534
 6417SOL    HW230885   4.297   3.762  13.468  1.2721  0.4912 -1.4856
 6418SOL     OW30886   4.517   4.135   5.832 -0.2348  0.1710 -0.2301
 6418SOL    HW130887   4.469   4.139   5.750 -1.1508 -0.1188  0.2918
 6418SOL    HW230888   4.478   4.056   5.870  0.3945  0.4042  0.9109
 6419SOL     OW30889   3.438   3.358   0.162 -0.1496  0.5471 -0.7134
 6419SOL    HW130890   3.378   3.285   0.178  0.4578  0.1947 -0.0277
 6419SOL    HW230891   3.517   3.312   0.133 -0.0046  1.4845 -1.8052
 6420SOL     OW30892   1.117   4.181   4.120  0.2769 -0.2656 -0.1852
 6420SOL    HW130893   1.068   4.198   4.040  0.9519  0.6818 -0.4038
 6420SOL    HW230894   1.180   4.113   4.097  1.3202 -0.0363  1.9511
 6421SOL     OW30895   0.294   2.783  12.551  0.4128 -0.4141 -0.3901
 6421SOL    HW130896   0.353   2.757  12.481  0.9557 -0.3977  0.0598
 6421SOL    HW230897   0.214   2.744  12.516  0.3976  0.1959 -1.0319
 6422SOL     OW30898   0.293   3.140   4.299 -0.4474  0.1239  0.2121
 6422SOL    HW130899   0.212   3.107   4.336  0.2407 -1.5944  0.1821
 6422SOL    HW230900   0.332   3.054   4.281 -0.4774 -0.3390  2.3790
 6423SOL     OW30901   3.285   1.363   8.510  0.3504  0.2752  0.1930
 6423SOL    HW130902   3.257   1.371   8.602  2.2929 -0.1654  0.8216
 6423SOL    HW230903   3.274   1.269   8.496 -0.9206  0.6310 -1.2073
 6424SOL     OW30904   1.562   3.001   8.915 -0.0690  0.2793 -0.4268
 6424SOL    HW130905   1.593   3.051   8.839 -1.2502 -1.4218 -2.0316
 6424SOL    HW230906   1.596   2.916   8.889  0.9074  1.9151 -4.5613
 6425SOL     OW30907   2.554   2.205   7.862 -0.1195 -0.4311 -0.0259
 6425SOL    HW130908   2.614   2.262   7.910  0.4513  1.1590 -2.6035
 6425SOL    HW230909   2.599   2.186   7.780  2.1796  0.9475  0.9066
 6426SOL     OW30910   0.499   1.060  11.541 -0.5430  0.1238  0.4874
 6426SOL    HW130911   0.559   1.120  11.585 -1.1917  0.6274  0.6881
 6426SOL    HW230912   0.500   1.075  11.447 -0.1421  0.4553  0.5452
 6427SOL     OW30913   3.422   1.291   7.358  0.2985 -0.4950  0.0776
 6427SOL    HW130914   3.382   1.314   7.274  2.6292  2.6853 -0.1592
 6427SOL    HW230915   3.369   1.216   7.384 -0.6487  0.3753  0.6827
 6428SOL     OW30916   3.147   3.135   5.818 -0.2162  0.0820  0.0363
 6428SOL    HW130917   3.213   3.196   5.851  0.0651 -0.4944  0.5350
 6428SOL    HW230918   3.180   3.066   5.876 -1.1129 -1.1314 -0.9038
 6429SOL     OW30919   1.975   2.611  10.544  0.1955  0.2822  0.1113
 6429SOL    HW130920   2.054   2.636  10.591  0.0929 -0.1656  0.5172
 6429SOL    HW230921   1.988   2.650  10.457  0.8320  0.2135  0.1762
 6430SOL     OW30922   0.226   0.642   8.428  0.3776  0.0045 -0.0175
 6430SOL    HW130923   0.133   0.647   8.410  0.2359 -2.0362  0.2189
 6430SOL    HW230924   0.265   0.603   8.350  1.0922  0.5461  0.0558
 6431SOL     OW30925   4.408   2.815   3.590 -0.0234  0.4871  0.1600
 6431SOL    HW130926   4.345   2.788   3.657  1.8051  0.3333  1.8331
 6431SOL    HW230927   4.353   2.878   3.543  0.0627  1.4833  1.3922
 6432SOL     OW30928   0.687   0.052   6.395 -0.4756 -0.1466  0.6577
 6432SOL    HW130929   0.614   0.086   6.447 -1.9920  0.4694 -1.8562
 6432SOL    HW230930   0.753   0.111   6.430  1.3697 -0.7755 -1.7525
 6433SOL     OW30931   1.554   0.207   8.070 -0.4795 -0.2749 -0.2211
 6433SOL    HW130932   1.649   0.219   8.067 -0.0199 -3.8397  1.1758
 6433SOL    HW230933   1.528   0.250   7.988 -0.3985 -0.9431 -0.5920
 6434SOL     OW30934   4.546   4.476  17.186 -0.1464 -0.1247  0.0903
 6434SOL    HW130935   4.576   4.430  17.108 -1.0304 -1.7939  0.7282
 6434SOL    HW230936   4.602   4.553  17.186  1.0950 -1.0348  1.6359
 6435SOL     OW30937   1.734   3.659  10.870  0.2885 -0.2918  0.7637
 6435SOL    HW130938   1.711   3.631  10.782 -1.2959  0.3388  0.9718
 6435SOL    HW230939   1.749   3.750  10.845 -1.3166 -0.1733  0.2402
 6436SOL     OW30940   0.888   4.502   4.633  0.1777 -0.8266 -0.2717
 6436SOL    HW130941   0.885   4.448   4.553 -2.3148 -0.1634 -0.6246
 6436SOL    HW230942   0.841   4.584   4.618  0.6573 -0.7738 -1.5049
 6437SOL     OW30943   1.071   3.856  12.603  0.1597 -0.0875 -0.0055
 6437SOL    HW130944   0.984   3.835  12.567  1.2036  1.8040 -3.6174
 6437SOL    HW230945   1.063   3.799  12.680 -1.1046  0.7643  0.4947
 6438SOL     OW30946   1.801   2.847   6.442  0.5385  0.2976  0.2935
 6438SOL    HW130947   1.878   2.839   6.386  0.6700  2.0125  0.2406
 6438SOL    HW230948   1.745   2.903   6.389 -0.0023 -1.5385 -1.0857
 6439SOL     OW30949   2.791   1.524  15.523  0.0872 -0.4557 -0.3594
 6439SOL    HW130950   2.752   1.599  15.478  0.4349 -0.9373 -1.4689
 6439SOL    HW230951   2.759   1.452  15.468 -0.4417  0.5693 -1.3931
 6440SOL     OW30952   3.727   0.220   1.693 -0.2413 -0.3226 -0.1766
 6440SOL    HW130953   3.726   0.185   1.604 -0.2560  1.5455 -0.9121
 6440SOL    HW230954   3.783   0.297   1.691  0.6924 -0.9729  0.8967
 6441SOL     OW30955   0.226   2.866  14.233  0.3600 -0.2535 -0.3855
 6441SOL    HW130956   0.156   2.812  14.269 -0.1816  0.5446 -0.2375
 6441SOL    HW230957   0.254   2.818  14.156 -0.0606  0.1019 -0.7593
 6442SOL     OW30958   0.453   1.538  15.345 -0.1019 -0.1051  0.5662
 6442SOL    HW130959   0.391   1.468  15.324  0.7936 -0.2963 -1.4277
 6442SOL    HW230960   0.422   1.616  15.299  1.6253  0.8587  1.0429
 6443SOL     OW30961   1.473   2.747   4.666  0.0114  0.1869 -0.0251
 6443SOL    HW130962   1.552   2.752   4.720 -0.4118  0.8497  0.5256
 6443SOL    HW230963   1.471   2.825   4.612  0.6002  0.5633  0.4953
 6444SOL     OW30964   4.185   3.620   8.583  0.1556  0.7499 -0.7349
 6444SOL    HW130965   4.269   3.584   8.613 -0.4414 -0.1502 -0.1744
 6444SOL    HW230966   4.171   3.602   8.490  0.5321 -0.5399 -0.5349
 6445SOL     OW30967   3.493   3.006   4.401 -0.3022 -0.1805 -0.5616
 6445SOL    HW130968   3.549   3.004   4.322 -1.5065 -2.1648 -1.3812
 6445SOL    HW230969   3.452   3.092   4.407  1.7778  0.6751  1.3432
 6446SOL     OW30970   1.757   3.877   7.174 -0.0871  0.1063 -0.2650
 6446SOL    HW130971   1.768   3.972   7.165 -2.8310  0.1733 -2.9412
 6446SOL    HW230972   1.823   3.855   7.108  0.5270 -0.8714  0.6662
 6447SOL     OW30973   3.015   0.806   2.372  0.3198  0.0703  0.1375
 6447SOL    HW130974   3.084   0.848   2.320 -0.3243  2.9605  1.6267
 6447SOL    HW230975   2.947   0.784   2.309 -0.8419 -0.2628  1.5105
 6448SOL     OW30976   0.768   3.025   7.112  0.8264 -0.3837 -0.6681
 6448SOL    HW130977   0.733   3.080   7.042 -1.2770 -0.3509  0.3938
 6448SOL    HW230978   0.689   3.021   7.166  1.8805  0.3188  0.9213
 6449SOL     OW30979   4.314   0.980  15.528  0.3381  0.3541 -0.3054
 6449SOL    HW130980   4.360   0.896  15.521  0.5437  0.4314  0.0801
 6449SOL    HW230981   4.238   0.958  15.474  0.8037  1.4065 -1.3938
 6450SOL     OW30982   4.697   3.906   3.508 -0.0138 -0.1453 -0.8148
 6450SOL    HW130983   0.031   3.847   3.533 -1.3932 -1.5546 -0.1472
 6450SOL    HW230984   4.691   3.886   3.415 -1.4553  1.6471 -1.0989
 6451SOL     OW30985   0.096   4.146   7.110  0.4313  0.5361  0.0611
 6451SOL    HW130986   0.169   4.162   7.051 -1.1349  1.6093 -1.6149
 6451SOL    HW230987   0.026   4.108   7.055 -1.7199  2.3141  1.5665
 6452SOL     OW30988   3.698   2.354   2.968 -0.4308  0.2548 -1.0527
 6452SOL    HW130989   3.730   2.328   2.882  1.3778  2.4793 -1.0373
 6452SOL    HW230990   3.649   2.276   2.996  2.0682 -0.1003  2.3914
 6453SOL     OW30991   3.552   0.442  12.238  0.1675 -0.2929  0.1357
 6453SOL    HW130992   3.602   0.453  12.319 -2.3975  0.7360  1.5682
 6453SOL    HW230993   3.567   0.352  12.211  0.1388  0.1664 -1.4045
 6454SOL     OW30994   2.699   2.332   1.013 -0.3251 -0.3370  0.2839
 6454SOL    HW130995   2.682   2.355   1.104 -1.1464 -1.7104  0.4773
 6454SOL    HW230996   2.618   2.288   0.990 -0.0842 -0.7792  0.2882
 6455SOL     OW30997   1.482   0.784   7.064  0.3084 -0.0560  0.1965
 6455SOL    HW130998   1.503   0.691   7.068  1.6911  0.1722 -1.7072
 6455SOL    HW230999   1.421   0.799   7.136  1.8607  0.9569  1.2830
 6456SOL     OW31000   3.861   2.352   7.266  0.2447  0.6219 -0.3046
 6456SOL    HW131001   3.924   2.347   7.338 -0.7417 -0.4814  0.4844
 6456SOL    HW231002   3.778   2.317   7.298  1.4421 -1.5707  0.3966
 6457SOL     OW31003   4.426   3.684   4.881  0.4975 -0.0465  0.4234
 6457SOL    HW131004   4.388   3.651   4.962  1.2319 -0.6243  0.5382
 6457SOL    HW231005   4.481   3.755   4.916 -1.5083  0.9259  1.5938
 6458SOL     OW31006   0.571   2.002  13.448  0.3257  0.5120 -0.0467
 6458SOL    HW131007   0.630   2.072  13.476 -1.5338  2.1741 -0.2828
 6458SOL    HW231008   0.578   1.945  13.525 -1.1229  1.9063  1.1148
 6459SOL     OW31009   4.086   4.107   7.418 -0.2619 -0.0948  0.7962
 6459SOL    HW131010   4.019   4.039   7.409 -0.9306  1.1610 -3.4084
 6459SOL    HW231011   4.044   4.186   7.386  0.8027  1.3800  3.0117
 6460SOL     OW31012   4.686   1.112   2.575  0.2190 -0.7235  0.5176
 6460SOL    HW131013   4.596   1.132   2.548  0.3266 -2.4983 -1.1517
 6460SOL    HW231014   4.671   1.046   2.642  1.2302  0.5469  1.9985
 6461SOL     OW31015   0.002   4.491  14.361  0.1624 -0.8513 -0.1831
 6461SOL    HW131016   4.647   4.503  14.381  0.5350 -1.5753  1.9713
 6461SOL    HW231017   0.024   4.582  14.341 -1.4959  0.0447  2.1823
 6462SOL     OW31018   2.676   0.678   8.969 -0.3024 -0.4188 -0.1902
 6462SOL    HW131019   2.752   0.677   9.027  1.1960  2.0695 -2.1554
 6462SOL    HW231020   2.627   0.740   9.023 -0.5398 -1.5737  0.9505
 6463SOL     OW31021   0.883   0.431   7.933 -0.0009 -0.2822 -0.4707
 6463SOL    HW131022   0.917   0.353   7.977  1.3764 -0.1147 -1.2313
 6463SOL    HW231023   0.825   0.387   7.871 -1.7742  1.0000  0.2750
 6464SOL     OW31024   4.432   0.150   2.436  0.0467  0.5797  0.1648
 6464SOL    HW131025   4.399   0.203   2.363 -0.1600  0.3970  0.1271
 6464SOL    HW231026   4.515   0.114   2.405 -1.8234 -2.4582 -1.2542
 6465SOL     OW31027   3.067   3.772   3.859  0.6701 -0.0368  0.3081
 6465SOL    HW131028   3.147   3.794   3.810 -0.7441  0.5526 -1.7065
 6465SOL    HW231029   3.006   3.754   3.788  2.0950 -0.6427 -0.7551
 6466SOL     OW31030   4.181   0.500   9.965  0.2035 -0.0208  0.0327
 6466SOL    HW131031   4.118   0.504   9.893  1.6898 -0.9258 -1.3019
 6466SOL    HW231032   4.129   0.451  10.028  0.5426  0.5929  0.7915
 6467SOL     OW31033   1.899   2.240   3.023  0.1224 -0.5374  0.1937
 6467SOL    HW131034   1.883   2.159   3.071  1.7120 -2.1343 -1.9475
 6467SOL    HW231035   1.956   2.289   3.082 -0.5586 -0.4231  0.7566
 6468SOL     OW31036   1.835   0.313  10.711  0.8640  0.6506  0.1523
 6468SOL    HW131037   1.790   0.374  10.653  0.7031 -0.2339 -0.6450
 6468SOL    HW231038   1.863   0.377  10.777  1.6369  0.1575  0.2985
 6469SOL     OW31039   0.602   0.125   9.183  0.3037  0.9326 -0.6158
 6469SOL    HW131040   0.582   0.212   9.217  2.7936  1.6375 -0.9213
 6469SOL    HW231041   0.546   0.071   9.238 -0.2718  0.4233 -1.6928
 6470SOL     OW31042   3.348   2.882   2.128 -0.2414 -0.2487  1.0257
 6470SOL    HW131043   3.295   2.821   2.179  0.1551 -0.8341  0.7304
 6470SOL    HW231044   3.313   2.965   2.161 -0.7278 -0.3638  0.8018
 6471SOL     OW31045   4.641   1.261   5.655 -0.0236 -0.4160 -0.3762
 6471SOL    HW131046   4.631   1.271   5.750 -0.4338 -2.6079 -0.2076
 6471SOL    HW231047   4.621   1.352   5.632  0.0277 -0.7163 -1.5840
 6472SOL     OW31048   2.642   2.409   5.272 -0.1222 -0.1475 -0.3280
 6472SOL    HW131049   2.609   2.478   5.330 -0.4680 -0.3045 -0.3399
 6472SOL    HW231050   2.607   2.325   5.301  2.1395 -1.2525 -0.7698
 6473SOL     OW31051   0.859   3.604  10.355  0.3154 -0.0163 -0.1836
 6473SOL    HW131052   0.860   3.590  10.260 -1.2069  1.9651 -0.4957
 6473SOL    HW231053   0.770   3.622  10.386  0.1443 -0.2908 -0.5105
 6474SOL     OW31054   0.780   4.024   0.306  0.4625 -0.5224  0.0880
 6474SOL    HW131055   0.691   4.012   0.339 -0.1772  0.7657 -1.1946
 6474SOL    HW231056   0.823   3.942   0.332  0.8944  0.3466  2.1427
 6475SOL     OW31057   1.095   1.863  15.067  0.3931 -0.1319  0.4156
 6475SOL    HW131058   1.123   1.931  15.004 -0.6823 -1.0175 -0.9993
 6475SOL    HW231059   1.165   1.884  15.130  1.1797 -0.4155 -0.3606
 6476SOL     OW31060   0.075   0.962  17.312 -0.0714  0.0079 -0.9188
 6476SOL    HW131061   0.090   1.007  17.395  1.2792 -0.5475 -0.8677
 6476SOL    HW231062   4.721   0.935  17.319  0.6041 -1.2713  2.7739
 6477SOL     OW31063   1.828   3.683   6.932  0.0251 -0.1396 -0.2388
 6477SOL    HW131064   1.803   3.622   6.862  1.1378 -0.7107 -0.1340
 6477SOL    HW231065   1.767   3.652   6.998  0.5437 -2.3172 -0.7692
 6478SOL     OW31066   0.920   2.063   7.296  0.0834 -0.1350 -0.4066
 6478SOL    HW131067   0.880   2.148   7.276  1.8943  0.5988 -0.8780
 6478SOL    HW231068   0.867   2.006   7.241  0.2541 -2.5290  1.9204
 6479SOL     OW31069   2.437   2.326   6.676 -0.7049  0.1631 -0.0216
 6479SOL    HW131070   2.364   2.294   6.728 -0.1967 -2.2259 -0.7964
 6479SOL    HW231071   2.434   2.422   6.683  1.0251 -0.0519  3.5494
 6480SOL     OW31072   0.939   0.999   5.668 -0.0404  0.1961  0.4477
 6480SOL    HW131073   0.949   0.932   5.600  1.6138 -0.6464  1.5242
 6480SOL    HW231074   0.900   0.958   5.745 -0.3646 -0.2853  0.0254
 6481SOL     OW31075   3.386   0.967   7.136  0.0985 -0.2937 -0.1090
 6481SOL    HW131076   3.440   0.936   7.063 -1.8399  0.4955 -1.8880
 6481SOL    HW231077   3.311   0.907   7.129 -0.5140  0.4862 -0.2654
 6482SOL     OW31078   2.939   4.360  12.189 -0.5064  0.2729  0.7958
 6482SOL    HW131079   2.910   4.269  12.197  0.3844 -0.0202  0.7072
 6482SOL    HW231080   2.960   4.355  12.096  0.1747 -2.5420  1.1028
 6483SOL     OW31081   4.327   0.787   8.387 -0.1650 -0.4752 -0.1658
 6483SOL    HW131082   4.286   0.742   8.461 -0.9441  1.0226  0.3168
 6483SOL    HW231083   4.415   0.799   8.424 -0.2600  0.2287 -0.1787
 6484SOL     OW31084   4.530   0.011   6.345 -0.2558  0.1679  0.7249
 6484SOL    HW131085   4.474   0.088   6.333 -0.8404 -0.7094 -2.1365
 6484SOL    HW231086   4.479   4.691   6.290 -1.5752  0.8687  1.2084
 6485SOL     OW31087   0.297   0.654   2.617  0.1025  0.1503  0.2822
 6485SOL    HW131088   0.291   0.577   2.561  0.1054  1.0120 -0.8845
 6485SOL    HW231089   0.231   0.637   2.685 -1.1280 -0.0672 -0.9493
 6486SOL     OW31090   3.267   4.258   4.644  0.3311  0.1296  0.2048
 6486SOL    HW131091   3.338   4.216   4.694  0.4266  0.5137  0.3948
 6486SOL    HW231092   3.263   4.348   4.678 -0.3593 -0.9426  3.0042
 6487SOL     OW31093   4.487   0.433  16.875 -0.0468  0.3700  0.3409
 6487SOL    HW131094   4.553   0.364  16.864  0.2970  0.8261 -0.4379
 6487SOL    HW231095   4.418   0.381  16.917  0.8333  1.4927  3.1842
 6488SOL     OW31096   3.630   0.582   2.443 -0.0257  0.5241  0.7258
 6488SOL    HW131097   3.617   0.506   2.386 -0.2477  0.6593  0.5969
 6488SOL    HW231098   3.690   0.546   2.509 -0.5606  0.2917  1.0823
 6489SOL     OW31099   0.566   2.384   2.222 -0.2865  0.4097  0.0317
 6489SOL    HW131100   0.482   2.350   2.252  0.4716 -1.3648  0.1445
 6489SOL    HW231101   0.533   2.430   2.145 -0.3411 -1.9901 -1.3613
 6490SOL     OW31102   4.211   4.105  11.757 -0.1415  0.7265 -0.3796
 6490SOL    HW131103   4.300   4.130  11.732  0.2655  1.4253  1.7994
 6490SOL    HW231104   4.221   4.010  11.763  0.3760  0.8736  1.0880
 6491SOL     OW31105   4.086   3.327   8.451 -0.1935  0.0153 -0.0572
 6491SOL    HW131106   4.096   3.339   8.356  1.3601 -0.8118 -0.0146
 6491SOL    HW231107   4.093   3.231   8.458  0.0173  0.0124 -0.2954
 6492SOL     OW31108   2.711   1.022   9.646  0.3739 -0.0793 -0.3486
 6492SOL    HW131109   2.637   0.973   9.611 -0.0966 -1.2035  2.2577
 6492SOL    HW231110   2.677   1.046   9.732  0.8160 -0.8695  0.0468
 6493SOL     OW31111   1.053   4.625   0.114 -0.4351 -0.2621  0.0764
 6493SOL    HW131112   0.968   4.583   0.102 -0.3902  0.4773 -2.7450
 6493SOL    HW231113   1.107   4.554   0.149  1.4403  1.1688  0.0222
 6494SOL     OW31114   1.953   0.290   0.560 -0.1400 -0.9728 -0.8415
 6494SOL    HW131115   1.892   0.301   0.487 -1.6317  2.6836  1.0056
 6494SOL    HW231116   1.918   0.208   0.595 -0.6747 -0.1620  0.5035
 6495SOL     OW31117   3.957   0.631   4.981  0.2613  0.0064 -0.1245
 6495SOL    HW131118   3.957   0.699   5.047 -0.0030 -1.2354  1.1551
 6495SOL    HW231119   4.020   0.682   4.930  0.0455  2.9598  2.6333
 6496SOL     OW31120   0.228   1.734  11.237  0.2495 -0.1725  0.0742
 6496SOL    HW131121   0.248   1.792  11.164 -0.1364 -0.6389 -0.3997
 6496SOL    HW231122   0.133   1.744  11.240  0.0687 -0.9479 -2.9348
 6497SOL     OW31123   3.382   2.221   0.485 -0.1636 -0.3549 -0.1904
 6497SOL    HW131124   3.360   2.141   0.532  2.9040 -0.0781  1.6688
 6497SOL    HW231125   3.382   2.282   0.558 -3.3990 -0.2626 -0.2419
 6498SOL     OW31126   1.662   1.785   6.260 -0.3035 -0.1742  0.1279
 6498SOL    HW131127   1.720   1.853   6.295 -0.5305  0.7492 -1.2688
 6498SOL    HW231128   1.595   1.844   6.225 -0.4804 -1.5002 -1.7705
 6499SOL     OW31129   1.961   2.190  14.053  0.7626  0.2305 -0.0396
 6499SOL    HW131130   1.952   2.256  14.121  1.3784  0.7667 -0.4793
 6499SOL    HW231131   2.055   2.171  14.056  0.5375 -1.3104 -2.5845
 6500SOL     OW31132   2.237   3.588  13.949 -0.1695  0.2387  0.4360
 6500SOL    HW131133   2.150   3.612  13.918  0.5760  2.5656  0.1320
 6500SOL    HW231134   2.302   3.651  13.917  1.3686 -1.1490  0.7876
 6501SOL     OW31135   1.011   1.289   6.819  0.2526 -0.5583 -0.1287
 6501SOL    HW131136   1.072   1.298   6.746 -0.9120  2.4846 -0.7607
 6501SOL    HW231137   0.990   1.382   6.831 -1.8989 -1.1486  0.6718
 6502SOL     OW31138   2.966   2.897  14.268 -0.0160  0.0209 -0.0927
 6502SOL    HW131139   2.919   2.979  14.284 -0.5312 -0.2160 -0.3530
 6502SOL    HW231140   2.948   2.858  14.354  4.7838  0.1310  0.9369
 6503SOL     OW31141   1.919   2.911   7.036 -0.4001 -0.5319 -0.1226
 6503SOL    HW131142   1.850   2.884   7.097 -1.8952  0.3348 -1.4313
 6503SOL    HW231143   1.980   2.837   7.041 -0.6831 -0.8526 -1.5018
 6504SOL     OW31144   2.380   1.610   8.147  0.8283  0.0281  0.6323
 6504SOL    HW131145   2.314   1.625   8.215 -1.3099  0.5728 -1.5661
 6504SOL    HW231146   2.458   1.621   8.201  0.8006 -2.0354  1.0980
 6505SOL     OW31147   0.165   0.179   4.725 -0.2976 -0.3748 -0.3940
 6505SOL    HW131148   0.236   0.124   4.757 -1.2409 -0.8570  0.8837
 6505SOL    HW231149   0.092   0.122   4.701 -0.4754 -0.5147  0.5150
 6506SOL     OW31150   1.719   3.865   6.132  0.1308  0.3026  0.1678
 6506SOL    HW131151   1.679   3.792   6.084  1.5814 -0.8249  0.6712
 6506SOL    HW231152   1.674   3.870   6.217  1.2578 -0.1028  0.7804
 6507SOL     OW31153   2.204   2.654   2.036  0.0792  0.4444 -0.2379
 6507SOL    HW131154   2.145   2.606   2.095 -0.9970  1.5421 -0.4140
 6507SOL    HW231155   2.147   2.675   1.962  0.9013  2.0748 -0.4148
 6508SOL     OW31156   3.766   0.392   2.018 -0.4048 -0.4018 -0.1824
 6508SOL    HW131157   3.818   0.460   2.061  1.0045 -1.3972 -0.3274
 6508SOL    HW231158   3.792   0.384   1.927  0.9570 -1.4619  0.2998
 6509SOL     OW31159   0.264   0.267   9.100  0.3026 -0.0266 -0.7646
 6509SOL    HW131160   0.242   0.316   9.020 -1.2606 -0.0245 -0.3378
 6509SOL    HW231161   0.355   0.293   9.117  0.0301  0.5388 -0.1628
 6510SOL     OW31162   1.239   0.782   1.667  0.2069 -0.3197  0.2145
 6510SOL    HW131163   1.229   0.694   1.631  0.3172 -0.5631  0.7926
 6510SOL    HW231164   1.317   0.759   1.718  0.0572  0.9854  1.0294
 6511SOL     OW31165   1.577   1.983   4.341 -0.0308 -0.0400 -0.1328
 6511SOL    HW131166   1.543   2.062   4.299 -0.2214  0.8996  1.8169
 6511SOL    HW231167   1.663   2.014   4.365 -0.2516  2.1731 -2.1844
 6512SOL     OW31168   0.754   4.063  17.462  0.0803  0.0829 -0.0634
 6512SOL    HW131169   0.756   4.001  17.389  4.7943  0.6886 -0.4486
 6512SOL    HW231170   0.812   4.126  17.420  0.1311  0.2478  0.2559
 6513SOL     OW31171   4.627   2.214  15.127  0.0757  0.2535  0.1432
 6513SOL    HW131172   4.562   2.144  15.130 -1.1723  1.3890 -0.7246
 6513SOL    HW231173   4.572   2.277  15.081  0.0776 -0.5590 -0.9673
 6514SOL     OW31174   3.795   1.331   8.574  0.5176  0.1394  0.0689
 6514SOL    HW131175   3.706   1.298   8.565  1.2624 -2.1163  1.1523
 6514SOL    HW231176   3.778   1.408   8.519 -2.4665 -0.0637  0.7471
 6515SOL     OW31177   4.065   4.305   1.535  0.2722  0.4306 -0.1810
 6515SOL    HW131178   4.014   4.276   1.459  1.2677 -0.9886 -0.3081
 6515SOL    HW231179   4.014   4.281   1.612 -0.6817 -0.5585 -1.1293
 6516SOL     OW31180   4.366   3.573  12.134 -0.7036 -0.1120 -0.0448
 6516SOL    HW131181   4.406   3.607  12.214  2.1267  0.9878 -1.9226
 6516SOL    HW231182   4.340   3.653  12.088 -1.8391 -0.3286  0.2217
 6517SOL     OW31183   1.560   0.295   4.187  0.3711 -0.4192 -0.0031
 6517SOL    HW131184   1.542   0.383   4.155  0.9306 -0.7018 -1.1097
 6517SOL    HW231185   1.471   0.259   4.187  0.5497 -0.8551  0.2657
 6518SOL     OW31186   2.171   2.276   0.762 -0.1949  0.2229 -0.5042
 6518SOL    HW131187   2.215   2.193   0.743 -0.1567 -0.1969  1.4282
 6518SOL    HW231188   2.178   2.329   0.682  1.9262  0.7499  0.0603
 6519SOL     OW31189   4.736   2.294   5.039 -0.0593  0.1930  0.5074
 6519SOL    HW131190   4.667   2.229   5.042 -0.5887  0.6553 -2.0604
 6519SOL    HW231191   0.026   2.297   5.130  1.2322 -2.3593  0.1712
 6520SOL     OW31192   0.987   3.743   6.273 -0.3760 -0.3848 -0.6852
 6520SOL    HW131193   0.975   3.680   6.202 -0.8388 -1.8207  0.6657
 6520SOL    HW231194   1.061   3.791   6.238  2.3883 -1.8177  3.2189
 6521SOL     OW31195   2.191   4.150   3.214 -0.0093  0.0599  0.1415
 6521SOL    HW131196   2.255   4.095   3.259  0.3848  0.6630  0.3288
 6521SOL    HW231197   2.141   4.186   3.287 -1.6202 -0.8983 -0.4863
 6522SOL     OW31198   1.502   4.622   2.983 -0.6136 -0.1116 -0.3775
 6522SOL    HW131199   1.466   4.707   2.956  1.0074  0.5556 -0.4760
 6522SOL    HW231200   1.460   4.616   3.069  1.5649  1.6380  0.8224
 6523SOL     OW31201   4.052   4.224   2.202 -0.2494  0.4251 -0.2245
 6523SOL    HW131202   3.985   4.192   2.142  0.8773 -1.6456 -0.3712
 6523SOL    HW231203   4.131   4.199   2.154 -0.6279 -0.2858 -0.4591
 6524SOL     OW31204   1.148   0.995   9.412 -0.7540  0.1439  0.4375
 6524SOL    HW131205   1.089   0.979   9.485  1.3863  0.1119  2.1616
 6524SOL    HW231206   1.109   0.951   9.337 -0.1506  2.7012 -1.3707
 6525SOL     OW31207   2.243   4.349  14.072  0.6510 -0.1972  0.6767
 6525SOL    HW131208   2.280   4.383  14.153 -0.3591  1.0040  0.6214
 6525SOL    HW231209   2.149   4.350  14.085  0.4266  0.0970 -0.9460
 6526SOL     OW31210   3.074   3.371   7.121  0.3995 -0.1487 -0.1134
 6526SOL    HW131211   3.123   3.450   7.144 -1.5641  0.7267  1.0189
 6526SOL    HW231212   3.029   3.392   7.039  0.8869 -2.1571 -0.8898
 6527SOL     OW31213   3.781   3.920  15.942 -0.4630 -0.4244 -0.3127
 6527SOL    HW131214   3.723   3.912  16.018 -0.6855 -1.9772 -0.6461
 6527SOL    HW231215   3.830   3.998  15.966  0.1312 -0.7006 -0.6259
 6528SOL     OW31216   0.936   2.675  16.904 -0.3662 -0.1884 -0.0838
 6528SOL    HW131217   1.003   2.717  16.958 -0.3340  0.5326 -0.6785
 6528SOL    HW231218   0.979   2.597  16.868 -2.0490 -0.7961 -0.8038
 6529SOL     OW31219   2.629   0.329   4.255  0.0480  0.6011 -0.5766
 6529SOL    HW131220   2.717   0.350   4.285  0.5550 -0.0411 -1.6385
 6529SOL    HW231221   2.628   0.234   4.264 -0.7863  0.6248 -0.3933
 6530SOL     OW31222   4.718   1.985   0.949  0.7044  0.2259  1.1389
 6530SOL    HW131223   4.733   1.948   1.036  0.1033 -2.7435 -0.0401
 6530SOL    HW231224   4.662   1.918   0.910  0.8775  1.7642 -1.7081
 6531SOL     OW31225   0.749   0.645   6.323  0.3464 -0.4115  0.1124
 6531SOL    HW131226   0.747   0.643   6.418 -2.8735  1.2900  0.1111
 6531SOL    HW231227   0.825   0.700   6.305  1.1679 -1.5883 -0.0260
 6532SOL     OW31228   4.002   1.633  17.395 -0.5928  0.4303 -0.3230
 6532SOL    HW131229   3.986   1.689  17.319 -0.5991  0.1955 -0.4955
 6532SOL    HW231230   3.936   1.657  17.459 -0.6661  0.7753 -0.5311
 6533SOL     OW31231   3.680   2.121   8.827  0.1438 -0.1298  0.3934
 6533SOL    HW131232   3.647   2.069   8.753 -2.6997 -1.0970  2.3174
 6533SOL    HW231233   3.604   2.138   8.883 -0.6119  0.6526 -0.8639
 6534SOL     OW31234   4.105   4.048   2.987  0.1850 -0.0233 -0.2618
 6534SOL    HW131235   4.122   4.036   3.081  0.6563 -0.8117 -0.4419
 6534SOL    HW231236   4.073   4.137   2.995  0.7155  0.3104 -1.8299
 6535SOL     OW31237   1.976   1.255   2.925  0.1712  0.6049  0.0475
 6535SOL    HW131238   1.958   1.163   2.910 -1.7799  1.1304 -0.8049
 6535SOL    HW231239   1.987   1.288   2.835  1.3925 -0.1929 -0.0947
 6536SOL     OW31240   1.157   2.943   8.257  0.3977 -0.2516  0.0799
 6536SOL    HW131241   1.177   2.851   8.239  0.6636 -0.1506 -0.1468
 6536SOL    HW231242   1.129   2.931   8.347 -1.6301  0.1713 -0.5057
 6537SOL     OW31243   1.033   4.502   3.356 -0.3061  0.0577 -0.0695
 6537SOL    HW131244   1.068   4.461   3.435 -1.4795  0.5791  0.7263
 6537SOL    HW231245   1.084   4.583   3.357 -1.9868  1.1469 -2.1017
 6538SOL     OW31246   0.968   0.610   4.928  0.0944 -0.4834  0.1320
 6538SOL    HW131247   0.973   0.693   4.976 -1.0997 -1.0362  1.2091
 6538SOL    HW231248   1.058   0.580   4.918 -0.2330 -0.8568 -1.6335
 6539SOL     OW31249   2.073   3.118   2.425 -0.9635  0.3489 -0.5468
 6539SOL    HW131250   2.036   3.063   2.356 -0.2038  0.9547 -1.4357
 6539SOL    HW231251   2.023   3.095   2.503  0.3259 -1.7468 -0.3543
 6540SOL     OW31252   3.463   3.949  10.229  0.8240 -0.0107  0.5901
 6540SOL    HW131253   3.445   3.997  10.310 -0.6657  3.3263 -1.7302
 6540SOL    HW231254   3.494   3.867  10.267 -0.1238 -0.9332 -0.6092
 6541SOL     OW31255   0.556   4.589   8.408 -0.0002  0.0767 -0.2251
 6541SOL    HW131256   0.532   4.668   8.457 -0.3019 -0.2818  0.1930
 6541SOL    HW231257   0.473   4.581   8.361 -0.8109  0.5707  1.1101
 6542SOL     OW31258   3.078   1.919   7.999  0.1198  0.2664 -0.6880
 6542SOL    HW131259   3.111   1.833   8.026  1.2609  0.5731 -1.0923
 6542SOL    HW231260   3.151   1.979   7.983  0.1367  0.6531  0.8232
 6543SOL     OW31261   0.949   0.973   9.647 -0.7490 -0.1431 -0.0548
 6543SOL    HW131262   0.925   1.042   9.709 -0.1349  0.1083 -0.0957
 6543SOL    HW231263   0.866   0.926   9.641 -1.0257 -0.0335  2.5515
 6544SOL     OW31264   4.318   2.095   5.911 -0.5282  0.7767 -0.8841
 6544SOL    HW131265   4.342   2.183   5.939  1.8176  0.0470 -0.6148
 6544SOL    HW231266   4.224   2.104   5.892 -0.4397  0.0315 -1.6484
 6545SOL     OW31267   0.818   0.708  12.161  0.4433 -0.5382 -0.2284
 6545SOL    HW131268   0.892   0.740  12.213 -1.4818  1.0838  1.5457
 6545SOL    HW231269   0.768   0.664  12.230 -1.6934  1.0468 -0.7576
 6546SOL     OW31270   0.592   1.197   3.710 -0.3185 -0.9696 -0.5158
 6546SOL    HW131271   0.652   1.227   3.778  2.7805 -1.5944 -2.9506
 6546SOL    HW231272   0.630   1.216   3.624  0.1225 -0.2381 -0.1554
 6547SOL     OW31273   0.520   0.702  13.995  0.2497 -0.1764 -0.3620
 6547SOL    HW131274   0.437   0.655  14.002  0.1158  0.1183  0.0485
 6547SOL    HW231275   0.558   0.675  13.912 -1.1938  0.3654 -1.2048
 6548SOL     OW31276   0.401   2.128   8.339  0.0275  0.1149 -0.3680
 6548SOL    HW131277   0.488   2.168   8.338 -0.2805  0.7462 -2.6353
 6548SOL    HW231278   0.401   2.079   8.257 -2.4253 -1.1959  0.4086
 6549SOL     OW31279   1.408   1.301   6.254 -0.0273 -0.1126 -0.1452
 6549SOL    HW131280   1.445   1.388   6.269 -0.4528 -0.1323  0.9579
 6549SOL    HW231281   1.426   1.258   6.337  0.4394 -0.7387 -0.5723
 6550SOL     OW31282   2.279   0.363   8.945 -0.0820 -0.1482  0.4685
 6550SOL    HW131283   2.184   0.364   8.929  0.0970  0.1910 -0.5418
 6550SOL    HW231284   2.303   0.454   8.928  0.8043 -0.4731 -0.0251
 6551SOL     OW31285   4.132   0.421   8.242 -0.0262  0.2553 -0.3808
 6551SOL    HW131286   4.071   0.495   8.238  0.9639  1.0485 -0.8646
 6551SOL    HW231287   4.159   0.422   8.150 -0.1382  1.5076 -0.3996
 6552SOL     OW31288   0.777   3.836  14.117 -0.0913 -0.0609  0.0778
 6552SOL    HW131289   0.728   3.759  14.085  0.1080  0.5620 -1.7551
 6552SOL    HW231290   0.861   3.795  14.100 -1.1278 -2.0077 -0.3809
 6553SOL     OW31291   1.853   1.936   2.933 -0.0178  0.3353  0.2315
 6553SOL    HW131292   1.761   1.912   2.930  0.4077 -1.3758  0.8127
 6553SOL    HW231293   1.896   1.868   2.986 -1.3231  0.3926  1.3449
 6554SOL     OW31294   2.599   2.429  10.550  0.0985 -0.0963  0.4151
 6554SOL    HW131295   2.648   2.508  10.528 -0.8347  0.2960 -0.2865
 6554SOL    HW231296   2.630   2.368  10.483  1.0133  0.6820  0.1269
 6555SOL     OW31297   4.132   0.643  14.945  0.2806  0.4577  0.5741
 6555SOL    HW131298   4.144   0.610  14.856  0.3350  1.1343  0.3271
 6555SOL    HW231299   4.051   0.599  14.972 -0.3522  0.7994 -0.7656
 6556SOL     OW31300   0.430   4.308   5.716  0.1243 -0.3767 -0.3797
 6556SOL    HW131301   0.358   4.371   5.724 -0.7192 -1.0093 -2.8157
 6556SOL    HW231302   0.465   4.337   5.632 -0.9658  0.3259 -0.5947
 6557SOL     OW31303   0.030   1.514  11.340  0.7080  0.3644  0.0811
 6557SOL    HW131304   0.082   1.453  11.391 -1.8335 -0.1765  2.0743
 6557SOL    HW231305   0.042   1.482  11.251  1.0290  3.5827 -1.0487
 6558SOL     OW31306   1.607   0.104   6.944  0.1674 -0.6792  0.1089
 6558SOL    HW131307   1.523   0.074   6.909  0.3158 -0.5996 -0.3112
 6558SOL    HW231308   1.586   0.171   7.009  0.0235  0.1074 -0.7432
 6559SOL     OW31309   2.142   2.868   1.739 -0.0644 -0.1970  0.4709
 6559SOL    HW131310   2.116   2.916   1.817 -0.8911  1.1889 -0.6429
 6559SOL    HW231311   2.098   2.787   1.763 -1.7102  0.5456 -0.0940
 6560SOL     OW31312   3.788   2.483  11.955 -0.3066 -0.0021 -0.4533
 6560SOL    HW131313   3.727   2.551  11.926  0.5874  0.8531 -0.3242
 6560SOL    HW231314   3.791   2.507  12.047  1.1049  0.6173 -0.6658
 6561SOL     OW31315   1.463   2.351   4.784  0.8155 -0.5004 -0.1741
 6561SOL    HW131316   1.380   2.310   4.759  1.5918 -1.9829 -0.3150
 6561SOL    HW231317   1.483   2.299   4.862 -0.5969  0.6499  0.9649
 6562SOL     OW31318   1.847   3.548  11.483 -0.2868 -0.3173  0.4152
 6562SOL    HW131319   1.890   3.632  11.468 -1.3305 -0.2344 -1.9933
 6562SOL    HW231320   1.775   3.557  11.421 -0.2921 -0.0714  0.4556
 6563SOL     OW31321   2.159   3.702   5.498  0.5637  0.1822 -0.0018
 6563SOL    HW131322   2.213   3.628   5.527 -2.2173 -1.5683  0.6326
 6563SOL    HW231323   2.117   3.728   5.580 -1.4257 -3.1600  0.0207
 6564SOL     OW31324   1.986   0.067   3.382 -0.3961 -0.0611  0.0237
 6564SOL    HW131325   2.069   0.021   3.390 -0.9314 -0.5090  3.0331
 6564SOL    HW231326   1.942   0.013   3.317 -1.0492 -1.1570  1.3743
 6565SOL     OW31327   2.653   3.317   2.340  0.2942  0.6261  0.0158
 6565SOL    HW131328   2.731   3.326   2.395  0.2679  0.1315  0.1341
 6565SOL    HW231329   2.662   3.222   2.338 -1.6252  0.5127 -3.9343
 6566SOL     OW31330   2.365   4.126  16.040  0.0584 -0.0593 -0.4517
 6566SOL    HW131331   2.323   4.042  16.060 -3.5384  1.5611 -1.2386
 6566SOL    HW231332   2.435   4.133  16.105  1.0578 -2.1522 -1.2726
 6567SOL     OW31333   1.698   1.309  16.243 -0.3467 -0.0971 -0.2041
 6567SOL    HW131334   1.653   1.326  16.326 -1.4684 -1.6080 -0.5107
 6567SOL    HW231335   1.625   1.286  16.186 -1.4385 -1.0701  1.5754
 6568SOL     OW31336   0.243   4.127   9.535  0.3254 -0.5024  0.3745
 6568SOL    HW131337   0.211   4.071   9.605 -1.1437 -0.5977 -0.3797
 6568SOL    HW231338   0.168   4.178   9.505  1.6539  0.1514 -1.8478
 6569SOL     OW31339   4.605   2.990   7.489  0.3260 -0.1830 -0.5269
 6569SOL    HW131340   4.654   3.059   7.534  3.0217 -2.5856  0.2932
 6569SOL    HW231341   4.567   3.042   7.418 -0.3249 -0.9587 -0.7421
 6570SOL     OW31342   0.504   4.465   4.398  0.1907 -0.0884  0.4241
 6570SOL    HW131343   0.477   4.538   4.342  1.8065  0.0525 -0.1621
 6570SOL    HW231344   0.472   4.486   4.486 -2.6593  2.1934 -1.1393
 6571SOL     OW31345   3.400   0.514   7.702 -0.5823 -0.7243 -0.4748
 6571SOL    HW131346   3.416   0.513   7.608  1.4049  0.7680 -0.1657
 6571SOL    HW231347   3.485   0.488   7.737  1.0219  1.7782 -2.5200
 6572SOL     OW31348   3.492   2.587  10.248  0.2176  0.2133 -0.2010
 6572SOL    HW131349   3.586   2.602  10.257 -0.0614  1.5099  0.5858
 6572SOL    HW231350   3.477   2.576  10.154  1.7050 -1.6213 -0.2217
 6573SOL     OW31351   2.831   4.515   4.052  0.4160 -0.7151  0.3711
 6573SOL    HW131352   2.822   4.479   3.963 -0.4408  0.9054 -0.1945
 6573SOL    HW231353   2.744   4.506   4.090 -0.1805  0.0534 -0.8107
 6574SOL     OW31354   1.142   3.173  10.994 -0.4029  0.1629 -0.1313
 6574SOL    HW131355   1.156   3.078  10.994  3.6113  0.7448 -0.4621
 6574SOL    HW231356   1.066   3.171  11.052 -0.9031  2.5270 -0.7189
 6575SOL     OW31357   1.001   2.721   8.606 -0.5709  0.4185 -0.2663
 6575SOL    HW131358   0.942   2.738   8.680 -2.1987  0.5425 -1.5979
 6575SOL    HW231359   0.974   2.786   8.541 -0.8301  2.3529  1.7561
 6576SOL     OW31360   2.126   0.402   4.197 -0.0014  0.4343 -0.2631
 6576SOL    HW131361   2.121   0.485   4.148 -0.4957 -1.6500 -3.7593
 6576SOL    HW231362   2.162   0.420   4.283  2.2967 -0.5847 -1.0181
 6577SOL     OW31363   2.441   0.264   6.623  0.5360 -0.2636 -0.8343
 6577SOL    HW131364   2.476   0.323   6.690 -2.7023  1.4760 -0.6646
 6577SOL    HW231365   2.520   0.211   6.609  1.6592  0.8170  1.4234
 6578SOL     OW31366   4.437   2.266   4.805 -0.3998 -0.1198  0.0583
 6578SOL    HW131367   4.441   2.353   4.845 -0.5521 -1.3878  2.8228
 6578SOL    HW231368   4.354   2.223   4.824 -0.5084 -0.1458 -0.4584
 6579SOL     OW31369   0.066   3.950   9.198  0.3365 -0.0629  0.3136
 6579SOL    HW131370   4.719   3.951   9.242  0.3086  1.1526  0.2440
 6579SOL    HW231371   0.037   3.961   9.108 -2.6219 -1.1457  1.1259
 6580SOL     OW31372   2.445   1.126   4.628  0.6833  0.0835 -0.3674
 6580SOL    HW131373   2.394   1.200   4.662  1.3475  0.8238 -0.9810
 6580SOL    HW231374   2.430   1.149   4.536  0.9408  0.5452 -0.2965
 6581SOL     OW31375   1.569   3.420  13.157 -0.2070 -0.1163 -0.8321
 6581SOL    HW131376   1.662   3.420  13.177 -0.0982  1.0804 -1.3493
 6581SOL    HW231377   1.547   3.513  13.162 -1.7032 -0.5785  1.6705
 6582SOL     OW31378   2.787   2.344   0.361 -0.0814  0.1801  0.0369
 6582SOL    HW131379   2.712   2.400   0.340 -1.2278 -0.9640  1.0817
 6582SOL    HW231380   2.835   2.410   0.411  0.2322  0.2969 -0.4256
 6583SOL     OW31381   1.785   3.781   7.642  0.0849  0.5069  0.2094
 6583SOL    HW131382   1.864   3.832   7.623 -0.3029  0.9120 -0.3246
 6583SOL    HW231383   1.766   3.737   7.559 -0.3732 -0.2436  0.7177
 6584SOL     OW31384   1.577   4.233   9.101 -0.6274 -0.2418 -0.3570
 6584SOL    HW131385   1.598   4.153   9.051  0.1999 -0.0973 -0.2278
 6584SOL    HW231386   1.604   4.193   9.184 -1.1616 -2.1414 -1.0786
 6585SOL     OW31387   3.562   3.422   7.449 -0.4137  0.4900  0.4242
 6585SOL    HW131388   3.523   3.446   7.365 -1.3167 -1.5067  0.2668
 6585SOL    HW231389   3.572   3.327   7.442 -0.4142  0.6068 -1.1537
 6586SOL     OW31390   1.921   3.167   5.432 -0.2767  0.5041  0.1330
 6586SOL    HW131391   1.997   3.114   5.456 -1.9998 -1.4500  1.3006
 6586SOL    HW231392   1.878   3.091   5.393  2.1008  0.0837 -1.6894
 6587SOL     OW31393   1.473   1.715  16.529  0.2900  0.7133 -0.3866
 6587SOL    HW131394   1.431   1.631  16.512 -1.5249  1.5879 -0.1558
 6587SOL    HW231395   1.534   1.740  16.459  0.9328 -3.3323 -1.2304
 6588SOL     OW31396   1.331   3.473   4.106 -0.3948 -0.0542  0.4915
 6588SOL    HW131397   1.273   3.510   4.173  1.5461 -0.1224  2.1980
 6588SOL    HW231398   1.388   3.410   4.149  1.3556  1.5406  0.5227
 6589SOL     OW31399   3.818   4.157  13.931  0.8551 -0.2934 -0.0727
 6589SOL    HW131400   3.745   4.114  13.976  1.8707 -1.6613  0.2580
 6589SOL    HW231401   3.788   4.155  13.840  1.2820  0.0625 -0.2195
 6590SOL     OW31402   2.852   4.718   2.613 -1.1060  0.2643 -0.1748
 6590SOL    HW131403   2.934   0.011   2.652 -1.0585  0.2512 -0.2650
 6590SOL    HW231404   2.799   0.060   2.618 -1.4861  0.0721 -1.1921
 6591SOL     OW31405   1.345   2.412   6.469  0.3401  0.0537  0.6178
 6591SOL    HW131406   1.349   2.503   6.499 -1.4689  0.5207 -0.5596
 6591SOL    HW231407   1.308   2.377   6.550  1.8814 -0.2160  1.2166
 6592SOL     OW31408   0.789   2.992  15.123 -0.2917 -0.0144  0.0664
 6592SOL    HW131409   0.747   2.928  15.181 -2.0892  0.5083 -0.6398
 6592SOL    HW231410   0.882   2.975  15.134 -0.8236 -1.6083  2.1438
 6593SOL     OW31411   2.496   3.011   4.750 -0.1810  0.3774  0.2191
 6593SOL    HW131412   2.482   2.919   4.725  0.0600  0.2407  0.5883
 6593SOL    HW231413   2.516   3.048   4.664  1.7467 -2.6392 -0.6359
 6594SOL     OW31414   4.575   0.899   5.508  0.1581 -0.2041 -0.0850
 6594SOL    HW131415   4.613   0.901   5.595  0.5597  1.3316 -0.2932
 6594SOL    HW231416   4.521   0.977   5.504  0.4562  0.0896  1.9534
 6595SOL     OW31417   0.056   0.090   1.756  0.6172 -0.3380 -0.3214
 6595SOL    HW131418   0.023   0.033   1.825 -1.3478  1.1674 -0.0152
 6595SOL    HW231419   0.078   0.027   1.687  1.5953 -0.2261 -0.1153
 6596SOL     OW31420   4.660   4.600   1.940  0.4090  0.3044  0.3920
 6596SOL    HW131421   4.574   4.559   1.942  0.7733 -0.4815  0.1247
 6596SOL    HW231422   4.666   4.600   2.036  0.2073 -2.7788  0.4144
 6597SOL     OW31423   2.441   2.383   3.679  0.3423  0.1947  0.1542
 6597SOL    HW131424   2.509   2.369   3.613 -0.5561  2.5872 -1.3109
 6597SOL    HW231425   2.407   2.464   3.640  1.5808  0.9427  0.6029
 6598SOL     OW31426   3.757   3.628   1.637  0.1680 -0.9768 -0.4128
 6598SOL    HW131427   3.779   3.583   1.555 -1.3210 -0.4104 -1.1211
 6598SOL    HW231428   3.833   3.603   1.689 -0.4613  0.7760  1.3179
 6599SOL     OW31429   3.208   1.427   1.971 -0.4523 -0.5197  0.0501
 6599SOL    HW131430   3.262   1.348   1.973  1.5889  0.8798 -0.2987
 6599SOL    HW231431   3.170   1.430   2.059 -0.8783 -0.8975 -0.1198
 6600SOL     OW31432   3.754   4.655   3.740  1.0255 -0.4480  0.2470
 6600SOL    HW131433   3.771   4.632   3.831  1.1522 -0.2542  0.2713
 6600SOL    HW231434   3.740   0.010   3.753 -1.7251 -0.6775 -1.0278
 6601SOL     OW31435   2.556   2.792   4.220 -0.6271 -0.2466  0.9620
 6601SOL    HW131436   2.485   2.783   4.283 -0.2563 -1.9872  1.1345
 6601SOL    HW231437   2.629   2.741   4.257  0.1658 -0.4165 -0.8253
 6602SOL     OW31438   1.539   1.702  16.030  0.4462 -0.5448 -0.0295
 6602SOL    HW131439   1.606   1.635  16.016 -1.5431 -2.5380 -0.0397
 6602SOL    HW231440   1.478   1.683  15.958  0.3402  2.4621 -0.7640
 6603SOL     OW31441   2.810   0.326   1.633 -0.0696  0.2409  0.2404
 6603SOL    HW131442   2.730   0.288   1.598 -0.5641  0.5006  1.0659
 6603SOL    HW231443   2.850   0.243   1.661 -1.6269 -0.2147  1.1067
 6604SOL     OW31444   2.707   1.797   7.150  0.1886 -0.2547  0.4506
 6604SOL    HW131445   2.648   1.777   7.223 -0.8593  0.0861 -0.3113
 6604SOL    HW231446   2.761   1.864   7.192 -2.3568  2.4967 -0.7162
 6605SOL     OW31447   4.038   3.637   5.741  0.0053  1.0978  0.2817
 6605SOL    HW131448   4.029   3.600   5.653  2.7472  1.2268 -0.0533
 6605SOL    HW231449   3.987   3.717   5.732  0.2641  1.3856  1.3960
 6606SOL     OW31450   2.470   0.245  14.696 -0.5345 -0.0365  0.0683
 6606SOL    HW131451   2.469   0.320  14.755 -1.2112  1.1296 -1.4286
 6606SOL    HW231452   2.376   0.233  14.681 -0.8375  1.6146  0.6286
 6607SOL     OW31453   4.064   1.243   3.610  0.5158 -0.1406 -0.5210
 6607SOL    HW131454   4.059   1.245   3.514 -2.4078  2.8716 -0.2973
 6607SOL    HW231455   4.147   1.197   3.617  1.1825  0.9955 -0.9074
 6608SOL     OW31456   4.386   2.387   2.328  0.2380  0.0807  0.2091
 6608SOL    HW131457   4.322   2.382   2.399  0.3658  0.2833  0.3392
 6608SOL    HW231458   4.434   2.470   2.333  2.1199 -0.8436 -2.4088
 6609SOL     OW31459   4.475   3.776   8.751 -0.4497  0.0075  0.0886
 6609SOL    HW131460   4.472   3.683   8.730  0.1711  0.2433 -1.0543
 6609SOL    HW231461   4.433   3.817   8.676  0.2413 -0.3719 -0.5092
 6610SOL     OW31462   0.395   3.100  14.593 -0.0268 -0.2354  0.1949
 6610SOL    HW131463   0.374   3.147  14.674 -0.8939  1.0402 -0.7541
 6610SOL    HW231464   0.444   3.163  14.540 -2.1848  0.7520 -0.6388
 6611SOL     OW31465   0.829   0.345   2.162  0.1661  0.5941  0.1512
 6611SOL    HW131466   0.743   0.323   2.129 -0.6995 -0.1342  2.8576
 6611SOL    HW231467   0.882   0.291   2.104  1.3519  0.5080  1.3099
 6612SOL     OW31468   1.753   1.557   2.723 -0.0413  0.1217 -0.6112
 6612SOL    HW131469   1.742   1.550   2.818  0.0241  0.7527 -0.5530
 6612SOL    HW231470   1.739   1.467   2.695 -0.8525  0.7684 -2.2316
 6613SOL     OW31471   1.376   0.524   4.062 -0.0155 -0.9769  0.1730
 6613SOL    HW131472   1.380   0.614   4.094 -0.7573 -1.0286  0.4182
 6613SOL    HW231473   1.354   0.533   3.969 -1.9774 -0.2874  0.6905
 6614SOL     OW31474   2.214   1.344   6.939 -0.0120 -0.0900 -0.2678
 6614SOL    HW131475   2.167   1.427   6.942  1.5236  0.7793 -0.4421
 6614SOL    HW231476   2.303   1.369   6.914  1.5525 -3.1855  2.1332
 6615SOL     OW31477   3.993   2.242   3.133 -0.2998 -0.4284 -0.1833
 6615SOL    HW131478   4.055   2.258   3.063 -1.4071  2.1762 -0.5689
 6615SOL    HW231479   3.952   2.329   3.136  1.5240  0.3746  1.5087
 6616SOL     OW31480   1.686   4.114  11.466  1.0446  0.2068  0.3246
 6616SOL    HW131481   1.763   4.171  11.462  0.0923  1.4356 -0.3463
 6616SOL    HW231482   1.659   4.134  11.556 -1.5718  0.7103 -0.5646
 6617SOL     OW31483   1.250   1.027   4.255  0.0085 -0.2093  0.5037
 6617SOL    HW131484   1.290   1.074   4.182 -1.1534 -2.0820 -1.3576
 6617SOL    HW231485   1.257   1.091   4.325 -1.2641 -1.8376  2.1217
 6618SOL     OW31486   2.990   2.262   9.942  0.3425 -0.1640  0.0766
 6618SOL    HW131487   2.946   2.322  10.002  0.9342  0.3038  0.0495
 6618SOL    HW231488   2.939   2.181   9.951  3.0640 -1.8005  0.7284
 6619SOL     OW31489   2.215   2.413  11.997  0.3701  0.0145  0.3124
 6619SOL    HW131490   2.285   2.459  12.043  1.0290  0.1596 -0.8529
 6619SOL    HW231491   2.161   2.402  12.075 -0.3796  0.2572 -0.1720
 6620SOL     OW31492   4.420   2.028   3.624  0.2376  0.3666  0.2716
 6620SOL    HW131493   4.386   1.938   3.627 -0.2082  0.4985 -0.7223
 6620SOL    HW231494   4.337   2.075   3.630  0.0649  0.2561 -1.1956
 6621SOL     OW31495   1.727   0.481   8.496  0.2135  0.1861 -0.7736
 6621SOL    HW131496   1.684   0.493   8.580  0.2966 -0.3644 -0.6512
 6621SOL    HW231497   1.788   0.414   8.526  1.8132  1.6852 -0.6701
 6622SOL     OW31498   3.768   3.386   8.033  0.3570  0.2464  0.2925
 6622SOL    HW131499   3.791   3.430   8.114  2.0217  0.0817 -0.0773
 6622SOL    HW231500   3.843   3.332   8.007  1.2635  1.9166 -0.5610
 6623SOL     OW31501   1.655   0.221  16.931 -0.2389  0.1108 -0.2691
 6623SOL    HW131502   1.642   0.199  16.839 -1.3198  1.0723 -0.3398
 6623SOL    HW231503   1.606   0.151  16.974 -1.0168  0.5610 -0.4236
 6624SOL     OW31504   3.955   2.995   3.683 -0.6468 -0.1391  0.1928
 6624SOL    HW131505   3.963   2.962   3.773 -0.3139 -0.7294 -0.0552
 6624SOL    HW231506   3.922   3.083   3.701  2.3232  1.3090 -1.4556
 6625SOL     OW31507   4.519   3.034   3.314  0.1162 -0.1610  0.2535
 6625SOL    HW131508   4.550   3.098   3.251  1.3293 -1.4634 -0.4737
 6625SOL    HW231509   4.599   2.991   3.344  0.4331 -0.2583 -0.7520
 6626SOL     OW31510   0.433   2.608   6.441 -0.0500  0.4472  0.1534
 6626SOL    HW131511   0.338   2.596   6.433  0.1255 -0.1581 -0.8688
 6626SOL    HW231512   0.436   2.655   6.525 -1.8059  1.2671 -0.2250
 6627SOL     OW31513   3.181   3.920   3.413 -0.5221 -0.7147 -0.0839
 6627SOL    HW131514   3.155   3.844   3.361 -2.1288  0.2444 -0.6963
 6627SOL    HW231515   3.102   3.947   3.460  1.2117  2.7596  0.8315
 6628SOL     OW31516   1.803   4.093  14.261 -0.4068 -0.0700  0.0507
 6628SOL    HW131517   1.836   4.066  14.175 -2.0141 -0.3176 -0.4912
 6628SOL    HW231518   1.715   4.055  14.262 -0.4989  0.2718  2.7175
 6629SOL     OW31519   4.367   4.333  12.327 -0.8047  0.2801  0.8273
 6629SOL    HW131520   4.326   4.253  12.294  1.7829  0.3072 -2.5757
 6629SOL    HW231521   4.329   4.397  12.267 -0.3762 -1.4057 -1.2666
 6630SOL     OW31522   1.073   2.518  15.870  0.3600 -0.1081  0.8984
 6630SOL    HW131523   1.074   2.423  15.857 -0.9524  0.1328 -0.9744
 6630SOL    HW231524   1.165   2.528  15.846 -0.3545  0.0791 -1.7468
 6631SOL     OW31525   1.573   0.902   6.284  0.0776  0.5391  0.3273
 6631SOL    HW131526   1.600   0.810   6.279  0.9238  0.8766 -1.4683
 6631SOL    HW231527   1.478   0.898   6.295  0.2350  1.7218  2.1334
 6632SOL     OW31528   0.553   2.516   9.411 -0.4535 -0.1144 -0.0891
 6632SOL    HW131529   0.642   2.481   9.407 -0.4770 -0.0936 -0.8601
 6632SOL    HW231530   0.533   2.516   9.504 -1.7573  1.3786 -0.3718
 6633SOL     OW31531   1.133   1.189   3.393 -0.4726 -0.2037  0.3257
 6633SOL    HW131532   1.107   1.237   3.472  1.3697 -0.3009  0.9872
 6633SOL    HW231533   1.220   1.158   3.418  0.0414  2.7256  2.2413
 6634SOL     OW31534   2.633   4.107   4.532  0.4513 -0.2951  0.5007
 6634SOL    HW131535   2.594   4.082   4.448 -0.9569  1.2145  0.6977
 6634SOL    HW231536   2.576   4.060   4.592  0.2583  0.3552  0.8259
 6635SOL     OW31537   3.822   2.676  17.636  0.2340 -0.6026 -0.0448
 6635SOL    HW131538   3.894   2.694  17.697 -0.2071  3.5559 -0.7207
 6635SOL    HW231539   3.809   2.583  17.655 -1.1216 -0.5488 -0.7106
 6636SOL     OW31540   2.802   2.609  10.455  0.0414 -0.3316 -0.4657
 6636SOL    HW131541   2.887   2.614  10.499 -0.0475  0.5689 -0.3998
 6636SOL    HW231542   2.821   2.675  10.388  1.7020 -0.3369 -0.0097
 6637SOL     OW31543   0.631   1.262   4.895  0.5624  0.2750  0.1297
 6637SOL    HW131544   0.717   1.232   4.925  0.8468  0.9526 -0.0114
 6637SOL    HW231545   0.579   1.208   4.954  0.4155  1.2887  0.9301
 6638SOL     OW31546   0.719   2.978   4.422  0.1050 -0.1031 -0.5685
 6638SOL    HW131547   0.720   3.030   4.341 -0.4735 -0.9137 -1.1006
 6638SOL    HW231548   0.720   3.048   4.488 -1.0186 -0.0091 -0.6454
 6639SOL     OW31549   1.306   3.546   0.824  0.0651  0.4968  0.3617
 6639SOL    HW131550   1.316   3.626   0.876  0.1800 -0.8405  2.4157
 6639SOL    HW231551   1.228   3.561   0.771  0.5410  0.4790 -0.3433
 6640SOL     OW31552   4.472   3.693   2.234  0.3043  0.1971  0.1910
 6640SOL    HW131553   4.506   3.782   2.246  1.6700  0.0615 -2.5801
 6640SOL    HW231554   4.534   3.645   2.179 -0.0041  0.1168 -0.0841
 6641SOL     OW31555   2.799   2.173   1.433  0.6420 -0.4935 -0.5086
 6641SOL    HW131556   2.794   2.082   1.461  1.7161 -0.6661 -0.8535
 6641SOL    HW231557   2.771   2.223   1.509 -1.7162 -1.9067 -0.4799
 6642SOL     OW31558   0.233   1.487   7.879  0.2934  0.2632 -0.3087
 6642SOL    HW131559   0.293   1.491   7.952 -2.3083 -1.2131  1.9257
 6642SOL    HW231560   0.235   1.398   7.843 -1.7588  0.1695 -0.2411
 6643SOL     OW31561   4.455   1.620   3.913  0.1151  0.0480 -0.2969
 6643SOL    HW131562   4.375   1.637   3.963  0.6059  0.0242  0.4964
 6643SOL    HW231563   4.497   1.554   3.968  0.3380 -0.9477 -1.6457
 6644SOL     OW31564   1.377   1.508  17.668  0.7328  0.0770 -0.1378
 6644SOL    HW131565   1.376   1.482   0.010 -0.6765 -0.3009 -0.2491
 6644SOL    HW231566   1.321   1.586  17.665  0.0986 -0.4239 -1.1920
 6645SOL     OW31567   2.486   4.325  14.737  0.1330  0.7821  0.2808
 6645SOL    HW131568   2.501   4.243  14.782 -1.3230  1.1129  1.3639
 6645SOL    HW231569   2.533   4.390  14.790  1.2735  0.9893 -0.9800
 6646SOL     OW31570   1.777   1.551   8.092  0.1753  0.2704  0.4473
 6646SOL    HW131571   1.782   1.547   8.187  0.0862 -1.3599  0.3913
 6646SOL    HW231572   1.862   1.510   8.075 -1.2046 -2.2205 -0.4052
 6647SOL     OW31573   3.747   0.973   4.974  0.3166 -0.6563 -0.0822
 6647SOL    HW131574   3.669   1.011   5.013  0.5804 -1.3831  1.1486
 6647SOL    HW231575   3.804   1.023   5.034  1.0971 -1.8704  0.1914
 6648SOL     OW31576   2.365   1.702   2.708 -0.3084  0.7432 -0.9258
 6648SOL    HW131577   2.447   1.749   2.694 -0.7745  2.0236  0.6785
 6648SOL    HW231578   2.319   1.761   2.768  2.6841  0.3033  1.7936
 6649SOL     OW31579   1.929   2.069   4.652  0.6826  0.0773 -0.3024
 6649SOL    HW131580   1.878   2.020   4.716  1.5827 -0.6624 -0.1489
 6649SOL    HW231581   2.005   2.012   4.641 -0.0451 -0.9128 -0.1492
 6650SOL     OW31582   3.190   2.828  14.072 -0.1266  0.5252  0.4107
 6650SOL    HW131583   3.185   2.755  14.011  1.0135 -0.8431  1.9537
 6650SOL    HW231584   3.108   2.876  14.058 -0.3631 -0.3083 -1.0836
 6651SOL     OW31585   4.475   2.887  14.452 -0.1208  0.1904 -0.2918
 6651SOL    HW131586   4.498   2.807  14.404  1.7155 -0.1385  1.1656
 6651SOL    HW231587   4.546   2.946  14.426 -2.3029  2.4932 -1.0824
 6652SOL     OW31588   3.870   1.585   6.640  0.0868  0.0050 -0.0261
 6652SOL    HW131589   3.837   1.528   6.570  0.2733 -1.3640  1.0059
 6652SOL    HW231590   3.821   1.549   6.714  1.0438  1.9769  1.5546
 6653SOL     OW31591   2.422   2.313  12.477 -0.0542 -0.5744  0.0879
 6653SOL    HW131592   2.499   2.329  12.423 -0.4132 -0.3238 -0.3444
 6653SOL    HW231593   2.461   2.317  12.564  0.4379  0.8392 -0.2051
 6654SOL     OW31594   3.061   3.918   1.030  0.2693 -0.7788  0.2019
 6654SOL    HW131595   3.022   3.983   1.088  0.9459 -2.2356  2.3019
 6654SOL    HW231596   3.136   3.972   1.004  0.9732 -1.8836 -0.0632
 6655SOL     OW31597   2.915   3.004   7.941  0.4354 -0.0847  0.1522
 6655SOL    HW131598   2.828   2.968   7.929  0.3137  0.5612 -0.9512
 6655SOL    HW231599   2.943   3.033   7.854  1.5892  2.4819  1.3713
 6656SOL     OW31600   3.941   4.226  11.706 -0.3838 -0.3932  0.0529
 6656SOL    HW131601   3.933   4.321  11.696 -0.6871 -0.2715  1.4622
 6656SOL    HW231602   4.034   4.207  11.708 -0.1001  0.8315 -1.1882
 6657SOL     OW31603   4.738   2.103   9.206  0.1071 -0.1276  0.4433
 6657SOL    HW131604   0.045   2.179   9.170 -0.8202  0.9981  1.6688
 6657SOL    HW231605   0.017   2.115   9.299  2.4196  0.2600 -0.0407
 6658SOL     OW31606   0.970   2.511   8.445  0.0855  0.3945  0.1397
 6658SOL    HW131607   0.967   2.594   8.493  1.3636  1.6394 -1.9552
 6658SOL    HW231608   0.897   2.521   8.383  1.7534 -0.9606 -2.0295
 6659SOL     OW31609   3.845   1.392   5.248 -0.2530 -0.4092  1.1296
 6659SOL    HW131610   3.823   1.452   5.320 -0.2220  2.8401 -1.5388
 6659SOL    HW231611   3.939   1.409   5.252  0.2296 -2.8559 -0.3975
 6660SOL     OW31612   1.839   0.397   7.734 -0.4945 -0.0525  0.3283
 6660SOL    HW131613   1.834   0.307   7.766 -0.0187 -0.2483 -0.1463
 6660SOL    HW231614   1.927   0.416   7.767 -0.6172  0.0744  0.5794
 6661SOL     OW31615   2.495   0.347  13.093  0.1623 -0.0484  0.0232
 6661SOL    HW131616   2.453   0.287  13.032  0.3187  1.7486 -1.8257
 6661SOL    HW231617   2.440   0.425  13.097 -0.9504 -0.8147 -0.2984
 6662SOL     OW31618   1.048   3.790   2.585 -0.6462 -0.2115  0.1968
 6662SOL    HW131619   1.127   3.834   2.617 -0.0214 -1.3779  0.2774
 6662SOL    HW231620   0.980   3.854   2.606  0.6083  0.7686  1.2803
 6663SOL     OW31621   2.079   0.496   7.828  0.0278 -0.1340 -0.1978
 6663SOL    HW131622   2.119   0.579   7.856 -0.3194 -0.0026 -0.0851
 6663SOL    HW231623   2.066   0.456   7.914  0.7844  1.5601  0.7147
 6664SOL     OW31624   2.703   2.171   8.883 -0.2379 -0.1394 -0.4226
 6664SOL    HW131625   2.643   2.246   8.878  0.0278  0.0863 -0.2368
 6664SOL    HW231626   2.760   2.195   8.811 -0.0003 -2.5177 -1.0225
 6665SOL     OW31627   4.253   4.366   8.270 -0.4390  0.0188  0.6256
 6665SOL    HW131628   4.270   4.413   8.352  1.9462  3.9694 -2.1694
 6665SOL    HW231629   4.257   4.273   8.293 -3.3266 -0.3602 -0.4595
 6666SOL     OW31630   3.096   0.207   4.165  0.3522 -0.1328 -0.1841
 6666SOL    HW131631   3.028   0.154   4.123 -0.7812  0.2182  1.2151
 6666SOL    HW231632   3.161   0.139   4.182  0.3652 -0.1920 -0.4673
 6667SOL     OW31633   0.257   0.160  12.505  0.2034 -0.0027  0.5038
 6667SOL    HW131634   0.220   0.242  12.537 -0.3568  0.3396 -1.0561
 6667SOL    HW231635   0.205   0.097  12.556 -1.7156  1.3911  0.2413
 6668SOL     OW31636   1.179   3.882  12.347 -0.3218  0.2601 -0.6705
 6668SOL    HW131637   1.166   3.856  12.438  0.8168  1.0962 -0.2776
 6668SOL    HW231638   1.135   3.967  12.348 -0.3302  0.2644 -1.3694
 6669SOL     OW31639   0.882   2.747   2.151 -0.1587 -0.5308 -0.1139
 6669SOL    HW131640   0.923   2.662   2.165  0.2077 -0.5677 -1.4134
 6669SOL    HW231641   0.902   2.763   2.059 -0.9426  0.9554 -0.0243
 6670SOL     OW31642   0.855   2.095   6.589  1.1063  0.3754  0.2316
 6670SOL    HW131643   0.793   2.086   6.660  1.8443 -0.0090  0.8276
 6670SOL    HW231644   0.792   2.101   6.517  1.7216  0.1099 -0.3388
 6671SOL     OW31645   2.864   0.091  13.330 -0.5051  0.2300 -0.9137
 6671SOL    HW131646   2.788   0.105  13.273 -2.3318  0.8489  1.6394
 6671SOL    HW231647   2.933   0.083  13.264  0.5925  2.0856  0.0138
 6672SOL     OW31648   2.030   1.430   4.867  0.1039 -0.2094 -0.8099
 6672SOL    HW131649   2.112   1.390   4.840  1.5791  0.2552  3.0966
 6672SOL    HW231650   2.063   1.494   4.930  0.2712  0.4570 -1.5756
 6673SOL     OW31651   2.512   2.034   3.270 -0.0654 -0.8578  0.8822
 6673SOL    HW131652   2.473   2.047   3.183  0.5761 -0.0519  0.7085
 6673SOL    HW231653   2.598   2.000   3.245 -0.6616 -2.4647  1.0457
 6674SOL     OW31654   2.729   3.885   2.954  0.1933  0.6002  0.7951
 6674SOL    HW131655   2.725   3.964   3.007 -2.2322 -0.2801  1.9271
 6674SOL    HW231656   2.804   3.842   2.996  0.2485  1.5397  1.6548
 6675SOL     OW31657   4.530   2.657   2.982  0.1638 -0.2796 -0.5207
 6675SOL    HW131658   4.593   2.724   3.008  0.1623 -0.8953  1.0338
 6675SOL    HW231659   4.576   2.605   2.915  1.3541 -3.0184  2.4315
 6676SOL     OW31660   1.004   1.583  12.861 -0.5346 -0.2717 -0.6062
 6676SOL    HW131661   0.910   1.570  12.848 -0.8407  1.5703 -0.3568
 6676SOL    HW231662   1.001   1.669  12.904 -4.8980 -0.6977 -0.0582
 6677SOL     OW31663   2.096   3.560  15.760 -0.0753 -0.2035  0.3295
 6677SOL    HW131664   2.030   3.616  15.800 -1.4787 -0.6342 -1.3790
 6677SOL    HW231665   2.126   3.517  15.840 -0.7919 -0.6223  0.3640
 6678SOL     OW31666   1.841   4.185   6.463  0.2350 -0.2317  0.5156
 6678SOL    HW131667   1.903   4.151   6.399 -0.7565 -1.1443  0.0489
 6678SOL    HW231668   1.763   4.132   6.448 -0.7814  1.6314 -0.8370
 6679SOL     OW31669   2.326   2.135  11.820 -0.1751 -0.8188 -0.4210
 6679SOL    HW131670   2.408   2.185  11.827  0.1355 -1.4836  0.6220
 6679SOL    HW231671   2.352   2.053  11.862 -1.2860 -0.1095  1.6750
 6680SOL     OW31672   4.058   2.087   5.928  0.2000  0.0467  0.0657
 6680SOL    HW131673   4.027   2.171   5.962  1.0823  1.2332 -2.0672
 6680SOL    HW231674   4.014   2.018   5.979  0.9153 -1.2845 -1.1151
 6681SOL     OW31675   3.253   3.896  10.496 -0.0969  0.2046  0.0304
 6681SOL    HW131676   3.260   3.979  10.450  2.0847 -0.9509 -1.6915
 6681SOL    HW231677   3.162   3.903  10.526  0.2023 -0.7995  1.2147
 6682SOL     OW31678   3.189   2.444   6.922 -0.8964  0.1739  0.0908
 6682SOL    HW131679   3.203   2.465   6.829  2.4033 -1.8362  0.1214
 6682SOL    HW231680   3.276   2.423   6.955 -0.4170  0.0966 -1.2109
 6683SOL     OW31681   2.277   3.409   9.869  0.3922 -0.3664  0.0743
 6683SOL    HW131682   2.355   3.459   9.845 -0.3691  0.5019 -0.5784
 6683SOL    HW231683   2.230   3.469   9.927 -0.4758 -0.8495 -0.1304
 6684SOL     OW31684   4.230   0.694   5.582  0.0851 -0.6051 -0.0353
 6684SOL    HW131685   4.256   0.718   5.493  1.7037  1.3361  0.9475
 6684SOL    HW231686   4.291   0.625   5.608  1.3916 -0.4095 -2.5902
 6685SOL     OW31687   4.152   4.248  12.864 -0.5169  0.4533  0.2304
 6685SOL    HW131688   4.149   4.160  12.900 -0.4500  0.6036  0.6022
 6685SOL    HW231689   4.246   4.267  12.861 -0.5859  0.7267 -0.1513
 6686SOL     OW31690   3.826   1.660   9.249 -0.3630  0.5939 -0.2892
 6686SOL    HW131691   3.811   1.741   9.201  1.3091  0.3164 -1.2747
 6686SOL    HW231692   3.760   1.679   9.316  1.9857 -1.9594  2.7566
 6687SOL     OW31693   4.068   1.136   4.693 -0.0037 -0.3201 -0.1353
 6687SOL    HW131694   4.134   1.134   4.763 -1.5859  1.8794  1.3919
 6687SOL    HW231695   4.031   1.224   4.691  0.4055 -0.1593 -0.6436
 6688SOL     OW31696   1.495   3.207  12.997  0.2034 -0.0951  0.0462
 6688SOL    HW131697   1.481   3.298  13.024 -1.0236 -0.0907 -0.6078
 6688SOL    HW231698   1.417   3.167  13.034  0.7571  0.6353  2.0135
 6689SOL     OW31699   3.001   1.097  10.449 -0.2431  0.7006 -0.1665
 6689SOL    HW131700   3.026   1.188  10.461 -2.6625  1.4122 -0.3806
 6689SOL    HW231701   2.933   1.088  10.516 -0.3917 -0.5751 -0.4814
 6690SOL     OW31702   2.724   2.433   4.018  0.4717  0.1954  0.4287
 6690SOL    HW131703   2.630   2.441   4.000  0.5352  0.5991  0.2693
 6690SOL    HW231704   2.710   2.415   4.111 -3.1978  1.4584  0.1276
 6691SOL     OW31705   2.400   3.178   2.596  0.3127 -0.4063  0.2273
 6691SOL    HW131706   2.370   3.182   2.505  4.3643 -2.3762 -1.2089
 6691SOL    HW231707   2.494   3.161   2.585  0.7110  3.3248 -2.1930
 6692SOL     OW31708   3.507   3.789   7.958  0.5297 -0.0763  0.3358
 6692SOL    HW131709   3.562   3.767   7.883  1.1217  2.4580  0.0270
 6692SOL    HW231710   3.509   3.713   8.015 -1.8088 -0.1619  0.3326
 6693SOL     OW31711   2.709   2.514  12.431  0.6266  0.1861  0.2720
 6693SOL    HW131712   2.800   2.501  12.459  0.6747 -2.9705 -1.3205
 6693SOL    HW231713   2.661   2.544  12.508  2.8792  0.9707  1.3796
 6694SOL     OW31714   2.338   1.115   8.090 -0.0772 -0.7359  0.1443
 6694SOL    HW131715   2.356   1.196   8.043 -1.3531  0.1811  1.2195
 6694SOL    HW231716   2.423   1.070   8.099 -0.1646 -0.6899  1.3111
 6695SOL     OW31717   3.940   2.265   3.979 -0.1149  0.2939  0.2858
 6695SOL    HW131718   3.971   2.249   4.068 -2.9643 -0.8592  1.0776
 6695SOL    HW231719   4.001   2.331   3.946  1.7180 -2.2767 -1.4705
 6696SOL     OW31720   3.868   2.118  15.387  0.0952  0.2747 -0.3770
 6696SOL    HW131721   3.878   2.051  15.319  0.1836  1.7824 -1.8390
 6696SOL    HW231722   3.887   2.195  15.334  0.7870  0.6624  0.4457
 6697SOL     OW31723   1.062   3.143   3.813 -0.5534  0.4097 -0.6881
 6697SOL    HW131724   1.110   3.061   3.803 -1.1963 -0.1492  0.7604
 6697SOL    HW231725   1.089   3.194   3.737 -1.3543 -0.5658 -1.6221
 6698SOL     OW31726   2.465   4.456   8.923 -0.1327  0.0889 -0.7780
 6698SOL    HW131727   2.438   4.547   8.914 -1.3925  0.1147  3.2806
 6698SOL    HW231728   2.554   4.451   8.887  0.1557 -0.6777  0.0429
 6699SOL     OW31729   0.765   1.230   5.791 -0.1172  0.4957 -0.0364
 6699SOL    HW131730   0.833   1.249   5.855 -0.1064 -0.0928  0.1216
 6699SOL    HW231731   0.778   1.140   5.760  0.9922  1.1549 -1.4634
 6700SOL     OW31732   3.160   0.699   7.428  0.1847 -0.3210  0.0021
 6700SOL    HW131733   3.142   0.693   7.522  2.6154  0.7141  0.5341
 6700SOL    HW231734   3.251   0.729   7.426  0.2061 -0.5748 -2.5994
 6701SOL     OW31735   0.927   4.714   2.962 -0.0938 -0.2669  0.1855
 6701SOL    HW131736   0.884   0.049   2.918 -0.1707 -0.2849  0.2295
 6701SOL    HW231737   0.959   0.034   3.030  1.1330 -1.9256  1.0166
 6702SOL     OW31738   3.189   3.348   2.709  0.8004  0.8051 -0.0961
 6702SOL    HW131739   3.151   3.387   2.788  1.5068  1.5355 -0.1204
 6702SOL    HW231740   3.253   3.415   2.685 -0.4510  2.0545  0.1158
 6703SOL     OW31741   0.932   4.209  13.243  0.0698 -0.1000  0.4372
 6703SOL    HW131742   0.999   4.262  13.201  1.1921 -2.6859 -1.0350
 6703SOL    HW231743   0.929   4.133  13.184  0.0685 -0.7398  1.2534
 6704SOL     OW31744   4.264   3.123  17.735  0.2332 -0.4200  0.0032
 6704SOL    HW131745   4.232   3.099  17.648  0.1308  0.1224 -0.1127
 6704SOL    HW231746   4.220   3.054   0.034  2.1152 -1.1899  0.5910
 6705SOL     OW31747   1.230   0.630  15.542 -0.2211  0.0539 -0.0590
 6705SOL    HW131748   1.264   0.679  15.617 -0.8289 -1.5296  1.2459
 6705SOL    HW231749   1.154   0.676  15.505  0.2628  0.8296 -0.0967
 6706SOL     OW31750   4.014   1.014   5.401  0.1489 -0.1673  0.0902
 6706SOL    HW131751   3.993   0.968   5.483 -0.8310 -0.0007 -0.0626
 6706SOL    HW231752   4.106   0.989   5.397 -0.2737 -1.8162  0.6343
 6707SOL     OW31753   1.564   0.759  17.595 -0.7427  0.4940 -0.1249
 6707SOL    HW131754   1.532   0.808  17.670  1.2506  0.7580  0.5570
 6707SOL    HW231755   1.599   0.675  17.626 -0.4974  0.5396 -0.2793
 6708SOL     OW31756   4.323   0.145  13.511  0.2078  0.3026 -0.3162
 6708SOL    HW131757   4.248   0.158  13.453 -1.3598 -1.0522  1.4158
 6708SOL    HW231758   4.326   0.050  13.510  0.8753  0.3527 -1.9428
 6709SOL     OW31759   4.527   2.682   0.394 -0.2307 -0.0704  0.8492
 6709SOL    HW131760   4.498   2.757   0.446  0.7180  0.5261  0.5182
 6709SOL    HW231761   4.622   2.698   0.392 -0.1990 -0.4101 -1.0923
 6710SOL     OW31762   0.430   4.640   2.097  0.0834 -0.2381  0.3770
 6710SOL    HW131763   0.415   4.550   2.067 -1.4162 -0.7394  2.6101
 6710SOL    HW231764   0.520   4.632   2.128  0.1092  1.8815  0.7880
 6711SOL     OW31765   0.562   0.664   3.628  0.1703  0.3871 -0.0748
 6711SOL    HW131766   0.585   0.651   3.720 -2.3743 -2.2921  0.1967
 6711SOL    HW231767   0.514   0.583   3.612  1.1693 -0.3430  0.6358
 6712SOL     OW31768   0.265   4.027   8.401  0.2607 -0.0550 -0.5100
 6712SOL    HW131769   0.267   4.120   8.424  0.5211  0.1682 -1.4239
 6712SOL    HW231770   0.177   4.005   8.432  0.4397 -1.3460 -0.9253
 6713SOL     OW31771   1.074   0.381   1.850  0.4052  0.3102 -0.2961
 6713SOL    HW131772   1.055   0.306   1.794  0.9737  0.8547 -1.2231
 6713SOL    HW231773   1.144   0.340   1.902 -0.9315  1.1047  2.1258
 6714SOL     OW31774   2.329   0.420   1.979  0.0670  0.8308 -0.4802
 6714SOL    HW131775   2.367   0.426   1.891  1.4827  0.9521  0.1312
 6714SOL    HW231776   2.236   0.431   1.961  0.0448  2.0149  0.4271
 6715SOL     OW31777   4.641   2.601   8.696 -0.2366  0.3230 -0.4341
 6715SOL    HW131778   4.642   2.554   8.613 -0.8164 -0.9509  0.2799
 6715SOL    HW231779   4.585   2.545   8.750 -0.3526  1.2613  0.4306
 6716SOL     OW31780   0.756   2.961  16.592 -0.3962 -0.0090  0.2741
 6716SOL    HW131781   0.717   3.015  16.661 -1.0238 -2.2662  1.6729
 6716SOL    HW231782   0.707   2.996  16.517  1.6167 -0.4617 -1.2510
 6717SOL     OW31783   0.101   0.457  17.690  0.4565 -0.5071  0.4183
 6717SOL    HW131784   0.147   0.533  17.655  0.3218 -0.6446 -0.0624
 6717SOL    HW231785   0.174   0.395  17.691 -1.3185 -2.6369 -1.5112
 6718SOL     OW31786   1.568   0.301  14.862 -0.1010 -0.1341 -0.1400
 6718SOL    HW131787   1.568   0.392  14.833  1.5266 -0.9021 -2.4777
 6718SOL    HW231788   1.537   0.250  14.787 -1.8419 -0.4094  0.7469
 6719SOL     OW31789   0.746   1.151   2.802  0.0161 -0.1071 -0.1732
 6719SOL    HW131790   0.652   1.166   2.813 -0.2037 -0.5488 -1.4538
 6719SOL    HW231791   0.741   1.080   2.738  0.8007 -0.1476 -0.1871
 6720SOL     OW31792   1.075   3.692  11.485 -0.2649  0.0525  0.2993
 6720SOL    HW131793   1.097   3.704  11.577 -0.9504  0.2262  0.4367
 6720SOL    HW231794   0.993   3.644  11.497 -0.1265 -0.3155 -0.2059
 6721SOL     OW31795   4.440   3.899   4.689  0.1739 -0.3645 -0.2214
 6721SOL    HW131796   4.483   3.852   4.618 -0.9159 -0.6576 -0.6880
 6721SOL    HW231797   4.392   3.826   4.728  3.3529 -1.4807  1.5985
 6722SOL     OW31798   2.089   1.929   7.950 -0.7397 -0.7144  0.4487
 6722SOL    HW131799   2.158   1.934   8.015 -1.0841 -0.3154  0.7830
 6722SOL    HW231800   2.019   1.885   7.998 -0.8441 -0.6417  0.3625
 6723SOL     OW31801   3.396   2.330   1.845  0.3474 -0.4931 -0.1345
 6723SOL    HW131802   3.460   2.267   1.812 -1.3377 -1.3086 -1.8747
 6723SOL    HW231803   3.313   2.284   1.846 -1.8024  3.3081 -1.2276
 6724SOL     OW31804   0.644   0.942   5.711 -0.1966 -0.3555 -0.5857
 6724SOL    HW131805   0.655   0.861   5.761 -0.0575 -1.2515 -2.0432
 6724SOL    HW231806   0.567   0.923   5.657 -0.8981  0.5045  0.1080
 6725SOL     OW31807   4.728   3.908  16.178  0.0440  0.0802  0.0603
 6725SOL    HW131808   4.661   3.923  16.110 -1.1957  0.4948  1.3668
 6725SOL    HW231809   0.021   3.997  16.196 -1.1341  0.1849  1.6615
 6726SOL     OW31810   4.228   1.326   8.005 -0.1887 -0.2899  0.0340
 6726SOL    HW131811   4.151   1.327   8.063 -0.1688  0.9827  0.0560
 6726SOL    HW231812   4.219   1.237   7.972  3.0074  0.2207 -2.1351
 6727SOL     OW31813   0.619   1.178   6.758 -0.6864  0.3087 -0.0698
 6727SOL    HW131814   0.628   1.114   6.829 -0.7496  0.2931 -0.0755
 6727SOL    HW231815   0.602   1.265   6.793  0.9257 -0.0072  1.4404
 6728SOL     OW31816   4.215   0.106   2.590  0.4006 -0.1230 -0.3903
 6728SOL    HW131817   4.198   0.200   2.578  0.5864  0.2346  2.2458
 6728SOL    HW231818   4.294   0.111   2.535  1.1651  1.8254  0.9057
 6729SOL     OW31819   2.288   1.998  17.578 -0.1434  0.2123 -0.2315
 6729SOL    HW131820   2.343   1.941  17.524 -2.7013 -0.8041 -1.7843
 6729SOL    HW231821   2.301   1.956  17.663  1.4047 -0.2296 -0.6871
 6730SOL     OW31822   4.700   3.384   7.474  0.7175 -0.2287 -0.1023
 6730SOL    HW131823   4.613   3.405   7.440  1.1123 -0.4699 -1.2477
 6730SOL    HW231824   4.725   3.473   7.499  1.1413 -0.1429 -0.8427
 6731SOL     OW31825   1.509   2.680   5.899  0.1265  0.0453 -0.2406
 6731SOL    HW131826   1.417   2.691   5.876  0.0786 -0.7447 -0.4468
 6731SOL    HW231827   1.538   2.632   5.822  0.5222  0.5193 -0.3856
 6732SOL     OW31828   1.995   2.843   6.212  0.1889  0.6408  0.3988
 6732SOL    HW131829   1.994   2.864   6.119  3.3209 -2.6102 -0.3601
 6732SOL    HW231830   1.939   2.764   6.212 -1.3141  1.6984  0.4564
 6733SOL     OW31831   2.099   2.660  14.717  0.0726  0.1932  0.4203
 6733SOL    HW131832   2.174   2.644  14.774  0.4535  0.0636 -0.1149
 6733SOL    HW231833   2.029   2.619  14.768 -0.0907  0.6459  0.5586
 6734SOL     OW31834   0.789   0.357   3.996  0.1071  0.1115 -0.1634
 6734SOL    HW131835   0.845   0.285   3.966  2.0978  1.5932  0.0716
 6734SOL    HW231836   0.824   0.365   4.085 -0.2262  0.6699 -0.0847
 6735SOL     OW31837   0.653   4.358  14.363  0.1290  0.1609 -0.1324
 6735SOL    HW131838   0.659   4.421  14.434 -1.7629  0.9683 -0.7012
 6735SOL    HW231839   0.633   4.418  14.292  1.5288  1.9239  0.9810
 6736SOL     OW31840   1.343   4.636   3.739 -0.0721 -0.0247  0.0367
 6736SOL    HW131841   1.392   4.670   3.814 -0.3637 -0.7160  0.5450
 6736SOL    HW231842   1.346   4.540   3.747  0.5377 -0.0844 -0.9790
 6737SOL     OW31843   4.112   1.033  15.362 -0.3733  0.0969  0.2337
 6737SOL    HW131844   4.083   0.965  15.302  0.1406 -1.6942  1.9998
 6737SOL    HW231845   4.107   1.109  15.304  0.4300 -0.0644 -0.0434
 6738SOL     OW31846   3.026   3.096   3.312 -0.2647  0.1185  0.1311
 6738SOL    HW131847   3.121   3.085   3.312 -0.2940 -0.0573 -1.1505
 6738SOL    HW231848   3.012   3.086   3.406 -1.9815  0.5037 -0.0701
 6739SOL     OW31849   2.237   2.584   4.053 -0.0616 -0.1657 -0.0195
 6739SOL    HW131850   2.196   2.498   4.064  0.9473 -0.7937 -1.2395
 6739SOL    HW231851   2.217   2.627   4.137  0.2021 -1.1913  0.5723
 6740SOL     OW31852   0.453   1.658   4.105 -0.2740 -0.0896 -0.1315
 6740SOL    HW131853   0.398   1.682   4.179  2.2455  0.0476  1.7025
 6740SOL    HW231854   0.449   1.562   4.106  1.0502 -0.1145  1.7407
 6741SOL     OW31855   2.488   2.971  13.794 -0.1341  0.3000 -0.3030
 6741SOL    HW131856   2.430   3.040  13.827  1.4562  1.4604  0.0283
 6741SOL    HW231857   2.460   2.896  13.848 -1.7076  0.7669 -0.4524
 6742SOL     OW31858   2.628   0.136   8.893 -0.6419 -0.0028 -0.3351
 6742SOL    HW131859   2.647   0.213   8.947  0.0550  1.7690 -3.1142
 6742SOL    HW231860   2.709   0.114   8.849 -1.5888  0.5865 -2.3817
 6743SOL     OW31861   2.429   0.698  15.513 -0.1978 -0.0178 -0.3095
 6743SOL    HW131862   2.491   0.666  15.448  1.5112  0.6803  0.9938
 6743SOL    HW231863   2.355   0.644  15.483 -1.1722  1.0106  0.2306
 6744SOL     OW31864   0.402   2.859  16.765  0.4397  0.3920 -0.4938
 6744SOL    HW131865   0.318   2.884  16.727 -0.4424 -3.6531 -1.1769
 6744SOL    HW231866   0.375   2.792  16.827  1.2413  1.5990  1.1535
 6745SOL     OW31867   2.105   4.388   8.773  0.1477  0.2175  0.0213
 6745SOL    HW131868   2.059   4.438   8.841  0.6447  0.5914  0.0848
 6745SOL    HW231869   2.147   4.463   8.731 -1.8878  0.1873 -2.0567
 6746SOL     OW31870   3.583   2.485   0.183 -0.4168  0.3563 -0.6030
 6746SOL    HW131871   3.655   2.437   0.224 -1.3542  0.5282  1.2424
 6746SOL    HW231872   3.511   2.433   0.218 -1.1767  0.3454 -2.2082
 6747SOL     OW31873   2.403   4.285   0.760 -0.8204  0.1638 -0.3864
 6747SOL    HW131874   2.465   4.298   0.688 -0.9287 -1.8740 -0.8343
 6747SOL    HW231875   2.425   4.198   0.794 -1.5117 -0.2034 -0.8694
 6748SOL     OW31876   0.824   0.096   4.970 -0.2125  0.2752  0.0083
 6748SOL    HW131877   0.816   0.145   4.888 -2.7218 -0.1317  0.0066
 6748SOL    HW231878   0.780   0.152   5.033 -2.6224 -1.6474  0.0352
 6749SOL     OW31879   2.074   3.027   4.052  0.3908 -0.0383 -0.1791
 6749SOL    HW131880   1.987   3.064   4.065  0.9658  1.0414  0.5026
 6749SOL    HW231881   2.123   3.071   4.121  2.7748  0.3351 -2.1338
 6750SOL     OW31882   0.002   3.595  11.791  0.2929 -0.2803  0.8802
 6750SOL    HW131883   0.037   3.625  11.707  0.9267 -0.3338  1.1252
 6750SOL    HW231884   0.079   3.553  11.830 -0.1210 -2.5010 -0.7400
 6751SOL     OW31885   2.943   4.125  13.861 -0.9030 -0.4619 -0.0120
 6751SOL    HW131886   2.866   4.177  13.840 -0.1688  0.5645 -0.1631
 6751SOL    HW231887   2.900   4.040  13.860 -2.1817  0.1750  0.7292
 6752SOL     OW31888   3.161   2.123   3.431 -0.0587  0.1774  0.6444
 6752SOL    HW131889   3.101   2.166   3.493 -0.5953  0.5575 -0.1311
 6752SOL    HW231890   3.113   2.124   3.348 -0.2356  0.0680  0.7444
 6753SOL     OW31891   0.690   0.820   5.360 -0.2860 -0.1981  0.4173
 6753SOL    HW131892   0.633   0.893   5.336  0.3900 -0.2210 -1.2905
 6753SOL    HW231893   0.624   0.757   5.388  0.2203 -0.2439  1.5196
 6754SOL     OW31894   4.533   0.249   5.461  0.6360  0.0378  0.2915
 6754SOL    HW131895   4.527   0.314   5.392 -2.0919 -0.6794 -0.1650
 6754SOL    HW231896   4.521   0.167   5.413  1.3033  0.5056 -0.6761
 6755SOL     OW31897   3.177   3.530   5.749  0.7096 -0.4418  0.0504
 6755SOL    HW131898   3.225   3.469   5.693  0.4918  0.7011 -1.3829
 6755SOL    HW231899   3.124   3.573   5.681 -1.6241  0.5059  2.4764
 6756SOL     OW31900   0.183   0.972   1.648 -0.5450  0.0801 -0.1937
 6756SOL    HW131901   0.131   0.922   1.585  0.8420  1.5557 -2.4615
 6756SOL    HW231902   0.154   0.941   1.735  1.3198  1.1901  0.8164
 6757SOL     OW31903   3.384   0.167  17.201 -0.0340  0.2645 -0.1121
 6757SOL    HW131904   3.318   0.225  17.241 -0.0145  0.3847 -0.2543
 6757SOL    HW231905   3.370   0.201  17.113  2.1672 -0.8843 -0.9019
 6758SOL     OW31906   4.561   4.202  12.727  0.2413  0.3886  0.6802
 6758SOL    HW131907   4.619   4.193  12.652  0.4478  0.7493  0.7967
 6758SOL    HW231908   4.487   4.236  12.675  0.8558  0.2110 -0.3131
 6759SOL     OW31909   3.021   2.491   4.342 -0.1594 -0.7974 -0.2619
 6759SOL    HW131910   3.022   2.410   4.393 -0.7492 -1.5441 -1.4177
 6759SOL    HW231911   3.099   2.478   4.288  0.1363  0.9454 -0.2433
 6760SOL     OW31912   3.202   2.139  13.826 -0.2201  0.8317  0.7163
 6760SOL    HW131913   3.247   2.209  13.780 -1.1253 -0.8198 -2.6839
 6760SOL    HW231914   3.263   2.066  13.836 -1.2159 -0.2116 -0.9055
 6761SOL     OW31915   4.607   3.351   8.519  0.0736 -0.5178  0.2174
 6761SOL    HW131916   4.639   3.264   8.544 -0.8709 -1.4527 -1.7548
 6761SOL    HW231917   4.685   3.403   8.535  0.4145 -0.5037 -1.4563
 6762SOL     OW31918   3.104   0.064   1.487  0.0690  0.0630 -0.1996
 6762SOL    HW131919   3.141   0.121   1.553  1.9147 -0.6283 -0.6251
 6762SOL    HW231920   3.169   0.060   1.416  1.0239 -1.2064  0.7453
 6763SOL     OW31921   4.251   2.864   4.225  0.2794  0.5654  0.1117
 6763SOL    HW131922   4.332   2.815   4.242  0.5265  0.7751 -0.4752
 6763SOL    HW231923   4.245   2.856   4.130 -1.7786 -1.3421  0.3939
 6764SOL     OW31924   4.265   3.237   3.720  0.0569  0.0878 -0.5971
 6764SOL    HW131925   4.205   3.264   3.650  0.3384 -0.9031 -1.2156
 6764SOL    HW231926   4.328   3.309   3.727  0.6666 -0.3700 -1.5200
 6765SOL     OW31927   1.331   3.821   8.514 -0.4349  0.1298 -0.1906
 6765SOL    HW131928   1.398   3.881   8.481  2.3189 -2.4860  0.6095
 6765SOL    HW231929   1.355   3.738   8.473  0.5932  1.0933 -1.5463
 6766SOL     OW31930   0.165   2.525   7.074  0.2896 -0.1863 -0.0346
 6766SOL    HW131931   0.234   2.561   7.019 -0.0604  0.1184 -0.2807
 6766SOL    HW231932   0.181   2.571   7.156 -3.1823  0.7245  0.1390
 6767SOL     OW31933   0.481   3.027  17.281 -0.8306  0.5890  0.2578
 6767SOL    HW131934   0.492   2.954  17.342  1.1965  1.8809  1.4717
 6767SOL    HW231935   0.457   2.982  17.200  2.4000  1.7373 -1.3528
 6768SOL     OW31936   2.995   0.307  14.397 -0.5855 -0.4710  0.4808
 6768SOL    HW131937   3.007   0.256  14.317  1.0219 -0.5978  0.7885
 6768SOL    HW231938   2.968   0.243  14.463 -1.9385 -0.5379 -0.1525
 6769SOL     OW31939   1.771   1.476   7.580 -0.2728  0.1422 -0.3858
 6769SOL    HW131940   1.716   1.504   7.653 -0.0815 -0.0143 -0.1810
 6769SOL    HW231941   1.831   1.414   7.619  0.8778  0.8254 -1.0671
 6770SOL     OW31942   1.127   0.926   7.001 -0.3043 -0.3124  0.5848
 6770SOL    HW131943   1.146   0.857   7.065 -1.2192 -0.2361  0.9307
 6770SOL    HW231944   1.203   0.934   6.942 -2.5133  0.2968 -2.1809
 6771SOL     OW31945   3.140   1.498   8.331  0.4356  0.6099 -0.2506
 6771SOL    HW131946   3.210   1.460   8.385  0.1433  1.9456  1.0616
 6771SOL    HW231947   3.070   1.497   8.396 -1.2840 -1.3193 -2.1191
 6772SOL     OW31948   3.563   3.883   3.940  0.2658 -0.6306 -0.0997
 6772SOL    HW131949   3.645   3.841   3.914  0.2357 -0.4940 -0.4185
 6772SOL    HW231950   3.508   3.808   3.966 -0.3930 -0.5643 -1.2866
 6773SOL     OW31951   1.349   2.251  16.651 -0.3598 -0.1302  0.8397
 6773SOL    HW131952   1.257   2.258  16.627  0.1369  1.6651 -0.5053
 6773SOL    HW231953   1.362   2.156  16.641 -0.8637  0.1738 -2.6772
 6774SOL     OW31954   1.506   2.703   6.686  0.1100  0.2997 -0.3925
 6774SOL    HW131955   1.561   2.707   6.609 -0.2113  0.6033 -0.6070
 6774SOL    HW231956   1.428   2.657   6.655 -0.3221  1.9119 -1.6785
 6775SOL     OW31957   1.596   0.698  12.552 -0.3476  0.1080 -0.2542
 6775SOL    HW131958   1.599   0.632  12.621 -0.9175  1.1930  0.7977
 6775SOL    HW231959   1.603   0.774  12.609 -0.0872  0.5151 -0.8287
 6776SOL     OW31960   3.768   3.473  14.638 -0.5654  0.1451  0.4921
 6776SOL    HW131961   3.714   3.394  14.639  1.4577 -1.2411  0.8203
 6776SOL    HW231962   3.804   3.468  14.549 -2.5492 -0.2584 -0.2902
 6777SOL     OW31963   1.823   4.243   4.875 -0.3138 -0.4929  0.5366
 6777SOL    HW131964   1.847   4.179   4.809 -0.6436 -0.0977  0.0343
 6777SOL    HW231965   1.731   4.224   4.895 -0.5094  0.4407  0.5619
 6778SOL     OW31966   3.361   2.184   4.550 -0.0300 -0.2142 -0.0207
 6778SOL    HW131967   3.295   2.124   4.515 -0.9065  0.5620  0.3104
 6778SOL    HW231968   3.373   2.159   4.642  1.9248  0.2797 -0.1334
 6779SOL     OW31969   3.370   3.639  12.908 -0.5525 -0.1626  0.4006
 6779SOL    HW131970   3.336   3.551  12.892 -1.6026  0.2332  0.4940
 6779SOL    HW231971   3.397   3.664  12.820 -1.3130  0.5496  0.3746
 6780SOL     OW31972   2.756   4.264   7.524 -0.0221  0.0594 -0.1976
 6780SOL    HW131973   2.819   4.197   7.496 -1.7838 -1.8664  0.4562
 6780SOL    HW231974   2.809   4.340   7.502  0.8911 -0.4957  0.0706
 6781SOL     OW31975   4.617   3.184  14.600 -0.1355  0.2099 -0.6700
 6781SOL    HW131976   4.646   3.134  14.524 -0.2498  0.0423 -0.6018
 6781SOL    HW231977   4.524   3.164  14.593  0.1768 -1.3378 -0.2526
 6782SOL     OW31978   2.364   4.663  10.124 -0.0645  0.1076 -0.3287
 6782SOL    HW131979   2.392   4.685  10.213 -1.2155  0.5524 -0.0766
 6782SOL    HW231980   2.319   4.580  10.139 -0.0629  0.2208  0.3002
 6783SOL     OW31981   3.631   0.739   9.837 -0.0705  0.0125  0.5637
 6783SOL    HW131982   3.613   0.816   9.891 -0.1778 -0.4108  1.1337
 6783SOL    HW231983   3.624   0.671   9.904  2.3498 -0.0004  0.7773
 6784SOL     OW31984   3.749   1.636  11.564 -0.0678 -0.0468 -0.0473
 6784SOL    HW131985   3.657   1.640  11.588  0.0939 -0.8637  0.7061
 6784SOL    HW231986   3.779   1.715  11.609  1.0510  0.9658 -2.5355
 6785SOL     OW31987   4.160   2.882  16.108 -0.3223  0.1389 -0.0189
 6785SOL    HW131988   4.077   2.888  16.061  0.9401 -3.2068 -2.6879
 6785SOL    HW231989   4.187   2.973  16.105  0.9863 -0.2480 -0.0975
 6786SOL     OW31990   1.722   1.769   3.527  0.3091  0.5270  0.1884
 6786SOL    HW131991   1.711   1.679   3.558 -0.0124  0.5807  0.2334
 6786SOL    HW231992   1.700   1.812   3.609  0.5852  0.2977  0.3809
 6787SOL     OW31993   3.291   4.246  14.190 -0.6396  0.2979  0.3929
 6787SOL    HW131994   3.202   4.213  14.204 -0.4459  0.8269  2.9535
 6787SOL    HW231995   3.298   4.243  14.095  1.6758 -2.6847  0.6393
 6788SOL     OW31996   1.785   4.556   1.797 -0.1996  0.1858 -0.1447
 6788SOL    HW131997   1.804   4.620   1.866  0.0567 -1.0417  0.9317
 6788SOL    HW231998   1.732   4.610   1.740 -0.5015 -1.2246 -1.2030
 6789SOL     OW31999   1.513   1.426   6.725 -0.3717 -0.0179  0.4621
 6789SOL    HW132000   1.468   1.368   6.787 -0.0173 -1.4827 -0.6573
 6789SOL    HW232001   1.556   1.490   6.782 -0.3482 -0.5384  1.0380
 6790SOL     OW32002   4.693   3.900   7.758  0.1329  0.6786 -0.2400
 6790SOL    HW132003   4.727   3.815   7.786 -2.5040  0.6082  2.7998
 6790SOL    HW232004   0.017   3.969   7.781 -0.4844  1.1005  0.1654
 6791SOL     OW32005   4.085   4.110   5.401 -0.1327  0.2901  0.6995
 6791SOL    HW132006   4.113   4.038   5.457 -2.3070 -1.2375 -0.1595
 6791SOL    HW232007   4.153   4.113   5.334 -0.4369 -0.2472  0.3630
 6792SOL     OW32008   3.965   3.150   2.972  0.0400  0.1252 -0.2835
 6792SOL    HW132009   4.033   3.196   2.923 -1.0708  0.7257 -1.2495
 6792SOL    HW232010   3.890   3.201   2.940  0.8530  1.4637 -0.0482
 6793SOL     OW32011   0.838   4.212  17.249  0.0387  0.1130  0.2152
 6793SOL    HW132012   0.887   4.285  17.212  0.0441  0.8400  1.6675
 6793SOL    HW232013   0.800   4.172  17.171  2.9348 -0.4845 -0.8909
 6794SOL     OW32014   2.809   0.518   8.466  0.6048 -0.7672 -0.2667
 6794SOL    HW132015   2.775   0.441   8.421 -1.9397  1.9354 -3.0011
 6794SOL    HW232016   2.842   0.462   8.536  1.7987 -4.5822 -3.9230
 6795SOL     OW32017   0.168   1.316  14.025 -0.7814 -0.2316  0.2447
 6795SOL    HW132018   0.150   1.224  14.003 -2.5541  0.3667 -0.7089
 6795SOL    HW232019   0.258   1.289  14.046  0.4365  1.5998 -2.6929
 6796SOL     OW32020   3.602   0.165  12.173 -0.1730 -0.3882  0.5104
 6796SOL    HW132021   3.547   0.141  12.098 -0.6231  1.2609  0.3253
 6796SOL    HW232022   3.693   0.150  12.144  0.0419  0.1510  0.9157
 6797SOL     OW32023   1.126   4.256   3.092 -0.4293 -0.0208  0.1171
 6797SOL    HW132024   1.071   4.327   3.125 -0.9727 -1.9269  3.2803
 6797SOL    HW232025   1.107   4.259   2.998 -1.1106 -0.1262  0.2525
 6798SOL     OW32026   1.908   2.008   8.940 -0.0311 -0.0405  0.7870
 6798SOL    HW132027   1.900   1.971   9.028 -0.7139 -0.8113  0.4080
 6798SOL    HW232028   1.961   2.082   8.965  2.3086 -1.0411 -1.1629
 6799SOL     OW32029   3.327   0.965  16.258 -0.1553  0.0836 -0.2769
 6799SOL    HW132030   3.344   0.876  16.226  0.2107 -0.1789  0.6356
 6799SOL    HW232031   3.275   1.007  16.190 -0.3404  1.5003  0.7415
 6800SOL     OW32032   4.697   4.025   6.127  0.0274 -0.5125  0.8092
 6800SOL    HW132033   4.698   4.109   6.173 -1.1656  0.5129 -1.0525
 6800SOL    HW232034   4.716   4.050   6.036 -0.4769  0.8041  1.0713
 6801SOL     OW32035   3.939   2.134  14.402  0.7861 -0.5376 -0.2560
 6801SOL    HW132036   3.940   2.052  14.352  2.0150 -1.1738  0.8076
 6801SOL    HW232037   3.891   2.098  14.476  0.3481  0.6533  0.0340
 6802SOL     OW32038   2.942   4.549   6.547  0.7999 -0.2346 -0.3406
 6802SOL    HW132039   2.874   4.605   6.509 -0.7595 -1.7854  0.1872
 6802SOL    HW232040   2.918   4.566   6.638  1.1666 -0.2453 -0.2408
 6803SOL     OW32041   1.304   1.574   3.559  0.5436 -0.2564  0.3903
 6803SOL    HW132042   1.305   1.615   3.473 -0.5501 -0.7710  0.1406
 6803SOL    HW232043   1.214   1.592   3.585  0.5400 -1.8685  1.4996
 6804SOL     OW32044   2.450   2.495   0.975 -0.2312  0.4667  0.0780
 6804SOL    HW132045   2.432   2.515   1.067 -0.3372  2.4127 -0.3742
 6804SOL    HW232046   2.438   2.400   0.969 -2.5189  0.7163  0.9051
 6805SOL     OW32047   0.019   3.843   0.862  0.3142 -0.1594  0.4936
 6805SOL    HW132048   4.695   3.802   0.922 -0.2352  2.8095  1.9270
 6805SOL    HW232049   0.035   3.766   0.807 -0.6355 -2.2013  3.0966
 6806SOL     OW32050   1.533   0.451   4.575  0.2897  0.0616 -0.8119
 6806SOL    HW132051   1.614   0.487   4.610  0.5623  0.4573 -1.8578
 6806SOL    HW232052   1.489   0.530   4.542  1.1731 -0.2245 -2.6745
 6807SOL     OW32053   1.666   1.800  12.048 -0.4358 -0.1918 -0.3476
 6807SOL    HW132054   1.754   1.811  12.013 -0.2009  1.3686  0.6930
 6807SOL    HW232055   1.621   1.807  11.964  1.9314  0.7826 -1.5492
 6808SOL     OW32056   2.595   3.113   5.625  0.5703  0.1023  0.1820
 6808SOL    HW132057   2.608   3.125   5.719 -0.8392  2.6656  0.0561
 6808SOL    HW232058   2.520   3.171   5.607 -0.9687 -2.3208 -1.1071
 6809SOL     OW32059   2.931   2.573   6.134  0.7767  0.3124 -0.3105
 6809SOL    HW132060   2.898   2.609   6.217 -0.5662 -0.2024 -0.6219
 6809SOL    HW232061   3.023   2.557   6.157  0.4836  1.4607  1.6805
 6810SOL     OW32062   4.581   1.960   7.644  0.1189  0.4836  0.3427
 6810SOL    HW132063   4.493   1.965   7.680 -0.0012 -2.6493  0.4317
 6810SOL    HW232064   4.561   1.917   7.562 -0.3106  2.0653 -0.3912
 6811SOL     OW32065   4.682   0.020  11.830  0.4874 -0.2098 -0.6320
 6811SOL    HW132066   4.676   4.729  11.921  0.9433  1.1345 -0.1634
 6811SOL    HW232067   0.005   0.092  11.847 -0.6421  0.3330  1.1262
 6812SOL     OW32068   0.525   3.879  17.451  0.3387 -0.1664  0.3536
 6812SOL    HW132069   0.488   3.852  17.367  0.0101 -1.7484  1.0055
 6812SOL    HW232070   0.447   3.882  17.505  0.7124 -1.6151  0.9696
 6813SOL     OW32071   2.398   4.319   3.852  0.1440  0.4251  0.8395
 6813SOL    HW132072   2.435   4.319   3.763  0.9788 -1.6689  1.1998
 6813SOL    HW232073   2.458   4.258   3.894  0.0150 -1.4635 -1.6973
 6814SOL     OW32074   2.900   0.044   8.824 -0.1821  0.5336 -0.3889
 6814SOL    HW132075   2.978   0.072   8.777  0.7055 -1.8039 -0.3192
 6814SOL    HW232076   2.925   0.047   8.917 -2.4532 -0.6678  0.2653
 6815SOL     OW32077   3.578   4.130  14.071 -0.1519 -0.2395  0.5798
 6815SOL    HW132078   3.550   4.158  14.158 -2.4606 -1.8340  0.3557
 6815SOL    HW232079   3.570   4.035  14.080 -0.1963 -0.2368  0.5719
 6816SOL     OW32080   4.042   0.783  13.469 -0.4437 -0.4240 -0.5180
 6816SOL    HW132081   4.104   0.739  13.411  0.8082 -0.3024  0.7525
 6816SOL    HW232082   4.104   0.810  13.536  1.2588 -3.7620 -0.7691
 6817SOL     OW32083   0.396   1.938   4.579  0.2681 -0.9161 -0.0847
 6817SOL    HW132084   0.329   2.001   4.604  2.6467  1.3726  0.5721
 6817SOL    HW232085   0.371   1.906   4.493  0.2062  1.6370 -0.9986
 6818SOL     OW32086   0.171   0.889  15.104  0.3528  0.0501  0.1037
 6818SOL    HW132087   0.100   0.859  15.047 -0.4317 -0.2168  1.2386
 6818SOL    HW232088   0.196   0.812  15.154  1.1958  0.0137 -0.3753
 6819SOL     OW32089   1.310   4.526   4.190  0.0272  0.7019 -0.5364
 6819SOL    HW132090   1.320   4.580   4.269 -1.5681  1.4003 -0.8000
 6819SOL    HW232091   1.357   4.449   4.222  0.2516  1.1433  0.1899
 6820SOL     OW32092   0.563   1.892  10.234  0.4168 -0.5117 -0.4394
 6820SOL    HW132093   0.474   1.885  10.268  1.5766  2.2821  3.1161
 6820SOL    HW232094   0.589   1.980  10.260  0.1365 -0.8731  1.0741
 6821SOL     OW32095   3.870   3.718  10.061 -0.1026 -0.0173 -0.5589
 6821SOL    HW132096   3.860   3.710  10.156  1.6354  1.1892 -0.2668
 6821SOL    HW232097   3.777   3.733  10.045 -0.6626  0.4347  3.1260
 6822SOL     OW32098   0.689   2.073   3.574  0.1295 -0.2102  0.2274
 6822SOL    HW132099   0.694   1.983   3.609  0.1872 -0.1704  0.3226
 6822SOL    HW232100   0.650   2.107   3.654 -0.0392 -0.7160  0.3616
 6823SOL     OW32101   3.174   4.615   2.999 -0.1156 -0.1747  0.2651
 6823SOL    HW132102   3.231   4.550   2.956  0.5461  2.6114 -3.0414
 6823SOL    HW232103   3.109   4.550   3.026  1.3840 -1.4527  0.7930
 6824SOL     OW32104   2.756   4.350   4.481 -0.1641  0.2410  0.0906
 6824SOL    HW132105   2.747   4.408   4.557  2.2431 -0.8087  1.1679
 6824SOL    HW232106   2.712   4.270   4.509 -0.9561  0.7432  0.2833
 6825SOL     OW32107   0.160   3.043   1.868 -0.0980 -0.2275  0.2603
 6825SOL    HW132108   0.190   2.992   1.943 -1.6841 -2.0854 -0.3621
 6825SOL    HW232109   0.145   3.133   1.898 -0.4556  0.9432 -3.4934
 6826SOL     OW32110   3.094   1.521   6.500  0.5357 -0.4772 -0.2533
 6826SOL    HW132111   3.165   1.463   6.529  0.6646  0.0328  0.4577
 6826SOL    HW232112   3.048   1.538   6.582  1.6509 -0.4065  0.3527
 6827SOL     OW32113   1.494   2.715   1.575  0.2042 -0.2707 -0.1185
 6827SOL    HW132114   1.511   2.787   1.515  1.3176 -1.0510 -0.7396
 6827SOL    HW232115   1.473   2.639   1.520 -2.6680  1.1344 -0.9655
 6828SOL     OW32116   4.330   0.963   4.577  0.0251  0.2031  0.7419
 6828SOL    HW132117   4.346   0.870   4.592  2.1944  0.5708  0.8074
 6828SOL    HW232118   4.303   0.984   4.667  0.0134 -0.2063  0.8325
 6829SOL     OW32119   3.303   3.091   7.745  0.3028 -0.6461 -0.7606
 6829SOL    HW132120   3.315   3.172   7.795  1.8216 -1.8560  0.8104
 6829SOL    HW232121   3.275   3.033   7.816 -2.1559 -0.3061 -1.4187
 6830SOL     OW32122   4.139   3.961  15.098  0.0683  0.7555  0.0086
 6830SOL    HW132123   4.102   4.048  15.084  1.2099  1.3921  0.9477
 6830SOL    HW232124   4.096   3.913  15.027  1.3935 -0.3783 -0.0311
 6831SOL     OW32125   0.898   2.620   4.143  0.1496 -0.1049 -0.5399
 6831SOL    HW132126   0.947   2.662   4.073  1.0542 -1.3305 -0.6354
 6831SOL    HW232127   0.949   2.541   4.160  0.3860  0.0292 -0.6229
 6832SOL     OW32128   0.405   2.797   2.257 -0.4479 -0.4882 -0.1500
 6832SOL    HW132129   0.345   2.762   2.191 -0.5466  1.1957 -0.9710
 6832SOL    HW232130   0.476   2.734   2.252 -0.3941 -0.0311 -4.8359
 6833SOL     OW32131   3.378   4.491   4.124 -0.4080 -0.3309 -0.0215
 6833SOL    HW132132   3.450   4.453   4.073  0.5570  0.1769  0.9534
 6833SOL    HW232133   3.393   4.445   4.207  1.1898  0.0748 -0.0762
 6834SOL     OW32134   2.651   4.304  14.504 -0.6252  0.0674 -0.5730
 6834SOL    HW132135   2.601   4.359  14.564 -0.5579 -1.5710  0.9986
 6834SOL    HW232136   2.684   4.236  14.563  2.3547  2.7116  0.8238
 6835SOL     OW32137   1.626   3.693   2.676 -0.1139 -0.3179 -0.2388
 6835SOL    HW132138   1.644   3.675   2.768  0.9359 -1.4866 -0.6833
 6835SOL    HW232139   1.553   3.635   2.652 -0.0774  0.2373 -1.6869
 6836SOL     OW32140   0.087   3.223   3.414 -0.1893  0.2468  0.0841
 6836SOL    HW132141   0.085   3.318   3.398  0.3883  0.8502  3.5581
 6836SOL    HW232142   0.047   3.182   3.337 -0.7857 -1.3139  1.2447
 6837SOL     OW32143   2.004   2.050  12.188  0.3562  0.2442 -0.2798
 6837SOL    HW132144   2.055   2.090  12.118  0.0087 -1.4310 -1.5033
 6837SOL    HW232145   1.924   2.103  12.182  0.2030  0.5343  4.4999
 6838SOL     OW32146   0.212   1.643   9.096  0.0949  0.0501 -0.6437
 6838SOL    HW132147   0.139   1.642   9.157  0.7028 -2.1989  0.0328
 6838SOL    HW232148   0.237   1.736   9.101  0.8066 -0.3574  3.7740
 6839SOL     OW32149   3.450   1.100  12.059  0.5082 -0.9471  0.0733
 6839SOL    HW132150   3.494   1.184  12.042  0.0212 -0.6230  0.4200
 6839SOL    HW232151   3.528   1.050  12.085 -0.3184 -0.2640  3.8640
 6840SOL     OW32152   3.018   2.911   8.181 -0.7142 -0.3069 -0.4166
 6840SOL    HW132153   3.041   2.956   8.099  0.2051 -3.1129 -1.7057
 6840SOL    HW232154   2.929   2.880   8.162 -0.3426 -0.8760 -1.2479
 6841SOL     OW32155   2.381   4.387   1.214  0.0924 -0.3143  0.5703
 6841SOL    HW132156   2.332   4.406   1.295 -1.7714 -0.0116 -0.6150
 6841SOL    HW232157   2.404   4.477   1.193 -0.6061  0.0664  1.4115
 6842SOL     OW32158   1.440   3.967  11.905 -0.1141  0.2939 -0.2465
 6842SOL    HW132159   1.413   3.882  11.869  2.9764 -0.5102 -0.6122
 6842SOL    HW232160   1.362   4.001  11.949 -0.0900  0.6234 -0.4589
 6843SOL     OW32161   0.508   1.795  11.697  0.0129  0.5577  0.5442
 6843SOL    HW132162   0.522   1.890  11.693  0.0725  0.6110  1.9056
 6843SOL    HW232163   0.452   1.780  11.622  0.9296 -0.5348  0.0851
 6844SOL     OW32164   3.325   1.356   1.366 -0.2405  0.1584  0.4751
 6844SOL    HW132165   3.276   1.275   1.377 -0.2542 -0.1898 -2.1310
 6844SOL    HW232166   3.415   1.322   1.361  0.1486  0.8420  2.8739
 6845SOL     OW32167   1.708   2.353   5.183  0.2846  0.2083 -0.3300
 6845SOL    HW132168   1.798   2.323   5.175  0.7072  1.9000 -1.8356
 6845SOL    HW232169   1.652   2.287   5.142  2.1227 -1.0753 -0.7908
 6846SOL     OW32170   1.195   4.353   8.431 -0.5326 -0.3481 -1.2465
 6846SOL    HW132171   1.247   4.309   8.364  2.1655 -1.0076  1.3100
 6846SOL    HW232172   1.257   4.423   8.451  1.0800 -1.5153 -2.1313
 6847SOL     OW32173   0.014   3.139   6.788  0.0380  0.6722  0.1484
 6847SOL    HW132174   4.708   3.157   6.705  0.6429 -0.7275 -0.4734
 6847SOL    HW232175   0.071   3.215   6.801  0.7148  0.2759 -0.5281
 6848SOL     OW32176   3.273   4.296   0.727  0.5509  0.5703  0.8853
 6848SOL    HW132177   3.263   4.331   0.638 -0.8585  0.5777  1.0519
 6848SOL    HW232178   3.186   4.302   0.767 -0.4378 -1.1880 -0.9903
 6849SOL     OW32179   0.988   2.141   2.387  0.2713  0.1144 -0.0082
 6849SOL    HW132180   0.913   2.164   2.331  0.1246 -0.0971  0.0990
 6849SOL    HW232181   1.003   2.047   2.376 -0.9449 -0.3577  2.3100
 6850SOL     OW32182   3.612   0.697   7.266  0.2937  0.0145 -0.0427
 6850SOL    HW132183   3.646   0.735   7.347 -0.5289  0.4574  0.0925
 6850SOL    HW232184   3.548   0.632   7.294 -0.3312 -0.7840 -3.2838
 6851SOL     OW32185   3.988   1.551   5.954  0.1870  0.2429 -0.7595
 6851SOL    HW132186   4.019   1.472   5.999  0.6009  0.0868 -1.3275
 6851SOL    HW232187   4.006   1.536   5.862 -1.7949 -2.1249 -0.7502
 6852SOL     OW32188   1.248   3.266   8.531  0.5891  0.3916 -0.1542
 6852SOL    HW132189   1.311   3.330   8.499  0.5687  1.0914  1.2266
 6852SOL    HW232190   1.260   3.211   8.453 -0.3812  0.3503 -0.2745
 6853SOL     OW32191   4.679   3.857   1.631  0.1308  0.2855 -0.1931
 6853SOL    HW132192   4.592   3.886   1.660 -0.1453  1.5701 -2.2872
 6853SOL    HW232193   4.656   3.773   1.591 -1.9561  0.1120  1.3736
 6854SOL     OW32194   0.018   0.117  16.567  0.1746 -0.7139  0.2300
 6854SOL    HW132195   0.109   0.103  16.540  0.2610  1.2279 -0.4753
 6854SOL    HW232196   4.734   0.190  16.509 -0.9091 -0.3150  1.1604
 6855SOL     OW32197   0.256   0.065  11.050 -0.0514 -0.6265  0.1798
 6855SOL    HW132198   0.282   4.733  10.990 -0.7246 -0.6780 -0.0497
 6855SOL    HW232199   0.336   0.070  11.103  0.5492 -0.2194 -0.7498
 6856SOL     OW32200   4.457   1.533   6.514  0.0499  0.7084 -0.1993
 6856SOL    HW132201   4.523   1.548   6.581  1.1084 -0.4985 -0.9686
 6856SOL    HW232202   4.509   1.503   6.440 -1.2590 -0.5313 -0.6278
 6857SOL     OW32203   2.730   3.229  12.821 -0.4348 -0.2689  0.6618
 6857SOL    HW132204   2.815   3.198  12.792 -0.7457 -1.8747  1.4458
 6857SOL    HW232205   2.689   3.256  12.738 -0.8552 -3.0174 -0.0273
 6858SOL     OW32206   1.535   4.130   5.146 -0.2628 -0.3541 -0.4126
 6858SOL    HW132207   1.471   4.143   5.076 -0.4713  2.2118  0.2397
 6858SOL    HW232208   1.612   4.182   5.125  0.2170 -0.6831  0.5168
 6859SOL     OW32209   4.085   2.496   6.959 -0.4831  0.0363  0.1081
 6859SOL    HW132210   4.165   2.521   6.912  0.8262 -0.7667  1.9155
 6859SOL    HW232211   4.133   2.447   7.026 -1.2486  0.2328  0.7972
 6860SOL     OW32212   0.451   1.921   5.526 -0.3599  0.1053 -0.1436
 6860SOL    HW132213   0.441   1.872   5.445 -1.9051  1.5954 -0.8490
 6860SOL    HW232214   0.365   1.907   5.567 -0.4799  1.7914  0.1823
 6861SOL     OW32215   1.421   1.491   7.178 -0.0954 -0.8555  0.3266
 6861SOL    HW132216   1.499   1.498   7.234  1.4005 -1.0847 -1.7586
 6861SOL    HW232217   1.373   1.430   7.234 -2.8636  1.6327  0.7107
 6862SOL     OW32218   3.699   1.215   6.205  0.2350 -0.2781 -0.4342
 6862SOL    HW132219   3.739   1.130   6.222  1.1065  0.2235  0.0337
 6862SOL    HW232220   3.661   1.204   6.118 -0.7290  1.4854 -0.2209
 6863SOL     OW32221   2.910   2.315   7.340  0.1479 -0.3194 -0.1245
 6863SOL    HW132222   3.001   2.333   7.362  0.8029 -2.1730 -1.3169
 6863SOL    HW232223   2.916   2.343   7.249 -1.5735  0.2388 -0.0689
 6864SOL     OW32224   1.644   4.526   7.075 -0.6571  0.1354  0.6049
 6864SOL    HW132225   1.696   4.485   7.006  0.7144  1.0956  1.0706
 6864SOL    HW232226   1.577   4.573   7.025 -1.9690 -0.7572  1.5167
 6865SOL     OW32227   1.128   3.982   8.156 -1.2081 -0.4005 -0.0007
 6865SOL    HW132228   1.082   4.066   8.151  0.1728  0.3311 -0.3769
 6865SOL    HW232229   1.086   3.952   8.237 -2.3379 -0.3235 -0.5614
 6866SOL     OW32230   2.486   3.806   7.302  0.1665  0.5881  0.1401
 6866SOL    HW132231   2.562   3.842   7.349 -0.7006  1.1167  1.1443
 6866SOL    HW232232   2.484   3.717   7.336 -2.3055  1.1171  1.3325
 6867SOL     OW32233   0.592   4.124   3.661  0.4711  0.3421 -0.5030
 6867SOL    HW132234   0.533   4.197   3.681  1.6385  1.4003 -0.9780
 6867SOL    HW232235   0.613   4.101   3.752 -2.0919 -1.1857 -0.2817
 6868SOL     OW32236   1.853   0.788   2.751 -0.3113 -0.3395  0.7965
 6868SOL    HW132237   1.858   0.769   2.658  3.6398 -0.2584  0.9668
 6868SOL    HW232238   1.944   0.801   2.780  0.1880 -1.8044 -0.1014
 6869SOL     OW32239   1.348   3.087   6.162 -0.7905 -0.1596  0.0428
 6869SOL    HW132240   1.286   3.145   6.119  1.1486  0.7698 -1.4637
 6869SOL    HW232241   1.422   3.109   6.106 -1.3511 -1.4677 -1.2103
 6870SOL     OW32242   3.742   2.415  17.633  0.4417  0.3428  0.7526
 6870SOL    HW132243   3.817   2.376  17.679 -1.6724 -2.7359  1.6136
 6870SOL    HW232244   3.671   2.375  17.683 -0.8026  2.1235  0.3917
 6871SOL     OW32245   2.631   2.090  17.614 -0.0117  0.1033  0.7287
 6871SOL    HW132246   2.687   2.068  17.539 -1.0277  2.3323 -0.6825
 6871SOL    HW232247   2.583   2.166  17.583  0.5663  0.9074  1.8166
 6872SOL     OW32248   0.527   3.752   1.128 -0.2865  0.2235  0.0301
 6872SOL    HW132249   0.567   3.766   1.214  0.3218  1.1293 -0.4044
 6872SOL    HW232250   0.454   3.813   1.136 -0.8464 -0.1166 -2.7014
 6873SOL     OW32251   3.520   0.869   6.923 -0.4995  0.3132 -0.6823
 6873SOL    HW132252   3.567   0.786   6.925  1.7950  1.6951  1.9079
 6873SOL    HW232253   3.573   0.925   6.866  0.5319  0.8995  0.8561
 6874SOL     OW32254   4.215   2.472   8.852  0.3151  0.3667 -0.4342
 6874SOL    HW132255   4.162   2.528   8.795 -0.3785 -0.1386 -0.2874
 6874SOL    HW232256   4.172   2.491   8.935 -1.1393 -2.0903 -0.6151
 6875SOL     OW32257   1.838   3.897   1.862 -0.2873  0.0039  0.0562
 6875SOL    HW132258   1.772   3.880   1.929 -0.3409  1.5616  0.4068
 6875SOL    HW232259   1.790   3.912   1.780 -0.2079 -1.8283 -0.3163
 6876SOL     OW32260   2.478   4.403   5.150  0.1605  0.5241 -0.0634
 6876SOL    HW132261   2.444   4.486   5.116  0.5672 -0.2287 -2.3030
 6876SOL    HW232262   2.433   4.330   5.108  1.4243  0.9680 -2.2067
 6877SOL     OW32263   2.864   2.146   6.063  0.6113 -0.2057 -0.5413
 6877SOL    HW132264   2.798   2.078   6.072  0.6287 -0.2030 -0.3959
 6877SOL    HW232265   2.931   2.090   6.025 -0.1436 -0.8223 -0.9640
 6878SOL     OW32266   3.926   2.711   2.967 -0.2053 -0.3034  0.3883
 6878SOL    HW132267   3.950   2.785   3.023 -0.5204  0.1404 -0.0604
 6878SOL    HW232268   3.913   2.758   2.884 -1.2289 -1.7214 -0.2599
 6879SOL     OW32269   0.631   3.039  15.703  0.4041 -0.0567  0.1378
 6879SOL    HW132270   0.563   3.042  15.636  1.4736  1.2685 -0.8883
 6879SOL    HW232271   0.615   2.953  15.741  0.7654 -0.1988 -0.0300
 6880SOL     OW32272   2.423   1.508   8.695 -0.3390 -0.0961  0.0405
 6880SOL    HW132273   2.336   1.529   8.662 -0.2275 -0.6917 -0.6227
 6880SOL    HW232274   2.410   1.414   8.705 -1.3773 -0.0677 -1.0280
 6881SOL     OW32275   4.116   3.779  12.245 -0.4835  0.2457 -0.2249
 6881SOL    HW132276   4.164   3.808  12.168 -1.2825 -1.0022 -1.2086
 6881SOL    HW232277   4.049   3.721  12.209  0.0116 -0.4115 -0.0791
 6882SOL     OW32278   1.853   0.537   5.477 -0.0842  0.1181  0.6563
 6882SOL    HW132279   1.812   0.609   5.524 -0.8077  0.4954 -0.5599
 6882SOL    HW232280   1.835   0.559   5.386 -0.3549 -3.3436 -0.1277
 6883SOL     OW32281   2.493   3.016   0.480  0.1516  0.3650  0.4695
 6883SOL    HW132282   2.531   2.930   0.498 -1.3160 -0.6962 -1.4768
 6883SOL    HW232283   2.423   2.991   0.420  2.1676  1.2875 -2.2468
 6884SOL     OW32284   3.614   3.489  15.818 -0.2282  0.1740 -0.1359
 6884SOL    HW132285   3.680   3.526  15.759 -1.2082  0.8603 -0.8231
 6884SOL    HW232286   3.549   3.443  15.763 -0.3824 -1.9140  1.7960
 6885SOL     OW32287   1.431   3.501   5.008  0.5749 -0.2752 -0.0278
 6885SOL    HW132288   1.522   3.524   5.023  0.4720  0.0610  0.0810
 6885SOL    HW232289   1.429   3.407   5.027  0.0700 -0.0192  1.1683
 6886SOL     OW32290   0.006   3.253   0.405  0.2896 -0.3454 -0.2941
 6886SOL    HW132291   4.699   3.246   0.489  0.9569 -3.5143 -0.1890
 6886SOL    HW232292   0.026   3.347   0.407 -0.8000 -0.1331  0.7841
 6887SOL     OW32293   4.093   0.049  16.604 -0.0015 -0.8271 -0.1267
 6887SOL    HW132294   4.017   4.733  16.580 -1.7815  0.6259  2.2391
 6887SOL    HW232295   4.046   0.130  16.624  2.6908  1.0759 -1.4306
 6888SOL     OW32296   0.322   1.329   8.902  0.3802 -0.2144 -0.4556
 6888SOL    HW132297   0.369   1.362   8.825  2.1273 -0.3297  0.5572
 6888SOL    HW232298   0.232   1.346   8.873  1.1202 -0.5818 -2.9234
 6889SOL     OW32299   1.523   3.823   3.789 -0.1968 -0.6379  0.0205
 6889SOL    HW132300   1.561   3.900   3.832 -0.0239 -0.4841 -0.4108
 6889SOL    HW232301   1.463   3.792   3.857 -0.8865 -1.9885 -1.1947
 6890SOL     OW32302   3.046   1.913   5.517  0.1438 -0.1570  0.9862
 6890SOL    HW132303   2.993   1.852   5.465 -0.1449 -1.1235  2.4316
 6890SOL    HW232304   3.058   1.981   5.451  0.9402  0.2288  1.5237
 6891SOL     OW32305   1.859   3.154   8.349  0.1368 -0.2459  0.4302
 6891SOL    HW132306   1.827   3.064   8.344  2.4144 -0.9906 -0.2853
 6891SOL    HW232307   1.929   3.148   8.414 -0.4633  1.6655  1.2591
 6892SOL     OW32308   0.166   2.433   7.926  0.1489 -0.6098 -0.0910
 6892SOL    HW132309   0.253   2.413   7.960 -0.1600 -0.0630  1.0152
 6892SOL    HW232310   0.174   2.424   7.831 -1.4305 -0.2502 -0.2550
 6893SOL     OW32311   4.533   1.962  10.277  0.0102  0.7546 -0.3026
 6893SOL    HW132312   4.445   1.990  10.300 -0.1730 -1.9259  2.2848
 6893SOL    HW232313   4.522   1.895  10.210  1.4672 -0.0935  0.2950
 6894SOL     OW32314   0.728   0.476   4.866 -0.3594 -0.2200  0.3013
 6894SOL    HW132315   0.662   0.544   4.875  0.4794  0.5286  0.8732
 6894SOL    HW232316   0.799   0.528   4.906  1.6801 -1.1400 -2.1370
 6895SOL     OW32317   4.437   0.785   6.990 -0.3720  0.3989 -0.5567
 6895SOL    HW132318   4.471   0.810   7.076  0.3969  1.0801 -1.0612
 6895SOL    HW232319   4.350   0.825   6.996 -1.0527 -1.3294  0.8888
 6896SOL     OW32320   0.400   1.166   0.588 -0.1047  0.3536 -0.2951
 6896SOL    HW132321   0.492   1.172   0.615 -0.0134 -0.0843 -0.5114
 6896SOL    HW232322   0.384   1.250   0.547 -0.6328  1.3304  1.8827
 6897SOL     OW32323   2.863   0.014  14.176 -0.3965 -0.5828  0.1852
 6897SOL    HW132324   2.792   4.708  14.130 -0.3043  0.1735 -0.6928
 6897SOL    HW232325   2.841   0.103  14.149 -1.7593 -0.2240  2.5723
 6898SOL     OW32326   0.678   0.161  12.922 -0.0522 -0.3506 -0.0239
 6898SOL    HW132327   0.758   0.108  12.922  1.1130  1.4188  1.4123
 6898SOL    HW232328   0.636   0.132  13.002  1.5208  0.9291  1.2535
 6899SOL     OW32329   1.699   3.759  11.193 -0.2289 -0.4554  0.1371
 6899SOL    HW132330   1.656   3.843  11.176  0.6095 -0.1762 -0.5878
 6899SOL    HW232331   1.680   3.757  11.287 -2.6051 -1.0426 -0.3541
 6900SOL     OW32332   4.590   0.347   1.386  0.2670  0.3064 -0.0246
 6900SOL    HW132333   4.681   0.318   1.389 -0.1874 -1.1141  0.0068
 6900SOL    HW232334   4.566   0.291   1.460 -0.5832  0.0304 -0.5102
 6901SOL     OW32335   3.406   3.498   2.955  0.4479 -1.0247  0.3081
 6901SOL    HW132336   3.453   3.435   3.010  2.1450 -0.4408 -0.4734
 6901SOL    HW232337   3.314   3.475   2.943  1.0620 -2.9854 -0.7582
 6902SOL     OW32338   2.370   4.398   3.134  0.3922  0.0112 -0.5129
 6902SOL    HW132339   2.462   4.418   3.121  1.5001 -2.5966  3.2072
 6902SOL    HW232340   2.383   4.320   3.188 -2.1218  1.0678  1.5845
 6903SOL     OW32341   0.755   2.132   6.294  0.0759  0.4559 -0.1461
 6903SOL    HW132342   0.712   2.083   6.224 -2.0117  0.9526  0.7570
 6903SOL    HW232343   0.846   2.110   6.280  0.3672  1.8258 -0.3949
 6904SOL     OW32344   0.644   2.210   8.311  0.5312 -0.4060 -0.0344
 6904SOL    HW132345   0.672   2.154   8.382 -1.0901 -1.4610 -0.2306
 6904SOL    HW232346   0.685   2.179   8.230  1.7260 -0.9428  0.7724
 6905SOL     OW32347   1.784   3.514   4.702  0.2788 -0.1889 -0.4027
 6905SOL    HW132348   1.793   3.442   4.764 -0.6425  0.3601  0.3628
 6905SOL    HW232349   1.701   3.494   4.660 -0.4705 -0.0597  1.0140
 6906SOL     OW32350   3.943   2.832   6.040 -0.1376 -0.1622  0.0340
 6906SOL    HW132351   3.935   2.855   6.133 -0.4247 -1.6981  0.3870
 6906SOL    HW232352   3.992   2.911   6.017 -1.6273  0.9921  0.8550
 6907SOL     OW32353   2.331   4.311   6.732  0.0614  0.0712 -0.2935
 6907SOL    HW132354   2.256   4.362   6.765  0.8718 -0.6899  2.7384
 6907SOL    HW232355   2.290   4.225   6.740 -1.0922  0.6178 -0.1944
 6908SOL     OW32356   2.696   3.128   4.149 -0.5985  0.5873 -0.0530
 6908SOL    HW132357   2.762   3.176   4.200 -0.1834  1.0594 -1.0489
 6908SOL    HW232358   2.752   3.059   4.114  0.1216 -1.2267  4.6338
 6909SOL     OW32359   1.744   1.830   9.132 -0.2062 -0.0086 -0.2577
 6909SOL    HW132360   1.692   1.852   9.054 -0.5510  2.4919  0.6793
 6909SOL    HW232361   1.756   1.737   9.113  0.3126  0.1286 -0.5798
 6910SOL     OW32362   1.117   4.271   6.218  0.2574  0.1411  0.0433
 6910SOL    HW132363   1.039   4.247   6.167 -0.2062  2.3629 -0.2970
 6910SOL    HW232364   1.108   4.367   6.220  0.3777  0.1233  1.1459
 6911SOL     OW32365   1.553   3.135  10.523  0.3167 -0.1517 -0.5689
 6911SOL    HW132366   1.638   3.175  10.504 -0.3884  1.1174 -1.0542
 6911SOL    HW232367   1.495   3.208  10.502 -1.2164 -1.3867 -0.5675
 6912SOL     OW32368   0.939   2.432   0.367 -0.5376  0.0635 -0.9593
 6912SOL    HW132369   0.894   2.515   0.353  0.9153  0.9502 -0.4609
 6912SOL    HW232370   0.857   2.384   0.372 -1.9361  2.5347 -0.2571
 6913SOL     OW32371   1.188   0.561   4.524 -0.0231 -0.4451 -0.0599
 6913SOL    HW132372   1.209   0.503   4.451  0.2040  1.8630 -1.8225
 6913SOL    HW232373   1.168   0.640   4.475  2.2804 -0.7628 -1.4881
 6914SOL     OW32374   2.803   4.165  10.789 -0.3842  0.2404 -0.2533
 6914SOL    HW132375   2.873   4.211  10.836  0.8743 -0.6065 -1.3014
 6914SOL    HW232376   2.764   4.234  10.734  0.5432  1.0009  0.0346
 6915SOL     OW32377   4.187   1.662   1.223 -0.3526  0.2091  0.0667
 6915SOL    HW132378   4.092   1.660   1.216 -0.2805  0.6346 -1.0806
 6915SOL    HW232379   4.214   1.735   1.167  1.8846 -1.2357 -0.7479
 6916SOL     OW32380   0.524   4.044   2.620 -0.1740 -0.3174  0.3950
 6916SOL    HW132381   0.503   4.125   2.573 -2.0072 -0.6797  0.5841
 6916SOL    HW232382   0.454   3.988   2.586 -1.6210  1.6744  0.1004
 6917SOL     OW32383   0.095   4.163   0.123  0.3151  0.2062 -0.5898
 6917SOL    HW132384   0.087   4.220   0.200  0.4737 -1.3642  0.5995
 6917SOL    HW232385   0.189   4.169   0.104  0.4552  2.8573  0.9354
 6918SOL     OW32386   1.995   4.051  11.074  0.7862  0.4472  0.2211
 6918SOL    HW132387   1.967   4.134  11.114 -0.5865  0.8851 -1.6461
 6918SOL    HW232388   2.057   4.019  11.140 -1.6311 -0.3289  2.1276
 6919SOL     OW32389   2.015   3.770   3.374  0.5220  0.0860 -0.4411
 6919SOL    HW132390   1.981   3.857   3.357  0.0413 -0.0459 -0.1356
 6919SOL    HW232391   2.083   3.801   3.434 -1.5076  1.5940  1.0440
 6920SOL     OW32392   4.026   0.435  13.058 -0.0102 -0.3632  0.1628
 6920SOL    HW132393   4.085   0.366  13.087 -1.1513 -1.0127  0.9513
 6920SOL    HW232394   3.956   0.425  13.122 -0.7997 -1.8559 -0.9303
 6921SOL     OW32395   1.897   2.306  14.709  0.5187  0.0590 -0.1978
 6921SOL    HW132396   1.986   2.271  14.717 -0.0948 -1.2671  0.7159
 6921SOL    HW232397   1.914   2.363  14.634  0.5788  1.0318  0.5470
 6922SOL     OW32398   2.732   0.299  15.097 -0.4980 -0.3776  0.0839
 6922SOL    HW132399   2.712   0.382  15.053  1.1864  1.2674  2.4066
 6922SOL    HW232400   2.700   0.315  15.186  0.0960  0.2526  0.1849
 6923SOL     OW32401   3.848   2.098   7.677 -0.1252  0.1194 -0.1358
 6923SOL    HW132402   3.810   2.060   7.598 -0.9642 -0.0655  0.3534
 6923SOL    HW232403   3.766   2.123   7.721 -1.6184  0.6217 -3.2304
 6924SOL     OW32404   0.316   2.277   0.957 -0.1252  0.1315  0.1172
 6924SOL    HW132405   0.354   2.343   0.900  0.3642  0.0765  0.3842
 6924SOL    HW232406   0.347   2.306   1.043 -0.8830  2.0288 -0.2345
 6925SOL     OW32407   3.222   3.405   5.988  0.1671 -0.2962 -0.2079
 6925SOL    HW132408   3.225   3.431   5.896  0.6536  0.9297  0.1658
 6925SOL    HW232409   3.191   3.490   6.019 -0.2844 -0.1587 -1.0327
 6926SOL     OW32410   0.992   0.313   3.333  0.1110  0.2409  0.3836
 6926SOL    HW132411   0.929   0.303   3.405 -0.8461 -0.1441 -0.5052
 6926SOL    HW232412   0.986   0.405   3.309 -2.4644  0.1513  0.7054
 6927SOL     OW32413   2.268   2.820   4.802 -0.2579  0.2317 -0.4341
 6927SOL    HW132414   2.323   2.825   4.881  0.7095 -0.0665 -1.0894
 6927SOL    HW232415   2.269   2.911   4.772  1.5469 -0.4047 -2.2839
 6928SOL     OW32416   2.349   2.585   3.280  0.1549  0.0901  0.5391
 6928SOL    HW132417   2.366   2.616   3.369  2.6034 -0.2366  0.1909
 6928SOL    HW232418   2.259   2.617   3.270  0.9766  1.5033 -2.1324
 6929SOL     OW32419   1.358   1.302  10.082 -0.0101 -0.0302 -0.5060
 6929SOL    HW132420   1.342   1.214  10.115 -3.2880  0.9586  0.5137
 6929SOL    HW232421   1.450   1.311  10.106 -0.6918  0.2071  1.9733
 6930SOL     OW32422   2.281   0.619   3.808  0.0203 -0.5411 -0.6519
 6930SOL    HW132423   2.319   0.605   3.894  0.7564  0.9831 -0.7308
 6930SOL    HW232424   2.270   0.528   3.782 -0.3300 -0.4144 -0.9502
 6931SOL     OW32425   3.074   4.114   3.165 -0.3558 -0.0999 -0.5101
 6931SOL    HW132426   3.080   4.070   3.080  0.3768  1.1167 -1.0724
 6931SOL    HW232427   3.164   4.139   3.184 -0.4571  0.6212 -1.0141
 6932SOL     OW32428   0.117   3.504   3.280  0.3259  0.3107  0.5698
 6932SOL    HW132429   0.074   3.569   3.225  1.1178  0.2981 -0.0509
 6932SOL    HW232430   0.199   3.478   3.238  0.0615 -0.1754  0.3653
 6933SOL     OW32431   3.903   2.640   8.858  0.0405  0.0630  0.0018
 6933SOL    HW132432   3.945   2.596   8.784 -0.0887  0.6095 -0.3978
 6933SOL    HW232433   3.864   2.718   8.819  1.1401  0.0476 -1.1533
 6934SOL     OW32434   0.274   2.624   4.622 -0.3082 -0.2666  0.7323
 6934SOL    HW132435   0.198   2.630   4.565 -0.0155 -2.4942  0.1162
 6934SOL    HW232436   0.229   2.624   4.707 -2.8963  0.4241 -0.6398
 6935SOL     OW32437   3.875   2.064   1.932  0.0465 -0.2268 -0.1236
 6935SOL    HW132438   3.782   2.043   1.945 -0.0508  0.9175  0.9898
 6935SOL    HW232439   3.917   1.979   1.922 -1.5029 -1.1114  0.7801
 6936SOL     OW32440   2.554   2.590   8.807  0.1676  0.6030 -0.5675
 6936SOL    HW132441   2.622   2.657   8.812  1.1582 -0.3424 -1.2852
 6936SOL    HW232442   2.593   2.526   8.866 -1.4030 -0.3823 -0.5940
 6937SOL     OW32443   3.969   0.860   1.551 -0.3195 -0.2351  0.3397
 6937SOL    HW132444   3.972   0.852   1.646 -1.3315 -2.8034  0.1773
 6937SOL    HW232445   3.882   0.821   1.539  0.2866 -1.9122  1.3558
 6938SOL     OW32446   1.928   2.887   5.930  0.5532  0.0072  0.3368
 6938SOL    HW132447   1.850   2.860   5.979 -0.6634  0.9355 -1.1022
 6938SOL    HW232448   1.886   2.962   5.888 -1.6290 -2.3928 -1.7709
 6939SOL     OW32449   1.753   2.049   5.732 -0.0763 -0.8285  0.3628
 6939SOL    HW132450   1.724   2.122   5.678  0.6155  0.2701  1.4698
 6939SOL    HW232451   1.718   1.974   5.684  0.4389 -2.0200  1.8484
 6940SOL     OW32452   3.670   1.459   1.411  0.0557 -1.1254 -0.0380
 6940SOL    HW132453   3.665   1.371   1.374  0.2445 -0.3559 -1.8796
 6940SOL    HW232454   3.618   1.509   1.349  2.1167  0.0206 -0.8532
 6941SOL     OW32455   2.237   1.926   9.523  0.5233  0.1308 -0.2146
 6941SOL    HW132456   2.172   1.857   9.505 -0.4371  0.3617  2.4558
 6941SOL    HW232457   2.226   1.958   9.433 -2.4683 -0.6219 -0.1471
 6942SOL     OW32458   4.514   0.322   5.200 -0.6359  0.7912 -0.3005
 6942SOL    HW132459   4.599   0.363   5.183 -0.1555 -0.7871 -1.6588
 6942SOL    HW232460   4.518   0.249   5.139  1.2617  0.1761  0.5712
 6943SOL     OW32461   1.600   3.615   6.093 -0.2081 -0.4416  0.6575
 6943SOL    HW132462   1.591   3.566   6.174  0.4295  0.2747  1.1629
 6943SOL    HW232463   1.563   3.546   6.037  1.5562 -2.0719  1.5144
 6944SOL     OW32464   1.543   3.143   5.487  0.1865  0.6234 -0.2704
 6944SOL    HW132465   1.570   3.199   5.414 -0.2026  0.3693 -0.6069
 6944SOL    HW232466   1.526   3.062   5.440  1.3033  0.1736  0.1166
 6945SOL     OW32467   1.766   3.655   3.922 -0.1823 -0.4723  0.3299
 6945SOL    HW132468   1.705   3.714   3.878  0.4638  1.1560  1.5903
 6945SOL    HW232469   1.734   3.655   4.012  0.8845  0.2497  0.7187
 6946SOL     OW32470   2.608   2.280  17.417  0.1377  0.1993 -0.3069
 6946SOL    HW132471   2.513   2.290  17.419  0.0841 -0.4049  0.2224
 6946SOL    HW232472   2.619   2.239  17.332 -0.5584  1.0219 -0.7902
 6947SOL     OW32473   1.441   0.603   9.268  0.0695  0.0908 -0.5296
 6947SOL    HW132474   1.409   0.632   9.353  2.1312 -1.7793  0.8916
 6947SOL    HW232475   1.444   0.690   9.226  0.8455  0.3427  0.0512
 6948SOL     OW32476   0.061   3.369   5.554  0.3057  0.0879  0.3342
 6948SOL    HW132477   0.154   3.363   5.530  0.3023 -1.8954  0.7883
 6948SOL    HW232478   0.027   3.407   5.474  0.5855 -0.4475 -0.0404
 6949SOL     OW32479   0.634   4.063   3.915  0.0245  0.0741 -0.4121
 6949SOL    HW132480   0.685   3.999   3.965 -0.1413  0.4381  0.2308
 6949SOL    HW232481   0.639   4.135   3.978 -1.9901 -0.4074  0.2955
 6950SOL     OW32482   2.075   0.698  16.746  0.1328 -0.0307 -0.1762
 6950SOL    HW132483   2.086   0.662  16.659  1.7098  1.9694 -0.8213
 6950SOL    HW232484   2.048   0.613  16.781  0.8912 -0.5712 -0.8993
 6951SOL     OW32485   3.706   0.624   3.963 -0.0911 -0.5710 -0.2727
 6951SOL    HW132486   3.666   0.674   3.891 -1.2071 -1.4163 -0.2474
 6951SOL    HW232487   3.642   0.557   3.987 -0.4403 -0.5541 -1.1360
 6952SOL     OW32488   1.441   4.468  16.307 -0.2288 -0.6356 -0.1725
 6952SOL    HW132489   1.391   4.511  16.238 -1.3514 -2.8121 -0.7222
 6952SOL    HW232490   1.504   4.418  16.255 -0.2539 -1.9298  1.0287
 6953SOL     OW32491   3.210   1.430   5.709 -0.3217 -0.2439  0.1121
 6953SOL    HW132492   3.224   1.463   5.620 -0.7729  0.6684  0.3776
 6953SOL    HW232493   3.175   1.506   5.755 -0.1763  0.1142 -0.3636
 6954SOL     OW32494   0.052   2.782   5.883  1.1737  0.2429 -0.3874
 6954SOL    HW132495   4.735   2.856   5.909  0.3074 -0.3393 -0.5774
 6954SOL    HW232496   0.069   2.805   5.791  0.9595  2.2094  0.0485
 6955SOL     OW32497   4.180   0.388   4.791 -0.1232 -0.5813 -0.7830
 6955SOL    HW132498   4.168   0.403   4.884  1.0378 -1.9588 -0.4155
 6955SOL    HW232499   4.265   0.432   4.787  0.1781 -1.2102 -1.3912
 6956SOL     OW32500   0.822   2.965   2.316 -0.3290 -0.1329 -0.2665
 6956SOL    HW132501   0.816   2.906   2.241  0.1983 -1.8604  1.0354
 6956SOL    HW232502   0.901   3.016   2.301 -0.3430 -0.0118  0.0803
 6957SOL     OW32503   4.179   1.536   1.898 -0.6174  0.5642  0.2112
 6957SOL    HW132504   4.257   1.541   1.953 -1.0838 -0.9363  1.0318
 6957SOL    HW232505   4.196   1.614   1.845 -1.4641  1.6391  1.5238
 6958SOL     OW32506   2.669   0.362   9.891  0.2766  0.5369 -0.1750
 6958SOL    HW132507   2.663   0.435   9.952 -0.1689 -0.1820  0.6470
 6958SOL    HW232508   2.625   0.304   9.952 -0.2448  1.8580  0.6906
 6959SOL     OW32509   4.426   1.220   6.387  0.1188  0.5430  0.6188
 6959SOL    HW132510   4.391   1.235   6.475  2.8390 -0.8623  1.9543
 6959SOL    HW232511   4.414   1.306   6.347 -1.2328 -0.8642 -1.9771
 6960SOL     OW32512   0.254   2.535  15.123  0.2828 -0.2109  0.2774
 6960SOL    HW132513   0.242   2.441  15.137  2.6111 -0.6051 -0.3764
 6960SOL    HW232514   0.231   2.562  15.212 -2.9574 -1.3142 -0.2314
 6961SOL     OW32515   3.428   1.548   3.838  0.0147 -0.1271 -0.2773
 6961SOL    HW132516   3.334   1.533   3.830  0.2617 -1.6974 -0.2273
 6961SOL    HW232517   3.460   1.466   3.875  0.0686  0.9667  2.0883
 6962SOL     OW32518   0.046   1.616   8.638 -0.0117  0.4152  0.1682
 6962SOL    HW132519   0.016   1.703   8.663 -0.9779  0.7278 -2.1333
 6962SOL    HW232520   0.060   1.586   8.728  1.8878 -2.2081 -1.0090
 6963SOL     OW32521   1.454   2.493   8.697  0.3322  0.1515  0.1090
 6963SOL    HW132522   1.360   2.508   8.704  0.6999  1.5992  1.9836
 6963SOL    HW232523   1.470   2.463   8.787 -0.1947  0.7108  0.3888
 6964SOL     OW32524   3.417   4.044   7.386  0.1982 -0.3670 -0.3273
 6964SOL    HW132525   3.417   4.014   7.295 -1.1917  0.7932 -0.7213
 6964SOL    HW232526   3.330   4.082   7.397 -0.9970 -2.7015 -1.8301
 6965SOL     OW32527   4.661   1.947   2.090  0.4189  0.3285  0.2772
 6965SOL    HW132528   4.582   1.895   2.074  0.1745  0.9296 -0.4813
 6965SOL    HW232529   4.631   1.999   2.165  2.9131 -0.3586  1.7562
 6966SOL     OW32530   3.696   3.342   6.900  0.4698 -0.4435 -0.1405
 6966SOL    HW132531   3.607   3.376   6.901  0.5084 -0.3742  1.2763
 6966SOL    HW232532   3.735   3.421   6.862 -1.7873  0.3441 -0.7744
 6967SOL     OW32533   0.777   0.116   5.969 -0.0937  0.2530 -0.2720
 6967SOL    HW132534   0.839   0.176   5.928  0.5131  0.0399  0.3332
 6967SOL    HW232535   0.694   0.145   5.931 -0.4210 -0.7734 -0.3630
 6968SOL     OW32536   4.109   2.976   1.497  0.4902  0.8227  0.2505
 6968SOL    HW132537   4.148   2.972   1.585  0.9755  0.0628  0.0097
 6968SOL    HW232538   4.098   2.885   1.467  4.5889  0.5353 -0.5054
 6969SOL     OW32539   3.610   3.314   0.843 -0.7028 -0.4608  0.5397
 6969SOL    HW132540   3.535   3.301   0.784  0.0212  1.4557 -0.7890
 6969SOL    HW232541   3.604   3.407   0.865  0.0456  0.2239 -2.1280
 6970SOL     OW32542   1.836   2.949   8.604  0.6053 -0.6342 -0.3791
 6970SOL    HW132543   1.853   2.861   8.639  1.5684  0.5161  1.9929
 6970SOL    HW232544   1.807   2.930   8.514  1.7573 -1.1776 -0.6338
 6971SOL     OW32545   0.535   4.293   2.853 -0.1543 -0.2713  0.1968
 6971SOL    HW132546   0.526   4.199   2.871  1.6611 -1.2504 -4.0682
 6971SOL    HW232547   0.626   4.304   2.880  0.8317 -2.2423 -2.3050
 6972SOL     OW32548   2.307   3.725  13.022  0.3334  0.4420  0.2418
 6972SOL    HW132549   2.233   3.745  13.079 -0.3126 -1.0992 -0.0298
 6972SOL    HW232550   2.269   3.673  12.951  1.2037 -0.5478  0.5009
 6973SOL     OW32551   2.740   2.996   1.351 -0.0546 -0.1167 -0.9718
 6973SOL    HW132552   2.764   3.088   1.362  0.8493 -0.4767  0.0970
 6973SOL    HW232553   2.788   2.952   1.421  1.0953  0.1471 -1.5904
 6974SOL     OW32554   3.792   0.556  11.024 -0.2459 -0.5059  0.2164
 6974SOL    HW132555   3.772   0.632  11.080 -2.8988 -1.5029  0.6062
 6974SOL    HW232556   3.725   0.565  10.957 -1.0681 -3.4042  0.6403
 6975SOL     OW32557   0.499   0.998   3.013 -0.2343  0.0433  0.0235
 6975SOL    HW132558   0.419   0.953   3.037 -0.9493  1.8732  1.1041
 6975SOL    HW232559   0.536   0.949   2.940  2.6800  2.5927 -0.2563
 6976SOL     OW32560   0.127   0.082   3.483 -0.2278 -0.0595  0.2140
 6976SOL    HW132561   0.185   0.088   3.559 -0.6654  0.5441  0.5019
 6976SOL    HW232562   0.174   0.133   3.416 -2.2807  0.7032 -0.6409
 6977SOL     OW32563   2.150   1.285  12.449  0.0867  0.1318 -0.1492
 6977SOL    HW132564   2.083   1.346  12.417  1.0736  0.2135 -2.0340
 6977SOL    HW232565   2.114   1.197  12.448  2.3141 -0.7701 -0.5075
 6978SOL     OW32566   2.639   2.860   6.567 -0.1484  0.0661 -0.3984
 6978SOL    HW132567   2.586   2.853   6.647 -0.3803 -0.3527 -0.5879
 6978SOL    HW232568   2.722   2.838   6.609  0.4411 -1.6097 -2.4346
 6979SOL     OW32569   3.310   2.487  12.970  0.5487 -0.2574 -0.5006
 6979SOL    HW132570   3.354   2.468  13.052 -1.4448 -1.6206  0.2372
 6979SOL    HW232571   3.355   2.566  12.938  0.5180 -0.4563 -1.0496
 6980SOL     OW32572   1.945   4.452   7.487 -0.4574  0.0719 -0.3016
 6980SOL    HW132573   2.001   4.428   7.413 -2.6017  2.6747 -2.7441
 6980SOL    HW232574   2.009   4.462   7.558  0.7581 -0.8815 -1.2532
 6981SOL     OW32575   1.830   2.660   9.077  0.9277  0.1473 -0.0756
 6981SOL    HW132576   1.882   2.738   9.092 -0.4856  0.7473  1.6894
 6981SOL    HW232577   1.743   2.683   9.109  1.1594  0.3801  0.3860
 6982SOL     OW32578   1.876   2.156   2.541  0.2360  0.2564  0.1713
 6982SOL    HW132579   1.804   2.095   2.560  0.4806  0.1973  0.9054
 6982SOL    HW232580   1.851   2.241   2.579  0.3668  0.2710  0.2224
 6983SOL     OW32581   3.697   4.389  10.482  0.1666 -0.1591 -1.0666
 6983SOL    HW132582   3.642   4.460  10.450 -0.0858 -0.3933 -1.1441
 6983SOL    HW232583   3.697   4.331  10.407  3.3428 -2.1497  0.4422
 6984SOL     OW32584   2.282   2.094  11.400  0.4963 -0.2918 -0.1789
 6984SOL    HW132585   2.362   2.127  11.442  0.7624 -1.2678  0.0760
 6984SOL    HW232586   2.234   2.071  11.479  1.3740 -0.0946  0.4205
 6985SOL     OW32587   2.894   1.531   1.503  0.4680  0.1086 -0.6892
 6985SOL    HW132588   2.976   1.507   1.546  0.3452 -0.3369 -0.7003
 6985SOL    HW232589   2.932   1.504   1.419  0.5069 -0.2795 -0.5483
 6986SOL     OW32590   1.156   2.864   6.697 -0.0851  0.2928  0.5329
 6986SOL    HW132591   1.070   2.869   6.655  1.0460 -0.9664 -1.9480
 6986SOL    HW232592   1.136   2.852   6.789  0.4176 -2.5166  0.2737
 6987SOL     OW32593   3.002   1.895   4.169 -0.3951  0.0088  0.5641
 6987SOL    HW132594   2.931   1.956   4.150 -0.3406  1.2322  4.3121
 6987SOL    HW232595   3.082   1.940   4.140 -0.3486  0.7914  1.9286
 6988SOL     OW32596   0.521   1.956   4.872 -0.1502 -0.3355  0.1656
 6988SOL    HW132597   0.517   2.051   4.874 -0.2345 -0.3479  0.7348
 6988SOL    HW232598   0.491   1.936   4.784  0.8757 -3.1838  0.4668
 6989SOL     OW32599   2.891   3.725   7.607  0.1189  0.0490 -0.7369
 6989SOL    HW132600   2.894   3.640   7.649 -0.5884  0.7050  0.6313
 6989SOL    HW232601   2.984   3.743   7.598  0.0673  1.0640  0.7730
 6990SOL     OW32602   4.681   0.515   3.403  0.1724 -0.0063  0.4077
 6990SOL    HW132603   4.696   0.441   3.344 -0.2779  1.1845 -1.2134
 6990SOL    HW232604   4.662   0.483   3.491 -1.1561 -0.7557 -0.1592
 6991SOL     OW32605   0.683   3.549  13.302  0.2510  0.3801  0.2383
 6991SOL    HW132606   0.590   3.533  13.318  0.8122 -0.5322  2.5949
 6991SOL    HW232607   0.713   3.460  13.283  1.8164  1.0433 -0.4258
 6992SOL     OW32608   0.435   3.081   5.031 -0.1398 -0.1340  0.3254
 6992SOL    HW132609   0.352   3.034   5.024 -0.9274  1.3177 -0.2805
 6992SOL    HW232610   0.459   3.091   4.939  1.1243  1.6452  0.8485
 6993SOL     OW32611   1.126   2.822  17.028  0.2741 -0.3337 -0.1215
 6993SOL    HW132612   1.108   2.915  17.043  1.7623 -0.4515  2.3239
 6993SOL    HW232613   1.172   2.835  16.945 -1.2685 -0.4699 -1.0096
 6994SOL     OW32614   4.689   2.833   2.433  0.4557  0.7964  0.0414
 6994SOL    HW132615   4.707   2.753   2.382 -1.6873 -0.3787  1.1426
 6994SOL    HW232616   4.623   2.873   2.377  0.7713  1.7365  0.3443
 6995SOL     OW32617   1.123   1.919   4.662  0.1748 -0.4736 -0.8046
 6995SOL    HW132618   1.087   2.005   4.641 -1.2133 -0.6012  1.0859
 6995SOL    HW232619   1.216   1.913   4.642  0.2568 -0.7419 -0.3417
 6996SOL     OW32620   2.074   1.559   3.760  0.2228 -0.2473  0.9817
 6996SOL    HW132621   2.127   1.480   3.762  0.6899  0.0383 -0.3375
 6996SOL    HW232622   2.077   1.583   3.668 -0.9566  0.2195  1.0647
 6997SOL     OW32623   3.499   4.407   0.606 -0.9804 -0.5371 -0.6649
 6997SOL    HW132624   3.584   4.442   0.631 -0.0474 -2.2590 -1.3624
 6997SOL    HW232625   3.479   4.335   0.666 -1.8640 -1.5205 -2.1311
 6998SOL     OW32626   1.582   0.608   5.011 -0.1294 -0.2655  0.1642
 6998SOL    HW132627   1.538   0.526   4.989 -1.0985 -0.0017  1.1152
 6998SOL    HW232628   1.519   0.672   4.979 -1.4841 -1.3439  0.6436
 6999SOL     OW32629   2.929   1.166   0.203  0.6729  0.0436  0.3636
 6999SOL    HW132630   2.996   1.230   0.180 -0.0478  0.3670 -0.8080
 6999SOL    HW232631   2.847   1.207   0.175  0.8145 -0.7133 -1.1251
 7000SOL     OW32632   1.961   2.509   9.378 -0.3507 -0.3158 -0.3853
 7000SOL    HW132633   1.964   2.444   9.309  2.5643  0.0556 -0.6166
 7000SOL    HW232634   1.871   2.502   9.411  0.2303 -1.3453  0.9874
 7001SOL     OW32635   1.163   3.897  14.619  0.2382 -0.2045 -0.5413
 7001SOL    HW132636   1.256   3.906  14.638  0.2172 -2.2027  0.6076
 7001SOL    HW232637   1.112   3.907  14.700 -0.5232  0.5576 -1.1198
 7002SOL     OW32638   2.364   0.736   8.175 -0.0238 -0.0093  0.1960
 7002SOL    HW132639   2.282   0.741   8.224  2.1213 -1.4837  3.9040
 7002SOL    HW232640   2.421   0.704   8.245 -1.2064 -0.9032  0.7474
 7003SOL     OW32641   4.696   4.209   4.026 -0.3808 -0.3296  0.0453
 7003SOL    HW132642   4.728   4.149   3.958  0.4952 -1.1438  1.1868
 7003SOL    HW232643   4.653   4.136   4.071 -1.5462 -1.6246 -3.1055
 7004SOL     OW32644   0.496   2.782  13.013 -0.3424  0.2945 -0.0258
 7004SOL    HW132645   0.524   2.745  13.096  0.2427 -0.7181 -0.6665
 7004SOL    HW232646   0.581   2.789  12.969  0.1943 -0.2388  0.9277
 7005SOL     OW32647   1.544   0.607   2.544 -0.3475 -0.1867 -0.3713
 7005SOL    HW132648   1.537   0.690   2.498  0.9519  1.2549  2.0020
 7005SOL    HW232649   1.453   0.583   2.562 -0.7079  1.2156 -0.3026
 7006SOL     OW32650   2.455   1.927   8.354  0.3528  0.1402  0.2550
 7006SOL    HW132651   2.419   1.927   8.443  1.5230  2.5029  0.7374
 7006SOL    HW232652   2.487   1.837   8.351  1.4789  0.6006 -1.5596
 7007SOL     OW32653   1.376   4.216   3.158 -0.5214  0.2998 -0.1433
 7007SOL    HW132654   1.284   4.221   3.130 -0.6631 -0.7347  0.1154
 7007SOL    HW232655   1.372   4.307   3.187 -1.1834 -0.1418  1.1728
 7008SOL     OW32656   4.357   2.771   5.583  0.4740  0.5168 -0.1549
 7008SOL    HW132657   4.437   2.824   5.581  0.2017  0.9286 -0.2173
 7008SOL    HW232658   4.300   2.830   5.534 -0.0772  1.0084  1.1006
 7009SOL     OW32659   0.247   2.093  15.364  0.6984 -0.2855 -0.3340
 7009SOL    HW132660   0.193   2.149  15.421 -0.8670 -0.4127 -1.6805
 7009SOL    HW232661   0.201   2.009  15.361  1.4536 -0.6370 -2.0315
 7010SOL     OW32662   3.302   3.971   2.680 -0.2940 -0.0264 -0.0436
 7010SOL    HW132663   3.308   4.004   2.590  2.1107  0.1614  0.1750
 7010SOL    HW232664   3.336   3.882   2.676  1.2376  0.6651 -2.2876
 7011SOL     OW32665   3.390   1.739   7.041  0.7267 -0.3064 -0.2488
 7011SOL    HW132666   3.442   1.808   7.000  0.7824 -1.0917 -1.4951
 7011SOL    HW232667   3.378   1.767   7.132  0.0225  1.8356 -0.9953
 7012SOL     OW32668   3.608   4.409  16.500 -0.4881  0.2563  0.4276
 7012SOL    HW132669   3.697   4.442  16.516  0.8999 -3.0224 -0.5963
 7012SOL    HW232670   3.617   4.331  16.445 -1.2525 -0.1438  0.8768
 7013SOL     OW32671   3.915   4.144   5.979 -0.1727  0.1431  0.2536
 7013SOL    HW132672   3.819   4.151   5.980 -0.0718  2.0727 -3.2545
 7013SOL    HW232673   3.925   4.051   5.997 -1.2265 -0.0880 -0.3713
 7014SOL     OW32674   4.447   0.450  16.546  0.2873  0.1005  0.6916
 7014SOL    HW132675   4.445   0.359  16.578  0.4817  0.4923  1.8218
 7014SOL    HW232676   4.355   0.463  16.523 -0.2134  0.8871  3.1231
 7015SOL     OW32677   0.828   3.756   8.267  0.1167  0.5847  0.1661
 7015SOL    HW132678   0.852   3.846   8.242  2.6828  0.5002  2.3015
 7015SOL    HW232679   0.909   3.714   8.294  0.9071  1.0622 -1.4331
 7016SOL     OW32680   4.068   4.149   9.290  0.3961 -0.2991  0.2228
 7016SOL    HW132681   4.065   4.106   9.375 -0.2211 -0.4228  0.1331
 7016SOL    HW232682   4.039   4.238   9.312  2.8368  0.1093  1.8466
 7017SOL     OW32683   2.900   3.698   3.646 -0.7054  0.2999  0.4353
 7017SOL    HW132684   2.949   3.618   3.626 -0.0899  0.2880  2.0260
 7017SOL    HW232685   2.814   3.665   3.670  0.0238 -0.7996  1.5324
 7018SOL     OW32686   2.097   0.185   8.769 -0.5796  0.4674 -0.2035
 7018SOL    HW132687   2.012   0.144   8.752  0.0052 -0.9287  0.2449
 7018SOL    HW232688   2.129   0.132   8.842  1.2704  0.7106 -0.8388
 7019SOL     OW32689   0.518   0.286  17.505  0.1544 -0.2117  0.4216
 7019SOL    HW132690   0.574   0.356  17.472  1.7210 -2.2785 -1.2992
 7019SOL    HW232691   0.575   0.211  17.491 -2.4456 -1.9842 -0.6143
 7020SOL     OW32692   0.658   3.112   7.363  0.4028 -1.0212  0.0793
 7020SOL    HW132693   0.739   3.156   7.391  0.4321 -0.5738 -0.7073
 7020SOL    HW232694   0.601   3.186   7.380 -0.1013 -0.7513 -2.7413
 7021SOL     OW32695   1.751   3.953   8.690  0.0188 -0.0363  0.5648
 7021SOL    HW132696   1.715   3.964   8.602  1.5752  0.1768 -0.0519
 7021SOL    HW232697   1.845   3.943   8.673 -0.2557 -3.5780  1.2441
 7022SOL     OW32698   4.489   0.874   3.805  0.3216 -0.0850 -0.3552
 7022SOL    HW132699   4.420   0.816   3.837  0.3639  0.4038  0.6199
 7022SOL    HW232700   4.569   0.821   3.802  0.2031 -0.2300 -0.9940
 7023SOL     OW32701   2.891   3.244   4.274 -0.3084 -0.1416 -0.2490
 7023SOL    HW132702   2.923   3.227   4.363  1.0637  1.2888 -0.4821
 7023SOL    HW232703   2.856   3.333   4.274  0.9075  0.3142  2.4795
 7024SOL     OW32704   1.224   4.687   3.371  0.2002  0.0776  0.1342
 7024SOL    HW132705   1.300   4.700   3.427  1.4559  2.6381 -2.1412
 7024SOL    HW232706   1.234   0.012   3.300 -0.6875 -1.5924 -1.4896
 7025SOL     OW32707   1.670   4.038   3.869  0.3693  0.3734  0.0831
 7025SOL    HW132708   1.714   4.107   3.818  3.2007 -0.5345  1.3028
 7025SOL    HW232709   1.687   4.060   3.960  2.3507 -1.0246  0.0435
 7026SOL     OW32710   1.282   2.481   9.432 -0.0334  0.3001  0.4127
 7026SOL    HW132711   1.338   2.462   9.508  1.7666  1.4581 -0.6245
 7026SOL    HW232712   1.311   2.420   9.364  3.3139  1.3480  0.8803
 7027SOL     OW32713   3.275   1.732   0.672 -0.1046 -0.7879  0.3625
 7027SOL    HW132714   3.284   1.707   0.764 -1.9627 -1.2674  0.4023
 7027SOL    HW232715   3.186   1.705   0.652 -1.2298  2.3727  0.9997
 7028SOL     OW32716   2.693   0.201   9.296 -0.3820 -0.1023  0.6668
 7028SOL    HW132717   2.611   0.193   9.246  0.4276  1.7118 -0.9512
 7028SOL    HW232718   2.723   0.111   9.281 -1.9586 -0.7360  1.2742
 7029SOL     OW32719   0.129   3.989   4.116 -0.2045 -0.0917  0.0677
 7029SOL    HW132720   0.212   4.010   4.074  1.2834 -2.1951  1.9184
 7029SOL    HW232721   0.083   3.931   4.055 -0.0863  1.2653 -1.3029
 7030SOL     OW32722   2.661   0.144   2.219  0.1939 -0.2286 -0.3378
 7030SOL    HW132723   2.641   0.230   2.257 -0.0584 -0.9105  1.0902
 7030SOL    HW232724   2.589   0.134   2.157 -0.3665  1.2939  0.0654
 7031SOL     OW32725   0.619   3.627  12.050 -0.0858 -0.5003  0.3055
 7031SOL    HW132726   0.551   3.642  11.984 -0.3003 -1.3687  0.3345
 7031SOL    HW232727   0.693   3.589  12.003  1.5624  1.0648  1.6040
 7032SOL     OW32728   0.523   4.493   3.582  0.6701  0.1068  0.2703
 7032SOL    HW132729   0.611   4.468   3.554  0.1472 -0.6401 -0.6750
 7032SOL    HW232730   0.495   4.426   3.645  1.5186 -0.6202 -0.1255
 7033SOL     OW32731   1.338   0.854   3.375  0.2007  0.4354  0.4622
 7033SOL    HW132732   1.354   0.946   3.397  0.1613  0.1807  1.5570
 7033SOL    HW232733   1.421   0.808   3.387 -0.0689 -0.5111 -1.2700
 7034SOL     OW32734   1.009   2.394   4.233 -0.3244  0.1783 -0.3788
 7034SOL    HW132735   1.077   2.378   4.167  0.1471  0.7511 -0.0294
 7034SOL    HW232736   0.982   2.302   4.236 -0.8910  0.4428  2.1134
 7035SOL     OW32737   2.136   3.043   8.403 -0.4803  0.2382  1.0108
 7035SOL    HW132738   2.116   2.981   8.332  2.4371  0.4859 -0.0175
 7035SOL    HW232739   2.194   3.103   8.358 -0.5368  0.8678  1.7843
 7036SOL     OW32740   3.971   2.908   3.963  1.0910 -0.2651  0.7352
 7036SOL    HW132741   3.973   2.836   4.026  0.1814  0.8582  2.0660
 7036SOL    HW232742   3.987   2.984   4.019  2.4196 -0.9948  1.3207
 7037SOL     OW32743   1.847   1.157  12.287 -0.2719  0.6091  0.2153
 7037SOL    HW132744   1.774   1.218  12.289  1.2698  2.4352  0.7734
 7037SOL    HW232745   1.833   1.114  12.203 -0.2734 -1.6371  1.3591
 7038SOL     OW32746   3.666   4.123   3.990  0.0965  0.1900 -0.0746
 7038SOL    HW132747   3.604   4.050   3.986  1.1583 -0.5794 -2.6412
 7038SOL    HW232748   3.737   4.094   4.048 -0.1810 -2.4566 -1.0267
 7039SOL     OW32749   1.023   4.629   2.199 -0.0203 -0.0823 -0.1094
 7039SOL    HW132750   1.009   4.611   2.292  1.6396  1.3657  0.4192
 7039SOL    HW232751   1.092   4.695   2.205 -0.4328  0.1523  2.0958
 7040SOL     OW32752   2.871   0.879  11.571 -0.5264  0.0055  0.2632
 7040SOL    HW132753   2.890   0.823  11.646 -0.8761  1.4591  1.4523
 7040SOL    HW232754   2.877   0.822  11.495 -2.8522  0.4129 -0.2169
 7041SOL     OW32755   0.352   1.771  15.264  0.9305 -0.0718 -0.1488
 7041SOL    HW132756   0.306   1.747  15.184 -1.5064  0.1185  1.1936
 7041SOL    HW232757   0.280   1.786  15.326  0.1833  0.3035 -1.1079
 7042SOL     OW32758   4.721   3.077   6.256 -0.0361  0.1469  0.0708
 7042SOL    HW132759   4.629   3.052   6.253 -0.2147  0.8378 -0.2259
 7042SOL    HW232760   0.006   3.097   6.165 -0.3233 -2.4506 -0.5829
 7043SOL     OW32761   2.327   2.271  17.404 -0.3264  0.6437 -0.5795
 7043SOL    HW132762   2.237   2.299  17.387 -0.5091  0.8678  0.7726
 7043SOL    HW232763   2.326   2.186  17.360  0.5722  0.1254  0.3992
 7044SOL     OW32764   4.272   3.882   9.239  0.3231 -0.3640 -0.1316
 7044SOL    HW132765   4.305   3.794   9.222 -0.5681 -0.5201 -1.0108
 7044SOL    HW232766   4.179   3.874   9.222  0.1770  1.6028 -0.2663
 7045SOL     OW32767   4.727   2.005  17.184  0.0246 -0.6149  0.2140
 7045SOL    HW132768   4.644   1.957  17.189 -0.9823  0.9510 -1.6210
 7045SOL    HW232769   0.009   2.017  17.277  0.5729  2.6941 -0.3310
 7046SOL     OW32770   0.456   0.658   5.393 -0.2445 -0.3746  0.0027
 7046SOL    HW132771   0.382   0.718   5.404 -1.8472 -2.2847 -0.2059
 7046SOL    HW232772   0.413   0.583   5.351  0.5017  0.9276 -3.0698
 7047SOL     OW32773   4.669   1.974  11.575 -0.1094  0.4148  0.5230
 7047SOL    HW132774   4.701   1.884  11.580  0.4585  0.5842 -0.1898
 7047SOL    HW232775   4.596   1.961  11.514  1.5876 -0.1481 -1.3629
 7048SOL     OW32776   0.735   4.067  14.614  0.3850  0.8655  0.1854
 7048SOL    HW132777   0.729   3.973  14.596 -1.7738  1.2314 -1.0427
 7048SOL    HW232778   0.722   4.101  14.525 -1.7565 -0.9132 -0.1907
 7049SOL     OW32779   0.405   2.382   3.890  0.1583 -0.4561 -0.3847
 7049SOL    HW132780   0.370   2.294   3.876 -1.8694  0.0729  1.3946
 7049SOL    HW232781   0.327   2.438   3.886  0.8754  0.6174  0.4507
 7050SOL     OW32782   2.444   3.521   6.456  0.3982  0.4312  0.1526
 7050SOL    HW132783   2.474   3.486   6.372  1.0037  2.0603 -0.3036
 7050SOL    HW232784   2.375   3.458   6.478  0.6201  1.0196  2.4363
 7051SOL     OW32785   3.545   3.656  17.459  0.3498  0.2366  0.0127
 7051SOL    HW132786   3.609   3.718  17.426  1.0812 -0.5442 -0.0275
 7051SOL    HW232787   3.597   3.624  17.532  1.2424  0.7207 -0.4161
 7052SOL     OW32788   3.172   4.512  11.079 -0.1847 -0.5111  0.0707
 7052SOL    HW132789   3.114   4.436  11.076 -0.8568  0.0838 -1.9760
 7052SOL    HW232790   3.163   4.529  11.173  0.8018 -4.0144  0.7733
 7053SOL     OW32791   0.645   0.885   6.129 -0.7417  0.2523 -0.2899
 7053SOL    HW132792   0.645   0.886   6.224 -0.4893 -2.5875 -0.2390
 7053SOL    HW232793   0.593   0.958   6.097  0.2240  0.6685 -0.9208
 7054SOL     OW32794   4.060   1.677   2.450 -0.1460 -1.0093 -0.4004
 7054SOL    HW132795   4.037   1.664   2.542  2.1572  0.0937  0.3468
 7054SOL    HW232796   4.056   1.591   2.410  0.3424 -1.1001 -0.2578
 7055SOL     OW32797   3.570   2.922   0.568 -0.5348  0.5562 -0.3874
 7055SOL    HW132798   3.579   2.959   0.480 -1.1082 -0.0492 -0.7002
 7055SOL    HW232799   3.659   2.935   0.599 -1.2627  0.1494  1.8337
 7056SOL     OW32800   0.539   0.284  12.448 -0.3628  0.6210 -0.6163
 7056SOL    HW132801   0.450   0.255  12.467 -0.6993  0.1703 -2.9043
 7056SOL    HW232802   0.552   0.335  12.528  1.8539 -1.7138  0.5343
 7057SOL     OW32803   3.374   0.827  12.776  0.3843  0.0291  0.7964
 7057SOL    HW132804   3.291   0.799  12.813  0.3174  1.1522  1.4865
 7057SOL    HW232805   3.435   0.833  12.850  1.6990  1.6477 -0.4015
 7058SOL     OW32806   1.305   2.999  17.336  0.4477 -0.3154 -1.0578
 7058SOL    HW132807   1.229   2.991  17.279  0.0193  0.7468 -0.6314
 7058SOL    HW232808   1.266   3.006  17.423  0.7865 -1.0874 -0.8465
 7059SOL     OW32809   2.270   3.929   3.832  0.1006 -0.6136 -0.0834
 7059SOL    HW132810   2.325   3.959   3.759 -1.4035  1.7161 -0.2690
 7059SOL    HW232811   2.315   3.975   3.903 -0.2068 -1.2589  0.5234
 7060SOL     OW32812   4.194   0.084  11.889  0.2242  0.0830 -0.2171
 7060SOL    HW132813   4.250   0.156  11.918  0.7912 -0.6441  0.5030
 7060SOL    HW232814   4.146   0.072  11.971 -0.7215 -0.3486 -0.8420
 7061SOL     OW32815   3.997   2.379   3.675 -0.3190 -0.5429 -0.2231
 7061SOL    HW132816   4.030   2.378   3.585  1.3652  2.9740  0.3618
 7061SOL    HW232817   3.919   2.326   3.659  1.0099 -3.2523  2.5229
 7062SOL     OW32818   1.266   1.362   7.342 -0.2489  0.2341 -0.0933
 7062SOL    HW132819   1.186   1.333   7.298  0.8490 -1.0113 -1.2733
 7062SOL    HW232820   1.258   1.320   7.427 -0.4211  0.7461  0.1432
 7063SOL     OW32821   3.386   1.782  15.316  0.4890 -0.3349  0.5005
 7063SOL    HW132822   3.456   1.785  15.381 -0.3131 -3.1148  1.4846
 7063SOL    HW232823   3.439   1.751  15.242 -1.0756  1.9667 -1.5641
 7064SOL     OW32824   0.063   3.210   2.299 -0.5215  0.3242 -0.0358
 7064SOL    HW132825   0.069   3.142   2.366  1.6024 -0.5578 -1.0788
 7064SOL    HW232826   4.725   3.254   2.335 -0.3835  0.0213  0.6336
 7065SOL     OW32827   3.077   2.752   2.684 -0.0483 -0.3468  0.2658
 7065SOL    HW132828   3.060   2.773   2.776  0.1468  2.1265 -0.2626
 7065SOL    HW232829   2.992   2.716   2.659 -0.5007 -0.7063  2.3063
 7066SOL     OW32830   3.263   2.149   7.256  0.3477  0.5515 -0.6315
 7066SOL    HW132831   3.186   2.095   7.242  2.1393 -2.5970  1.6304
 7066SOL    HW232832   3.226   2.237   7.265  2.1176  1.3453 -1.1495
 7067SOL     OW32833   0.355   4.625   6.679  0.4027 -0.0039 -0.5648
 7067SOL    HW132834   0.368   4.720   6.687  1.5908 -0.3060  1.1830
 7067SOL    HW232835   0.447   4.600   6.692  0.7091  0.3719 -2.0744
 7068SOL     OW32836   3.214   2.921   3.095 -0.1541 -0.2918  0.0544
 7068SOL    HW132837   3.233   2.943   3.186  0.8840 -0.6711 -0.0634
 7068SOL    HW232838   3.259   2.993   3.051  0.4245 -1.5229 -1.3840
 7069SOL     OW32839   0.454   1.094   8.933  0.0332  0.0766 -0.1836
 7069SOL    HW132840   0.395   1.168   8.919  0.9070  0.5781 -1.2407
 7069SOL    HW232841   0.534   1.142   8.953 -0.6778  0.9762  0.4893
 7070SOL     OW32842   3.578   1.182   1.383 -0.3785  0.6248 -0.4120
 7070SOL    HW132843   3.554   1.106   1.437  0.0021  1.3282  0.7612
 7070SOL    HW232844   3.619   1.138   1.309 -0.2248  0.1519 -0.0454
 7071SOL     OW32845   0.986   2.113   8.629 -0.1225  0.8281 -0.1384
 7071SOL    HW132846   0.955   2.107   8.720 -0.8552 -0.1754 -0.4460
 7071SOL    HW232847   0.906   2.095   8.579 -0.2712  0.3701  0.2539
 7072SOL     OW32848   0.884   2.015  11.618  0.7136 -0.0893 -0.6227
 7072SOL    HW132849   0.795   1.995  11.590 -0.1764  0.3205  1.8846
 7072SOL    HW232850   0.896   2.104  11.585 -1.2948  0.5490  0.3631
 7073SOL     OW32851   4.264   2.090  12.784  0.2706 -0.1617 -0.4825
 7073SOL    HW132852   4.234   2.065  12.871 -1.1495  0.4720 -0.7834
 7073SOL    HW232853   4.325   2.160  12.806 -2.5314  1.6594  1.3607
 7074SOL     OW32854   1.813   4.177   7.295  0.2014  0.2401 -0.0791
 7074SOL    HW132855   1.896   4.139   7.323  1.1206  1.7327 -0.7714
 7074SOL    HW232856   1.810   4.159   7.201  0.8506  0.1479 -0.0806
 7075SOL     OW32857   3.698   1.913   9.153  0.2108  0.3197 -0.3759
 7075SOL    HW132858   3.608   1.945   9.161 -0.2660 -0.7826 -1.3365
 7075SOL    HW232859   3.739   1.954   9.230  1.7693 -2.1663  0.1102
 7076SOL     OW32860   3.202   2.455   0.351 -0.1446  0.3530 -0.2698
 7076SOL    HW132861   3.265   2.386   0.373  0.0990  0.7311  0.2203
 7076SOL    HW232862   3.184   2.431   0.260 -3.3013 -1.2800  0.8038
 7077SOL     OW32863   3.902   3.832  12.459  0.4802 -0.1324 -0.5915
 7077SOL    HW132864   3.954   3.865  12.387  0.6104  0.8829 -0.0347
 7077SOL    HW232865   3.965   3.801  12.524  0.7824 -1.4165 -1.4882
 7078SOL     OW32866   2.119   1.615   3.515 -0.1313  0.2844 -0.3202
 7078SOL    HW132867   2.048   1.657   3.466 -0.8483 -2.3346 -1.5267
 7078SOL    HW232868   2.191   1.674   3.495 -0.4148  1.2616  1.5691
 7079SOL     OW32869   0.069   0.753  13.798 -0.0070 -0.1950  0.3119
 7079SOL    HW132870   0.157   0.757  13.761  0.3511 -2.5937  0.9213
 7079SOL    HW232871   0.044   0.661  13.802  1.1106 -0.4887  0.6704
 7080SOL     OW32872   2.973   1.374   7.560 -0.0123 -0.1822 -0.3051
 7080SOL    HW132873   3.050   1.428   7.579  0.7857 -1.3183 -0.3755
 7080SOL    HW232874   2.998   1.336   7.477  0.0246  1.6775 -1.1501
 7081SOL     OW32875   0.988   2.848  13.020  1.1066  0.3125 -0.1169
 7081SOL    HW132876   1.014   2.937  12.996  1.7062  0.2823  0.4142
 7081SOL    HW232877   1.073   2.816  13.049 -0.6371 -2.2053  2.2326
 7082SOL     OW32878   0.465   4.335   1.995 -0.0308 -0.7085  0.7182
 7082SOL    HW132879   0.501   4.305   1.911  1.4565  0.1892  1.0263
 7082SOL    HW232880   0.378   4.296   1.990 -0.4942  0.5285 -0.7980
 7083SOL     OW32881   1.123   1.077   4.924  0.1976 -0.5537 -0.2112
 7083SOL    HW132882   1.165   1.047   4.844 -1.4254  1.2736 -1.7694
 7083SOL    HW232883   1.195   1.124   4.967 -0.6656  1.5456 -1.0797
 7084SOL     OW32884   1.511   2.472  16.626  0.0435 -0.9396  0.0465
 7084SOL    HW132885   1.561   2.471  16.707 -1.0362 -0.3854  0.7219
 7084SOL    HW232886   1.431   2.428  16.655 -0.6263  0.4549  0.2638
 7085SOL     OW32887   1.173   1.530   9.598  0.0179 -0.6839  0.6487
 7085SOL    HW132888   1.128   1.554   9.679 -2.8538  0.5275 -1.3248
 7085SOL    HW232889   1.132   1.600   9.546  0.0345 -0.6040  0.7430
 7086SOL     OW32890   4.047   0.789   4.342  0.0118  0.4000  0.4631
 7086SOL    HW132891   4.136   0.759   4.359 -0.4086 -0.0319  1.8569
 7086SOL    HW232892   4.022   0.774   4.433  1.6828 -2.9130  0.3639
 7087SOL     OW32893   2.712   0.229   2.628 -0.5130 -0.1371 -0.1187
 7087SOL    HW132894   2.710   0.297   2.560  0.6274  1.4784  1.4801
 7087SOL    HW232895   2.782   0.255   2.687  2.0330 -0.7633 -2.8511
 7088SOL     OW32896   0.667   1.644   9.044 -0.7191  0.3426  0.1625
 7088SOL    HW132897   0.598   1.581   9.065  1.5118 -1.8634  0.9426
 7088SOL    HW232898   0.705   1.603   8.967 -1.8576  1.7547 -1.1312
 7089SOL     OW32899   0.527   3.282   2.550  0.3514 -0.1671  0.3775
 7089SOL    HW132900   0.473   3.268   2.472 -1.2542  0.0611  1.4362
 7089SOL    HW232901   0.479   3.228   2.613  0.3561 -1.1449 -0.4550
 7090SOL     OW32902   0.686   2.200  10.239  0.1409 -0.7935 -0.1057
 7090SOL    HW132903   0.609   2.243  10.276  0.7002  0.2166 -0.1153
 7090SOL    HW232904   0.704   2.270  10.176  0.2892 -0.0547  0.7510
 7091SOL     OW32905   3.983   2.469   1.354 -0.0634 -0.1772  0.4964
 7091SOL    HW132906   3.902   2.457   1.304 -0.1357  1.2035  0.2761
 7091SOL    HW232907   3.944   2.445   1.438 -1.1526 -0.8862 -0.2162
 7092SOL     OW32908   2.982   1.035   3.203  0.2099 -0.1446 -0.3079
 7092SOL    HW132909   3.039   1.024   3.279  2.6354 -0.6435 -2.1933
 7092SOL    HW232910   3.030   0.986   3.136 -2.2272 -0.8722 -1.5460
 7093SOL     OW32911   3.754   2.835  11.377  0.9335 -0.0750 -0.7474
 7093SOL    HW132912   3.718   2.921  11.400  1.3179 -0.5390  1.6246
 7093SOL    HW232913   3.847   2.845  11.397  0.4976  3.4972 -0.5079
 7094SOL     OW32914   0.014   3.735   3.721  0.1138  0.0817 -0.1637
 7094SOL    HW132915   4.674   3.749   3.668 -0.3064  0.9640  0.6947
 7094SOL    HW232916   0.050   3.650   3.696  1.7353 -0.0570  2.6170
 7095SOL     OW32917   2.030   3.252   7.125 -0.4328 -0.3538  0.6453
 7095SOL    HW132918   2.030   3.177   7.183  2.5396 -1.8585 -1.3341
 7095SOL    HW232919   2.095   3.240   7.055 -1.2412  0.9580 -0.3475
 7096SOL     OW32920   2.276   0.412   2.488 -0.0894 -0.0009  0.1618
 7096SOL    HW132921   2.264   0.373   2.575 -2.5076  1.2661  0.3819
 7096SOL    HW232922   2.260   0.506   2.496  2.1072  0.4007 -0.2751
 7097SOL     OW32923   3.565   1.064  15.921 -0.6941 -0.2393  0.0394
 7097SOL    HW132924   3.476   1.090  15.897 -0.5195 -1.1284 -1.5582
 7097SOL    HW232925   3.552   1.043  16.014  0.4381  0.3408  0.3299
 7098SOL     OW32926   2.775   2.151   8.398  0.4212 -0.1341 -0.5601
 7098SOL    HW132927   2.841   2.093   8.360  1.7940  0.2990  1.1793
 7098SOL    HW232928   2.723   2.177   8.322 -1.3064 -3.2090 -0.4250
 7099SOL     OW32929   1.122   2.066   7.626  0.4579 -0.3570 -0.0949
 7099SOL    HW132930   1.057   2.133   7.643  1.0924 -0.2242  1.7391
 7099SOL    HW232931   1.082   1.993   7.577  1.3996 -0.8591 -0.1171
 7100SOL     OW32932   3.555   0.520  15.166 -0.1688  0.2875  0.1939
 7100SOL    HW132933   3.479   0.498  15.112  0.2731  3.8703 -1.9268
 7100SOL    HW232934   3.547   0.448  15.228 -1.9303 -1.2459 -1.8322
 7101SOL     OW32935   3.580   3.084   3.609  0.1340 -0.1441 -0.0234
 7101SOL    HW132936   3.667   3.101   3.645  1.3517 -0.9982 -2.5450
 7101SOL    HW232937   3.523   3.085   3.685 -1.1338 -0.3743 -0.9617
 7102SOL     OW32938   2.374   3.721  17.205  0.1208 -0.3578  0.2730
 7102SOL    HW132939   2.460   3.742  17.242  0.4430  1.1248 -1.3016
 7102SOL    HW232940   2.359   3.634  17.240 -1.0847  0.8800  2.8520
 7103SOL     OW32941   0.781   2.100  13.622  0.2755  0.2334  0.4379
 7103SOL    HW132942   0.843   2.121  13.553 -1.0383 -0.8583 -1.0722
 7103SOL    HW232943   0.822   2.020  13.655  2.6754 -0.0197 -3.1619
 7104SOL     OW32944   1.217   2.036   3.833  0.4180 -0.0112 -0.7055
 7104SOL    HW132945   1.185   1.992   3.911 -0.3743  0.2898 -0.8655
 7104SOL    HW232946   1.161   2.113   3.834  0.0792 -0.1996 -3.1720
 7105SOL     OW32947   2.388   3.208   7.719 -0.2940 -0.4308 -0.3324
 7105SOL    HW132948   2.464   3.151   7.727 -0.5969 -0.3459  3.1314
 7105SOL    HW232949   2.393   3.239   7.628  0.4802  0.7224  0.1013
 7106SOL     OW32950   1.453   1.846   7.355  0.1624  0.1469  0.2539
 7106SOL    HW132951   1.402   1.766   7.369  1.3386 -0.6042  0.2714
 7106SOL    HW232952   1.383   1.904   7.325  0.1952  0.8021  1.4944
 7107SOL     OW32953   2.718   1.373  11.982  0.3189  0.0694  0.0681
 7107SOL    HW132954   2.702   1.464  11.956  0.3639  1.3227  4.4559
 7107SOL    HW232955   2.647   1.355  12.044  0.6852 -0.5434  0.3131
 7108SOL     OW32956   2.065   2.339   3.231  0.3779 -0.5622  0.3635
 7108SOL    HW132957   2.144   2.293   3.259 -0.5393 -0.8818  2.4558
 7108SOL    HW232958   2.035   2.373   3.316  1.3805  1.1101  0.0368
 7109SOL     OW32959   4.348   4.185   5.616 -0.7477  0.3361 -0.7087
 7109SOL    HW132960   4.264   4.161   5.656 -0.5306 -1.7847 -1.5043
 7109SOL    HW232961   4.348   4.141   5.530  1.2506 -1.5249  0.2461
 7110SOL     OW32962   2.515   3.263   1.338  0.4899  0.3678  0.1410
 7110SOL    HW132963   2.442   3.211   1.303 -0.4437  0.2762  2.2247
 7110SOL    HW232964   2.524   3.222   1.424 -0.5218 -2.1341 -0.9336
 7111SOL     OW32965   1.841   2.184   2.036  0.6470 -0.5692 -0.1465
 7111SOL    HW132966   1.834   2.277   2.057  0.4238 -1.1533  2.4555
 7111SOL    HW232967   1.753   2.146   2.043  1.4979 -2.4900  0.2375
 7112SOL     OW32968   1.137   0.546   8.456  0.3691 -0.0328  0.3322
 7112SOL    HW132969   1.171   0.533   8.545 -0.8689  1.6468  1.0518
 7112SOL    HW232970   1.044   0.529   8.470 -0.4762  3.0927 -1.5379
 7113SOL     OW32971   0.451   1.281   9.478 -0.5542  0.2205 -0.6083
 7113SOL    HW132972   0.472   1.370   9.449 -1.3328  0.2453 -1.0978
 7113SOL    HW232973   0.460   1.309   9.569 -0.0479  0.4193 -0.7169
 7114SOL     OW32974   2.773   1.958   3.250 -0.7427  0.7454 -0.9605
 7114SOL    HW132975   2.793   1.879   3.200  1.6580  0.7804 -0.0354
 7114SOL    HW232976   2.813   1.938   3.335  0.4571  0.9878 -1.4722
 7115SOL     OW32977   3.830   2.486   8.432 -0.4334 -0.4098 -0.2305
 7115SOL    HW132978   3.803   2.412   8.487 -0.6764  0.9209  1.4351
 7115SOL    HW232979   3.758   2.548   8.442 -0.0054  0.2416 -1.2480
 7116SOL     OW32980   3.411   2.459   0.649  0.0351  0.1885  0.0220
 7116SOL    HW132981   3.385   2.543   0.612  3.0752  0.3852 -1.6003
 7116SOL    HW232982   3.504   2.467   0.668  0.0460  1.5315 -0.6014
 7117SOL     OW32983   1.007   2.659   6.883  0.1566  0.4684  0.0884
 7117SOL    HW132984   0.978   2.643   6.793 -0.6064 -0.1693  0.4477
 7117SOL    HW232985   1.097   2.627   6.887  0.0588 -0.0335 -2.1260
 7118SOL     OW32986   0.092   3.941  11.652 -0.5234  0.2396 -0.6834
 7118SOL    HW132987   0.104   4.018  11.596 -0.5124  0.7721  0.0613
 7118SOL    HW232988   4.737   3.945  11.675 -0.4966 -0.4657 -0.4429
 7119SOL     OW32989   3.469   3.339  13.914 -0.2703 -0.3081 -0.3103
 7119SOL    HW132990   3.527   3.321  13.840  0.2286  2.9256 -0.7014
 7119SOL    HW232991   3.404   3.399  13.877  0.2481 -0.8929 -2.1531
 7120SOL     OW32992   1.499   1.198  14.243 -0.2449  0.2378 -0.0362
 7120SOL    HW132993   1.516   1.292  14.241  0.0099  0.1630 -1.5393
 7120SOL    HW232994   1.554   1.173  14.169 -0.2075  1.1714 -0.3278
 7121SOL     OW32995   1.290   3.272  12.833  0.6485  0.1610  0.1683
 7121SOL    HW132996   1.328   3.351  12.795 -1.1298  1.5351  1.2225
 7121SOL    HW232997   1.367   3.215  12.830  0.0760 -0.5323 -2.0819
 7122SOL     OW32998   4.167   3.398  16.948 -0.0642  0.3416 -0.1152
 7122SOL    HW132999   4.212   3.314  16.943 -0.1600  0.1666  1.9167
 7122SOL    HW233000   4.228   3.455  16.901  1.5806 -0.7448  0.7183
 7123SOL     OW33001   1.093   2.729   8.961 -0.0186  0.6180 -0.0213
 7123SOL    HW133002   1.174   2.765   8.995  0.4174 -0.4651  0.0779
 7123SOL    HW233003   1.100   2.643   9.001  2.4527  0.2887 -1.1473
 7124SOL     OW33004   2.865   4.191   5.216 -0.0432  0.0664  0.2937
 7124SOL    HW133005   2.859   4.202   5.311 -1.5823 -0.1718  0.2129
 7124SOL    HW233006   2.804   4.119   5.203 -1.2473  0.9876  0.8966
 7125SOL     OW33007   2.113   1.313  16.383 -0.4985 -0.5046  0.4515
 7125SOL    HW133008   2.055   1.236  16.386 -0.7033 -0.3554  0.3069
 7125SOL    HW233009   2.127   1.325  16.477 -0.6943  1.5939  0.1990
 7126SOL     OW33010   2.211   4.025   4.132 -0.1935  0.0256  0.4144
 7126SOL    HW133011   2.209   4.072   4.215  0.1548 -0.2602  0.5854
 7126SOL    HW233012   2.154   4.074   4.072 -3.0390 -0.6245  2.6374
 7127SOL     OW33013   4.240   1.618   4.468  0.1070  0.2173 -0.8318
 7127SOL    HW133014   4.298   1.663   4.407  0.1749  1.5663  0.2252
 7127SOL    HW233015   4.178   1.585   4.403 -0.5081  0.1317 -0.2071
 7128SOL     OW33016   2.927   2.150   0.857 -0.4302  0.4033 -0.7166
 7128SOL    HW133017   2.903   2.218   0.920  0.9957  0.7515 -0.5467
 7128SOL    HW233018   2.955   2.209   0.787 -0.6858  2.4521  0.8999
 7129SOL     OW33019   3.022   1.674   4.931 -0.5337  0.7253  0.5302
 7129SOL    HW133020   3.060   1.750   4.974 -0.2599  0.5326  0.6335
 7129SOL    HW233021   3.010   1.610   5.001 -1.1887  0.9545  0.6273
 7130SOL     OW33022   0.877   4.226   3.652 -0.1925  0.6965  1.3912
 7130SOL    HW133023   0.814   4.155   3.638 -0.5151  0.9939  1.3156
 7130SOL    HW233024   0.946   4.181   3.603 -1.6570  0.4526 -0.4821
 7131SOL     OW33025   2.226   0.611   4.742 -0.2287 -0.0871 -0.3569
 7131SOL    HW133026   2.166   0.570   4.680 -0.7125 -1.0930  0.7717
 7131SOL    HW233027   2.285   0.664   4.689  0.6981 -1.3482 -0.5756
 7132SOL     OW33028   4.212   4.032   1.680  0.0571 -0.4632 -0.2117
 7132SOL    HW133029   4.161   3.968   1.631 -1.2035 -0.5381  1.2113
 7132SOL    HW233030   4.149   4.045   1.751  2.3366  1.8103  1.4394
 7133SOL     OW33031   0.966   3.973  15.348 -0.8745 -0.0829 -0.4126
 7133SOL    HW133032   1.036   3.918  15.313  0.6326  0.8777  1.1212
 7133SOL    HW233033   0.923   3.909  15.405 -1.1083 -0.7404 -1.3341
 7134SOL     OW33034   2.608   2.624   5.483  0.0675 -0.2291 -0.1488
 7134SOL    HW133035   2.513   2.630   5.497  0.1834 -1.1336  1.0190
 7134SOL    HW233036   2.642   2.704   5.524 -1.6030  1.3175 -1.7948
 7135SOL     OW33037   1.182   4.384   3.568  0.6432 -0.1670  0.1825
 7135SOL    HW133038   1.276   4.400   3.558  0.2717  0.6755 -1.9457
 7135SOL    HW233039   1.167   4.389   3.662 -1.3133  2.0590 -0.2638
 7136SOL     OW33040   3.034   1.651  11.397 -0.0197 -0.6519 -0.6044
 7136SOL    HW133041   2.948   1.614  11.379  0.3967 -1.5871 -0.6556
 7136SOL    HW233042   3.063   1.583  11.457 -0.3502  1.2544  1.7079
 7137SOL     OW33043   2.777   1.639  15.772  0.2938  0.6139  0.6941
 7137SOL    HW133044   2.707   1.705  15.771 -0.6619 -0.4001 -0.0454
 7137SOL    HW233045   2.778   1.615  15.679  0.2462  0.7691  0.6538
 7138SOL     OW33046   0.032   3.735   1.307  0.0043  0.0877 -0.2970
 7138SOL    HW133047   0.095   3.800   1.336  1.6260 -0.8613 -1.6986
 7138SOL    HW233048   0.085   3.656   1.311  0.6075  0.5169  0.0887
 7139SOL     OW33049   0.311   0.704   5.997  0.1592 -0.1305  0.3016
 7139SOL    HW133050   0.354   0.641   5.939  2.3061  2.7752 -1.2969
 7139SOL    HW233051   0.226   0.715   5.953  0.4918 -0.5268 -0.4422
 7140SOL     OW33052   0.320   2.356  15.919  0.6024  0.2470  0.2106
 7140SOL    HW133053   0.303   2.323  15.830  0.5970 -0.0057  0.3038
 7140SOL    HW233054   0.275   2.286  15.968  0.8664  0.0146  0.1230
 7141SOL     OW33055   2.079   3.171  13.209  0.5591  0.0621  0.0095
 7141SOL    HW133056   2.134   3.112  13.260  4.5026  1.8820 -2.1353
 7141SOL    HW233057   2.144   3.227  13.167  2.5971  1.4303  5.0699
 7142SOL     OW33058   0.338   1.855  11.918  0.1747 -0.2010 -0.2627
 7142SOL    HW133059   0.300   1.780  11.963 -1.2161  1.1881  0.8698
 7142SOL    HW233060   0.384   1.812  11.846  2.3560  0.3562  0.7919
 7143SOL     OW33061   1.138   2.495   2.312  0.6577 -0.0877 -0.3027
 7143SOL    HW133062   1.147   2.566   2.249  0.3466  0.2646  0.0508
 7143SOL    HW233063   1.139   2.542   2.395 -0.6470 -0.3099 -0.1490
 7144SOL     OW33064   0.978   4.099  12.695 -0.1166  0.2252 -0.0320
 7144SOL    HW133065   1.005   4.013  12.662 -0.6467  0.6824 -1.6589
 7144SOL    HW233066   0.885   4.097  12.671 -0.6238 -0.3975  2.0257
 7145SOL     OW33067   3.582   2.518   9.006  0.7053  0.5313 -0.3091
 7145SOL    HW133068   3.604   2.466   8.929 -0.9628  0.4104 -0.6988
 7145SOL    HW233069   3.487   2.525   8.995  0.5783  0.1903  0.5464
 7146SOL     OW33070   0.594   3.149   5.376  0.4765 -0.0087 -0.0637
 7146SOL    HW133071   0.614   3.195   5.294 -0.2001 -1.7543 -1.2031
 7146SOL    HW233072   0.637   3.206   5.440  2.0152 -0.2805 -0.8260
 7147SOL     OW33073   3.886   3.428   7.551  0.5263 -0.2670 -0.6609
 7147SOL    HW133074   3.927   3.374   7.484  0.1804 -0.5002 -0.6846
 7147SOL    HW233075   3.799   3.421   7.512  0.4665 -1.0847 -0.3773
 7148SOL     OW33076   2.080   0.011   1.010 -0.1407 -0.1967 -0.1766
 7148SOL    HW133077   2.101   0.027   0.918 -1.0194  1.9952 -0.0117
 7148SOL    HW233078   2.104   4.659   1.027  1.1800  0.3809  0.9521
 7149SOL     OW33079   0.787   0.537   5.997  0.2363 -0.0144  0.1415
 7149SOL    HW133080   0.867   0.546   6.048 -1.1187  4.3471  1.5140
 7149SOL    HW233081   0.738   0.475   6.051 -1.1485  1.0337  0.0885
 7150SOL     OW33082   3.823   3.118  17.225  0.1300  0.0100 -0.1813
 7150SOL    HW133083   3.890   3.162  17.277  1.5938 -1.1461 -1.1060
 7150SOL    HW233084   3.859   3.136  17.138 -3.1682 -0.2916 -1.6097
 7151SOL     OW33085   1.670   1.996  14.893 -0.1696  0.2714 -0.2426
 7151SOL    HW133086   1.701   2.076  14.935 -0.8403  1.0477 -1.1960
 7151SOL    HW233087   1.727   1.933  14.937 -1.0548 -0.4386 -0.1120
 7152SOL     OW33088   2.584   2.361   4.853  0.2508 -0.5336 -0.3268
 7152SOL    HW133089   2.637   2.391   4.927 -1.5936  1.4158  0.1963
 7152SOL    HW233090   2.588   2.265   4.856  1.6120 -0.4521  0.5403
 7153SOL     OW33091   0.665   3.551   4.265 -0.2127 -0.3593  0.4901
 7153SOL    HW133092   0.581   3.581   4.232 -0.0551 -2.2171 -1.5753
 7153SOL    HW233093   0.654   3.464   4.303  0.8490 -0.6840  0.0577
 7154SOL     OW33094   1.991   4.170   8.527  0.6811 -0.1797  0.1309
 7154SOL    HW133095   1.901   4.201   8.538  0.6666  0.0510 -0.6178
 7154SOL    HW233096   2.024   4.254   8.495 -0.7488  0.5562  0.5685
 7155SOL     OW33097   2.508   1.269   7.358  0.2625  0.2752  0.2725
 7155SOL    HW133098   2.441   1.275   7.289 -1.2273 -1.3935  1.5568
 7155SOL    HW233099   2.523   1.174   7.357 -1.5454  0.0098 -0.9426
 7156SOL     OW33100   2.889   4.032   3.839  0.5656  0.1263  0.0746
 7156SOL    HW133101   2.976   4.052   3.874  0.8402 -1.1006  0.0722
 7156SOL    HW233102   2.917   4.016   3.749  2.5173 -1.7667  1.0281
 7157SOL     OW33103   2.002   1.575   6.879 -0.0544 -0.5496  0.6374
 7157SOL    HW133104   1.919   1.545   6.916  0.3049  0.4884  2.2759
 7157SOL    HW233105   1.969   1.606   6.795  0.3670 -0.4292  0.5151
 7158SOL     OW33106   2.676   4.096  14.686 -0.6432  0.5661 -0.0044
 7158SOL    HW133107   2.599   4.071  14.635 -0.1777  1.1012 -0.9685
 7158SOL    HW233108   2.655   4.081  14.778 -0.6917 -1.0764 -0.2966
 7159SOL     OW33109   1.226   1.835   4.102 -0.2467  0.0268 -0.2604
 7159SOL    HW133110   1.215   1.852   4.195 -0.4747 -1.9187  0.0688
 7159SOL    HW233111   1.320   1.844   4.085  0.3137  0.4488  3.0680
 7160SOL     OW33112   4.256   4.540  12.158  0.1897  0.3438  0.1952
 7160SOL    HW133113   4.320   4.551  12.088 -0.6894  1.3212 -0.4594
 7160SOL    HW233114   4.181   4.587  12.120  1.4232  0.6276 -1.8975
 7161SOL     OW33115   0.149   1.462  10.867  0.5707 -0.0623  0.7470
 7161SOL    HW133116   0.167   1.411  10.788 -1.3883  3.6167 -2.1236
 7161SOL    HW233117   0.193   1.544  10.844  0.2454 -0.0135  0.2901
 7162SOL     OW33118   3.742   2.799   0.912 -0.0688 -0.6847  0.4754
 7162SOL    HW133119   3.772   2.877   0.865  0.7344 -1.0758  0.3462
 7162SOL    HW233120   3.672   2.849   0.953 -0.1552  0.9457 -1.6459
 7163SOL     OW33121   3.592   2.054   8.111 -0.9680 -0.4674 -0.1552
 7163SOL    HW133122   3.676   2.009   8.102 -0.6152  0.0049  0.8451
 7163SOL    HW233123   3.537   2.023   8.039 -3.3121  0.6468  1.1262
 7164SOL     OW33124   0.597   2.780   4.771 -0.2373 -0.1930  0.8505
 7164SOL    HW133125   0.519   2.740   4.809 -1.5254  1.8758  0.3603
 7164SOL    HW233126   0.662   2.716   4.800  0.0997 -0.4348 -0.4180
 7165SOL     OW33127   1.355   0.433  11.148 -0.1819  0.2720  0.4201
 7165SOL    HW133128   1.359   0.359  11.208  1.6727  1.5759  1.9200
 7165SOL    HW233129   1.290   0.496  11.181 -0.8092 -1.4137  2.3736
 7166SOL     OW33130   4.245   2.683  14.096 -0.1028  0.2949  0.4109
 7166SOL    HW133131   4.241   2.670  14.001 -0.4043 -1.3101  0.6416
 7166SOL    HW233132   4.158   2.664  14.132 -0.2859  0.3191 -0.0200
 7167SOL     OW33133   2.691   3.104   9.327  0.3459 -0.0913  0.4475
 7167SOL    HW133134   2.600   3.082   9.347 -0.0477 -0.6862 -1.9313
 7167SOL    HW233135   2.689   3.195   9.356 -2.9527 -0.4823  1.4155
 7168SOL     OW33136   0.743   4.422   2.061 -0.0426 -0.5886  0.0898
 7168SOL    HW133137   0.705   4.443   1.975  1.6924 -3.0746 -1.2754
 7168SOL    HW233138   0.694   4.341   2.077  2.3244 -1.6183  2.1969
 7169SOL     OW33139   3.071   3.226   8.400 -0.6599  0.4502 -0.1538
 7169SOL    HW133140   3.100   3.289   8.466  0.2288  1.1289 -1.1887
 7169SOL    HW233141   3.089   3.146   8.448  0.2106  1.5126  1.2815
 7170SOL     OW33142   4.351   1.634   6.816  0.1445 -0.6494  0.6242
 7170SOL    HW133143   4.301   1.563   6.776 -1.1601  2.3012 -3.0565
 7170SOL    HW233144   4.435   1.589   6.824 -0.0153 -1.1963 -0.8246
 7171SOL     OW33145   4.511   0.834   2.370  0.2238 -0.0400  0.3829
 7171SOL    HW133146   4.583   0.846   2.308 -1.4953  0.9484 -1.4428
 7171SOL    HW233147   4.437   0.808   2.315 -1.7031  2.3494  1.8707
 7172SOL     OW33148   2.351   0.759  16.537 -0.2722 -0.4333  0.2330
 7172SOL    HW133149   2.275   0.718  16.496  1.2793 -1.6954 -1.3961
 7172SOL    HW233150   2.312   0.841  16.567 -0.1895 -0.0790 -0.6315
 7173SOL     OW33151   2.268   1.337   9.726  0.2302 -0.5324 -0.1033
 7173SOL    HW133152   2.179   1.372   9.729  1.3908  2.4733 -0.5983
 7173SOL    HW233153   2.265   1.278   9.800  1.7901 -1.0069 -0.4353
 7174SOL     OW33154   4.515   3.431   0.437 -0.4406 -0.2794  0.9266
 7174SOL    HW133155   4.491   3.456   0.527 -1.7330  0.5811  0.3444
 7174SOL    HW233156   4.505   3.336   0.431 -0.9937  0.0024 -2.2301
 7175SOL     OW33157   3.995   0.700   8.567 -0.1901  0.0965  0.1834
 7175SOL    HW133158   4.072   0.660   8.527 -1.2162  0.1279 -1.8315
 7175SOL    HW233159   3.970   0.748   8.488 -3.0007 -0.1720  0.8957
 7176SOL     OW33160   3.167   0.972  14.002  0.0939 -0.1732 -0.3576
 7176SOL    HW133161   3.211   1.049  14.037 -2.4060  1.2091 -0.2633
 7176SOL    HW233162   3.149   0.918  14.079 -3.1671 -1.1757 -1.7910
 7177SOL     OW33163   3.428   4.657   6.500  0.1092 -0.3427  0.4194
 7177SOL    HW133164   3.385   4.729   6.452  0.8089 -1.5183 -1.9223
 7177SOL    HW233165   3.453   4.707   6.578  2.0576  0.6752 -0.8647
 7178SOL     OW33166   1.306   3.144   8.302 -0.2848  0.2802 -0.3738
 7178SOL    HW133167   1.382   3.105   8.259 -1.0289 -0.8381 -0.6614
 7178SOL    HW233168   1.241   3.080   8.275  0.2148  0.9033 -3.0209
 7179SOL     OW33169   3.496   1.517   8.332  0.2687  0.3737 -0.1867
 7179SOL    HW133170   3.437   1.450   8.367  3.3686 -2.3956 -0.2532
 7179SOL    HW233171   3.465   1.501   8.243  1.6488  1.2409 -0.8225
 7180SOL     OW33172   1.235   2.627   5.923 -0.0677  0.4172  0.7016
 7180SOL    HW133173   1.189   2.563   5.978  0.4459 -0.6361 -0.0953
 7180SOL    HW233174   1.201   2.598   5.838 -0.4995 -2.2076  1.7734
 7181SOL     OW33175   2.696   3.449   1.797 -0.0536  0.4472  0.1441
 7181SOL    HW133176   2.710   3.464   1.891  0.5967 -1.7856  0.4142
 7181SOL    HW233177   2.788   3.459   1.772 -0.6928  1.8101 -1.6032
 7182SOL     OW33178   3.975   1.691   5.640  0.1194 -0.3308 -0.1699
 7182SOL    HW133179   4.063   1.683   5.677 -0.0661  0.3340  0.3993
 7182SOL    HW233180   3.929   1.746   5.703 -1.5556 -4.0214  1.8992
 7183SOL     OW33181   1.207   2.578   8.747 -0.9184 -0.1506  0.0661
 7183SOL    HW133182   1.148   2.623   8.686 -1.5703 -1.6956 -0.4349
 7183SOL    HW233183   1.188   2.634   8.822  0.6833 -1.1106  1.1868
 7184SOL     OW33184   0.101   2.883   0.769  0.0916 -0.6180  0.3612
 7184SOL    HW133185   0.101   2.825   0.845  0.3500 -0.2765  0.6193
 7184SOL    HW233186   0.055   2.830   0.704 -1.1973  1.6479 -0.5596
 7185SOL     OW33187   1.636   3.670  13.560  0.3265  0.1584 -0.0291
 7185SOL    HW133188   1.609   3.579  13.559  0.0899  0.2500 -1.7115
 7185SOL    HW233189   1.729   3.664  13.582  0.6871  1.2976 -1.2261
 7186SOL     OW33190   1.774   1.796   6.641  0.2814 -0.0304 -0.1046
 7186SOL    HW133191   1.728   1.847   6.708  1.5472 -0.0825  0.7908
 7186SOL    HW233192   1.831   1.862   6.601  1.9782  0.0713  2.4720
 7187SOL     OW33193   3.943   2.651   0.155 -0.4674  0.3355  0.2820
 7187SOL    HW133194   3.872   2.690   0.206  0.6745  2.4231  0.2658
 7187SOL    HW233195   3.964   2.581   0.218 -0.9453  1.2955  1.5082
 7188SOL     OW33196   4.405   2.607   4.300  0.3036 -0.4721 -0.1793
 7188SOL    HW133197   4.468   2.569   4.239  1.5887 -0.9627  1.4754
 7188SOL    HW233198   4.399   2.537   4.364  0.8873 -1.4423 -1.1929
 7189SOL     OW33199   4.404   0.478  15.301  0.3387  0.2204 -0.5503
 7189SOL    HW133200   4.447   0.466  15.385 -1.4361  1.9947  0.6089
 7189SOL    HW233201   4.408   0.390  15.263  1.1157 -0.1311  0.3320
 7190SOL     OW33202   0.446   3.738  11.869  0.1279 -0.0693  0.3828
 7190SOL    HW133203   0.490   3.817  11.836 -0.2669 -0.0857 -0.1892
 7190SOL    HW233204   0.353   3.755  11.855 -0.9915 -3.0281  4.3039
 7191SOL     OW33205   2.503   1.115   8.982 -0.1752 -0.5247 -0.6507
 7191SOL    HW133206   2.533   1.033   9.021 -0.3466  0.2566  1.1560
 7191SOL    HW233207   2.514   1.169   9.060 -1.1380  0.7016 -1.3656
 7192SOL     OW33208   2.677   1.996   2.244  0.2915 -0.0876 -0.1468
 7192SOL    HW133209   2.629   1.950   2.174 -1.3191  0.6936  0.4469
 7192SOL    HW233210   2.611   1.992   2.313  0.6125 -0.6814  0.1308
 7193SOL     OW33211   1.191   0.440   5.479  0.0579  0.0299  0.3658
 7193SOL    HW133212   1.135   0.371   5.516 -0.1459 -1.4657 -2.6558
 7193SOL    HW233213   1.165   0.520   5.523  1.7137  0.9912 -0.4078
 7194SOL     OW33214   0.130   4.434   2.141 -0.0652  0.2973 -0.5717
 7194SOL    HW133215   0.172   4.504   2.091 -0.6696  0.8734 -0.2684
 7194SOL    HW233216   0.044   4.469   2.162 -0.7054 -1.5403 -0.1411
 7195SOL     OW33217   2.129   1.400   5.135 -0.6730 -0.0169 -0.3180
 7195SOL    HW133218   2.201   1.342   5.161  1.1043  1.7414 -1.3014
 7195SOL    HW233219   2.045   1.357   5.148 -0.8675  1.0069  1.8756
 7196SOL     OW33220   4.376   0.777   5.838 -0.1668  0.4927  0.6593
 7196SOL    HW133221   4.450   0.718   5.822 -0.0457  0.7493  0.2531
 7196SOL    HW233222   4.324   0.762   5.759  0.7387 -0.1123  0.1792
 7197SOL     OW33223   2.936   3.834   1.484 -0.0410 -0.2661 -0.0516
 7197SOL    HW133224   2.958   3.814   1.575 -1.3413  0.1245  0.3428
 7197SOL    HW233225   2.983   3.915   1.462 -0.3609 -0.4505 -1.4220
 7198SOL     OW33226   3.869   2.506   3.388 -0.1533  0.0249  0.6785
 7198SOL    HW133227   3.869   2.510   3.293  3.5018  0.0974  0.6798
 7198SOL    HW233228   3.886   2.599   3.407 -0.8573 -0.1262  2.0577
 7199SOL     OW33229   3.717   2.483   3.921 -0.1598 -0.4897 -0.2395
 7199SOL    HW133230   3.725   2.390   3.901 -0.9627 -0.3059 -1.4239
 7199SOL    HW233231   3.724   2.521   3.833  0.2576 -0.6178 -0.2603
 7200SOL     OW33232   1.637   1.065   5.347 -0.2324 -0.0321  0.0530
 7200SOL    HW133233   1.656   1.047   5.255 -1.1860  0.5766 -0.2623
 7200SOL    HW233234   1.546   1.040   5.366  0.1359 -1.6084 -0.2355
 7201SOL     OW33235   2.097   3.218   7.573 -0.2362 -0.3629 -0.3743
 7201SOL    HW133236   2.188   3.246   7.562 -0.2011  0.0442  0.9692
 7201SOL    HW233237   2.091   3.199   7.667  2.7175  2.7911  0.4676
 7202SOL     OW33238   3.081   2.471   8.350 -0.3501  0.0682 -0.1649
 7202SOL    HW133239   3.125   2.552   8.323 -1.8399  0.6756 -0.7824
 7202SOL    HW233240   3.149   2.408   8.373  2.7391  2.5338 -2.6592
 7203SOL     OW33241   0.722   4.487  12.011  0.5855  0.1265 -0.2085
 7203SOL    HW133242   0.710   4.555  12.078 -0.0113 -0.9172  0.7397
 7203SOL    HW233243   0.645   4.432  12.020  0.2678  0.4881 -0.7383
 7204SOL     OW33244   1.788   3.378   5.523 -0.5038 -0.2388  0.5099
 7204SOL    HW133245   1.818   3.300   5.476  1.2873 -0.3401  1.8349
 7204SOL    HW233246   1.818   3.443   5.459 -0.2669 -1.0608 -0.2233
 7205SOL     OW33247   3.407   0.781   7.783  0.4109  0.0021  0.2466
 7205SOL    HW133248   3.406   0.698   7.735 -0.8590 -0.0056  0.2729
 7205SOL    HW233249   3.395   0.746   7.871  0.0673 -2.0898 -0.6403
 7206SOL     OW33250   2.806   3.015   3.790  0.2867  0.0124 -0.1983
 7206SOL    HW133251   2.876   2.963   3.752 -1.0955 -1.2622 -0.9406
 7206SOL    HW233252   2.841   3.020   3.879  2.2160 -0.7260 -0.9106
 7207SOL     OW33253   2.776   2.531  10.796  0.4084  0.4741  0.8739
 7207SOL    HW133254   2.823   2.612  10.774 -1.3075  1.6942  1.7851
 7207SOL    HW233255   2.687   2.566  10.792 -0.1399 -0.8593  1.4231
 7208SOL     OW33256   0.043   3.872   2.752 -0.1215 -0.2722 -0.0221
 7208SOL    HW133257   0.029   3.875   2.658 -0.8668 -1.6379  0.0489
 7208SOL    HW233258   4.734   3.951   2.777 -1.1785 -0.7552 -0.4905
 7209SOL     OW33259   0.607   2.433   8.663 -0.5556 -0.5043  0.3559
 7209SOL    HW133260   0.586   2.340   8.655  0.8149 -0.8777  1.1527
 7209SOL    HW233261   0.696   2.419   8.695 -0.9977 -1.6057  1.0923
 7210SOL     OW33262   4.585   3.268  11.677 -0.5830 -0.1263 -0.5727
 7210SOL    HW133263   4.571   3.326  11.602  0.0831  1.4965  0.5689
 7210SOL    HW233264   4.571   3.329  11.750 -1.2899  1.8691 -2.3764
 7211SOL     OW33265   0.533   2.237   6.933  0.6846  0.0780 -0.8150
 7211SOL    HW133266   0.591   2.302   6.974  2.5649 -2.8800  1.1987
 7211SOL    HW233267   0.449   2.267   6.968  0.5755 -1.8644  0.5773
 7212SOL     OW33268   3.432   3.923   1.561 -0.8288 -0.0589  0.2317
 7212SOL    HW133269   3.379   3.961   1.491 -0.3697  1.4259  0.7087
 7212SOL    HW233270   3.376   3.936   1.637  2.4015  0.6663  2.4811
 7213SOL     OW33271   0.877   0.047   3.477 -0.4461 -0.7188 -0.0254
 7213SOL    HW133272   0.937   0.087   3.539  2.6563 -3.6055 -1.1430
 7213SOL    HW233273   0.920   0.053   3.391  0.1106 -0.1689  0.2990
 7214SOL     OW33274   1.623   2.233   2.995  0.2502  0.3452  0.0059
 7214SOL    HW133275   1.642   2.206   3.085  0.6720  2.0330  0.4134
 7214SOL    HW233276   1.713   2.249   2.966 -0.0680  2.2949  0.0821
 7215SOL     OW33277   0.937   2.459   2.751  0.1217 -0.5133  0.1669
 7215SOL    HW133278   0.885   2.390   2.792 -1.6674 -0.3688 -1.8698
 7215SOL    HW233279   0.985   2.415   2.681  1.8680  3.3986 -1.0848
 7216SOL     OW33280   4.125   1.007   0.639 -0.3711  0.3989  0.2768
 7216SOL    HW133281   4.099   1.010   0.731 -3.8295  0.8117 -0.6945
 7216SOL    HW233282   4.066   1.075   0.604  1.9781  2.4434  0.2735
 7217SOL     OW33283   2.704   3.383  11.862  0.2801 -0.9323  0.4851
 7217SOL    HW133284   2.633   3.447  11.874 -1.1159 -2.9486  3.0495
 7217SOL    HW233285   2.750   3.396  11.945  0.2419  1.4632  0.1379
 7218SOL     OW33286   0.730   0.296   5.594  0.5086 -0.2657 -0.2802
 7218SOL    HW133287   0.668   0.355   5.638  0.0504 -0.6581 -0.3910
 7218SOL    HW233288   0.781   0.363   5.549 -0.7250  1.6549  1.1675
 7219SOL     OW33289   0.582   2.938  12.663 -0.7354  0.2819 -0.3624
 7219SOL    HW133290   0.503   2.974  12.705 -0.6832  0.0912 -0.0946
 7219SOL    HW233291   0.549   2.920  12.575  1.1592  1.9290 -1.3709
 7220SOL     OW33292   4.238   0.250  13.090  0.0053 -0.2042 -0.2024
 7220SOL    HW133293   4.246   0.181  13.025 -1.8920  1.1042 -1.8127
 7220SOL    HW233294   4.291   0.318  13.050 -0.2155  0.1072  0.0333
 7221SOL     OW33295   1.695   3.642   9.455  0.2343  0.3207 -0.1523
 7221SOL    HW133296   1.632   3.714   9.461  1.3460  1.2836 -0.1881
 7221SOL    HW233297   1.697   3.620   9.362  1.3050  0.7978 -0.2397
 7222SOL     OW33298   0.890   3.326   4.546 -0.7127  0.2677  0.7115
 7222SOL    HW133299   0.971   3.337   4.495 -0.8786 -0.4220  0.3017
 7222SOL    HW233300   0.896   3.235   4.575  0.4501 -0.2412 -1.0955
 7223SOL     OW33301   3.615   0.502   7.874 -0.8547  0.2894 -0.0853
 7223SOL    HW133302   3.604   0.408   7.860  0.8023 -0.4793  3.7927
 7223SOL    HW233303   3.704   0.519   7.841 -2.2200 -0.5948 -4.1659
 7224SOL     OW33304   4.184   0.023   6.778  0.2783 -0.3876  0.3760
 7224SOL    HW133305   4.226   4.700   6.839 -0.1313 -0.7263  0.3241
 7224SOL    HW233306   4.167   4.707   6.701 -0.4211  0.1581  0.1448
 7225SOL     OW33307   3.867   0.207   7.089  0.0360 -0.0858  0.4524
 7225SOL    HW133308   3.917   0.256   7.024  0.8283  0.1974  1.2755
 7225SOL    HW233309   3.789   0.260   7.102  0.1731  0.4085 -0.7311
 7226SOL     OW33310   0.709   2.132   9.571  0.5520  0.1640  0.2991
 7226SOL    HW133311   0.641   2.167   9.629  0.0226 -3.0125  1.5481
 7226SOL    HW233312   0.683   2.041   9.577  1.1841 -0.1587 -1.9115
 7227SOL     OW33313   1.086   4.137   3.487 -0.4157 -0.0854  0.5884
 7227SOL    HW133314   1.145   4.066   3.512 -0.1018 -0.2216 -0.5058
 7227SOL    HW233315   1.144   4.208   3.460  0.3362 -0.8069  0.3185
 7228SOL     OW33316   3.491   0.367   1.665  0.0311  0.0051  0.3042
 7228SOL    HW133317   3.553   0.296   1.684 -1.6567 -1.4771  0.2322
 7228SOL    HW233318   3.407   0.327   1.642  0.5136 -0.6434 -0.3088
 7229SOL     OW33319   3.155   1.433   7.942  0.3287 -0.3488  0.1883
 7229SOL    HW133320   3.069   1.394   7.958 -0.7996  1.4799 -1.4771
 7229SOL    HW233321   3.197   1.370   7.884 -1.7386 -1.0633 -0.5482
 7230SOL     OW33322   1.139   4.298  12.537  0.5670 -0.5311 -0.5566
 7230SOL    HW133323   1.143   4.232  12.468  0.7431 -0.2703 -0.7972
 7230SOL    HW233324   1.077   4.255  12.596  0.0617 -2.3770 -2.4638
 7231SOL     OW33325   0.555   1.549   4.421  0.7011  0.4957 -0.2165
 7231SOL    HW133326   0.466   1.515   4.413  0.7085  0.1177  1.3444
 7231SOL    HW233327   0.575   1.484   4.488  0.2514  1.9305  1.3022
 7232SOL     OW33328   0.022   2.719   2.109  0.0142  0.3011 -0.0585
 7232SOL    HW133329   0.102   2.671   2.087 -0.2350 -0.3789  0.5214
 7232SOL    HW233330   0.056   2.808   2.119 -1.2936  0.7258  0.5607
 7233SOL     OW33331   1.245   2.179   1.936  0.1279  0.2155  0.2187
 7233SOL    HW133332   1.246   2.166   2.031 -1.2019 -1.4258  0.0072
 7233SOL    HW233333   1.221   2.091   1.909  1.5606 -0.1427  0.1070
 7234SOL     OW33334   3.455   0.694   8.021  0.1457 -0.0365 -0.1053
 7234SOL    HW133335   3.480   0.680   8.113 -1.9073  0.6769  0.5597
 7234SOL    HW233336   3.521   0.643   7.974 -0.0830 -0.9569  0.5684
 7235SOL     OW33337   2.365   3.510  12.848  0.3862 -0.7535  0.5927
 7235SOL    HW133338   2.351   3.586  12.791 -2.1647 -3.0154 -1.7917
 7235SOL    HW233339   2.385   3.450  12.776 -2.5866  0.2043 -1.0404
 7236SOL     OW33340   0.915   0.346   2.751  0.1242  0.1551 -0.6885
 7236SOL    HW133341   0.985   0.311   2.696 -2.6272 -3.5337 -1.8489
 7236SOL    HW233342   0.941   0.438   2.756 -1.8224  0.4972  3.4919
 7237SOL     OW33343   4.314   1.615  14.722 -0.1557 -0.5207  0.4690
 7237SOL    HW133344   4.360   1.623  14.639 -0.4425 -0.9210  0.2722
 7237SOL    HW233345   4.231   1.663  14.715 -0.3490 -0.6577  1.7773
 7238SOL     OW33346   1.407   2.709   3.313  0.9832 -0.0897  0.0386
 7238SOL    HW133347   1.313   2.714   3.326  1.1245  0.6692  0.7476
 7238SOL    HW233348   1.429   2.797   3.343  0.5982 -0.3109  0.9593
 7239SOL     OW33349   3.835   2.592   9.112  0.5518 -0.2985  0.5404
 7239SOL    HW133350   3.859   2.609   9.020  0.8308 -1.7937  0.3429
 7239SOL    HW233351   3.740   2.591   9.107  0.4198 -0.5532  3.1655
 7240SOL     OW33352   0.880   0.074   3.954 -0.0655  0.1531  0.3469
 7240SOL    HW133353   0.902   0.029   4.036 -0.4946 -1.9866 -0.7213
 7240SOL    HW233354   0.922   0.017   3.889  1.2704  0.0454  1.2877
 7241SOL     OW33355   1.445   0.277   1.934  0.2312  0.6948  0.2181
 7241SOL    HW133356   1.421   0.237   1.850 -0.8233 -0.9312  1.2947
 7241SOL    HW233357   1.504   0.343   1.898  0.7493  0.9918  1.6362
 7242SOL     OW33358   1.151   4.026   5.343 -0.4910  0.1870 -0.1692
 7242SOL    HW133359   1.126   4.017   5.434  0.7297 -0.4245  0.1127
 7242SOL    HW233360   1.219   3.958   5.335  0.1843  0.5931  2.1498
 7243SOL     OW33361   3.844   3.707   4.349 -0.1144 -0.2336 -0.1911
 7243SOL    HW133362   3.825   3.736   4.260 -0.6469  0.6154  0.2019
 7243SOL    HW233363   3.758   3.681   4.383 -1.5565  3.3510 -1.0804
 7244SOL     OW33364   0.236   1.341  16.887  0.7325  0.2415  0.6813
 7244SOL    HW133365   0.211   1.428  16.855  0.9756 -0.6484 -1.9385
 7244SOL    HW233366   0.226   1.362  16.980 -0.8465 -0.9331  0.7728
 7245SOL     OW33367   2.472   4.154   1.324 -0.2194 -0.5370 -0.0648
 7245SOL    HW133368   2.422   4.233   1.302 -1.1823 -0.5979  1.8771
 7245SOL    HW233369   2.507   4.178   1.410  0.5341  1.0058 -0.8018
 7246SOL     OW33370   3.972   4.109   8.847  0.0194 -0.3917 -0.4031
 7246SOL    HW133371   4.056   4.064   8.853 -0.8052 -1.6782  1.7225
 7246SOL    HW233372   4.003   4.199   8.860  0.5074 -0.6344  0.1096
 7247SOL     OW33373   4.667   1.695  16.891 -0.2752 -0.1676  0.5600
 7247SOL    HW133374   4.600   1.651  16.942 -0.3966 -0.7388 -0.1004
 7247SOL    HW233375   4.644   1.788  16.884 -0.7333 -0.2826  0.5885
 7248SOL     OW33376   2.823   2.646   4.240 -0.0717 -0.2598 -0.4219
 7248SOL    HW133377   2.895   2.587   4.262  0.1588 -0.1527 -0.9097
 7248SOL    HW233378   2.750   2.585   4.256  0.8696 -1.4629 -0.7244
 7249SOL     OW33379   0.691   3.769  14.552  0.1071  0.2817  0.5069
 7249SOL    HW133380   0.623   3.766  14.620 -0.6759 -2.3523 -0.3961
 7249SOL    HW233381   0.650   3.709  14.490  0.1299  0.6739  0.1188
 7250SOL     OW33382   3.233   4.487   7.365 -0.0676 -0.5155  0.2045
 7250SOL    HW133383   3.188   4.544   7.427  0.3099  1.0051 -0.9072
 7250SOL    HW233384   3.297   4.440   7.418  1.3921  2.0258  0.7111
 7251SOL     OW33385   2.111   3.904   3.100 -0.1841 -0.0072  0.1446
 7251SOL    HW133386   2.030   3.897   3.150  0.0608  2.0787  0.8765
 7251SOL    HW233387   2.141   3.986   3.141  1.6170 -0.9689  0.7695
 7252SOL     OW33388   4.176   2.591   5.433  0.1971  0.0559 -0.2744
 7252SOL    HW133389   4.251   2.613   5.488 -1.3613  2.0164  1.0496
 7252SOL    HW233390   4.161   2.502   5.467  0.3853  0.8395  1.8861
 7253SOL     OW33391   2.027   4.400   8.385  0.1333 -0.7717 -0.3329
 7253SOL    HW133392   2.096   4.467   8.380  1.4389 -1.8785  2.6971
 7253SOL    HW233393   2.016   4.385   8.291 -0.0243  1.7482 -0.7199
 7254SOL     OW33394   4.073   3.489   4.447  0.4317 -0.7299  0.2658
 7254SOL    HW133395   4.038   3.576   4.464 -2.2235 -1.4104 -1.6532
 7254SOL    HW233396   3.991   3.441   4.437  0.8150 -1.3161 -0.1095
 7255SOL     OW33397   3.353   2.982   4.800  0.1038 -0.1208 -0.3957
 7255SOL    HW133398   3.408   3.055   4.772  0.5675 -0.5850 -0.6793
 7255SOL    HW233399   3.346   2.927   4.722 -1.3949  1.4218 -1.3654
 7256SOL     OW33400   4.244   2.995   5.895 -0.2607  0.1503  0.0597
 7256SOL    HW133401   4.228   3.038   5.811  0.8851  1.0171  0.2933
 7256SOL    HW233402   4.337   3.015   5.906  0.4368 -1.7080 -2.4825
 7257SOL     OW33403   3.740   1.995  10.855 -0.0971 -0.3084 -0.0075
 7257SOL    HW133404   3.703   1.932  10.918  0.2350  0.1458  0.6495
 7257SOL    HW233405   3.825   2.010  10.896 -1.5677  2.7355  1.9365
 7258SOL     OW33406   3.545   0.559   5.253 -0.5360  0.1541 -0.2129
 7258SOL    HW133407   3.546   0.464   5.241 -2.4367 -0.0664  1.3877
 7258SOL    HW233408   3.602   0.582   5.178  1.5543 -2.5481  0.5492
 7259SOL     OW33409   0.403   2.745  11.524 -0.1402 -0.6372 -0.3256
 7259SOL    HW133410   0.368   2.665  11.564  0.7787 -1.6113 -1.4485
 7259SOL    HW233411   0.323   2.797  11.527  0.6785  0.5225  1.1543
 7260SOL     OW33412   4.306   4.024   4.384 -0.1958  0.2209  0.7563
 7260SOL    HW133413   4.368   4.095   4.403 -0.1615  0.1268  0.9913
 7260SOL    HW233414   4.280   4.043   4.294 -0.1597  1.8173  1.0816
 7261SOL     OW33415   1.253   0.579   1.943  0.0758  0.1064  0.0042
 7261SOL    HW133416   1.274   0.548   2.031 -1.1929 -0.0385  0.2542
 7261SOL    HW233417   1.193   0.507   1.922  1.1441 -0.9354  0.4976
 7262SOL     OW33418   3.030   2.050  10.904 -0.1710 -0.2382  0.1464
 7262SOL    HW133419   2.964   2.117  10.922  3.2462  2.5638  2.1442
 7262SOL    HW233420   2.982   1.967  10.894 -1.7899  0.5944  1.1015
 7263SOL     OW33421   1.778   4.533   3.239 -0.1556 -1.0421  0.4046
 7263SOL    HW133422   1.707   4.594   3.256  0.8474 -0.6085  3.0538
 7263SOL    HW233423   1.844   4.573   3.184 -3.1420  0.1779 -2.2378
 7264SOL     OW33424   3.062   2.322   2.324 -0.0119 -0.5603 -0.6797
 7264SOL    HW133425   3.027   2.323   2.413 -0.1045 -0.0398 -0.7216
 7264SOL    HW233426   2.998   2.274   2.272 -0.9957 -0.0088  0.0184
 7265SOL     OW33427   2.859   1.328  15.870 -0.6189 -0.1041 -0.7435
 7265SOL    HW133428   2.874   1.247  15.821  2.4277 -0.1157  0.2018
 7265SOL    HW233429   2.799   1.371  15.809  1.4289  1.0438 -1.9539
 7266SOL     OW33430   0.065   2.414   6.060 -0.2234 -0.1133 -0.1921
 7266SOL    HW133431   0.003   2.439   5.992  0.7389  2.0980 -0.2904
 7266SOL    HW233432   0.005   2.364   6.115 -0.9259 -0.6392 -1.4468
 7267SOL     OW33433   1.703   1.566   5.892  0.0379  0.2477  0.3668
 7267SOL    HW133434   1.774   1.521   5.937  1.2875  0.6130 -1.2162
 7267SOL    HW233435   1.631   1.523   5.936 -0.4904  1.5479  0.7750
 7268SOL     OW33436   3.685   0.643   5.001  0.0497 -0.2271 -0.1633
 7268SOL    HW133437   3.778   0.647   5.023 -0.4378  2.1386  1.5623
 7268SOL    HW233438   3.691   0.670   4.910 -0.1358  0.0490 -0.0955
 7269SOL     OW33439   4.136   3.888   6.773 -0.1463 -0.0555 -0.3225
 7269SOL    HW133440   4.220   3.933   6.764  0.7806 -2.0275 -1.6995
 7269SOL    HW233441   4.081   3.959   6.806  2.0370  2.1004 -1.3355
 7270SOL     OW33442   1.650   3.783  11.461  0.0323 -0.6038 -0.1485
 7270SOL    HW133443   1.610   3.714  11.514  0.2448 -0.4633  0.1912
 7270SOL    HW233444   1.606   3.866  11.481 -0.1544 -1.1100  1.5520
 7271SOL     OW33445   2.684   4.029   9.143 -0.3969 -0.0982 -0.0581
 7271SOL    HW133446   2.614   4.014   9.206  1.1976 -0.2648  1.6872
 7271SOL    HW233447   2.648   4.089   9.078  0.1302  0.4751  0.1780
 7272SOL     OW33448   0.104   3.351   7.974  0.0554 -0.0410 -0.4008
 7272SOL    HW133449   0.084   3.291   8.046 -1.0488  0.6591 -0.1285
 7272SOL    HW233450   0.198   3.366   7.986  0.0469 -0.8391  0.7406
 7273SOL     OW33451   4.587   1.633  13.790 -0.3277  0.5395 -0.1043
 7273SOL    HW133452   4.654   1.693  13.824 -0.6385  1.9817 -1.9871
 7273SOL    HW233453   4.542   1.609  13.871 -1.3862  0.3315 -0.7431
 7274SOL     OW33454   0.702   1.865   5.074 -1.0726 -0.6594  0.0651
 7274SOL    HW133455   0.638   1.895   5.010  0.7055  0.6594 -1.0748
 7274SOL    HW233456   0.758   1.943   5.074 -0.4732 -1.0793  1.9971
 7275SOL     OW33457   2.757   1.948  15.485 -0.0268 -0.5291 -0.4008
 7275SOL    HW133458   2.758   1.914  15.396 -3.0196  1.2644 -1.1253
 7275SOL    HW233459   2.662   1.948  15.490 -0.0424 -1.3264 -0.7642
 7276SOL     OW33460   3.292   2.008   5.395 -0.5954  0.3046  0.1037
 7276SOL    HW133461   3.288   2.063   5.473 -1.3787 -0.1353  0.3686
 7276SOL    HW233462   3.294   2.068   5.320  2.1198  0.5607  0.4021
 7277SOL     OW33463   1.742   4.710   3.625 -0.1555  0.3192  0.1196
 7277SOL    HW133464   1.692   0.010   3.553  0.5323  0.6414 -0.1840
 7277SOL    HW233465   1.701   0.009   3.703 -0.1585 -4.0166  2.1929
 7278SOL     OW33466   4.492   4.727  16.900  0.7548 -0.1753  0.2425
 7278SOL    HW133467   4.498   4.693  16.810 -1.2519 -0.7180  0.2954
 7278SOL    HW233468   4.454   4.653  16.947  1.3479  0.2146  1.3210
 7279SOL     OW33469   0.494   2.035   3.129 -0.4829 -0.0327 -0.4736
 7279SOL    HW133470   0.554   2.043   3.055 -1.4520  1.6015 -1.0699
 7279SOL    HW233471   0.565   2.010   3.189 -0.0130  0.6959 -0.7388
 7280SOL     OW33472   0.895   2.066  15.914 -0.5932 -0.0099  0.3150
 7280SOL    HW133473   0.823   2.090  15.855 -0.1331 -1.9968 -1.0313
 7280SOL    HW233474   0.888   1.971  15.914  0.7555 -0.1071  0.3975
 7281SOL     OW33475   2.549   4.712  16.202 -0.3015 -0.0209 -0.1242
 7281SOL    HW133476   2.524   4.722  16.110  0.2151  1.0042 -0.1472
 7281SOL    HW233477   2.491   0.024  16.259  1.3902  0.1420  1.4226
 7282SOL     OW33478   0.329   2.320   5.844  0.2124  0.0989  0.7097
 7282SOL    HW133479   0.409   2.324   5.897  1.5886 -2.3892 -1.1917
 7282SOL    HW233480   0.270   2.256   5.884 -0.6608 -0.0790 -0.8496
 7283SOL     OW33481   1.786   2.499   7.071 -0.0582 -0.3773 -0.1279
 7283SOL    HW133482   1.749   2.519   7.157 -0.7225  2.1640 -1.0068
 7283SOL    HW233483   1.841   2.422   7.088  1.5541  1.0942  1.4191
 7284SOL     OW33484   3.060   3.668   0.984  0.5435 -0.0155 -0.0636
 7284SOL    HW133485   3.067   3.759   1.014 -0.2116  0.3750 -1.0768
 7284SOL    HW233486   3.120   3.676   0.910  0.8722 -0.6916  0.1267
 7285SOL     OW33487   4.539   0.262  17.171  0.3776  0.0207 -0.1245
 7285SOL    HW133488   4.618   0.263  17.116 -0.4532 -2.1948 -1.3644
 7285SOL    HW233489   4.569   0.291  17.257  1.4837 -0.1013 -0.4745
 7286SOL     OW33490   3.177   1.432   2.252 -0.1409 -0.0175 -0.6648
 7286SOL    HW133491   3.123   1.501   2.290 -0.2452  0.3036 -1.3937
 7286SOL    HW233492   3.137   1.349   2.276 -0.5532 -0.2159 -2.0498
 7287SOL     OW33493   2.113   2.613   5.797  0.4225 -0.3637 -0.2290
 7287SOL    HW133494   2.061   2.599   5.718 -2.1639 -0.0087  1.3979
 7287SOL    HW233495   2.055   2.655   5.861  3.0496  0.4466  1.6112
 7288SOL     OW33496   2.228   4.642   3.275 -0.0786 -0.2526 -0.4726
 7288SOL    HW133497   2.283   4.720   3.275 -0.7482  0.2212 -1.0204
 7288SOL    HW233498   2.277   4.569   3.237  1.3472 -0.0290  0.9648
 7289SOL     OW33499   0.232   4.169   1.968 -0.7512 -0.4173 -0.1696
 7289SOL    HW133500   0.138   4.149   1.969 -0.5267 -1.3961  3.7050
 7289SOL    HW233501   0.272   4.091   2.008  1.4105 -0.7720 -2.9667
 7290SOL     OW33502   0.490   4.233   9.617  0.6770  0.1056 -0.2699
 7290SOL    HW133503   0.406   4.220   9.574  0.8719 -3.1228  0.3714
 7290SOL    HW233504   0.487   4.172   9.690 -1.5090  1.7129  0.9953
 7291SOL     OW33505   1.320   4.082   7.112  0.1395 -0.2629 -0.0981
 7291SOL    HW133506   1.343   4.175   7.104 -0.5712  0.0964  1.8749
 7291SOL    HW233507   1.238   4.095   7.160 -0.7928 -1.4416 -1.3628
 7292SOL     OW33508   0.277   3.016   7.593 -0.3099  0.1707  0.2032
 7292SOL    HW133509   0.244   3.005   7.682  0.4745 -0.8685  0.3609
 7292SOL    HW233510   0.287   3.111   7.581  0.3070 -0.0502 -1.0069
 7293SOL     OW33511   3.726   3.608   1.209 -0.1777  0.4461 -0.1878
 7293SOL    HW133512   3.692   3.652   1.131  1.5446 -0.9189 -1.7122
 7293SOL    HW233513   3.650   3.557   1.239 -1.1707  0.8774 -1.9395
 7294SOL     OW33514   3.719   3.416   3.425 -0.2063  0.2815  0.3412
 7294SOL    HW133515   3.806   3.400   3.386 -0.1024  0.1876  0.6139
 7294SOL    HW233516   3.728   3.503   3.464  1.5815 -0.3591  1.3579
 7295SOL     OW33517   1.986   3.529  13.291 -0.1885 -0.0462 -0.0190
 7295SOL    HW133518   2.071   3.569  13.269 -1.5004  3.1429  0.7008
 7295SOL    HW233519   2.019   3.454  13.340 -1.3692 -0.8997 -0.5642
 7296SOL     OW33520   2.281   1.559   5.727 -0.3037  0.7898 -0.3105
 7296SOL    HW133521   2.339   1.548   5.802 -3.2275  1.9959  2.0795
 7296SOL    HW233522   2.227   1.633   5.755  1.8054  0.8973  3.4679
 7297SOL     OW33523   3.867   4.260  12.904  0.0097 -0.7978  0.3849
 7297SOL    HW133524   3.901   4.255  12.814  0.4582 -1.3000  0.5836
 7297SOL    HW233525   3.952   4.250  12.947  0.6531  1.7707 -0.2799
 7298SOL     OW33526   1.806   2.585  14.600  0.5402  0.5411 -0.0841
 7298SOL    HW133527   1.846   2.669  14.626  0.6835  0.1131  1.0714
 7298SOL    HW233528   1.813   2.541  14.685  2.1447 -0.6877 -0.8440
 7299SOL     OW33529   1.453   0.761   8.591 -0.4048 -0.4503  0.1337
 7299SOL    HW133530   1.366   0.795   8.571 -0.6399 -0.7855  0.5668
 7299SOL    HW233531   1.477   0.807   8.672  0.8193  0.5490 -0.7813
 7300SOL     OW33532   1.726   4.254   8.362 -0.0594 -0.1456 -0.6367
 7300SOL    HW133533   1.658   4.256   8.429 -0.3251 -0.3912 -0.8969
 7300SOL    HW233534   1.687   4.309   8.293 -1.8575 -0.4093  0.1701
 7301SOL     OW33535   0.088   2.880  14.566 -0.3449  0.2044  0.3447
 7301SOL    HW133536   0.037   2.879  14.647  0.3399 -1.3818  0.7626
 7301SOL    HW233537   0.177   2.888  14.601  0.2335  0.3842 -1.1937
 7302SOL     OW33538   1.063   3.738   3.928  0.6141 -0.2863  0.0317
 7302SOL    HW133539   1.058   3.643   3.931 -0.9066 -0.1671  1.3920
 7302SOL    HW233540   1.054   3.764   4.020  0.6855  1.8707 -0.5490
 7303SOL     OW33541   0.212   2.426   6.321  0.4666 -0.3915  0.3332
 7303SOL    HW133542   0.257   2.346   6.294  1.9734  0.7398 -0.5346
 7303SOL    HW233543   0.151   2.441   6.249 -1.6149 -0.2883  2.1193
 7304SOL     OW33544   1.649   1.556   3.834 -0.1470  0.0094  0.3873
 7304SOL    HW133545   1.565   1.545   3.877 -0.0850 -1.0019  0.2362
 7304SOL    HW233546   1.628   1.537   3.742 -0.3318 -0.0189  0.4360
 7305SOL     OW33547   4.510   4.337   4.207 -0.1227 -0.1224 -0.3402
 7305SOL    HW133548   4.568   4.307   4.138  1.0448  1.7805 -0.1689
 7305SOL    HW233549   4.458   4.397   4.154 -1.7912 -0.3433  1.0063
 7306SOL     OW33550   3.096   1.326  17.132 -0.1275 -0.0319  0.4001
 7306SOL    HW133551   3.130   1.388  17.067 -0.4043  0.8608  1.1031
 7306SOL    HW233552   3.006   1.323  17.100 -0.6134 -0.3758  1.8025
 7307SOL     OW33553   2.452   1.182   4.355 -0.0765 -0.1031 -0.1903
 7307SOL    HW133554   2.528   1.172   4.297 -1.7567  1.7786 -2.7312
 7307SOL    HW233555   2.398   1.232   4.294  0.7248  1.8744  0.7255
 7308SOL     OW33556   1.601   0.382   9.362  0.3198 -0.0338 -0.7520
 7308SOL    HW133557   1.533   0.357   9.424 -1.7825  3.0388 -1.8105
 7308SOL    HW233558   1.566   0.455   9.310 -2.6949 -0.0201  1.2836
 7309SOL     OW33559   1.145   0.606   5.169  0.0086  0.1280 -0.0488
 7309SOL    HW133560   1.158   0.698   5.143  0.8539  0.1006  0.2555
 7309SOL    HW233561   1.161   0.556   5.089  1.2085 -0.0221  0.2793
 7310SOL     OW33562   1.136   2.876   7.502  0.4304 -0.1647 -0.6097
 7310SOL    HW133563   1.092   2.939   7.444 -1.0414 -0.5611  0.0762
 7310SOL    HW233564   1.201   2.929   7.548  0.5842 -0.5201 -0.4237
 7311SOL     OW33565   0.288   4.309   8.482 -0.2825  0.4738 -0.8101
 7311SOL    HW133566   0.315   4.393   8.445 -0.8379  0.9033 -0.2175
 7311SOL    HW233567   0.358   4.303   8.547  0.7234  1.2349 -1.8258
 7312SOL     OW33568   2.158   4.355  15.671  0.1857 -0.4311  0.3169
 7312SOL    HW133569   2.238   4.370  15.621 -1.1389 -0.0479 -1.6612
 7312SOL    HW233570   2.184   4.395  15.754 -1.0447  3.1957 -1.0585
 7313SOL     OW33571   2.255   3.626   8.691  0.2050 -0.1328 -0.0750
 7313SOL    HW133572   2.179   3.639   8.748  0.2779 -4.6485  1.0579
 7313SOL    HW233573   2.316   3.684   8.738  0.8555 -0.3040 -0.7102
 7314SOL     OW33574   2.695   0.219   5.777  0.3136 -0.6549 -0.1171
 7314SOL    HW133575   2.620   0.211   5.718  1.5315  0.6501 -1.8445
 7314SOL    HW233576   2.732   0.306   5.759  0.2342 -0.6639 -0.3227
 7315SOL     OW33577   0.949   0.154   5.582 -0.0158 -0.3822  0.0903
 7315SOL    HW133578   0.865   0.200   5.584 -0.3679 -0.9645 -1.2589
 7315SOL    HW233579   0.960   0.136   5.675 -3.2462 -0.8064  0.4094
 7316SOL     OW33580   2.295   2.755   5.626  0.2631 -0.0680  0.1017
 7316SOL    HW133581   2.246   2.687   5.671  0.2628  0.6650  1.2130
 7316SOL    HW233582   2.317   2.712   5.544  1.9907 -0.3752  0.7202
 7317SOL     OW33583   1.545   0.548   6.004 -0.3862 -0.0201  0.3334
 7317SOL    HW133584   1.547   0.455   6.023  1.2688  0.9152  4.9174
 7317SOL    HW233585   1.593   0.555   5.922 -1.0765 -2.0605 -0.2343
 7318SOL     OW33586   1.639   0.838   4.620 -0.5166  0.5961  0.5818
 7318SOL    HW133587   1.567   0.796   4.572  0.4701 -0.2583 -0.1553
 7318SOL    HW233588   1.701   0.767   4.636 -1.1413  0.6821  3.3155
 7319SOL     OW33589   3.596   2.106   1.939 -0.1723 -0.4974 -0.0906
 7319SOL    HW133590   3.521   2.050   1.916  0.3678 -1.6961  1.0300
 7319SOL    HW233591   3.588   2.102   2.034  0.6396 -1.3469 -0.0557
 7320SOL     OW33592   2.206   1.183   3.106 -0.6480  0.7640  0.0161
 7320SOL    HW133593   2.212   1.263   3.157  2.8240  0.2441  0.4141
 7320SOL    HW233594   2.156   1.212   3.030  0.8500 -0.7936 -1.5654
 7321SOL     OW33595   1.753   3.391  15.568 -0.7381  0.2174 -0.0573
 7321SOL    HW133596   1.703   3.320  15.610  1.8521  0.0723  2.7815
 7321SOL    HW233597   1.762   3.361  15.478  0.8670  2.0026 -0.4979
 7322SOL     OW33598   2.264   2.156   2.038  0.2577  0.0328  0.0319
 7322SOL    HW133599   2.275   2.225   1.973  0.9148 -1.0979 -1.0604
 7322SOL    HW233600   2.293   2.081   1.987 -0.8831 -1.2061  1.2086
 7323SOL     OW33601   2.218   0.314   2.839  0.0096  0.1731 -0.0326
 7323SOL    HW133602   2.172   0.231   2.828 -0.4774  0.6669 -1.7389
 7323SOL    HW233603   2.309   0.293   2.819 -0.2828  0.6886 -1.9587
 7324SOL     OW33604   3.146   1.602  13.789  0.2639  0.0732  0.1850
 7324SOL    HW133605   3.123   1.539  13.858  0.2857 -0.4762 -0.3029
 7324SOL    HW233606   3.066   1.604  13.736 -0.7865  0.1365  1.7981
 7325SOL     OW33607   2.698   2.039   6.793  0.0224  0.1195  0.0452
 7325SOL    HW133608   2.772   2.080   6.748  0.7737 -2.4587 -1.0637
 7325SOL    HW233609   2.722   2.043   6.885 -1.0419  0.1425  0.3185
 7326SOL     OW33610   0.062   2.869   6.455 -0.1766 -0.6565  0.2940
 7326SOL    HW133611   0.147   2.863   6.413 -0.3973  0.0872 -0.2564
 7326SOL    HW233612   0.017   2.929   6.395 -1.3986 -2.1186 -0.2498
 7327SOL     OW33613   4.148   1.363   5.617 -0.2131 -0.2176  0.3833
 7327SOL    HW133614   4.214   1.426   5.589 -1.0930  0.1598 -0.8639
 7327SOL    HW233615   4.169   1.344   5.708 -0.5238 -2.7472 -0.0889
 7328SOL     OW33616   3.236   2.935  12.943  0.1679 -0.3425 -0.1597
 7328SOL    HW133617   3.211   2.989  12.868  1.2063  1.2136  0.5967
 7328SOL    HW233618   3.150   2.919  12.981  1.4136 -0.1532  2.7743
 7329SOL     OW33619   0.727   3.462  17.097  0.8607 -0.0550  0.3080
 7329SOL    HW133620   0.821   3.449  17.086  0.0794 -1.8579 -4.2162
 7329SOL    HW233621   0.718   3.456  17.192  1.2462 -0.0666  0.3457
 7330SOL     OW33622   3.875   3.715  10.349  0.1791 -0.2889  0.6970
 7330SOL    HW133623   3.851   3.781  10.414 -0.5590 -0.4315  0.5716
 7330SOL    HW233624   3.969   3.707  10.367  0.4021  0.3976 -0.1492
 7331SOL     OW33625   2.622   1.993  10.193  0.3787  0.8339 -0.1151
 7331SOL    HW133626   2.700   1.964  10.144  2.1458  0.8770  2.6890
 7331SOL    HW233627   2.602   1.910  10.237 -1.8732 -0.5891 -3.7530
 7332SOL     OW33628   4.461   4.018   0.189  0.8753 -0.1424 -0.2510
 7332SOL    HW133629   4.513   4.087   0.229  0.4638  0.8535 -1.4350
 7332SOL    HW233630   4.531   3.980   0.136  0.4750  0.0201 -0.8973
 7333SOL     OW33631   1.254   1.751   2.987 -0.7744  0.0868 -0.3475
 7333SOL    HW133632   1.338   1.784   2.954 -1.3014  1.1191 -0.6377
 7333SOL    HW233633   1.226   1.820   3.048 -0.3176  1.4158 -1.6373
 7334SOL     OW33634   4.635   3.650   1.007  0.1909 -0.2498 -0.0183
 7334SOL    HW133635   4.607   3.621   1.094  1.9094  0.9236  0.9242
 7334SOL    HW233636   4.693   3.581   0.975  1.8739  1.0747  0.1882
 7335SOL     OW33637   2.665   0.693   8.304 -0.4736 -0.3580  0.0934
 7335SOL    HW133638   2.723   0.664   8.374  1.9030  0.3394 -1.5771
 7335SOL    HW233639   2.725   0.705   8.231  2.7879  0.5402  2.9165
 7336SOL     OW33640   2.329   4.483  12.787  0.2738  0.4848  0.1010
 7336SOL    HW133641   2.260   4.420  12.768  1.7600 -1.1051 -0.0424
 7336SOL    HW233642   2.282   4.562  12.758 -0.4536 -0.1783 -0.4994
 7337SOL     OW33643   3.221   3.428   4.546 -1.0437  0.1847 -0.4153
 7337SOL    HW133644   3.153   3.396   4.605 -2.0399  1.8673 -0.6619
 7337SOL    HW233645   3.186   3.504   4.500 -1.0035  1.1494  1.1488
 7338SOL     OW33646   4.473   4.321   9.120  0.2836 -0.3765 -0.3802
 7338SOL    HW133647   4.415   4.245   9.107 -0.5503  0.2918 -0.6192
 7338SOL    HW233648   4.453   4.329   9.213  0.5056 -2.2245 -0.1660
 7339SOL     OW33649   2.831   3.881  10.748  0.1421  1.1564 -0.7789
 7339SOL    HW133650   2.741   3.852  10.736  1.5802 -3.6335 -0.3757
 7339SOL    HW233651   2.819   3.966  10.789 -0.1674  1.1040 -0.7639
 7340SOL     OW33652   1.513   1.627   6.941 -0.4835 -0.0784 -0.5329
 7340SOL    HW133653   1.483   1.621   7.032 -0.7307 -0.3627 -0.6339
 7340SOL    HW233654   1.436   1.660   6.897  0.3475  0.7757 -1.3418
 7341SOL     OW33655   0.742   1.337   6.244 -0.4066 -0.4456 -0.5832
 7341SOL    HW133656   0.799   1.352   6.319  1.1397 -2.2524 -1.3839
 7341SOL    HW233657   0.671   1.290   6.286  0.0882 -0.9971 -0.3688
 7342SOL     OW33658   1.010   0.090   4.263  0.5122  0.1516  0.2971
 7342SOL    HW133659   0.998   0.178   4.298 -1.6376  0.2317 -0.6576
 7342SOL    HW233660   1.065   0.122   4.191  0.0795 -0.5683 -0.3495
 7343SOL     OW33661   0.892   0.647  12.429 -0.6862  0.1871  0.2802
 7343SOL    HW133662   0.979   0.645  12.388  0.0093 -1.2534  1.8489
 7343SOL    HW233663   0.855   0.560  12.417 -0.2123 -0.2562  2.0510
 7344SOL     OW33664   0.545   1.673   8.405 -0.0685  0.1176 -0.5074
 7344SOL    HW133665   0.464   1.632   8.435 -0.6934  0.0101 -2.3486
 7344SOL    HW233666   0.535   1.763   8.435  4.9727  0.4736  0.1759
 7345SOL     OW33667   3.930   0.543  16.603 -0.4574 -0.1935 -0.1189
 7345SOL    HW133668   4.018   0.524  16.637 -0.6089 -0.7777 -0.0495
 7345SOL    HW233669   3.879   0.505  16.674  2.1316 -2.9001  0.3236
 7346SOL     OW33670   2.372   4.403   9.944 -0.4203  0.1207 -0.7789
 7346SOL    HW133671   2.286   4.366   9.927  0.4015 -1.7629 -0.8210
 7346SOL    HW233672   2.380   4.451   9.862  3.1736 -0.5701 -0.8561
 7347SOL     OW33673   0.985   0.898   0.078 -0.4877  0.2442 -0.0356
 7347SOL    HW133674   0.968   0.973   0.134  1.7616  1.2211 -0.6543
 7347SOL    HW233675   0.896   0.890   0.044 -0.2032 -0.3238 -0.6586
 7348SOL     OW33676   4.254   4.022   4.096 -0.0090 -0.0430 -0.4942
 7348SOL    HW133677   4.244   4.117   4.104 -1.4395 -0.3145  1.0579
 7348SOL    HW233678   4.346   4.018   4.070  0.0999 -2.6432  0.3080
 7349SOL     OW33679   2.391   3.947   2.032  0.3106  0.1082  0.0279
 7349SOL    HW133680   2.435   3.913   2.110  0.9801 -0.2106 -0.4899
 7349SOL    HW233681   2.452   4.020   2.025  1.0131 -0.3784  0.9945
 7350SOL     OW33682   3.532   4.357   4.306 -0.7798 -0.6580  0.2699
 7350SOL    HW133683   3.566   4.268   4.320  0.9415  0.0782  0.7935
 7350SOL    HW233684   3.479   4.376   4.383 -1.9177 -0.8816 -0.4604
 7351SOL     OW33685   4.125   2.278   4.482 -0.2216  0.3065 -0.5503
 7351SOL    HW133686   4.144   2.184   4.477  1.4135  0.5533  1.1174
 7351SOL    HW233687   4.075   2.270   4.563 -1.5532  2.3440 -1.1820
 7352SOL     OW33688   0.796   0.556   5.499 -0.6993  0.3526 -0.3370
 7352SOL    HW133689   0.712   0.536   5.538 -1.0861  1.0644 -0.7979
 7352SOL    HW233690   0.798   0.650   5.479  1.6968  1.0322  3.1553
 7353SOL     OW33691   0.861   1.058   3.047 -0.0579  0.3018 -0.1971
 7353SOL    HW133692   0.803   1.102   2.984  1.3599  0.2104 -1.5778
 7353SOL    HW233693   0.877   1.119   3.119 -1.4633  1.5533 -0.9317
 7354SOL     OW33694   4.341   3.632   0.040  0.5700  0.0714 -0.0473
 7354SOL    HW133695   4.336   3.583   0.122  2.7555  2.8427  1.7412
 7354SOL    HW233696   4.364   3.717   0.078 -0.0144  0.7561 -1.2417
 7355SOL     OW33697   2.518   4.325  10.148  0.1137 -0.1040  0.1451
 7355SOL    HW133698   2.461   4.377  10.091 -0.5734  0.2068  1.1005
 7355SOL    HW233699   2.501   4.249  10.093  0.5291 -2.0415  2.6630
 7356SOL     OW33700   2.232   3.317  13.030  0.5441  0.6408 -0.1327
 7356SOL    HW133701   2.229   3.372  13.108  0.2940 -0.3367  0.5556
 7356SOL    HW233702   2.292   3.366  12.974  1.3555  0.7447  0.8192
 7357SOL     OW33703   1.009   4.405   2.038 -0.0485 -0.2039  0.9426
 7357SOL    HW133704   0.915   4.393   2.048 -0.1628 -1.7281 -2.0992
 7357SOL    HW233705   1.030   4.477   2.097  0.1840 -0.7087  1.4755
 7358SOL     OW33706   0.330   4.373   3.025 -0.3670 -0.2701 -0.1119
 7358SOL    HW133707   0.383   4.295   3.043 -1.5555 -0.5928  1.9763
 7358SOL    HW233708   0.401   4.428   2.991 -2.6723  1.3644 -2.2520
 7359SOL     OW33709   1.572   3.763  15.138  0.1276 -0.0319  0.3648
 7359SOL    HW133710   1.638   3.760  15.068 -1.4908 -0.3094 -1.1618
 7359SOL    HW233711   1.578   3.672  15.166  1.6908 -0.4074 -1.1767
 7360SOL     OW33712   3.054   4.291   2.852  0.0105  0.1266 -0.2448
 7360SOL    HW133713   3.014   4.375   2.829  0.2439 -0.0512 -1.3046
 7360SOL    HW233714   2.993   4.234   2.806 -1.1432  0.8014  0.4620
 7361SOL     OW33715   3.288   1.616   4.267 -0.5143  0.0581 -0.1908
 7361SOL    HW133716   3.238   1.638   4.189 -1.5149 -0.2751  0.3579
 7361SOL    HW233717   3.227   1.641   4.336  0.8709 -2.5795  1.9727
 7362SOL     OW33718   3.359   2.807  11.475 -0.0276 -0.3630 -0.7876
 7362SOL    HW133719   3.432   2.809  11.536  0.3361 -0.7215 -1.2140
 7362SOL    HW233720   3.284   2.781  11.529 -0.3487  1.2782 -0.4631
 7363SOL     OW33721   0.829   2.339  16.452  0.6062  0.4333 -0.0814
 7363SOL    HW133722   0.820   2.286  16.373  3.0740 -1.4016  0.8560
 7363SOL    HW233723   0.800   2.426  16.425 -1.7345 -0.5776 -0.8465
 7364SOL     OW33724   2.830   4.109   6.055  0.0064 -0.1261 -0.3974
 7364SOL    HW133725   2.914   4.092   6.012  0.2579 -2.4328  1.0168
 7364SOL    HW233726   2.855   4.180   6.114  0.4535 -2.3269  2.0291
 7365SOL     OW33727   2.372   3.062   7.995 -0.3200 -0.0273 -0.3479
 7365SOL    HW133728   2.312   3.057   8.069 -1.5732  2.6495 -1.1869
 7365SOL    HW233729   2.338   2.989   7.944 -2.0218  1.6892 -1.6372
 7366SOL     OW33730   0.059   4.736   6.272 -0.3276 -0.1105  0.9689
 7366SOL    HW133731   4.712   4.737   6.314  0.0870 -1.3598  1.8367
 7366SOL    HW233732   0.111   0.056   6.326  0.3067  0.9662 -0.7991
 7367SOL     OW33733   2.472   2.504   3.943 -0.8784 -0.0077  0.0387
 7367SOL    HW133734   2.384   2.529   3.971 -0.8069 -0.3300  0.5344
 7367SOL    HW233735   2.456   2.433   3.881  1.9672 -0.0970 -0.6023
 7368SOL     OW33736   3.886   0.930   4.618 -0.3608 -0.5396  0.5990
 7368SOL    HW133737   3.839   0.998   4.570 -0.2647 -0.8119  0.1263
 7368SOL    HW233738   3.942   0.986   4.673 -0.5809  1.3066 -1.0692
 7369SOL     OW33739   2.154   4.200   0.878  0.0932 -0.0060 -0.3057
 7369SOL    HW133740   2.162   4.293   0.857 -0.5221  0.2107  0.4064
 7369SOL    HW233741   2.194   4.203   0.964 -1.8460  1.9262  0.5306
 7370SOL     OW33742   2.951   1.993   1.650 -0.0761 -0.3000 -0.5338
 7370SOL    HW133743   2.968   2.080   1.615  1.2060 -0.9925 -1.6424
 7370SOL    HW233744   2.878   2.004   1.710  1.0892  2.0534  0.4602
 7371SOL     OW33745   0.685   3.259   2.300  0.0115 -0.4533 -0.6887
 7371SOL    HW133746   0.759   3.218   2.255 -2.5288 -4.0119 -1.5641
 7371SOL    HW233747   0.683   3.211   2.382 -1.8255  0.0996 -0.4079
 7372SOL     OW33748   2.318   2.637   3.605 -0.6865 -0.6068 -0.3677
 7372SOL    HW133749   2.375   2.689   3.663 -1.2144 -1.1245  0.6104
 7372SOL    HW233750   2.230   2.642   3.641  0.3264 -0.3448  2.0682
 7373SOL     OW33751   2.686   0.556  11.668  0.0755  0.8055  0.7430
 7373SOL    HW133752   2.762   0.604  11.701 -0.5689  0.3413  2.8875
 7373SOL    HW233753   2.629   0.622  11.628  0.1130  0.4691  0.1227
 7374SOL     OW33754   2.134   1.977   0.700 -0.1581 -0.3811  0.1527
 7374SOL    HW133755   2.144   1.945   0.610 -1.6078  2.8178 -1.1435
 7374SOL    HW233756   2.049   1.940   0.724  0.3438 -1.5487  0.1415
 7375SOL     OW33757   3.657   4.287   3.520 -0.4544 -0.4428  0.2753
 7375SOL    HW133758   3.739   4.329   3.545 -0.8960 -0.2382  1.3639
 7375SOL    HW233759   3.686   4.197   3.505  2.9910  1.2987 -3.4946
 7376SOL     OW33760   0.551   3.792  13.639  0.0456  0.2676 -0.5439
 7376SOL    HW133761   0.564   3.875  13.593 -1.3256  1.0231  0.4269
 7376SOL    HW233762   0.458   3.800  13.662  0.1627  0.8478 -0.2725
 7377SOL     OW33763   4.455   1.626   0.115 -0.0458  0.2817 -0.1373
 7377SOL    HW133764   4.456   1.530   0.120 -0.3857  0.2445 -0.7849
 7377SOL    HW233765   4.545   1.638   0.084  0.6890 -0.8556  1.5649
 7378SOL     OW33766   2.876   2.737   5.710  0.2277  0.1192  0.3154
 7378SOL    HW133767   2.808   2.790   5.669  1.2504  1.4426  0.3106
 7378SOL    HW233768   2.825   2.664   5.747 -2.4045  1.3019 -0.9914
 7379SOL     OW33769   1.920   2.151   7.930 -0.1560 -0.0566  0.4314
 7379SOL    HW133770   1.994   2.091   7.926 -1.5431 -1.8021  1.0534
 7379SOL    HW233771   1.915   2.183   7.840  0.2254 -0.0699  0.4055
 7380SOL     OW33772   3.249   0.361   6.227  0.3931  0.5370 -0.4042
 7380SOL    HW133773   3.197   0.440   6.242  1.0758  0.7753  0.6521
 7380SOL    HW233774   3.188   0.310   6.173  1.2576 -0.6140 -0.2994
 7381SOL     OW33775   1.202   3.312   9.276 -0.4753 -0.3555  0.9538
 7381SOL    HW133776   1.293   3.342   9.279 -0.8223  0.6827  1.2467
 7381SOL    HW233777   1.171   3.333   9.188 -0.8388 -1.3731  0.8362
 7382SOL     OW33778   1.293   4.477  14.098  0.5738 -0.2417 -0.1620
 7382SOL    HW133779   1.339   4.418  14.038  0.5318  3.1163 -3.5242
 7382SOL    HW233780   1.261   4.407  14.155 -0.3778  0.9293  0.7337
 7383SOL     OW33781   3.884   1.653  14.290  0.1529  0.3195  0.4948
 7383SOL    HW133782   3.914   1.603  14.366  1.9470  1.9744  0.8935
 7383SOL    HW233783   3.895   1.583  14.227 -1.8542  0.0099  0.5100
 7384SOL     OW33784   3.204   3.203   0.195  0.6681  0.0827 -0.1758
 7384SOL    HW133785   3.210   3.107   0.197  0.1832  0.0613  0.5143
 7384SOL    HW233786   3.132   3.210   0.132  0.5132  0.4748  0.0420
 7385SOL     OW33787   0.658   1.530   3.133  0.4350  0.1799 -0.4955
 7385SOL    HW133788   0.621   1.573   3.056  1.5151 -1.1146 -1.7265
 7385SOL    HW233789   0.635   1.438   3.118 -4.0312  1.3831 -1.1165
 7386SOL     OW33790   3.648   3.176   1.459  0.2376  0.4550  1.0300
 7386SOL    HW133791   3.566   3.127   1.450  0.2028  0.4493  1.4066
 7386SOL    HW233792   3.679   3.172   1.368 -0.4264  3.0930  0.6655
 7387SOL     OW33793   4.691   2.452   8.409  0.3736 -0.2015 -0.2944
 7387SOL    HW133794   4.732   2.366   8.397  0.7816 -0.3578  2.1608
 7387SOL    HW233795   4.702   2.479   8.317 -0.3203 -0.4279 -0.4445
 7388SOL     OW33796   4.150   4.673   6.444 -0.2514 -0.0279  0.4216
 7388SOL    HW133797   4.073   4.659   6.389 -0.1197 -0.2475  0.2948
 7388SOL    HW233798   4.214   4.635   6.384 -1.8294 -1.6008 -0.2512
 7389SOL     OW33799   2.077   3.735  11.289 -0.1663  0.1741 -0.7589
 7389SOL    HW133800   2.069   3.830  11.284 -0.0047  0.1985 -0.5619
 7389SOL    HW233801   2.058   3.711  11.198 -0.8189  0.1309 -0.6119
 7390SOL     OW33802   0.545   2.026  11.564  0.0796  0.3788 -0.3411
 7390SOL    HW133803   0.547   2.118  11.535  1.7828  1.3144  2.7698
 7390SOL    HW233804   0.481   1.993  11.501  0.6833 -1.6916  0.1403
 7391SOL     OW33805   3.027   4.314   6.119  0.0944 -0.5318  0.4337
 7391SOL    HW133806   2.945   4.341   6.161  0.0877  1.0870 -0.5901
 7391SOL    HW233807   3.089   4.378   6.155 -1.3543  0.5516  0.9912
 7392SOL     OW33808   3.391   3.616  15.603 -0.4698  0.3417  0.0938
 7392SOL    HW133809   3.347   3.542  15.563  0.0762  0.6849 -1.1411
 7392SOL    HW233810   3.441   3.645  15.526  0.8790 -0.2058  0.7580
 7393SOL     OW33811   0.521   0.394   9.028 -0.4190  0.0763 -0.0422
 7393SOL    HW133812   0.546   0.365   8.940  0.9943  3.8200 -0.8933
 7393SOL    HW233813   0.590   0.461   9.026  0.5164 -0.9344 -2.7967
 7394SOL     OW33814   0.340   4.180   9.273  0.5718 -0.0625  0.1859
 7394SOL    HW133815   0.315   4.119   9.203  0.4563  1.2226 -0.8832
 7394SOL    HW233816   0.281   4.154   9.344  0.2888  1.5173  0.5282
 7395SOL     OW33817   2.921   4.161   9.063 -0.3818 -0.2770 -0.5285
 7395SOL    HW133818   2.836   4.125   9.088  0.0328  0.2682  1.6585
 7395SOL    HW233819   2.964   4.077   9.046  2.1714  0.7579  0.8054
 7396SOL     OW33820   3.698   2.142   6.105  0.1124 -0.1537 -0.5228
 7396SOL    HW133821   3.712   2.047   6.103  1.1112 -0.0184 -0.0079
 7396SOL    HW233822   3.687   2.152   6.200 -1.9335  0.7960 -0.8535
 7397SOL     OW33823   0.113   1.095   5.620  0.1017 -0.1076 -0.1720
 7397SOL    HW133824   0.162   1.090   5.701 -2.4076 -1.3405  1.2642
 7397SOL    HW233825   0.052   1.166   5.640  0.7149  0.8196 -1.5719
 7398SOL     OW33826   3.981   3.971  12.780 -0.0026 -0.2237 -0.2491
 7398SOL    HW133827   3.973   3.921  12.861  0.0030  0.9196  0.4542
 7398SOL    HW233828   3.890   4.000  12.768  0.2025 -0.0408 -1.3700
 7399SOL     OW33829   4.494   2.523  16.634 -0.1046 -0.2209  0.4311
 7399SOL    HW133830   4.403   2.525  16.604 -1.0734  1.3647  3.5719
 7399SOL    HW233831   4.495   2.472  16.715  0.7673 -1.1147 -0.1283
 7400SOL     OW33832   0.955   1.983   2.031 -0.4313 -0.3425 -0.1427
 7400SOL    HW133833   0.863   1.957   2.034  0.8200 -4.4864  2.7106
 7400SOL    HW233834   0.998   1.899   2.014  0.3711  0.5855 -2.7930
 7401SOL     OW33835   3.499   2.503   4.088  0.1618 -0.0403  0.4385
 7401SOL    HW133836   3.532   2.479   4.175 -1.5146 -5.6897 -0.5012
 7401SOL    HW233837   3.576   2.520   4.034 -1.4396 -0.0652 -1.8211
 7402SOL     OW33838   0.977   2.127   4.203  0.0833  0.7384 -0.7172
 7402SOL    HW133839   0.951   2.070   4.275  2.9921  0.9755  0.5410
 7402SOL    HW233840   1.000   2.061   4.137 -1.6089  0.9943 -1.5550
 7403SOL     OW33841   4.294   2.237   1.457 -0.2071 -0.0915 -0.6872
 7403SOL    HW133842   4.229   2.168   1.470  0.7356 -0.9850 -0.7019
 7403SOL    HW233843   4.324   2.232   1.548  1.5092  2.0977 -1.1472
 7404SOL     OW33844   2.557   0.884   9.123  0.3433 -0.2068 -0.1467
 7404SOL    HW133845   2.465   0.865   9.141 -0.2714  1.8794 -1.0925
 7404SOL    HW233846   2.573   0.945   9.195 -0.1910 -0.4863  0.2127
 7405SOL     OW33847   2.241   2.452   9.824  0.2790  0.3245 -0.0161
 7405SOL    HW133848   2.198   2.372   9.794  0.8311  0.8516 -2.2285
 7405SOL    HW233849   2.284   2.423   9.905 -2.6802 -1.6603  0.8636
 7406SOL     OW33850   3.271   4.188   5.774  0.3023 -0.2766  0.1386
 7406SOL    HW133851   3.260   4.283   5.775  0.1845 -0.3177  2.6447
 7406SOL    HW233852   3.361   4.179   5.744 -1.0160 -0.3817 -3.7914
 7407SOL     OW33853   3.889   4.593   6.393 -0.1391 -0.3219  0.0686
 7407SOL    HW133854   3.880   4.561   6.482  0.8662 -0.3503  0.1644
 7407SOL    HW233855   3.797   4.603   6.367 -0.1715  0.8671  0.6589
 7408SOL     OW33856   0.320   0.299  17.698  0.2226 -0.6119  0.1686
 7408SOL    HW133857   0.368   0.259   0.020  0.0780  0.3624  0.8007
 7408SOL    HW233858   0.394   0.308  17.638  0.4438 -2.9776  0.0787
 7409SOL     OW33859   1.448   1.529   9.579  0.2877 -0.3062 -0.1212
 7409SOL    HW133860   1.359   1.514   9.547  0.6838 -1.6791 -0.5741
 7409SOL    HW233861   1.475   1.441   9.604 -0.3977 -0.1240  1.2549
 7410SOL     OW33862   1.621   4.446   8.124 -0.5462  0.2267 -0.3197
 7410SOL    HW133863   1.681   4.519   8.142 -0.3806 -0.6343  2.5775
 7410SOL    HW233864   1.664   4.399   8.052 -0.4573 -1.0554  0.5886
 7411SOL     OW33865   0.801   2.496  15.094 -0.1066 -0.2975  0.1421
 7411SOL    HW133866   0.856   2.523  15.169  0.3099 -0.4957 -0.0922
 7411SOL    HW233867   0.844   2.555  15.032  0.8380 -1.4556 -0.3079
 7412SOL     OW33868   1.353   1.383   5.454 -0.4480  0.4518  0.2614
 7412SOL    HW133869   1.404   1.409   5.531 -0.7814  3.9020 -0.7145
 7412SOL    HW233870   1.417   1.381   5.383 -0.7706 -1.7753  0.0145
 7413SOL     OW33871   3.817   2.716  17.358  0.4978 -0.2650 -0.1805
 7413SOL    HW133872   3.800   2.805  17.326 -0.2585 -0.6772 -0.9316
 7413SOL    HW233873   3.831   2.731  17.451  1.3128  2.1177 -0.6802
 7414SOL     OW33874   3.549   2.550   5.681 -0.6161 -0.5089  0.3811
 7414SOL    HW133875   3.523   2.575   5.770  1.4971 -0.5366  0.9944
 7414SOL    HW233876   3.639   2.520   5.691 -0.0955  0.2345 -2.1136
 7415SOL     OW33877   0.275   0.264   1.791 -0.5294 -0.2718  0.5071
 7415SOL    HW133878   0.233   0.351   1.790  0.0837 -0.0135 -2.3518
 7415SOL    HW233879   0.210   0.203   1.755  0.4492 -0.6425 -0.6152
 7416SOL     OW33880   4.442   1.106   2.443  0.1897  0.1582  0.1664
 7416SOL    HW133881   4.463   1.016   2.416 -1.9755  0.0104 -0.9824
 7416SOL    HW233882   4.351   1.099   2.469  0.2857 -0.4981  0.3390
 7417SOL     OW33883   0.555   0.920   7.505  0.3186  0.0183  0.1138
 7417SOL    HW133884   0.555   0.921   7.600 -2.7746 -1.4430  0.1244
 7417SOL    HW233885   0.609   0.998   7.492  2.5441 -1.1311  2.5329
 7418SOL     OW33886   2.554   2.732   4.649 -0.6284  0.2178  0.0318
 7418SOL    HW133887   2.634   2.728   4.597 -0.5166 -0.3740  0.2513
 7418SOL    HW233888   2.552   2.637   4.661 -0.2791  0.3484  1.1641
 7419SOL     OW33889   0.608   2.882   5.362  0.4840  0.6085 -0.4190
 7419SOL    HW133890   0.680   2.865   5.423 -0.2282 -1.9271 -0.2909
 7419SOL    HW233891   0.599   2.977   5.371  1.7361  0.6583  0.2996
 7420SOL     OW33892   3.295   3.157   2.519  0.0155  0.5851  0.1118
 7420SOL    HW133893   3.290   3.232   2.578 -0.8051  1.3004 -0.8647
 7420SOL    HW233894   3.336   3.092   2.576 -1.1854  0.2526  0.5795
 7421SOL     OW33895   4.059   3.883  14.838 -0.3115 -0.0187  0.3760
 7421SOL    HW133896   4.036   3.838  14.757 -0.6112 -0.6024  0.7804
 7421SOL    HW233897   4.045   3.973  14.808 -0.9208  0.1342  1.0946
 7422SOL     OW33898   2.155   1.182  14.701  0.2779 -0.1440 -0.7679
 7422SOL    HW133899   2.182   1.095  14.674  2.4569  0.1529  0.4578
 7422SOL    HW233900   2.235   1.234  14.706 -1.6721  3.1182 -3.0858
 7423SOL     OW33901   4.262   1.277   4.081  0.1162 -0.0066 -0.8370
 7423SOL    HW133902   4.241   1.215   4.012  1.2065  0.0613 -1.2257
 7423SOL    HW233903   4.331   1.229   4.128  0.6011  1.4546 -0.0607
 7424SOL     OW33904   3.410   3.457   6.174  0.2623  0.4659  0.1124
 7424SOL    HW133905   3.413   3.372   6.130 -1.7449 -0.7025  2.2641
 7424SOL    HW233906   3.422   3.502   6.090 -0.7652  0.4280 -0.0473
 7425SOL     OW33907   2.388   1.298   2.011 -0.4664 -0.1357 -0.4118
 7425SOL    HW133908   2.353   1.385   2.028  0.2588 -0.0076  0.4085
 7425SOL    HW233909   2.313   1.239   2.008  0.8064 -1.7510 -0.2589
 7426SOL     OW33910   2.079   1.847   7.397 -0.1465 -0.1903 -0.0496
 7426SOL    HW133911   1.998   1.851   7.446  0.6721 -2.3397  1.4927
 7426SOL    HW233912   2.136   1.785   7.443 -0.0572 -1.1201 -1.4049
 7427SOL     OW33913   2.436   1.423   0.735 -0.2661 -0.5682 -0.0965
 7427SOL    HW133914   2.522   1.383   0.721 -0.1687  0.4129 -2.3042
 7427SOL    HW233915   2.433   1.495   0.673  3.1169  0.2104  0.6592
 7428SOL     OW33916   4.016   0.051   4.909  0.1912  0.2175  0.3006
 7428SOL    HW133917   4.106   0.047   4.943  0.1129 -1.4879  0.3053
 7428SOL    HW233918   3.968   0.016   4.984 -0.6226  1.1229  0.2002
 7429SOL     OW33919   1.313   2.374   6.746  0.1865 -0.1196  0.4449
 7429SOL    HW133920   1.248   2.312   6.779 -0.9594 -0.3922 -2.3145
 7429SOL    HW233921   1.280   2.453   6.788 -1.5189 -0.8651  0.4910
 7430SOL     OW33922   4.656   3.786   6.259 -0.1475 -0.1198  0.1827
 7430SOL    HW133923   4.667   3.871   6.216  2.3979  0.0911  1.2636
 7430SOL    HW233924   4.605   3.819   6.333 -2.3482 -0.0393 -1.3500
 7431SOL     OW33925   1.802   2.227  15.003  0.6239  0.0483 -0.4288
 7431SOL    HW133926   1.790   2.288  14.930 -4.3880 -0.1308  0.2562
 7431SOL    HW233927   1.778   2.285  15.076 -0.7754 -1.5366  0.3843
 7432SOL     OW33928   4.401   0.498   8.745  0.0413  0.4344 -0.1072
 7432SOL    HW133929   4.418   0.407   8.771  0.1576  0.4743 -0.0452
 7432SOL    HW233930   4.491   0.530   8.745  0.3612 -0.4970 -1.2059
 7433SOL     OW33931   2.147   2.733   0.344 -0.1693  0.4369  0.3481
 7433SOL    HW133932   2.077   2.748   0.408 -0.7435 -0.2159 -0.1274
 7433SOL    HW233933   2.219   2.704   0.400 -0.6029 -1.0041  0.1420
 7434SOL     OW33934   2.349   1.838  12.909  0.2882 -0.4417 -0.3743
 7434SOL    HW133935   2.377   1.747  12.905 -0.4582 -0.8436  3.3942
 7434SOL    HW233936   2.418   1.872  12.851 -0.4575  0.5373 -0.6915
 7435SOL     OW33937   1.229   2.440   7.178  0.2576  0.2397  0.3860
 7435SOL    HW133938   1.294   2.465   7.243  1.2927  0.0968 -0.5849
 7435SOL    HW233939   1.149   2.461   7.226  0.2737 -0.6341  0.7797
 7436SOL     OW33940   4.700   4.003  12.447  0.3693  0.3736 -0.0145
 7436SOL    HW133941   4.672   4.092  12.468  1.4607  0.7907 -0.3242
 7436SOL    HW233942   4.651   3.983  12.367  0.5865  2.1518 -0.5918
 7437SOL     OW33943   2.743   0.019   6.473 -0.0573  0.1918 -0.5742
 7437SOL    HW133944   2.708   0.030   6.561 -1.0708 -2.0956 -0.6781
 7437SOL    HW233945   2.690   0.079   6.420 -0.5301  1.6135  1.5545
 7438SOL     OW33946   3.543   2.483   6.748  0.6347 -0.0764  0.0262
 7438SOL    HW133947   3.594   2.449   6.674  0.9659 -2.0980  1.1668
 7438SOL    HW233948   3.455   2.449   6.729 -1.2403  4.4771  0.7014
 7439SOL     OW33949   2.341   2.462   4.402  0.0392  0.6001 -0.1368
 7439SOL    HW133950   2.302   2.399   4.463  0.1817 -0.3628 -1.0404
 7439SOL    HW233951   2.266   2.520   4.390 -0.8777 -0.8730 -1.4438
 7440SOL     OW33952   3.156   4.208   6.763 -0.4497 -0.1862 -0.4093
 7440SOL    HW133953   3.158   4.304   6.757  1.1986 -0.2226 -0.2490
 7440SOL    HW233954   3.108   4.197   6.845 -1.6874  0.2998 -1.0623
 7441SOL     OW33955   1.303   2.659  13.881  0.1373  0.0034 -0.0457
 7441SOL    HW133956   1.346   2.646  13.797 -2.0245 -1.5144 -0.8981
 7441SOL    HW233957   1.278   2.567  13.897 -0.0861 -0.2863 -2.1165
 7442SOL     OW33958   0.657   2.015   6.055 -0.1059 -0.0560 -0.5823
 7442SOL    HW133959   0.658   2.089   5.994 -0.3276 -0.6579 -1.3141
 7442SOL    HW233960   0.682   1.938   6.005  1.6242 -0.5745  1.0618
 7443SOL     OW33961   4.711   4.675   9.239  0.2550 -0.3022  0.1961
 7443SOL    HW133962   0.008   4.677   9.150  0.5560 -0.0326  0.3228
 7443SOL    HW233963   4.617   4.667   9.218  0.2164 -0.9065  0.5991
 7444SOL     OW33964   0.296   3.827   7.029  0.2812  0.3830  0.0838
 7444SOL    HW133965   0.269   3.851   7.118  0.2698 -3.4508  1.1208
 7444SOL    HW233966   0.253   3.742   7.020  0.9113 -0.0862  1.4346
 7445SOL     OW33967   0.175   3.155  12.430 -0.0935 -0.0773 -0.8001
 7445SOL    HW133968   0.170   3.251  12.433 -1.4743 -0.2278  1.6278
 7445SOL    HW233969   0.221   3.128  12.510 -0.4171  1.4956 -0.0696
 7446SOL     OW33970   3.437   2.667   7.753 -0.3881  0.1275  0.0013
 7446SOL    HW133971   3.457   2.682   7.845 -1.4524 -0.1563  0.2710
 7446SOL    HW233972   3.471   2.749   7.717  1.6679  0.2022  2.1376
 7447SOL     OW33973   0.782   0.945   2.380  0.1614  0.6065  0.1726
 7447SOL    HW133974   0.791   1.032   2.342 -1.2036  0.2029 -1.0533
 7447SOL    HW233975   0.767   0.899   2.297  2.6174 -1.2097  0.7384
 7448SOL     OW33976   2.959   2.697   5.268 -0.2110 -0.1263  0.4597
 7448SOL    HW133977   3.054   2.706   5.271 -0.2664  0.1634  1.2972
 7448SOL    HW233978   2.936   2.606   5.288  0.2759 -0.0128  1.5246
 7449SOL     OW33979   3.402   0.980   9.301 -0.1020  0.5461 -0.3040
 7449SOL    HW133980   3.422   1.040   9.229 -0.4524 -0.0013 -0.8577
 7449SOL    HW233981   3.313   0.947   9.284  0.2948 -1.4195  1.4392
 7450SOL     OW33982   3.682   2.428  11.214 -0.6164 -0.3747 -0.0768
 7450SOL    HW133983   3.593   2.450  11.243  0.0755  0.9437  1.0906
 7450SOL    HW233984   3.693   2.346  11.262 -0.0551 -0.8142 -0.9605
 7451SOL     OW33985   0.337   3.381   3.158 -0.1141  0.0445 -0.4234
 7451SOL    HW133986   0.382   3.345   3.234  0.5512 -0.2111 -0.9376
 7451SOL    HW233987   0.391   3.338   3.092 -0.6662 -0.3509 -0.6271
 7452SOL     OW33988   3.375   0.863   4.602 -0.2085 -0.1476 -0.2301
 7452SOL    HW133989   3.346   0.885   4.513 -0.7070 -3.4401 -0.8706
 7452SOL    HW233990   3.370   0.945   4.651 -2.4152 -1.5579  1.8981
 7453SOL     OW33991   1.382   4.616  13.113 -0.3085  0.3418  0.4960
 7453SOL    HW133992   1.381   4.681  13.043 -2.6074 -0.5728 -0.3463
 7453SOL    HW233993   1.336   4.662  13.183 -0.7118  1.7964 -0.7390
 7454SOL     OW33994   0.197   3.102   3.639  0.2343  0.1950 -0.3057
 7454SOL    HW133995   0.166   3.155   3.565  0.9249  1.2685  0.1787
 7454SOL    HW233996   0.197   3.012   3.605  2.7027  0.4232 -0.9086
 7455SOL     OW33997   4.549   2.300   6.678 -0.1864 -0.5118 -0.0656
 7455SOL    HW133998   4.546   2.372   6.740 -3.6487  0.6616 -1.5501
 7455SOL    HW233999   4.642   2.279   6.682 -0.0515  0.4825  2.2951
 7456SOL     OW34000   0.264   2.545   0.415 -0.2233  0.9631 -0.6499
 7456SOL    HW134001   0.345   2.596   0.417 -0.7585  1.8789 -2.9748
 7456SOL    HW234002   0.303   2.463   0.445 -1.3545  1.0424  1.0454
 7457SOL     OW34003   2.079   3.534   4.606 -0.5657 -0.1598  0.1500
 7457SOL    HW134004   2.168   3.528   4.641 -0.4879  0.6058  0.0931
 7457SOL    HW234005   2.025   3.555   4.683  1.5259  1.3719  1.2148
 7458SOL     OW34006   3.944   3.154   3.368  0.1344  0.5933  0.0257
 7458SOL    HW134007   3.973   3.180   3.456  2.1260  1.2294 -0.8063
 7458SOL    HW234008   3.955   3.230   3.311 -0.3581  0.5922 -0.0669
 7459SOL     OW34009   0.581   0.565   2.050 -0.8323  0.2807 -0.1682
 7459SOL    HW134010   0.643   0.495   2.028 -1.3103 -0.4092  0.7025
 7459SOL    HW234011   0.534   0.568   1.966 -0.9907 -0.0226 -0.0910
 7460SOL     OW34012   3.490   0.823  16.456  0.1935  0.7053 -0.5354
 7460SOL    HW134013   3.496   0.774  16.374  1.8508 -1.1627  0.7250
 7460SOL    HW234014   3.410   0.875  16.447  0.5730  1.5576  0.9746
 7461SOL     OW34015   4.201   0.022   1.983  0.3992  0.4006 -0.6538
 7461SOL    HW134016   4.127   0.082   1.987  1.7860  2.1366 -0.9883
 7461SOL    HW234017   4.212   4.731   2.073  0.5695 -0.4310 -0.9382
 7462SOL     OW34018   1.642   4.575   9.331 -0.7449  0.3160 -0.2216
 7462SOL    HW134019   1.561   4.614   9.364 -0.6724  0.9192 -0.7558
 7462SOL    HW234020   1.623   4.513   9.260  0.9600 -1.0349  0.4832
 7463SOL     OW34021   2.223   1.801   7.642 -0.0958  0.0328  0.7893
 7463SOL    HW134022   2.145   1.771   7.689 -0.8268 -0.3561 -0.6768
 7463SOL    HW234023   2.280   1.725   7.654 -1.8638 -1.6985 -1.6957
 7464SOL     OW34024   3.287   2.811  14.392 -0.4262 -0.4675 -0.3479
 7464SOL    HW134025   3.268   2.878  14.327 -3.2139  0.7470  1.7470
 7464SOL    HW234026   3.252   2.729  14.357  2.0438 -1.1016 -1.3467
 7465SOL     OW34027   4.305   3.664   1.487  0.0995  0.4963 -0.0580
 7465SOL    HW134028   4.231   3.711   1.526 -2.0982 -0.3329 -3.2475
 7465SOL    HW234029   4.261   3.582   1.464  1.5098 -0.7209  1.6199
 7466SOL     OW34030   2.269   3.812  12.290 -0.7758 -0.8932  0.4586
 7466SOL    HW134031   2.338   3.785  12.230 -0.8344  2.3911 -1.1122
 7466SOL    HW234032   2.199   3.837  12.230  0.2667  0.3333 -0.2378
 7467SOL     OW34033   2.206   0.241   1.700 -0.7085  0.1602  0.1562
 7467SOL    HW134034   2.113   0.265   1.692 -1.0223 -1.4210 -0.8504
 7467SOL    HW234035   2.242   0.330   1.694  0.2595 -0.3055 -0.8068
 7468SOL     OW34036   3.510   3.244  15.691 -0.3862  0.3820  0.4535
 7468SOL    HW134037   3.444   3.189  15.734 -1.1916  1.0568  0.0707
 7468SOL    HW234038   3.586   3.204  15.733  0.4295  1.2477 -0.2291
 7469SOL     OW34039   4.131   0.060   6.108 -0.0451 -0.2939 -0.5381
 7469SOL    HW134040   4.212   0.086   6.152 -0.9803  3.3364 -0.9399
 7469SOL    HW234041   4.156   0.036   6.019 -0.8081 -1.8402 -0.3349
 7470SOL     OW34042   0.970   3.459   2.628  0.3212 -0.5984  0.2893
 7470SOL    HW134043   1.060   3.426   2.631  0.0564 -1.1779  1.8347
 7470SOL    HW234044   0.989   3.543   2.587 -1.4284 -0.1498  0.4336
 7471SOL     OW34045   1.462   2.807   7.265 -0.2877  0.1460  0.6823
 7471SOL    HW134046   1.552   2.803   7.233 -0.5378  0.2087 -0.0303
 7471SOL    HW234047   1.450   2.716   7.294 -2.0036  0.3075  0.4616
 7472SOL     OW34048   2.923   0.794   4.144  0.5429  0.0670  0.0561
 7472SOL    HW134049   2.929   0.876   4.192  2.8362 -0.2976  0.3995
 7472SOL    HW234050   2.924   0.731   4.217  0.3129 -1.0227 -0.8744
 7473SOL     OW34051   2.285   3.497   6.759 -0.4830  0.1715  0.0101
 7473SOL    HW134052   2.234   3.556   6.814 -0.8679 -2.1252  2.1153
 7473SOL    HW234053   2.245   3.505   6.672  0.9679 -0.2025 -0.7011
 7474SOL     OW34054   0.986   4.510   6.402  0.0631 -0.6500  0.5472
 7474SOL    HW134055   0.916   4.478   6.346 -2.5940  2.7696  1.8577
 7474SOL    HW234056   1.018   4.585   6.351 -3.3959  0.0356 -0.6408
 7475SOL     OW34057   1.116   1.725   9.854 -0.0702 -0.2450  0.0053
 7475SOL    HW134058   1.204   1.729   9.816 -0.6863 -0.6578 -1.4563
 7475SOL    HW234059   1.078   1.813   9.848  0.2898 -0.0705  0.2745
 7476SOL     OW34060   0.856   0.162  14.239 -0.1145  0.2414  0.5369
 7476SOL    HW134061   0.947   0.191  14.235  0.8089 -2.5360  1.6741
 7476SOL    HW234062   0.815   0.205  14.164 -2.8142  1.0188  2.4489
 7477SOL     OW34063   1.673   2.002  11.554 -0.1612 -0.6055 -0.3312
 7477SOL    HW134064   1.628   1.931  11.508  2.1228 -1.4360 -1.2818
 7477SOL    HW234065   1.608   2.022  11.620  0.0373 -2.4951  0.4391
 7478SOL     OW34066   2.256   4.390  13.306  0.3185  0.2473 -0.2568
 7478SOL    HW134067   2.265   4.299  13.278 -1.4836  0.2932 -1.0356
 7478SOL    HW234068   2.299   4.436  13.234  1.2430  0.2929  0.3332
 7479SOL     OW34069   1.596   1.318  16.498 -0.3190 -0.4381  0.2965
 7479SOL    HW134070   1.670   1.312  16.559  0.0800  1.1547 -0.0242
 7479SOL    HW234071   1.524   1.312  16.561 -0.9201 -2.4506 -0.5928
 7480SOL     OW34072   3.152   0.929   3.398 -0.4136  0.1389 -0.2282
 7480SOL    HW134073   3.208   0.860   3.363 -0.8280 -0.8483  1.0516
 7480SOL    HW234074   3.086   0.876   3.442 -0.9787  1.0037 -0.0308
 7481SOL     OW34075   0.049   3.291   8.859 -0.2625  0.3337  0.2635
 7481SOL    HW134076   0.007   3.253   8.936  0.0022 -0.3638  0.0539
 7481SOL    HW234077   0.018   3.236   8.788  1.1102 -0.0021 -0.0715
 7482SOL     OW34078   2.662   3.428  17.493 -0.4847 -0.2300  0.1808
 7482SOL    HW134079   2.700   3.516  17.492  0.4373 -0.6299 -0.7227
 7482SOL    HW234080   2.626   3.425  17.404  1.8406  2.1408 -0.8504
 7483SOL     OW34081   1.496   0.420   9.885 -0.5116  0.5238  0.3444
 7483SOL    HW134082   1.528   0.335   9.853  0.0933  0.4262  1.1998
 7483SOL    HW234083   1.574   0.446   9.934 -0.1209  1.3826 -0.7330
 7484SOL     OW34084   1.617   0.471   1.791  0.4417  0.0320  0.4677
 7484SOL    HW134085   1.660   0.472   1.706  0.1174  1.4599  0.3182
 7484SOL    HW234086   1.683   0.438   1.853 -0.3555  0.0904  1.3446
 7485SOL     OW34087   2.606   3.970   6.070 -0.2453  0.4519  0.2666
 7485SOL    HW134088   2.685   4.019   6.049 -0.1897 -0.5659 -1.9361
 7485SOL    HW234089   2.635   3.935   6.154  0.8527  2.0676  0.5701
 7486SOL     OW34090   4.698   4.422  10.129  0.0171  0.5251  0.0382
 7486SOL    HW134091   4.733   4.353  10.185 -1.2317 -0.3819 -0.2968
 7486SOL    HW234092   4.712   4.384  10.042 -0.7329  1.7733 -0.6527
 7487SOL     OW34093   4.735   1.605   2.354 -0.0921  0.4646 -0.2605
 7487SOL    HW134094   4.710   1.564   2.271 -0.9532  0.7034 -0.1149
 7487SOL    HW234095   4.648   1.602   2.395 -0.3368 -0.0324 -0.8133
 7488SOL     OW34096   3.697   2.141   1.025  0.1407 -0.1687  0.0589
 7488SOL    HW134097   3.683   2.102   1.111  2.4643  1.9754  1.4013
 7488SOL    HW234098   3.645   2.221   1.019 -1.6745 -1.1812  1.9597
 7489SOL     OW34099   3.361   0.864   5.126 -0.0846  0.3489  0.7466
 7489SOL    HW134100   3.448   0.873   5.165  0.1043  0.3576  0.3329
 7489SOL    HW234101   3.368   0.778   5.082 -2.8052  1.3898 -1.7179
 7490SOL     OW34102   2.623   1.591   4.000  0.4348 -0.5660 -0.0274
 7490SOL    HW134103   2.595   1.665   4.055  0.1777 -0.9626  0.3754
 7490SOL    HW234104   2.718   1.599   4.007  0.4969 -0.0636 -1.4611
 7491SOL     OW34105   1.625   2.917  16.153  0.2467 -0.1785 -1.1487
 7491SOL    HW134106   1.550   2.956  16.199 -1.4956 -0.6642 -3.5603
 7491SOL    HW234107   1.601   2.826  16.135 -0.2375 -0.3011  0.1196
 7492SOL     OW34108   3.386   4.674   2.695  0.2967 -0.3087  0.3720
 7492SOL    HW134109   3.475   4.683   2.729  0.7797 -2.3907 -0.3598
 7492SOL    HW234110   3.376   4.582   2.671 -2.6053  0.3822 -0.9809
 7493SOL     OW34111   3.641   1.302   2.335  0.1833  0.5612  0.3542
 7493SOL    HW134112   3.626   1.346   2.251 -1.2822 -0.3262  0.1409
 7493SOL    HW234113   3.555   1.316   2.375 -0.3901 -0.6365 -0.4754
 7494SOL     OW34114   4.129   1.064   3.976 -0.4454 -0.3100 -0.0871
 7494SOL    HW134115   4.148   0.970   3.970 -1.4777 -0.4116 -1.6441
 7494SOL    HW234116   4.085   1.060   4.061  1.1235 -0.2290  0.7220
 7495SOL     OW34117   2.095   0.943   3.246  0.0544 -0.4321 -0.2663
 7495SOL    HW134118   2.112   1.023   3.197 -0.9271  1.1624  2.0025
 7495SOL    HW234119   2.092   0.883   3.172 -1.4370 -1.0153  0.2736
 7496SOL     OW34120   3.222   2.312  14.688 -0.4454  0.1288  0.1258
 7496SOL    HW134121   3.299   2.290  14.636 -0.0236  2.3265 -0.1927
 7496SOL    HW234122   3.242   2.405  14.699  1.2573 -0.1276 -0.7800
 7497SOL     OW34123   3.300   0.545   2.480  0.1199 -0.1622  0.2225
 7497SOL    HW134124   3.282   0.639   2.487  0.3595 -0.2208  1.6011
 7497SOL    HW234125   3.390   0.544   2.448 -0.6701 -0.1437 -1.9543
 7498SOL     OW34126   2.029   1.034  12.448  0.4620  0.0084 -0.2145
 7498SOL    HW134127   1.960   1.075  12.395 -0.3729 -2.0113 -0.6989
 7498SOL    HW234128   1.976   0.974  12.500 -1.4253  1.6498 -0.2464
 7499SOL     OW34129   4.281   1.987   5.193 -0.3782  0.4552 -0.1522
 7499SOL    HW134130   4.319   2.018   5.275  0.2231  1.3226 -0.7519
 7499SOL    HW234131   4.206   1.945   5.235 -0.4865 -2.5832 -3.3894
 7500SOL     OW34132   2.325   1.797   3.139  0.1299  0.3279 -0.4480
 7500SOL    HW134133   2.408   1.749   3.135  0.3480  0.6812 -0.2021
 7500SOL    HW234134   2.335   1.834   3.051  1.1906 -1.5223 -1.1137
 7501SOL     OW34135   2.593   2.573   7.594  0.1120  0.0833  0.4757
 7501SOL    HW134136   2.549   2.491   7.572 -0.8994  0.1629  2.2238
 7501SOL    HW234137   2.675   2.562   7.546  0.6959 -1.7836  1.9120
 7502SOL     OW34138   0.445   3.917   5.119  0.1752 -0.0686 -0.0167
 7502SOL    HW134139   0.514   3.954   5.174 -0.5792  0.9788  0.2120
 7502SOL    HW234140   0.392   3.990   5.088 -1.2504 -0.5001  1.4116
 7503SOL     OW34141   4.626   1.521   5.514  0.7292 -0.5635 -0.3457
 7503SOL    HW134142   4.639   1.571   5.433  0.9861 -1.7875 -1.0637
 7503SOL    HW234143   4.711   1.480   5.531  0.4956 -0.6804  0.4952
 7504SOL     OW34144   1.967   2.004   8.339 -0.1689  0.3341 -0.2013
 7504SOL    HW134145   2.047   2.050   8.314 -0.5356 -0.0185 -1.9731
 7504SOL    HW234146   1.944   2.053   8.419  0.3122  1.7592 -0.9376
 7505SOL     OW34147   0.769   1.195   8.577 -0.5446 -0.3337 -0.2288
 7505SOL    HW134148   0.694   1.232   8.531 -0.6932 -0.4799 -0.1016
 7505SOL    HW234149   0.844   1.210   8.520  0.3414  1.1027  1.3165
 7506SOL     OW34150   2.365   3.373  11.604  1.1013  0.2261  0.2022
 7506SOL    HW134151   2.291   3.425  11.573 -0.9455 -2.7451  0.0665
 7506SOL    HW234152   2.429   3.377  11.533  1.6154  1.8118  0.7571
 7507SOL     OW34153   2.930   4.283   6.463  0.5583  0.3907  0.4407
 7507SOL    HW134154   2.961   4.374   6.464 -0.7110  0.8165  0.9421
 7507SOL    HW234155   2.868   4.296   6.535  0.5817  1.6916  0.2240
 7508SOL     OW34156   3.167   3.221   3.858  0.4980 -0.3380  0.3341
 7508SOL    HW134157   3.087   3.269   3.834  1.0184 -0.5225 -1.7696
 7508SOL    HW234158   3.136   3.154   3.919 -3.2446  0.5471 -0.5613
 7509SOL     OW34159   2.650   1.682  15.347 -0.4494  0.4684 -0.2664
 7509SOL    HW134160   2.669   1.714  15.259  0.1000 -1.4910 -0.8593
 7509SOL    HW234161   2.560   1.715  15.349 -0.9581 -0.9471 -0.3274
 7510SOL     OW34162   1.783   1.506   8.387 -0.1085 -0.2763 -0.0112
 7510SOL    HW134163   1.810   1.530   8.475  0.6489  0.0374 -0.3268
 7510SOL    HW234164   1.818   1.418   8.395  0.1749 -0.0843  0.8896
 7511SOL     OW34165   3.724   4.204  12.567 -0.5044 -0.7127 -0.2268
 7511SOL    HW134166   3.654   4.267  12.584  1.1031  1.5048 -1.6640
 7511SOL    HW234167   3.803   4.258  12.564 -0.2796 -1.0301  0.0349
 7512SOL     OW34168   0.461   0.232   3.381  0.1968  0.2265  0.1428
 7512SOL    HW134169   0.416   0.196   3.304 -0.3174  0.6017  0.2685
 7512SOL    HW234170   0.491   0.155   3.431  1.7321  0.9131  0.2780
 7513SOL     OW34171   3.731   0.493   2.932  0.7533  0.7289  0.0805
 7513SOL    HW134172   3.800   0.503   2.999  2.0644  2.5475 -1.5513
 7513SOL    HW234173   3.692   0.579   2.943 -2.9470 -1.3946  3.4086
 7514SOL     OW34174   2.487   0.624   3.100 -0.2056 -0.1781  0.1087
 7514SOL    HW134175   2.436   0.638   3.020  1.1443 -1.2531 -0.9233
 7514SOL    HW234176   2.435   0.672   3.165  1.4090  0.1040  1.1867
 7515SOL     OW34177   2.483   1.976   8.772  0.6510  0.5327  0.1785
 7515SOL    HW134178   2.392   1.947   8.778  0.1128  2.1338 -0.3751
 7515SOL    HW234179   2.472   2.044   8.839 -1.1079  0.5137 -0.1106
 7516SOL     OW34180   4.439   0.451   9.920 -0.8333  0.5385  0.0522
 7516SOL    HW134181   4.346   0.439   9.941 -0.7038 -0.4360  0.0768
 7516SOL    HW234182   4.479   0.374   9.960 -1.1799 -0.3632 -1.3298
 7517SOL     OW34183   1.546   2.525   6.929 -0.7251  0.3139  0.1064
 7517SOL    HW134184   1.580   2.595   6.875  2.4057 -2.4239 -1.4606
 7517SOL    HW234185   1.628   2.506   6.975  0.2496  1.7779 -1.0291
 7518SOL     OW34186   2.107   2.343   3.983  0.6699 -0.3670  0.2730
 7518SOL    HW134187   2.051   2.274   4.018 -1.1688 -0.6122 -3.1174
 7518SOL    HW234188   2.147   2.303   3.906 -0.8920  0.1780 -0.8436
 7519SOL     OW34189   2.850   4.712   1.498 -0.6113  0.2612 -0.0437
 7519SOL    HW134190   2.845   4.732   1.591 -0.2340 -0.0597  0.0470
 7519SOL    HW234191   2.933   0.014   1.472 -0.4834 -0.3740 -0.6475
 7520SOL     OW34192   2.489   3.925  16.271 -0.0428 -0.1573  0.2086
 7520SOL    HW134193   2.517   3.836  16.292 -3.3109 -0.9942  0.9914
 7520SOL    HW234194   2.396   3.906  16.271 -0.3740  1.4569 -2.1622
 7521SOL     OW34195   1.452   1.535   2.082 -0.0815  0.0509 -0.3550
 7521SOL    HW134196   1.368   1.489   2.075  0.2237 -1.0083  3.0163
 7521SOL    HW234197   1.504   1.472   2.031 -0.3193 -0.9387  0.6277
 7522SOL     OW34198   2.428   2.087  10.057  0.6627 -1.0847 -0.4858
 7522SOL    HW134199   2.509   2.054  10.096  1.5843 -0.1205 -1.5645
 7522SOL    HW234200   2.387   2.004  10.032 -0.2970 -0.4326 -1.0530
 7523SOL     OW34201   3.155   0.076  15.476  0.1815  0.2246 -0.2465
 7523SOL    HW134202   3.139   0.007  15.412  1.1822  2.1901 -2.5956
 7523SOL    HW234203   3.219   0.036  15.536 -0.3674 -2.2409 -1.3340
 7524SOL     OW34204   3.341   1.744   5.323  0.3832 -0.5435  1.2149
 7524SOL    HW134205   3.365   1.762   5.233 -0.3848  2.3345  1.5922
 7524SOL    HW234206   3.314   1.832   5.349 -0.1626 -0.4216  0.2227
 7525SOL     OW34207   1.756   3.448   2.334  0.3403 -0.1573  0.0368
 7525SOL    HW134208   1.731   3.452   2.242  0.2215 -0.0235  0.0739
 7525SOL    HW234209   1.851   3.440   2.328  0.3164 -0.8223  0.5743
 7526SOL     OW34210   3.597   3.018  17.044 -0.1601  0.4878 -0.0493
 7526SOL    HW134211   3.658   2.991  16.976 -2.4530  0.5824 -2.1454
 7526SOL    HW234212   3.656   3.062  17.105  0.8037 -1.0530  0.1078
 7527SOL     OW34213   1.089   3.685   5.202  0.1735 -0.1723 -0.3332
 7527SOL    HW134214   1.179   3.672   5.232  0.6564  1.0158 -1.2625
 7527SOL    HW234215   1.046   3.603   5.227  3.7785 -1.9141  0.0143
 7528SOL     OW34216   2.185   2.872   6.715 -0.7207 -0.1154 -0.6690
 7528SOL    HW134217   2.148   2.879   6.627  0.7898  2.2655 -1.1019
 7528SOL    HW234218   2.120   2.922   6.766  0.4457  0.4429  0.2756
 7529SOL     OW34219   0.925   0.848   4.255 -0.2486 -0.5174 -0.3967
 7529SOL    HW134220   0.845   0.852   4.203 -1.6268 -2.0096  1.5996
 7529SOL    HW234221   0.987   0.810   4.193 -0.5063  0.1596 -1.0719
 7530SOL     OW34222   2.209   3.262   6.917  0.4182  0.1980  0.6622
 7530SOL    HW134223   2.233   3.309   6.837 -1.6539  1.2949  0.6796
 7530SOL    HW234224   2.293   3.243   6.957  1.3773  1.1015 -0.9254
 7531SOL     OW34225   3.234   1.571  17.016 -0.2391 -0.0118  0.2809
 7531SOL    HW134226   3.295   1.583  17.089 -0.4791 -1.1749  0.6805
 7531SOL    HW234227   3.282   1.622  16.951  0.9324 -0.3160  0.9040
 7532SOL     OW34228   2.799   3.661  17.518  0.1031 -0.3976 -0.2591
 7532SOL    HW134229   2.874   3.603  17.510  1.8970  2.0248 -0.8761
 7532SOL    HW234230   2.847   3.742  17.503 -0.0581 -0.1618  0.4845
 7533SOL     OW34231   1.503   2.398   1.585 -0.5929 -0.1978 -0.1577
 7533SOL    HW134232   1.473   2.309   1.563  0.1784 -0.9709  1.9154
 7533SOL    HW234233   1.508   2.439   1.499 -1.4543  0.8496  0.3057
 7534SOL     OW34234   3.523   0.617   1.524  0.2191 -0.1704 -0.1746
 7534SOL    HW134235   3.548   0.545   1.582 -1.3367 -0.9554 -0.4903
 7534SOL    HW234236   3.442   0.585   1.485 -0.4991  1.0938  0.2804
 7535SOL     OW34237   0.932   1.592   1.456 -0.4804 -0.0740 -0.5653
 7535SOL    HW134238   0.993   1.557   1.391 -1.0825  1.0171 -1.7211
 7535SOL    HW234239   0.973   1.569   1.539  1.7828 -0.6383 -1.8226
 7536SOL     OW34240   0.281   4.464   4.945  0.1462  0.3423  0.0307
 7536SOL    HW134241   0.225   4.389   4.924  1.9662 -0.4872 -1.9043
 7536SOL    HW234242   0.362   4.427   4.911 -0.1716 -0.5688  0.2684
 7537SOL     OW34243   3.806   3.713   4.079 -0.5198  0.5076 -0.1668
 7537SOL    HW134244   3.826   3.756   3.996 -2.4622 -0.0228 -0.9163
 7537SOL    HW234245   3.767   3.630   4.049  0.8296  0.7277 -2.5453
 7538SOL     OW34246   1.289   1.615   5.311  0.2162 -0.2802 -0.3901
 7538SOL    HW134247   1.378   1.649   5.314  0.2250  0.0315 -4.2152
 7538SOL    HW234248   1.291   1.536   5.365 -0.4348 -0.5214 -0.7141
 7539SOL     OW34249   4.295   4.467  11.558 -0.1194  0.4934 -0.0791
 7539SOL    HW134250   4.309   4.513  11.475  1.9299 -0.2728 -0.1804
 7539SOL    HW234251   4.240   4.534  11.598  0.3463  2.2392 -2.3974
 7540SOL     OW34252   3.977   2.514   4.469 -0.6874  0.1783 -0.0431
 7540SOL    HW134253   4.017   2.572   4.405  2.5278 -2.8778 -0.7987
 7540SOL    HW234254   4.036   2.439   4.468  0.0192  0.7211  1.9469
 7541SOL     OW34255   2.891   1.794   5.241  0.4247  0.2662 -0.1206
 7541SOL    HW134256   2.848   1.863   5.190 -0.0425  1.0923  1.4191
 7541SOL    HW234257   2.974   1.778   5.195  0.6089 -1.9377  0.9902
 7542SOL     OW34258   2.175   1.383   0.675 -0.1488  0.3456 -0.1605
 7542SOL    HW134259   2.266   1.397   0.702  0.1171 -0.8568 -0.4495
 7542SOL    HW234260   2.137   1.471   0.673  1.3986  1.0497  1.7286
 7543SOL     OW34261   3.829   2.445   2.380 -0.4860 -0.4739  0.4745
 7543SOL    HW134262   3.737   2.437   2.406 -0.0831 -0.9542  1.7255
 7543SOL    HW234263   3.832   2.526   2.328  1.4242 -0.3085  0.8244
 7544SOL     OW34264   2.061   3.657  11.019 -0.1721 -0.1426 -0.1909
 7544SOL    HW134265   2.114   3.614  10.952  0.1073 -0.1632  0.0493
 7544SOL    HW234266   2.012   3.722  10.968 -2.8868 -1.1997  1.0688
 7545SOL     OW34267   3.721   1.914   2.193 -0.3759 -0.3900  0.1746
 7545SOL    HW134268   3.648   1.853   2.188 -0.4248 -0.4742  2.0300
 7545SOL    HW234269   3.791   1.852   2.172 -0.1221 -0.6040  1.6909
 7546SOL     OW34270   2.726   2.675   9.125  0.3049 -0.2018 -0.3919
 7546SOL    HW134271   2.749   2.764   9.152 -0.2271  0.0254 -0.6954
 7546SOL    HW234272   2.682   2.641   9.202  0.5624  0.5394  0.0904
 7547SOL     OW34273   0.671   4.213   6.379 -0.3620 -0.5181  0.1180
 7547SOL    HW134274   0.699   4.123   6.365 -1.0340 -0.8782  1.1590
 7547SOL    HW234275   0.589   4.202   6.427  0.6810 -1.0323  1.7628
 7548SOL     OW34276   4.567   3.827   4.274  0.3206  0.4227 -0.1706
 7548SOL    HW134277   4.551   3.844   4.366  1.6043 -0.8808  0.2910
 7548SOL    HW234278   4.663   3.824   4.281  0.2603  0.0548  0.4724
 7549SOL     OW34279   2.475   0.197  10.011 -0.3690  0.1224 -0.1605
 7549SOL    HW134280   2.503   0.106  10.015 -0.4695  0.0718 -0.6159
 7549SOL    HW234281   2.386   0.199  10.048 -0.4359  0.7457 -0.3482
 7550SOL     OW34282   4.658   0.319  17.407  0.3709  0.2338 -0.1563
 7550SOL    HW134283   0.014   0.316  17.420  0.8390  0.9045 -3.3568
 7550SOL    HW234284   4.631   0.352  17.493 -1.3827  1.8409 -1.3146
 7551SOL     OW34285   4.292   4.509   0.835  0.1211  0.0532  0.2440
 7551SOL    HW134286   4.347   4.450   0.784  0.5459 -0.1133  0.9017
 7551SOL    HW234287   4.356   4.578   0.853  0.8779  0.5683 -4.4570
 7552SOL     OW34288   3.376   4.150   3.385 -0.1891 -0.1052 -1.1154
 7552SOL    HW134289   3.325   4.071   3.402  0.8320 -0.8040 -1.3000
 7552SOL    HW234290   3.445   4.111   3.332  0.6431 -0.0171 -0.0956
 7553SOL     OW34291   3.100   0.778   0.200  0.2057 -0.3788 -0.6029
 7553SOL    HW134292   3.157   0.846   0.238 -1.0683 -0.2666  1.1450
 7553SOL    HW234293   3.075   0.824   0.120  0.0707 -2.0686 -1.5217
 7554SOL     OW34294   0.083   4.135  16.615 -0.6945 -0.0170  0.4371
 7554SOL    HW134295   0.063   4.145  16.522  2.3362 -0.4878 -0.2505
 7554SOL    HW234296   0.175   4.152  16.633 -0.4809 -0.2358 -0.4435
 7555SOL     OW34297   1.905   2.368   5.425  0.2796 -0.1494 -0.2898
 7555SOL    HW134298   1.823   2.320   5.434  0.1118 -0.0827 -1.4224
 7555SOL    HW234299   1.943   2.319   5.352 -0.2369 -1.5367  0.3758
 7556SOL     OW34300   4.260   2.157   6.262 -0.9272 -0.0012 -0.2146
 7556SOL    HW134301   4.169   2.139   6.285 -1.2710  0.1110 -1.5336
 7556SOL    HW234302   4.308   2.123   6.338  2.0459  2.8604 -0.7999
 7557SOL     OW34303   3.215   3.994   1.375  0.1123 -0.0431  0.0212
 7557SOL    HW134304   3.171   4.043   1.445 -0.8509 -1.2194  0.2403
 7557SOL    HW234305   3.180   4.035   1.296 -0.2993 -0.0204  0.2136
 7558SOL     OW34306   1.417   4.075   8.767  0.7019 -0.0838  0.5021
 7558SOL    HW134307   1.343   4.018   8.787  0.1783  0.5847  0.4731
 7558SOL    HW234308   1.407   4.133   8.842 -3.1065  1.3401 -1.1202
 7559SOL     OW34309   4.477   2.931  15.911 -0.1279 -0.1084 -0.4129
 7559SOL    HW134310   4.448   3.006  15.859  0.7393 -0.3481 -1.2287
 7559SOL    HW234311   4.410   2.867  15.888  1.8602 -1.3207 -2.8628
 7560SOL     OW34312   2.579   4.615  14.147  0.1986 -0.1893  0.1798
 7560SOL    HW134313   2.532   4.647  14.224  0.7325  1.4385 -0.1537
 7560SOL    HW234314   2.509   4.626  14.081 -1.0957 -1.4163  1.3560
 7561SOL     OW34315   1.970   1.808  12.581  0.3472 -0.3001  0.5489
 7561SOL    HW134316   1.977   1.894  12.539 -1.2715 -1.0422 -1.2595
 7561SOL    HW234317   1.915   1.835  12.655  1.0428  1.3341  0.4695
 7562SOL     OW34318   2.763   2.601  11.889 -0.4644  0.2215 -0.0300
 7562SOL    HW134319   2.780   2.536  11.821  0.2135  1.4058 -0.9822
 7562SOL    HW234320   2.762   2.540  11.963 -0.9344  0.0134 -0.2058
 7563SOL     OW34321   1.179   0.747   4.718  0.1923 -0.3289  0.0447
 7563SOL    HW134322   1.189   0.688   4.644  0.4043 -1.0334  0.6402
 7563SOL    HW234323   1.091   0.716   4.738 -0.4872  1.3855 -0.3066
 7564SOL     OW34324   1.329   1.954   3.527  0.0109  0.0339 -0.4590
 7564SOL    HW134325   1.349   1.919   3.614  2.1602 -0.4285 -1.1503
 7564SOL    HW234326   1.305   2.046   3.544 -0.2650  0.1339 -1.4286
 7565SOL     OW34327   3.778   0.994   2.137 -0.1001  0.3072  0.0666
 7565SOL    HW134328   3.731   0.935   2.196 -1.4737 -0.4924 -1.8395
 7565SOL    HW234329   3.853   0.937   2.118  0.3227  0.3541  1.5503
 7566SOL     OW34330   1.711   1.012   5.625 -0.6974 -0.0396  0.2014
 7566SOL    HW134331   1.689   1.028   5.534  0.1203 -0.2926 -0.0438
 7566SOL    HW234332   1.747   1.098   5.645  2.0864 -1.1372 -0.0621
 7567SOL     OW34333   4.321   0.441  13.459 -0.8423  0.5047 -0.0214
 7567SOL    HW134334   4.390   0.388  13.418 -0.6398  1.5072 -0.9562
 7567SOL    HW234335   4.242   0.387  13.453  0.4533 -1.3305 -0.8344
 7568SOL     OW34336   4.611   4.407   1.444  0.4684  0.2451  0.4088
 7568SOL    HW134337   4.533   4.365   1.482  0.2675  1.9938  1.9550
 7568SOL    HW234338   4.604   4.494   1.484 -1.0474 -0.0246  0.7431
 7569SOL     OW34339   3.207   2.910   0.696  0.2089 -0.2260  0.3813
 7569SOL    HW134340   3.190   2.883   0.786 -0.5660 -1.3783 -0.1088
 7569SOL    HW234341   3.282   2.966   0.714 -0.3940  1.0421 -0.9953
 7570SOL     OW34342   1.465   4.455  15.554  0.1863  0.0654  0.2271
 7570SOL    HW134343   1.477   4.518  15.482  2.5532 -1.7727 -1.0005
 7570SOL    HW234344   1.377   4.433  15.524  0.6207 -0.0196 -1.0078
 7571SOL     OW34345   3.429   1.321   8.832  0.0566  0.3217 -0.5590
 7571SOL    HW134346   3.506   1.377   8.823  0.6555 -0.4066 -0.0307
 7571SOL    HW234347   3.366   1.375   8.785  1.0468  2.1905  0.2833
 7572SOL     OW34348   4.062   0.065   8.850  0.2742 -0.1796 -0.3710
 7572SOL    HW134349   4.004   4.732   8.825  1.0769 -1.1885  0.6503
 7572SOL    HW234350   4.000   0.136   8.868 -0.0058 -0.9386  1.7195
 7573SOL     OW34351   4.276   0.316   2.191 -0.3479 -0.0535 -0.2436
 7573SOL    HW134352   4.234   0.307   2.105 -0.8322 -0.3364  0.0239
 7573SOL    HW234353   4.368   0.324   2.166 -0.2601  2.3073  0.8344
 7574SOL     OW34354   2.068   1.494   4.128  0.2785  0.5596  0.1940
 7574SOL    HW134355   1.996   1.469   4.186  1.9678 -1.7563  1.3291
 7574SOL    HW234356   2.028   1.469   4.045  2.6206  1.5248 -1.2414
 7575SOL     OW34357   1.530   0.626  11.822 -0.3884  0.5729  0.1618
 7575SOL    HW134358   1.524   0.607  11.916 -0.0486 -0.4748 -0.0299
 7575SOL    HW234359   1.561   0.716  11.826  1.4668 -0.1200  1.9606
 7576SOL     OW34360   0.441   4.224   5.987  0.0586 -0.2368  0.6277
 7576SOL    HW134361   0.500   4.299   5.997 -1.9550  1.3542  0.5711
 7576SOL    HW234362   0.445   4.236   5.892 -0.7120 -1.4486  0.4462
 7577SOL     OW34363   2.808   4.275   1.887  0.3450 -0.2583  0.0592
 7577SOL    HW134364   2.845   4.310   1.806  1.2082  1.3616  1.1504
 7577SOL    HW234365   2.862   4.334   1.939  1.6386 -0.6386 -0.8421
 7578SOL     OW34366   1.805   2.996   3.664  0.2709 -0.1438  0.1134
 7578SOL    HW134367   1.876   3.058   3.651 -0.8692  1.0072 -0.6937
 7578SOL    HW234368   1.751   3.012   3.586  2.2527 -2.2113 -1.6662
 7579SOL     OW34369   2.601   2.335   6.103 -0.0843 -0.4627 -0.4685
 7579SOL    HW134370   2.587   2.252   6.058 -0.3047 -0.4069 -0.5051
 7579SOL    HW234371   2.692   2.358   6.083 -0.3931 -0.1920 -1.5974
 7580SOL     OW34372   0.064   3.445   1.045  0.4003  0.1021  0.2984
 7580SOL    HW134373   0.064   3.349   1.047  1.0841  0.0972  0.0042
 7580SOL    HW234374   0.084   3.473   1.134 -1.2120 -0.3796  0.8230
 7581SOL     OW34375   3.161   1.088   2.743 -0.4395 -0.0783  0.1942
 7581SOL    HW134376   3.179   1.058   2.654  1.0544  0.4304  0.3232
 7581SOL    HW234377   3.111   1.167   2.721  0.5502  0.6587  0.5496
 7582SOL     OW34378   2.181   2.028   1.747 -0.0936  0.0303 -0.0317
 7582SOL    HW134379   2.178   2.094   1.816  2.1865 -0.4729  0.5213
 7582SOL    HW234380   2.086   2.014   1.744 -0.2495  1.1971 -0.7507
 7583SOL     OW34381   0.501   1.510   2.413  0.2679  0.5430 -0.5879
 7583SOL    HW134382   0.564   1.494   2.484 -0.4909  2.1506  0.4400
 7583SOL    HW234383   0.498   1.434   2.355  0.4523  0.0614  0.0292
 7584SOL     OW34384   4.555   0.277   5.973 -1.0835  0.0771 -0.0366
 7584SOL    HW134385   4.646   0.249   5.964 -1.1026 -0.4663  1.5372
 7584SOL    HW234386   4.509   0.195   5.991  2.0529 -1.7065 -0.0178
 7585SOL     OW34387   4.698   1.076  15.453 -0.1550  0.2584  0.0835
 7585SOL    HW134388   4.683   1.115  15.367 -1.6312 -1.7260 -0.5741
 7585SOL    HW234389   4.695   0.983  15.432 -0.5349  0.4820 -0.8984
 7586SOL     OW34390   0.016   2.256   0.593 -0.5902  0.1819  0.4814
 7586SOL    HW134391   0.017   2.256   0.689  2.0015 -1.7318  0.4357
 7586SOL    HW234392   0.103   2.225   0.570 -0.8593 -0.3501  0.1724
 7587SOL     OW34393   3.454   4.248   8.883 -0.0704 -0.7040  0.1804
 7587SOL    HW134394   3.430   4.176   8.826 -0.9816 -0.8802  0.7750
 7587SOL    HW234395   3.494   4.215   8.964 -0.8837 -0.5379  0.6505
 7588SOL     OW34396   2.188   0.962   4.311 -0.2263  0.6060  0.0863
 7588SOL    HW134397   2.200   0.876   4.352 -1.6740  0.4019  0.0969
 7588SOL    HW234398   2.267   1.012   4.331 -0.0954  0.4802 -0.1099
 7589SOL     OW34399   1.034   0.734   7.683  0.1826 -0.5083 -0.5337
 7589SOL    HW134400   0.976   0.808   7.703  0.7244 -0.7713  2.0348
 7589SOL    HW234401   0.985   0.672   7.630  0.5494 -0.9918 -0.3018
 7590SOL     OW34402   2.739   3.085  13.996  0.3940 -0.0540  0.1700
 7590SOL    HW134403   2.673   3.063  14.062  1.1782 -0.9734  0.6377
 7590SOL    HW234404   2.685   3.138  13.937 -0.7838 -1.1248  0.2769
 7591SOL     OW34405   1.908   1.281   7.332 -0.0780 -0.3139  0.1068
 7591SOL    HW134406   1.888   1.233   7.413 -2.9689  2.3443  1.0037
 7591SOL    HW234407   1.829   1.331   7.312 -0.0140 -0.3075 -0.1214
 7592SOL     OW34408   4.341   0.177   7.375  0.2638  0.6129  0.2929
 7592SOL    HW134409   4.322   0.134   7.458 -2.8773  1.7703  0.1794
 7592SOL    HW234410   4.308   0.266   7.386  1.2641  0.9868  0.2983
 7593SOL     OW34411   1.410   0.955   1.910  0.0694  0.1924  0.0890
 7593SOL    HW134412   1.506   0.959   1.913 -0.0782  2.0353  3.0121
 7593SOL    HW234413   1.398   0.881   1.851  0.3899  1.3388 -1.3959
 7594SOL     OW34414   2.684   2.056   1.185  0.1499 -0.0293  0.4071
 7594SOL    HW134415   2.728   2.132   1.225  1.6144 -1.6509  1.9035
 7594SOL    HW234416   2.752   2.039   1.119 -1.1249  2.4121 -1.5178
 7595SOL     OW34417   4.173   3.159  16.013  0.1459 -0.6847 -0.1222
 7595SOL    HW134418   4.137   3.146  15.925  0.1746  1.3899 -0.4583
 7595SOL    HW234419   4.215   3.245  16.011  0.5010 -0.8527  0.2499
 7596SOL     OW34420   4.499   4.390   2.838 -0.2806  0.8909  0.3441
 7596SOL    HW134421   4.541   4.350   2.762  1.1403  1.0213  1.0546
 7596SOL    HW234422   4.576   4.401   2.895  0.0566  0.0002  0.0683
 7597SOL     OW34423   3.245   2.854   8.810  0.2407  0.0027 -0.0541
 7597SOL    HW134424   3.273   2.937   8.770  0.7186  0.9188  2.1109
 7597SOL    HW234425   3.177   2.813   8.758 -1.7003  2.2199  0.7648
 7598SOL     OW34426   4.625   1.104   4.962  0.0132  0.4713  0.4632
 7598SOL    HW134427   4.696   1.150   5.007  1.2440 -0.9998 -0.0015
 7598SOL    HW234428   4.571   1.072   5.035 -1.3446 -0.0122 -0.7494
 7599SOL     OW34429   3.259   4.103   0.959  0.4419 -0.0553 -0.4526
 7599SOL    HW134430   3.239   4.163   0.888 -0.8953  0.2365  0.1772
 7599SOL    HW234431   3.288   4.155   1.034 -0.1053  1.9533 -1.6506
 7600SOL     OW34432   1.401   3.347  11.562 -0.6061 -0.0348 -0.4389
 7600SOL    HW134433   1.321   3.297  11.544 -0.2685 -1.0356  0.8243
 7600SOL    HW234434   1.464   3.306  11.502  1.3924  2.6003 -0.1388
 7601SOL     OW34435   3.354   2.786  14.666  0.0974  0.1400  0.0513
 7601SOL    HW134436   3.322   2.840  14.594 -1.9162  0.9066  1.5125
 7601SOL    HW234437   3.449   2.788  14.653 -0.1776 -1.9604 -2.1563
 7602SOL     OW34438   4.392   1.038  10.021  0.2091 -0.0177  0.0944
 7602SOL    HW134439   4.382   0.968  10.086 -0.9782  1.7841  1.8516
 7602SOL    HW234440   4.421   0.990   9.943  2.5094 -0.9532  1.5574
 7603SOL     OW34441   3.030   3.807   5.879  0.5905  0.5412  0.0212
 7603SOL    HW134442   3.062   3.872   5.942 -1.5562  1.3341  0.2999
 7603SOL    HW234443   3.072   3.829   5.796  0.6566  0.7154  0.1008
 7604SOL     OW34444   3.275   2.877   3.570 -0.0574  0.1938 -0.1609
 7604SOL    HW134445   3.308   2.831   3.492 -1.8580  0.8609 -1.3157
 7604SOL    HW234446   3.304   2.817   3.638  2.2882  1.3100 -0.1828
 7605SOL     OW34447   4.065   3.248   7.410  0.8003 -0.0227 -0.3319
 7605SOL    HW134448   4.077   3.166   7.458 -2.4556  0.5529  1.4475
 7605SOL    HW234449   4.125   3.231   7.337  0.5529 -0.3230 -0.4637
 7606SOL     OW34450   2.474   2.468   8.148 -0.0153  0.1025  0.4284
 7606SOL    HW134451   2.453   2.460   8.241 -1.4496  0.7471  0.1565
 7606SOL    HW234452   2.385   2.460   8.114  1.3012  2.0628 -3.5966
 7607SOL     OW34453   3.271   1.445   4.908 -0.2395  0.5846 -0.1604
 7607SOL    HW134454   3.356   1.405   4.925 -1.0121 -1.1071 -0.2836
 7607SOL    HW234455   3.208   1.383   4.943 -2.0400  1.6288 -1.5465
 7608SOL     OW34456   0.186   3.090   7.222 -0.1835 -0.1875 -0.1851
 7608SOL    HW134457   0.167   3.009   7.270  0.1635  0.5911  1.2786
 7608SOL    HW234458   0.245   3.048   7.160  0.9411 -1.1178  1.4972
 7609SOL     OW34459   1.659   1.291   2.687 -0.3581 -0.0662 -0.0196
 7609SOL    HW134460   1.624   1.220   2.741  2.4855 -1.1157  0.4600
 7609SOL    HW234461   1.575   1.331   2.663 -0.7636 -0.3518  0.9017
 7610SOL     OW34462   4.293   4.587   2.693 -0.5263 -0.1582  0.3023
 7610SOL    HW134463   4.388   4.596   2.691 -0.2646 -3.0489 -1.0616
 7610SOL    HW234464   4.280   4.662   2.635 -2.9669 -1.8005 -1.2947
 7611SOL     OW34465   3.933   2.816  14.073  0.4893  0.5804 -0.1247
 7611SOL    HW134466   3.915   2.750  14.005  1.6104  0.5172 -0.3597
 7611SOL    HW234467   3.957   2.756  14.144  4.4873  0.5553 -1.4879
 7612SOL     OW34468   4.410   0.135  10.462 -0.4312  0.5162 -0.1410
 7612SOL    HW134469   4.345   0.064  10.455 -0.6221  0.7858 -1.1674
 7612SOL    HW234470   4.403   0.158  10.555  0.7099 -1.5490  0.4676
 7613SOL     OW34471   2.047   3.912   5.706  0.8102  0.0004 -0.3367
 7613SOL    HW134472   2.070   3.848   5.772 -1.0261 -0.4812 -0.1502
 7613SOL    HW234473   1.963   3.937   5.745  0.4067 -1.1656 -0.4686
 7614SOL     OW34474   2.625   4.130   8.906  0.7909  0.0626  0.6200
 7614SOL    HW134475   2.572   4.175   8.840 -2.4361 -0.4317  2.8688
 7614SOL    HW234476   2.680   4.078   8.847  1.9013  0.3755  1.3812
 7615SOL     OW34477   1.906   1.678   6.140  0.2384 -0.1591  0.2754
 7615SOL    HW134478   1.825   1.689   6.188 -1.5520 -3.5503 -1.9424
 7615SOL    HW234479   1.972   1.698   6.207  0.3841 -2.7112  0.9009
 7616SOL     OW34480   0.315   0.652  13.653 -0.0131 -0.3377 -0.5903
 7616SOL    HW134481   0.344   0.604  13.576 -0.1451  1.0998 -1.5482
 7616SOL    HW234482   0.397   0.666  13.700 -0.1673 -2.3200  0.2740
 7617SOL     OW34483   3.249   0.944   4.384  0.2716 -0.3391  0.2535
 7617SOL    HW134484   3.172   0.986   4.345  1.6228  1.7090 -0.2168
 7617SOL    HW234485   3.279   0.890   4.312  1.0361  0.0125  0.3035
 7618SOL     OW34486   4.544   2.444   9.124 -0.6916  0.3900 -0.9314
 7618SOL    HW134487   4.571   2.535   9.122 -0.7493  0.3750 -2.7660
 7618SOL    HW234488   4.629   2.408   9.149 -0.3212  1.0543 -1.2322
 7619SOL     OW34489   4.340   3.024   5.181 -0.1138 -0.7823  0.1075
 7619SOL    HW134490   4.372   2.938   5.209  0.8205 -0.6710 -0.6124
 7619SOL    HW234491   4.248   3.022   5.208 -0.1453  0.0508  0.0712
 7620SOL     OW34492   2.407   1.289  14.702  0.4131 -0.0250 -0.1486
 7620SOL    HW134493   2.452   1.302  14.785  1.0074 -1.2773 -0.2647
 7620SOL    HW234494   2.420   1.370  14.654 -1.3897  0.3875  0.0564
 7621SOL     OW34495   3.558   3.188   5.376  0.4413 -0.5913 -0.2728
 7621SOL    HW134496   3.509   3.195   5.294  3.6394  0.0026 -2.1314
 7621SOL    HW234497   3.557   3.281   5.399 -0.3043 -0.7390  0.3180
 7622SOL     OW34498   3.124   3.892  13.916  0.0820 -0.3381 -0.3851
 7622SOL    HW134499   3.034   3.897  13.950  0.3739 -0.2306  0.3501
 7622SOL    HW234500   3.142   3.986  13.913  1.0700 -0.4816  1.2794
 7623SOL     OW34501   0.029   0.270   9.207 -0.0086 -0.4801 -0.0544
 7623SOL    HW134502   0.118   0.305   9.199 -0.2706  0.6529  2.1472
 7623SOL    HW234503   0.020   0.202   9.140 -0.0471  1.1090 -1.6520
 7624SOL     OW34504   4.291   2.797   2.977  0.0791 -0.5375  0.1614
 7624SOL    HW134505   4.258   2.792   3.067 -0.4305 -0.6717 -0.0351
 7624SOL    HW234506   4.361   2.732   2.986  1.6572  1.3714  1.6781
 7625SOL     OW34507   3.169   4.376   3.975 -0.5984  0.2988 -0.0735
 7625SOL    HW134508   3.242   4.403   4.030 -1.3763  3.5974 -0.6506
 7625SOL    HW234509   3.152   4.459   3.929 -1.7539  0.1448  0.0739
 7626SOL     OW34510   1.766   2.005   4.906  0.0392  0.0412 -0.5001
 7626SOL    HW134511   1.721   2.036   4.984  2.3105  2.3767 -0.1284
 7626SOL    HW234512   1.858   2.002   4.933 -0.0910  0.3194 -0.0215
 7627SOL     OW34513   1.387   0.581  17.220  0.2711 -0.0351  0.3167
 7627SOL    HW134514   1.406   0.674  17.209  0.4124 -0.3033 -1.7593
 7627SOL    HW234515   1.465   0.548  17.175  0.7871  0.1534  1.0854
 7628SOL     OW34516   3.554   1.912   1.714  0.2189 -0.1225 -0.1042
 7628SOL    HW134517   3.461   1.890   1.705  0.8200 -3.4819  1.9431
 7628SOL    HW234518   3.557   2.005   1.693 -0.5357 -0.1752 -0.4666
 7629SOL     OW34519   3.892   1.686  14.797 -0.4192  0.1751 -0.1022
 7629SOL    HW134520   3.966   1.747  14.790  0.1880 -0.7976 -2.3811
 7629SOL    HW234521   3.852   1.696  14.711  1.4956 -2.2358 -1.3001
 7630SOL     OW34522   1.416   0.814   4.106 -0.0609  0.7172  0.0834
 7630SOL    HW134523   1.416   0.888   4.167 -1.0230 -0.5679  1.6532
 7630SOL    HW234524   1.457   0.853   4.029  0.8026 -1.8496 -0.7386
 7631SOL     OW34525   2.348   0.007   6.801  0.2393  0.3656 -0.2788
 7631SOL    HW134526   2.333   4.699   6.884  1.9804 -2.6640 -1.6309
 7631SOL    HW234527   2.300   4.682   6.747 -3.8309  0.0701  3.6818
 7632SOL     OW34528   3.701   2.377   8.820 -0.0510 -0.3238  0.0081
 7632SOL    HW134529   3.709   2.282   8.816  0.6029 -0.2859  0.4185
 7632SOL    HW234530   3.790   2.406   8.840  0.0981 -0.7620 -0.0315
 7633SOL     OW34531   2.278   3.309   8.447 -1.1734  0.3818  0.1842
 7633SOL    HW134532   2.298   3.270   8.362 -2.1351 -0.4603  0.3532
 7633SOL    HW234533   2.353   3.281   8.500 -0.5809 -1.3868 -1.5807
 7634SOL     OW34534   1.152   3.894   6.887 -0.4008 -0.2630 -0.1904
 7634SOL    HW134535   1.146   3.894   6.791 -0.1985  0.6116 -0.2012
 7634SOL    HW234536   1.059   3.879   6.907  0.0934 -2.0852  0.6730
 7635SOL     OW34537   4.470   4.208  17.323 -0.1164  0.5128 -0.2229
 7635SOL    HW134538   4.389   4.214  17.273  0.8574  1.4123 -1.6823
 7635SOL    HW234539   4.511   4.290  17.298 -0.1425 -0.0803 -2.2225
 7636SOL     OW34540   3.478   4.589  17.652  0.2867  0.1812 -0.2385
 7636SOL    HW134541   3.474   4.624  17.563  0.4197  3.5079  1.0517
 7636SOL    HW234542   3.536   4.515  17.635  1.7672  0.9993  1.1830
 7637SOL     OW34543   0.424   0.461  12.856  0.0076  0.2664  0.3675
 7637SOL    HW134544   0.355   0.491  12.915  0.2786  0.6946  0.4709
 7637SOL    HW234545   0.502   0.514  12.874  0.9600 -1.1011  0.2769
 7638SOL     OW34546   2.768   4.412  14.160 -0.1371  0.0471 -0.1950
 7638SOL    HW134547   2.691   4.470  14.163 -1.1955 -1.4096  1.2858
 7638SOL    HW234548   2.830   4.449  14.097 -1.7270  0.4727 -1.5239
 7639SOL     OW34549   2.479   1.438  16.593 -0.7240  0.1161  0.4358
 7639SOL    HW134550   2.490   1.532  16.609  0.2039  0.0095  0.4060
 7639SOL    HW234551   2.480   1.394  16.678  3.0209 -1.9497 -0.7054
 7640SOL     OW34552   2.209   2.216   3.772  0.4225 -0.0431  0.1712
 7640SOL    HW134553   2.264   2.282   3.730  2.4078 -0.9263  1.3847
 7640SOL    HW234554   2.236   2.138   3.724 -2.4129 -0.2964 -1.0071
 7641SOL     OW34555   4.369   3.315   6.969  0.0115  0.1841  0.4065
 7641SOL    HW134556   4.315   3.390   6.997 -0.9513  0.8721 -3.2854
 7641SOL    HW234557   4.302   3.277   6.912 -1.2871  1.3782  1.1068
 7642SOL     OW34558   4.086   4.147  14.764  0.2959 -0.2133 -0.4704
 7642SOL    HW134559   4.178   4.125  14.749 -0.2406 -2.8713  0.1428
 7642SOL    HW234560   4.054   4.196  14.688 -0.0256  0.2837 -0.0160
 7643SOL     OW34561   0.015   2.405  15.759 -0.1963 -0.2704 -0.0808
 7643SOL    HW134562   4.715   2.322  15.789  0.8894 -0.8195 -0.2058
 7643SOL    HW234563   0.041   2.452  15.838 -0.6837  1.8670 -1.2176
 7644SOL     OW34564   0.892   0.208  12.685 -0.0330  0.6862  0.1511
 7644SOL    HW134565   0.863   0.287  12.639 -0.0367 -0.0963 -1.1993
 7644SOL    HW234566   0.952   0.244  12.750 -1.3235 -0.1785  1.8166
 7645SOL     OW34567   3.491   3.193  10.932  0.1165  0.2923  0.3475
 7645SOL    HW134568   3.481   3.283  10.900  1.5960  0.1148 -0.5957
 7645SOL    HW234569   3.555   3.161  10.869  0.0307  0.5114  0.1489
 7646SOL     OW34570   3.301   4.265   1.727 -0.1057 -0.3397  0.1079
 7646SOL    HW134571   3.379   4.264   1.783  0.4446 -0.0254 -0.6522
 7646SOL    HW234572   3.324   4.342   1.674 -0.8261 -0.9953 -1.1574
 7647SOL     OW34573   4.392   3.636  11.632  0.2149  0.1149 -0.0276
 7647SOL    HW134574   4.407   3.715  11.580  0.6448  1.6740  2.4385
 7647SOL    HW234575   4.430   3.562  11.586  1.0355 -1.0775  2.5843
 7648SOL     OW34576   4.498   2.873  17.576  0.0674  0.0199 -0.1702
 7648SOL    HW134577   4.450   2.798  17.610 -1.3569  0.7893 -0.4708
 7648SOL    HW234578   4.571   2.830  17.532  0.7025  0.9687 -0.0397
 7649SOL     OW34579   1.041   3.669   8.553 -0.2604  0.1634 -0.3170
 7649SOL    HW134580   0.995   3.741   8.597  0.8809  1.1565 -0.7482
 7649SOL    HW234581   1.102   3.647   8.624 -0.5170  0.4304 -0.0115
 7650SOL     OW34582   3.902   3.746   5.052  0.1433 -0.0697  0.5378
 7650SOL    HW134583   3.981   3.753   5.106 -0.4331 -0.0042  1.3869
 7650SOL    HW234584   3.934   3.711   4.969  0.9154 -0.5527  1.0336
 7651SOL     OW34585   0.762   4.156   2.124  0.5011  0.0879  0.4905
 7651SOL    HW134586   0.844   4.157   2.074 -0.1799  0.8182 -0.6071
 7651SOL    HW234587   0.793   4.096   2.192 -1.1031 -0.8124  0.4281
 7652SOL     OW34588   3.899   1.841   4.849  0.1264  0.5070 -0.2742
 7652SOL    HW134589   3.830   1.825   4.785  1.0411  0.5954 -1.2992
 7652SOL    HW234590   3.964   1.780   4.813  1.7469  2.7827 -1.2064
 7653SOL     OW34591   2.966   3.498   5.497  0.0685 -0.6547 -0.4771
 7653SOL    HW134592   2.930   3.414   5.526 -0.2602 -0.6855 -0.9690
 7653SOL    HW234593   2.881   3.538   5.479  0.3478 -0.2532 -0.8879
 7654SOL     OW34594   3.424   2.662   0.054  0.1094 -0.6133  0.0358
 7654SOL    HW134595   3.501   2.613   0.081  1.7619  0.9518 -1.8190
 7654SOL    HW234596   3.387   2.662   0.142  1.6235 -0.8377  0.6700
 7655SOL     OW34597   0.911   1.170   9.226  0.1474  0.2206 -0.0692
 7655SOL    HW134598   0.965   1.206   9.296 -1.3393  0.1025  1.1605
 7655SOL    HW234599   0.831   1.161   9.279  0.9465  0.0173  1.0929
 7656SOL     OW34600   0.844   1.410   3.561  0.4385  0.0948 -0.0290
 7656SOL    HW134601   0.909   1.356   3.606 -1.2965 -0.6062  1.6374
 7656SOL    HW234602   0.849   1.369   3.474  1.5232 -0.6776  0.3989
 7657SOL     OW34603   0.072   3.181   5.746 -0.2809 -0.1067  0.4339
 7657SOL    HW134604   0.049   3.262   5.702  1.4148  0.9911  1.5740
 7657SOL    HW234605   0.164   3.171   5.722 -0.8981 -1.3983 -1.3732
 7658SOL     OW34606   1.744   0.211   3.412  0.0804  0.3749 -0.0104
 7658SOL    HW134607   1.709   0.243   3.494 -1.8386 -0.4270 -0.5199
 7658SOL    HW234608   1.832   0.180   3.432 -0.1290 -0.9817 -1.1377
 7659SOL     OW34609   4.709   3.682  11.505 -0.4813 -0.1991 -0.0712
 7659SOL    HW134610   4.671   3.720  11.426 -0.2644  1.2500  0.5244
 7659SOL    HW234611   0.042   3.743  11.522 -0.9728 -0.3741  2.5883
 7660SOL     OW34612   2.032   3.889  10.851 -0.4800 -0.2620 -0.1252
 7660SOL    HW134613   2.009   3.961  10.909  2.2256 -0.3221  1.0134
 7660SOL    HW234614   1.944   3.880  10.814 -1.2158  1.2132  1.2641
 7661SOL     OW34615   2.970   1.032   7.107 -0.4951 -0.0785 -0.3938
 7661SOL    HW134616   2.923   1.037   7.190 -0.8848 -1.3909 -0.5377
 7661SOL    HW234617   2.902   1.051   7.043 -1.4268 -2.6482 -0.1686
 7662SOL     OW34618   2.940   4.078   7.441 -0.4547 -0.1942 -0.2423
 7662SOL    HW134619   2.992   3.998   7.439  1.4391  1.0725 -1.0259
 7662SOL    HW234620   3.011   4.138   7.421 -0.0572 -0.4967  0.2601
 7663SOL     OW34621   4.570   3.973   2.282 -0.0136 -0.1855 -0.1627
 7663SOL    HW134622   4.508   3.996   2.352  0.4111  0.9105 -0.1575
 7663SOL    HW234623   4.645   4.032   2.284  0.4186 -0.6567 -2.8823
 7664SOL     OW34624   3.515   3.057  16.617 -0.0428  0.4487  0.6638
 7664SOL    HW134625   3.430   3.018  16.598  0.8955 -0.2496 -2.0915
 7664SOL    HW234626   3.574   2.984  16.634  1.6205  1.1834 -1.9364
 7665SOL     OW34627   0.594   2.261   5.701  0.2010  0.2322 -0.0578
 7665SOL    HW134628   0.517   2.214   5.735 -0.0958 -0.1183 -1.2365
 7665SOL    HW234629   0.600   2.224   5.614  0.1651 -1.5946  0.7170
 7666SOL     OW34630   4.307   2.797   6.639  0.2540  0.7019 -0.4183
 7666SOL    HW134631   4.239   2.820   6.701  1.3548  1.2928  0.5587
 7666SOL    HW234632   4.389   2.822   6.680  0.6013 -1.3004  0.1135
 7667SOL     OW34633   3.217   3.253  13.647  0.3517  0.2541 -0.6461
 7667SOL    HW134634   3.123   3.262  13.632  0.3372  1.0556 -0.0537
 7667SOL    HW234635   3.234   3.342  13.678 -3.2111  0.9574 -0.6565
 7668SOL     OW34636   2.330   0.822   3.628  0.0446  0.5803 -0.1761
 7668SOL    HW134637   2.270   0.775   3.571  2.6584 -1.5251 -1.1960
 7668SOL    HW234638   2.328   0.759   3.701  0.8726  1.5068  0.6571
 7669SOL     OW34639   4.581   3.003  15.574  0.6088 -0.6826 -0.5922
 7669SOL    HW134640   4.499   3.019  15.620  0.9924 -1.6581  0.4125
 7669SOL    HW234641   4.643   3.057  15.624 -0.7036 -1.0626  1.4328
 7670SOL     OW34642   1.147   3.153  16.808  0.6788  0.3378  0.4036
 7670SOL    HW134643   1.159   3.064  16.776 -0.5522  1.1195 -2.2502
 7670SOL    HW234644   1.052   3.162  16.810  0.7054  0.8112 -0.6284
 7671SOL     OW34645   1.635   4.594   3.860  0.2151 -0.7080  0.1155
 7671SOL    HW134646   1.564   4.618   3.918 -0.2477 -1.2022 -0.2519
 7671SOL    HW234647   1.707   4.650   3.890  0.4872 -0.1275 -1.5933
 7672SOL     OW34648   0.458   4.042   7.438 -0.3076 -0.3934 -0.0375
 7672SOL    HW134649   0.488   4.108   7.376 -1.3862 -0.5778 -0.7587
 7672SOL    HW234650   0.372   4.078   7.461  0.2160  0.6917  0.2523
 7673SOL     OW34651   2.936   0.110   1.750  0.1836 -0.3498 -0.1421
 7673SOL    HW134652   2.874   0.093   1.821  0.4787 -0.0639  0.1861
 7673SOL    HW234653   3.017   0.071   1.784  0.3857 -0.0837 -0.3212
 7674SOL     OW34654   2.278   1.600   7.342 -0.4405 -0.2623  0.4970
 7674SOL    HW134655   2.194   1.582   7.385 -1.4361  0.3088 -1.2282
 7674SOL    HW234656   2.301   1.510   7.319  0.0171 -0.1264  0.4362
 7675SOL     OW34657   0.492   1.863   9.016 -0.3553  0.2578 -0.1446
 7675SOL    HW134658   0.554   1.795   8.987 -0.0661  0.1936  0.6322
 7675SOL    HW234659   0.483   1.916   8.937  1.5012 -0.6228 -0.9406
 7676SOL     OW34660   0.207   2.798   3.594 -0.2029 -0.2382  0.3022
 7676SOL    HW134661   0.181   2.810   3.502 -0.1876  1.1662  0.4847
 7676SOL    HW234662   0.229   2.705   3.598 -0.1348 -0.2859 -0.9928
 7677SOL     OW34663   3.590   2.621  12.985  0.0105  0.5703  0.1294
 7677SOL    HW134664   3.519   2.677  12.955  0.3848  0.6974 -0.5241
 7677SOL    HW234665   3.641   2.600  12.906  0.7047 -1.0922  1.0353
 7678SOL     OW34666   4.551   4.111   8.687 -0.1163  0.0546  0.7854
 7678SOL    HW134667   4.550   4.206   8.689 -1.9877  0.0611 -0.0168
 7678SOL    HW234668   4.460   4.105   8.717 -0.3389 -0.8385 -0.0485
 7679SOL     OW34669   0.805   4.535  14.549 -0.1849 -0.2060  0.5274
 7679SOL    HW134670   0.863   4.461  14.566  0.6876  0.1773 -0.8314
 7679SOL    HW234671   0.873   4.598  14.572  0.1059 -0.4695  0.3860
 7680SOL     OW34672   0.443   0.430   3.582  0.2075 -0.1429 -0.1021
 7680SOL    HW134673   0.364   0.399   3.625  0.7789 -0.5471  0.6700
 7680SOL    HW234674   0.442   0.371   3.507  1.3393 -0.6754  0.2970
 7681SOL     OW34675   2.576   4.701   3.885 -0.2913 -0.4071  0.3501
 7681SOL    HW134676   2.596   0.052   3.856 -2.4995  0.2962  1.0002
 7681SOL    HW234677   2.646   4.648   3.847  0.3815  0.3534  0.5284
 7682SOL     OW34678   1.382   3.079   7.794 -0.9821 -0.0370  0.1012
 7682SOL    HW134679   1.454   3.064   7.855 -0.8511  2.1171  0.4832
 7682SOL    HW234680   1.304   3.093   7.847 -1.7257 -0.5670 -0.8394
 7683SOL     OW34681   0.742   4.707   5.439 -0.2036 -0.0993  0.2382
 7683SOL    HW134682   0.831   4.731   5.413 -0.8114  0.4803 -1.2939
 7683SOL    HW234683   0.749   4.652   5.517 -0.0535  1.6326  1.4608
 7684SOL     OW34684   2.520   0.876  10.230  0.1444  0.6063  0.0647
 7684SOL    HW134685   2.585   0.932  10.272 -0.1328 -0.2594  1.6301
 7684SOL    HW234686   2.549   0.897  10.141 -1.1261  1.2667 -0.2036
 7685SOL     OW34687   0.039   1.765   4.346 -0.6408 -0.4022 -0.3780
 7685SOL    HW134688   0.000   1.846   4.311 -1.7473 -1.0099 -0.5574
 7685SOL    HW234689   4.714   1.744   4.415 -0.8238  1.6718  0.0756
 7686SOL     OW34690   4.041   2.942   9.353  0.0694  0.6431  0.1946
 7686SOL    HW134691   3.995   2.868   9.391 -0.6572  0.8496 -0.2636
 7686SOL    HW234692   4.033   3.008   9.422  2.5223 -0.4348  1.5188
 7687SOL     OW34693   1.908   1.792  15.123  0.0732  0.9417 -0.0053
 7687SOL    HW134694   1.869   1.865  15.172 -1.0935 -1.3983  2.5704
 7687SOL    HW234695   1.892   1.717  15.180  0.5454  0.7257 -0.1579
 7688SOL     OW34696   4.730   1.315   3.540  0.2831 -0.4547 -0.0716
 7688SOL    HW134697   0.020   1.406   3.552 -0.0239 -0.1934 -1.3738
 7688SOL    HW234698   0.074   1.266   3.534  0.9485  0.6663  0.0106
 7689SOL     OW34699   2.454   2.032  12.326 -0.0692  0.1735  0.3799
 7689SOL    HW134700   2.502   1.961  12.368  0.5277 -0.2420 -0.9937
 7689SOL    HW234701   2.412   2.075  12.401 -0.9978  0.5135 -0.3379
 7690SOL     OW34702   2.022   4.542   9.628  0.0289  0.1614 -0.9181
 7690SOL    HW134703   1.950   4.509   9.682 -0.2503  0.9480 -0.8080
 7690SOL    HW234704   1.988   4.631   9.620 -2.0354 -0.5747 -0.1763
 7691SOL     OW34705   0.212   3.310   1.856 -0.1153  0.1808  0.2658
 7691SOL    HW134706   0.182   3.400   1.864  2.6267  1.0236  0.9532
 7691SOL    HW234707   0.305   3.328   1.866  0.4600 -2.8484  0.4354
 7692SOL     OW34708   3.591   1.607   1.157 -0.5320 -0.4824  0.5108
 7692SOL    HW134709   3.664   1.651   1.114  0.9796 -2.5809  0.9317
 7692SOL    HW234710   3.541   1.571   1.084  0.3065 -0.3465 -0.1193
 7693SOL     OW34711   0.954   1.246  10.284 -0.5438 -0.2588 -0.2002
 7693SOL    HW134712   0.897   1.321  10.269 -0.3052 -0.0001  0.1943
 7693SOL    HW234713   1.033   1.276  10.329 -0.3703 -2.5201  1.0417
 7694SOL     OW34714   3.739   1.885   3.682  0.1687 -0.0776 -0.4487
 7694SOL    HW134715   3.728   1.925   3.595 -0.1339 -1.2398 -0.9348
 7694SOL    HW234716   3.692   1.803   3.670 -0.5777  0.2271  0.4144
 7695SOL     OW34717   2.123   1.026   1.196 -0.2627  0.3336 -0.3608
 7695SOL    HW134718   2.126   1.099   1.134 -0.9058  0.6807  0.0165
 7695SOL    HW234719   2.050   0.976   1.159 -0.3400  0.5051 -0.4413
 7696SOL     OW34720   0.802   1.605   5.116  0.0331  0.1256  0.4892
 7696SOL    HW134721   0.726   1.556   5.147  0.4729  0.6651  2.4288
 7696SOL    HW234722   0.761   1.683   5.078  2.2445  1.1936  0.3007
 7697SOL     OW34723   3.543   4.509   8.810  0.0343 -0.3136  0.6023
 7697SOL    HW134724   3.511   4.419   8.799 -0.5758 -0.1789  1.2801
 7697SOL    HW234725   3.542   4.540   8.719 -3.0477  0.3054  0.8621
 7698SOL     OW34726   0.567   3.175   6.633 -0.2478  0.1589 -0.2094
 7698SOL    HW134727   0.556   3.117   6.708  0.8533 -0.7044 -0.7206
 7698SOL    HW234728   0.524   3.255   6.665 -1.3183 -0.4996  0.0116
 7699SOL     OW34729   0.714   3.354   6.266 -0.0732 -0.0326 -0.1588
 7699SOL    HW134730   0.684   3.441   6.240 -2.1566 -0.5720  0.4091
 7699SOL    HW234731   0.795   3.328   6.224  0.3817 -0.4262  0.9554
 7700SOL     OW34732   4.271   2.578  10.787 -1.4608 -0.1884 -0.4573
 7700SOL    HW134733   4.205   2.509  10.772  0.7322 -2.7968  1.8403
 7700SOL    HW234734   4.232   2.657  10.750  1.0565  2.1025  1.7410
 7701SOL     OW34735   4.425   4.628  11.912 -0.5095 -0.0051  0.2133
 7701SOL    HW134736   4.355   4.678  11.870 -0.1860 -0.3089 -0.6975
 7701SOL    HW234737   4.499   4.666  11.864 -0.1856 -0.8261  0.0633
 7702SOL     OW34738   1.802   0.382   2.165  0.2072  0.1790 -0.4185
 7702SOL    HW134739   1.734   0.320   2.192  0.3598  0.1681 -0.0558
 7702SOL    HW234740   1.763   0.463   2.197  0.5328 -0.0116  0.4710
 7703SOL     OW34741   0.171   1.160   6.435 -0.3115 -0.1788 -0.0845
 7703SOL    HW134742   0.200   1.189   6.348 -2.6830  0.1427 -0.7639
 7703SOL    HW234743   0.248   1.181   6.487 -0.2068 -0.1750 -0.2398
 7704SOL     OW34744   1.844   4.409  12.342  0.3942  0.0295 -0.3310
 7704SOL    HW134745   1.768   4.385  12.395 -0.1263  1.6457 -0.3230
 7704SOL    HW234746   1.885   4.327  12.317 -1.1347 -0.1573 -2.2536
 7705SOL     OW34747   0.207   3.042   8.468 -0.5224 -0.0385  0.1101
 7705SOL    HW134748   0.280   3.092   8.504  0.1411 -0.7894 -0.1901
 7705SOL    HW234749   0.232   2.960   8.511 -0.8592  0.1737  0.7098
 7706SOL     OW34750   0.739   3.714   0.598 -0.0522  0.1781  0.0433
 7706SOL    HW134751   0.705   3.680   0.681  1.5310  2.4356  1.5876
 7706SOL    HW234752   0.703   3.801   0.611 -0.3667 -0.0755  0.8678
 7707SOL     OW34753   2.491   1.216   7.740  0.1376  0.1373 -0.0505
 7707SOL    HW134754   2.521   1.176   7.822 -0.6066  1.3385  0.8209
 7707SOL    HW234755   2.578   1.229   7.703 -1.1207  3.5439 -1.7933
 7708SOL     OW34756   4.362   4.012  12.486  0.3239 -0.7036 -0.8252
 7708SOL    HW134757   4.324   4.045  12.405 -3.0261 -1.0005  0.6376
 7708SOL    HW234758   4.295   3.966  12.536 -0.5245  0.6504 -0.7212
 7709SOL     OW34759   2.609   4.177   0.478  0.0540 -0.1008  0.0204
 7709SOL    HW134760   2.696   4.151   0.447 -0.8738 -2.2044 -0.8303
 7709SOL    HW234761   2.630   4.269   0.491 -0.0689 -0.2255  1.0470
 7710SOL     OW34762   4.293   4.490   8.527 -0.1860  0.0915 -0.9535
 7710SOL    HW134763   4.346   4.569   8.512  0.6151 -0.0389  1.2066
 7710SOL    HW234764   4.360   4.431   8.560 -0.7516  0.4437  0.8297
 7711SOL     OW34765   4.358   0.186  16.690 -0.1623 -0.3116 -0.5718
 7711SOL    HW134766   4.281   0.129  16.689 -0.4804  0.1221 -1.4644
 7711SOL    HW234767   4.351   0.224  16.777 -0.8514 -1.3884 -0.1504
 7712SOL     OW34768   0.287   4.571   8.314  0.3797 -0.6586 -0.1634
 7712SOL    HW134769   0.199   4.604   8.297  1.8923  3.8135  0.6975
 7712SOL    HW234770   0.331   4.588   8.230  1.6360  1.2788  0.8998
 7713SOL     OW34771   2.778   3.342   0.825  0.0472  0.0765  0.0001
 7713SOL    HW134772   2.869   3.339   0.797  0.2140  0.2195  0.5234
 7713SOL    HW234773   2.742   3.279   0.763 -2.6629  0.6136  0.9741
 7714SOL     OW34774   1.935   0.911   4.982  0.3363  0.2305  0.4132
 7714SOL    HW134775   1.966   0.997   5.010  0.1578  1.2842 -2.6739
 7714SOL    HW234776   1.964   0.862   5.059 -0.2041 -0.8777 -0.0978
 7715SOL     OW34777   2.928   4.032   6.392 -0.3257  0.6247  0.2243
 7715SOL    HW134778   2.843   4.011   6.353 -0.8447  0.3796  1.4982
 7715SOL    HW234779   2.932   4.128   6.392  0.1882  0.6003  1.7512
 7716SOL     OW34780   0.818   0.585   4.349  0.0313  0.3030  0.2708
 7716SOL    HW134781   0.727   0.559   4.340  0.2407 -0.6660  0.9464
 7716SOL    HW234782   0.825   0.652   4.281  1.5465  0.2379  0.3643
 7717SOL     OW34783   1.267   1.451  12.897  0.2936 -0.2965  0.2302
 7717SOL    HW134784   1.177   1.484  12.896  0.2569 -0.3536  1.5945
 7717SOL    HW234785   1.265   1.387  12.826 -0.6202  1.1554 -1.0377
 7718SOL     OW34786   2.056   3.148   3.784  0.1849 -0.7068 -0.4058
 7718SOL    HW134787   2.033   3.093   3.858  1.4357 -1.0740 -0.2935
 7718SOL    HW234788   2.071   3.235   3.823  0.3435 -1.1606  0.5359
 7719SOL     OW34789   1.514   0.906   2.559  0.0726 -0.0495 -0.3866
 7719SOL    HW134790   1.497   0.885   2.651  0.6060  2.1345  0.1927
 7719SOL    HW234791   1.504   1.000   2.550 -3.1636 -0.5559 -2.1201
 7720SOL     OW34792   1.687   2.116   8.621 -0.9586 -0.6887  0.0111
 7720SOL    HW134793   1.676   2.096   8.528 -2.0365 -0.9287  0.1858
 7720SOL    HW234794   1.595   2.137   8.638 -0.1468  0.5592  2.8429
 7721SOL     OW34795   1.194   3.663   7.023 -0.2378  0.3631 -0.2096
 7721SOL    HW134796   1.180   3.750   6.986 -1.1508  0.8862  1.3465
 7721SOL    HW234797   1.126   3.611   6.980  0.5440 -0.2429 -0.7150
 7722SOL     OW34798   1.253   1.772   0.942 -0.4769  0.3667  0.2555
 7722SOL    HW134799   1.213   1.836   0.882 -1.3558  1.0398  1.5533
 7722SOL    HW234800   1.196   1.791   1.017 -0.0469  3.2016 -0.1058
 7723SOL     OW34801   4.548   0.245   2.159 -0.2070 -0.0195  0.0337
 7723SOL    HW134802   4.587   0.325   2.192 -1.4622  0.5737  0.0821
 7723SOL    HW234803   4.606   0.181   2.201  0.7817  0.0464 -1.2540
 7724SOL     OW34804   2.409   0.187   8.694 -0.1096 -0.7391 -0.3962
 7724SOL    HW134805   2.451   0.163   8.777  1.5096  1.3862 -0.5736
 7724SOL    HW234806   2.330   0.238   8.710 -0.3062 -0.5314 -2.0025
 7725SOL     OW34807   3.696   4.524   6.593  0.1601  0.1225  0.3110
 7725SOL    HW134808   3.603   4.541   6.578 -0.1769 -2.4730 -0.5039
 7725SOL    HW234809   3.705   4.444   6.644 -1.2502 -1.4066 -1.8774
 7726SOL     OW34810   2.152   1.661   0.672  0.0137  0.6446 -0.4480
 7726SOL    HW134811   2.220   1.699   0.728  0.9585  0.0321 -1.1996
 7726SOL    HW234812   2.162   1.717   0.595 -1.3654  1.4156 -0.0688
 7727SOL     OW34813   0.527   4.379  16.019  0.5383 -0.3742 -0.3211
 7727SOL    HW134814   0.583   4.447  15.981 -1.0055  0.0155 -1.9191
 7727SOL    HW234815   0.492   4.335  15.941 -0.3243 -1.2702  0.5680
 7728SOL     OW34816   2.648   1.979   9.076  0.0857  0.2944 -0.5299
 7728SOL    HW134817   2.678   2.052   9.022  1.5147  1.3224  1.6880
 7728SOL    HW234818   2.661   1.909   9.012  0.6137 -0.5783  0.5457
 7729SOL     OW34819   1.507   3.887   1.962  0.2116  0.5204 -0.1832
 7729SOL    HW134820   1.474   3.799   1.941 -2.0211  1.7350 -1.7061
 7729SOL    HW234821   1.433   3.928   2.008  2.1025  2.5489  1.0177
 7730SOL     OW34822   4.450   1.711   3.395 -0.0485 -0.1140  0.1004
 7730SOL    HW134823   4.517   1.647   3.418  2.1078  2.0045 -0.3777
 7730SOL    HW234824   4.410   1.700   3.482  0.1411 -0.2328  0.1718
 7731SOL     OW34825   0.946   1.436   8.517  0.0174  0.1798  0.2337
 7731SOL    HW134826   0.898   1.461   8.596  1.7731  0.9613  1.0483
 7731SOL    HW234827   0.874   1.432   8.455  0.4363 -0.1337 -0.2261
 7732SOL     OW34828   1.155   3.637   8.833  0.7889 -0.3159  0.1141
 7732SOL    HW134829   1.169   3.644   8.927  1.1917  0.4319  0.0035
 7732SOL    HW234830   1.185   3.546   8.826  0.4569 -0.2435 -2.2369
 7733SOL     OW34831   4.006   4.538   7.135 -0.3048  0.2886 -0.4359
 7733SOL    HW134832   4.054   4.603   7.186 -1.8470  1.3446 -0.3069
 7733SOL    HW234833   4.031   4.571   7.048 -1.0205  0.2777 -0.6431
 7734SOL     OW34834   1.854   1.700   4.996 -0.1044 -0.4888 -0.3582
 7734SOL    HW134835   1.793   1.626   4.998  2.1121 -2.2972  0.5382
 7734SOL    HW234836   1.867   1.726   5.087  2.8432  0.8077 -1.1732
 7735SOL     OW34837   1.166   4.077   7.845  0.3638 -0.4073 -0.0668
 7735SOL    HW134838   1.232   4.044   7.906  0.1449 -0.7210 -0.0024
 7735SOL    HW234839   1.206   4.086   7.758  0.4330  0.8380  0.0900
 7736SOL     OW34840   0.024   1.216   5.181 -0.3413 -0.5855 -0.6623
 7736SOL    HW134841   4.702   1.278   5.221 -0.9204 -1.3100 -0.4102
 7736SOL    HW234842   0.015   1.137   5.235  1.6563 -1.3184 -1.3587
 7737SOL     OW34843   0.129   1.136   4.177 -0.3444 -0.6995  0.1641
 7737SOL    HW134844   0.042   1.170   4.198 -1.1622 -1.3076 -2.2242
 7737SOL    HW234845   0.108   1.043   4.181 -1.3123 -0.4382  1.1866
 7738SOL     OW34846   2.310   0.021   6.471 -0.3368  0.1449  0.6002
 7738SOL    HW134847   2.275   0.085   6.409  0.5610 -1.0678 -1.1616
 7738SOL    HW234848   2.358   0.080   6.530  0.9315 -0.6098  0.3205
 7739SOL     OW34849   4.052   0.284   4.000 -0.5797 -0.1368  0.8367
 7739SOL    HW134850   4.074   0.366   3.956 -0.5808 -1.2667 -1.2806
 7739SOL    HW234851   3.958   0.288   3.981 -0.7831 -0.8097  1.6738
 7740SOL     OW34852   3.005   0.700   3.888 -0.5532 -0.4964 -0.4419
 7740SOL    HW134853   2.968   0.714   3.975 -0.4060  0.9168 -0.6033
 7740SOL    HW234854   2.986   0.607   3.891 -1.6506 -0.2086  1.5994
 7741SOL     OW34855   1.925   2.380   9.049  0.1233 -0.0148 -0.0708
 7741SOL    HW134856   1.844   2.328   9.050 -0.3955  0.7715 -1.1528
 7741SOL    HW234857   1.896   2.468   9.027  2.8244  0.8202 -0.3243
 7742SOL     OW34858   2.118   2.705   7.025 -0.0286 -0.0773 -0.5001
 7742SOL    HW134859   2.137   2.642   7.094 -1.3018  0.7195  0.5668
 7742SOL    HW234860   2.120   2.641   6.953  0.6842 -2.1770  1.4145
 7743SOL     OW34861   1.448   2.261  13.002 -0.0249 -0.3817  0.5400
 7743SOL    HW134862   1.466   2.266  12.909 -0.5036 -1.7606  0.3825
 7743SOL    HW234863   1.528   2.231  13.045 -0.3003 -0.5083  0.9694
 7744SOL     OW34864   3.469   1.044   2.795 -0.6628  0.7928  0.7627
 7744SOL    HW134865   3.457   1.136   2.773  2.0908  1.3625  1.6105
 7744SOL    HW234866   3.410   1.004   2.731 -0.7367  0.4164  1.0702
 7745SOL     OW34867   2.256   4.054  10.360  0.4481  0.1731 -0.2162
 7745SOL    HW134868   2.169   4.085  10.388  1.9687  2.2290  2.1747
 7745SOL    HW234869   2.271   3.976  10.414 -2.6138  1.8432  3.0918
 7746SOL     OW34870   4.525   4.406   8.613  0.2069 -0.5131  0.0412
 7746SOL    HW134871   4.513   4.464   8.688  0.3928 -2.2766  1.4303
 7746SOL    HW234872   4.618   4.408   8.634 -0.0547 -2.9754  1.3855
 7747SOL     OW34873   3.990   4.555   4.161  0.5720 -0.9100  0.1422
 7747SOL    HW134874   4.012   4.620   4.228  1.2015 -1.8990  0.9049
 7747SOL    HW234875   3.941   4.494   4.216  1.8204  0.3780  2.7010
 7748SOL     OW34876   2.963   4.281  11.910  0.0832  0.0203 -0.0638
 7748SOL    HW134877   2.960   4.299  11.816 -2.3667  0.6522  0.1383
 7748SOL    HW234878   3.043   4.229  11.910 -0.6858 -1.1535  2.4891
 7749SOL     OW34879   3.437   0.789  14.502  0.1068 -0.0215 -0.8702
 7749SOL    HW134880   3.413   0.879  14.478 -1.6820 -0.3148 -0.2338
 7749SOL    HW234881   3.376   0.790  14.576 -1.7414  0.3141 -2.3961
 7750SOL     OW34882   1.272   0.729   7.537 -0.1534  0.0342 -0.1519
 7750SOL    HW134883   1.207   0.715   7.606 -0.7997 -0.4335 -0.8449
 7750SOL    HW234884   1.346   0.754   7.591 -0.8348  1.0421  0.3079
 7751SOL     OW34885   3.707   1.926   4.327 -0.5008  0.5183  0.3829
 7751SOL    HW134886   3.637   1.991   4.335 -1.2593 -0.4374  1.5802
 7751SOL    HW234887   3.650   1.851   4.344 -1.1354  1.3846  2.0800
 7752SOL     OW34888   4.615   0.331  12.922  0.7173  0.3302 -0.2325
 7752SOL    HW134889   4.549   0.390  12.956 -0.4375 -0.2927 -1.4032
 7752SOL    HW234890   4.658   0.301  13.002 -0.7666  1.8068  1.1105
 7753SOL     OW34891   1.715   4.192   5.574  0.0725  0.4131 -0.6072
 7753SOL    HW134892   1.642   4.225   5.522 -0.1539  1.7977  0.6013
 7753SOL    HW234893   1.751   4.138   5.503  2.1667 -1.5869  2.0175
 7754SOL     OW34894   0.330   1.536   3.706  0.2659  0.5691  0.3506
 7754SOL    HW134895   0.250   1.529   3.758 -0.9313  1.4145 -1.3869
 7754SOL    HW234896   0.383   1.588   3.767 -0.7569  1.5544  0.3933
 7755SOL     OW34897   0.195   0.707   7.567  0.3502  0.3927 -0.7149
 7755SOL    HW134898   0.193   0.621   7.610  1.9195  0.8259  0.2006
 7755SOL    HW234899   0.279   0.740   7.597  0.9661 -1.3542 -0.4925
 7756SOL     OW34900   1.268   1.887   9.332  0.4587 -0.2130  0.3370
 7756SOL    HW134901   1.209   1.825   9.289 -0.4618 -0.0094  1.2982
 7756SOL    HW234902   1.343   1.835   9.360 -0.0169 -1.4356 -0.6613
 7757SOL     OW34903   3.024   4.260   8.087 -0.2180 -0.1834 -0.4480
 7757SOL    HW134904   2.989   4.206   8.016 -0.3420 -2.9049  1.6675
 7757SOL    HW234905   2.954   4.246   8.151  1.9308 -0.6906  1.7638
 7758SOL     OW34906   1.477   3.246   9.346 -0.5833  0.1399  0.6424
 7758SOL    HW134907   1.571   3.260   9.344 -0.2550 -2.4749 -2.3706
 7758SOL    HW234908   1.454   3.213   9.259  1.8060 -1.2628  0.5422
 7759SOL     OW34909   1.025   1.186  13.102  0.1292 -0.4338 -0.0584
 7759SOL    HW134910   1.088   1.257  13.107 -0.6688  0.3269 -0.7478
 7759SOL    HW234911   0.967   1.226  13.037  2.3614 -1.9905 -2.9959
 7760SOL     OW34912   1.059   2.123  16.129 -0.5850 -0.4527  0.2922
 7760SOL    HW134913   1.084   2.031  16.132 -1.0206 -0.6029 -0.6474
 7760SOL    HW234914   0.993   2.125  16.060 -0.2014  1.1958 -0.0179
 7761SOL     OW34915   3.737   2.305   5.013 -0.9432  0.2349  0.2528
 7761SOL    HW134916   3.777   2.359   5.081  1.1146 -0.3639 -0.4779
 7761SOL    HW234917   3.722   2.369   4.944 -0.6607  1.7332  1.6008
 7762SOL     OW34918   2.784   1.537   6.162 -0.0468  0.5671  0.0555
 7762SOL    HW134919   2.773   1.519   6.068 -2.0161  0.8719  0.2437
 7762SOL    HW234920   2.728   1.469   6.198 -0.3566 -0.0918 -1.6485
 7763SOL     OW34921   2.890   1.705   2.002  0.8270 -0.3576  0.7593
 7763SOL    HW134922   2.854   1.670   2.084 -0.5288 -0.8714 -0.0522
 7763SOL    HW234923   2.813   1.690   1.947  1.0647  2.4402 -0.3005
 7764SOL     OW34924   4.313   2.659   7.592  0.4709  0.7630  0.5552
 7764SOL    HW134925   4.267   2.594   7.540  0.3513  2.2187 -1.1725
 7764SOL    HW234926   4.398   2.671   7.551  0.2090 -1.2566 -0.5469
 7765SOL     OW34927   0.257   3.361   6.284 -0.0446  0.0793  0.2147
 7765SOL    HW134928   0.260   3.402   6.197 -0.8429  1.1844  0.6954
 7765SOL    HW234929   0.229   3.440   6.332 -1.1342 -0.4324  0.4251
 7766SOL     OW34930   4.641   1.467   3.248 -0.3075  0.5342  0.0662
 7766SOL    HW134931   4.612   1.446   3.160  0.7332 -0.0084 -0.1484
 7766SOL    HW234932   4.634   1.380   3.288 -0.1796 -0.3395 -1.8219
 7767SOL     OW34933   2.942   2.258   6.334 -0.2749 -0.2301 -0.6709
 7767SOL    HW134934   2.917   2.166   6.337  2.5642 -0.9388  1.6157
 7767SOL    HW234935   2.971   2.258   6.243  1.7462  2.1337 -0.0491
 7768SOL     OW34936   0.611   2.647   4.148 -0.8506 -0.4081 -0.1499
 7768SOL    HW134937   0.602   2.732   4.105 -0.6164  0.2820  1.1704
 7768SOL    HW234938   0.702   2.653   4.175  0.3240 -1.4882 -3.9221
 7769SOL     OW34939   4.542   2.700   2.633 -0.0583 -0.3477  0.5397
 7769SOL    HW134940   4.583   2.737   2.555 -0.1265 -0.4661  0.4463
 7769SOL    HW234941   4.506   2.616   2.602 -0.0941 -0.2496  0.3158
 7770SOL     OW34942   4.514   1.194   3.326 -0.1732  0.3703  0.7307
 7770SOL    HW134943   4.563   1.114   3.343  0.1998  0.4900  0.2182
 7770SOL    HW234944   4.467   1.171   3.247  1.8391 -0.9534 -0.0921
 7771SOL     OW34945   2.787   2.073   7.311 -0.1424  0.2765 -0.0041
 7771SOL    HW134946   2.770   2.025   7.392  1.3521  0.8059  0.6294
 7771SOL    HW234947   2.835   2.149   7.344 -2.0854  0.4943  2.3439
 7772SOL     OW34948   1.489   4.594   0.874  0.0805 -0.0465 -0.3468
 7772SOL    HW134949   1.497   4.544   0.956  1.2622  0.3914 -0.1988
 7772SOL    HW234950   1.572   4.641   0.872 -0.2001  0.4585 -0.1107
 7773SOL     OW34951   3.536   1.921   2.730  0.1241  0.0397  0.1944
 7773SOL    HW134952   3.548   1.864   2.654  0.5839 -0.4902  0.6627
 7773SOL    HW234953   3.590   1.873   2.794  0.3036 -1.1073 -0.8076
 7774SOL     OW34954   0.391   2.962   7.102 -0.4899 -0.1293  0.0303
 7774SOL    HW134955   0.426   2.951   7.190 -0.1214  0.8211  0.0079
 7774SOL    HW234956   0.392   2.871   7.072 -0.0920 -0.4133  0.9015
 7775SOL     OW34957   2.731   0.467   5.679  0.5927 -0.3678 -1.0840
 7775SOL    HW134958   2.734   0.494   5.771  1.9685 -2.1919 -0.5975
 7775SOL    HW234959   2.803   0.518   5.643 -0.4451  1.7479 -0.1685
 7776SOL     OW34960   1.555   3.801   9.011 -0.3160 -0.2328 -0.1604
 7776SOL    HW134961   1.467   3.764   9.023 -0.4545  0.6253  1.5980
 7776SOL    HW234962   1.595   3.770   9.093  0.2402  0.1158 -0.3002
 7777SOL     OW34963   0.074   4.434   6.812 -0.3002  0.0867 -0.1934
 7777SOL    HW134964   0.011   4.386   6.865  0.1643  0.3897  0.6195
 7777SOL    HW234965   0.033   4.418   6.726  0.4012  0.5520 -0.6160
 7778SOL     OW34966   4.407   4.584   4.622  0.4554  0.1342 -0.9810
 7778SOL    HW134967   4.314   4.565   4.617  0.0809  1.6187  0.1881
 7778SOL    HW234968   4.420   4.604   4.530  1.9297  2.1443 -0.3508
 7779SOL     OW34969   1.432   2.190   8.254  0.4099  0.2439 -0.0741
 7779SOL    HW134970   1.477   2.161   8.333 -1.5706  0.8603  1.2738
 7779SOL    HW234971   1.461   2.126   8.189 -1.6953  1.9567 -2.7323
 7780SOL     OW34972   3.919   2.689   5.807 -0.6037 -0.4594  0.0723
 7780SOL    HW134973   3.904   2.750   5.880  1.2978  1.6279 -1.2834
 7780SOL    HW234974   4.001   2.660   5.846  0.0357  2.0499  0.5477
 7781SOL     OW34975   3.800   0.642   1.157  0.4287 -0.2699 -0.4500
 7781SOL    HW134976   3.870   0.584   1.128 -0.2327 -0.5308 -1.5263
 7781SOL    HW234977   3.747   0.639   1.077 -0.9834  1.4740  0.4147
 7782SOL     OW34978   4.582   0.357   7.102  0.2706 -0.4902 -0.5117
 7782SOL    HW134979   4.563   0.391   7.014 -1.9522  0.4721  0.3464
 7782SOL    HW234980   4.580   0.435   7.157  0.5956 -0.0282 -1.1455
 7783SOL     OW34981   3.386   3.472   1.945 -0.0193  0.6825 -0.1130
 7783SOL    HW134982   3.324   3.401   1.928 -0.6811  1.5402 -1.2576
 7783SOL    HW234983   3.414   3.480   1.854  1.3147  0.6282  0.3048
 7784SOL     OW34984   0.430   0.020   3.207  0.1797 -0.5230 -0.0051
 7784SOL    HW134985   0.337   0.044   3.199  0.3300  0.2606  0.6106
 7784SOL    HW234986   0.425   4.670   3.244  0.4375 -0.2984  0.5527
 7785SOL     OW34987   4.120   3.163  11.472 -0.0218 -0.1284  0.2306
 7785SOL    HW134988   4.207   3.124  11.478 -0.1530 -0.5590 -0.6430
 7785SOL    HW234989   4.145   3.247  11.512 -1.3021  0.1377  0.4749
 7786SOL     OW34990   2.939   1.757   6.255  0.2948 -0.2419 -0.0813
 7786SOL    HW134991   2.879   1.686   6.277  2.4013 -2.1884 -0.5712
 7786SOL    HW234992   2.909   1.786   6.169 -0.8907 -2.8104 -0.5314
 7787SOL     OW34993   1.690   0.530  12.747 -0.4262 -0.2421 -0.0155
 7787SOL    HW134994   1.686   0.579  12.830 -2.2674 -0.2906 -0.0701
 7787SOL    HW234995   1.778   0.554  12.716  0.2663 -1.3635  1.0864
 7788SOL     OW34996   0.744   0.942   4.752 -0.4881  0.4288  0.5874
 7788SOL    HW134997   0.770   1.030   4.780  1.4675 -0.8665  2.8367
 7788SOL    HW234998   0.785   0.934   4.666 -0.2001  0.6647  0.7022
 7789SOL     OW34999   4.111   3.601  17.110 -0.1836 -0.8557 -0.5226
 7789SOL    HW135000   4.106   3.528  17.049 -0.3960 -1.7003  0.5138
 7789SOL    HW235001   4.184   3.575  17.166 -1.4914  1.5515  2.3158
 7790SOL     OW35002   2.458   1.723   0.630 -0.0791 -0.1270 -0.2806
 7790SOL    HW135003   2.484   1.805   0.587  1.1523 -0.0648  0.5875
 7790SOL    HW235004   2.493   1.661   0.566 -0.1382 -1.5033  1.0203
 7791SOL     OW35005   0.863   3.526   0.861 -0.3502  0.5466  0.1107
 7791SOL    HW135006   0.787   3.582   0.876  0.4590  1.8261 -0.6388
 7791SOL    HW235007   0.828   3.464   0.797 -1.0494 -0.5256  1.5125
 7792SOL     OW35008   1.399   1.115   9.382  0.7854  0.3404 -0.2830
 7792SOL    HW135009   1.305   1.097   9.379  0.7519  0.2692  1.0300
 7792SOL    HW235010   1.406   1.148   9.471  1.3777 -1.1782  0.2359
 7793SOL     OW35011   0.241   3.330  13.446  0.4123 -0.0502 -0.2620
 7793SOL    HW135012   0.207   3.289  13.526  1.2793  0.5204  0.3909
 7793SOL    HW235013   0.169   3.296  13.393 -0.8734 -2.1341  2.8193
 7794SOL     OW35014   4.272   3.249  12.982 -0.5876  0.0769  0.0686
 7794SOL    HW135015   4.288   3.156  12.993  0.8953  0.2939 -0.2148
 7794SOL    HW235016   4.240   3.246  12.892 -2.7227  3.3896  0.7184
 7795SOL     OW35017   4.015   2.294   4.235 -0.1702 -0.6126 -0.2672
 7795SOL    HW135018   4.073   2.270   4.308 -0.3534 -0.3610 -0.0398
 7795SOL    HW235019   4.042   2.384   4.218 -2.0367 -0.2219 -1.1023
 7796SOL     OW35020   1.082   2.290   6.973  0.2593 -0.5803 -0.1197
 7796SOL    HW135021   0.996   2.321   7.002 -0.2552 -1.9280 -0.2089
 7796SOL    HW235022   1.148   2.345   7.015 -0.5803 -0.9901  1.7106
 7797SOL     OW35023   3.031   1.901  15.545  0.2382  0.7249 -0.9312
 7797SOL    HW135024   2.942   1.923  15.517  0.3343  2.2870  0.0268
 7797SOL    HW235025   3.040   1.951  15.626 -1.3898 -1.7807  0.7865
 7798SOL     OW35026   4.458   2.455  15.005  0.2636 -0.0043 -0.5247
 7798SOL    HW135027   4.496   2.512  14.939 -0.4345 -2.5123 -3.1172
 7798SOL    HW235028   4.422   2.516  15.069  2.2219  0.1301  0.4451
 7799SOL     OW35029   2.129   2.207   9.521 -0.2109  0.0642 -0.5544
 7799SOL    HW135030   2.151   2.203   9.428  2.5561  2.4231 -0.0316
 7799SOL    HW235031   2.154   2.118   9.543  0.4048  0.5920  0.8822
 7800SOL     OW35032   3.814   2.908  11.741  0.4369  0.3567 -0.1538
 7800SOL    HW135033   3.887   2.894  11.800  0.0874  0.3985  0.2916
 7800SOL    HW235034   3.846   2.920  11.652  2.6577  1.6096  0.8025
 7801SOL     OW35035   2.053   1.200   0.901 -0.3600 -0.1026  0.0329
 7801SOL    HW135036   2.053   1.249   0.819 -0.3389  0.6554  0.4910
 7801SOL    HW235037   2.096   1.263   0.959 -1.6163  2.2052 -1.5583
 7802SOL     OW35038   4.425   2.137  17.322  0.5930 -0.1123  0.0006
 7802SOL    HW135039   4.455   2.058  17.278  1.4700  0.3691 -0.2453
 7802SOL    HW235040   4.401   2.180  17.240  1.6656  1.0246  0.2855
 7803SOL     OW35041   3.157   0.974   0.416 -0.5880  0.5257 -0.0261
 7803SOL    HW135042   3.068   1.001   0.438 -1.5821 -1.5806 -1.4743
 7803SOL    HW235043   3.201   1.059   0.425 -0.5868  0.4934  0.2745
 7804SOL     OW35044   4.212   3.028   3.563 -0.6039 -0.1606 -0.4933
 7804SOL    HW135045   4.225   3.107   3.614  3.2810 -0.5227 -0.9351
 7804SOL    HW235046   4.126   3.005   3.599 -0.3544  0.9216  0.7804
 7805SOL     OW35047   2.140   3.018   4.581 -0.2246  0.6313  0.4107
 7805SOL    HW135048   2.115   3.029   4.490 -1.0152  0.4367  0.6030
 7805SOL    HW235049   2.165   3.109   4.595 -0.6911  0.6446  1.1345
 7806SOL     OW35050   0.213   3.769   9.802  0.0572  0.5511  0.2034
 7806SOL    HW135051   0.127   3.731   9.782  0.2426 -0.0549  0.5563
 7806SOL    HW235052   0.200   3.864   9.800  1.1035  0.7247  1.3536
 7807SOL     OW35053   4.508   2.634   7.224  0.5459 -0.7604 -0.4398
 7807SOL    HW135054   4.526   2.547   7.189  1.6319 -0.2512 -1.1347
 7807SOL    HW235055   4.561   2.630   7.304 -2.1986  0.5936  1.4937
 7808SOL     OW35056   4.181   1.261   6.889  0.3874 -0.3019 -0.1856
 7808SOL    HW135057   4.202   1.297   6.803 -0.3076 -1.5276 -0.8742
 7808SOL    HW235058   4.181   1.333   6.952 -1.2419  0.2963 -0.8598
 7809SOL     OW35059   3.204   1.096   8.481  0.7216  0.2861  0.6461
 7809SOL    HW135060   3.268   1.051   8.536  2.4384  0.9991 -0.7712
 7809SOL    HW235061   3.122   1.068   8.521 -1.2178  0.9970 -2.8491
 7810SOL     OW35062   0.180   1.923   9.067  0.2477  0.3404  0.1341
 7810SOL    HW135063   0.093   1.956   9.089  1.4093  1.8544  2.4562
 7810SOL    HW235064   0.239   1.998   9.074 -0.2784  0.6961  0.7624
 7811SOL     OW35065   3.680   3.383   4.221  0.0072 -0.4873 -0.5621
 7811SOL    HW135066   3.719   3.324   4.285  0.2497  0.5894  0.2882
 7811SOL    HW235067   3.662   3.468   4.263  1.0299 -1.6773  2.2737
 7812SOL     OW35068   3.362   3.111   2.999 -0.4746  0.0890 -0.4886
 7812SOL    HW135069   3.437   3.163   3.028 -0.0057 -0.6971 -0.3119
 7812SOL    HW235070   3.403   3.056   2.933  0.2043 -1.5507  1.3279
 7813SOL     OW35071   0.362   2.610  12.806  0.1543 -0.0777 -0.3073
 7813SOL    HW135072   0.360   2.670  12.881 -1.0367 -0.1548 -0.2644
 7813SOL    HW235073   0.323   2.673  12.745 -1.3856  0.4088  1.1632
 7814SOL     OW35074   4.244   3.199   6.191  0.0810  0.2501 -0.3637
 7814SOL    HW135075   4.174   3.174   6.131 -1.0970  1.3423  0.5818
 7814SOL    HW235076   4.203   3.216   6.275 -1.4502 -3.6172 -0.3304
 7815SOL     OW35077   1.943   2.172   4.104  1.3286 -0.5513  0.1433
 7815SOL    HW135078   1.961   2.226   4.181  0.9224  0.3986 -0.4378
 7815SOL    HW235079   1.934   2.089   4.151 -0.3473 -0.1142  0.6106
 7816SOL     OW35080   4.562   0.433   3.640 -0.4386 -0.0475  0.5142
 7816SOL    HW135081   4.512   0.505   3.679 -1.3319 -0.3058 -0.1569
 7816SOL    HW235082   4.620   0.425   3.716  1.2836  1.7154 -0.5989
 7817SOL     OW35083   1.931   3.308   8.146  0.5904  0.5966  0.1248
 7817SOL    HW135084   2.007   3.361   8.170  1.1073  0.6358 -1.5478
 7817SOL    HW235085   1.922   3.258   8.227  1.7127  1.8710  1.0523
 7818SOL     OW35086   0.949   4.069   3.199 -0.3328  0.2410  0.0409
 7818SOL    HW135087   1.001   4.124   3.139 -0.2478  1.1383  0.9377
 7818SOL    HW235088   0.971   4.105   3.285  0.9205  0.1176 -0.2202
 7819SOL     OW35089   3.442   0.105  11.976  0.2024 -0.7677  0.0387
 7819SOL    HW135090   3.443   0.137  11.886  1.9089 -0.1626  0.2709
 7819SOL    HW235091   3.347   0.100  11.989  0.2185 -0.5243  0.2533
 7820SOL     OW35092   2.863   2.533   2.653  0.2933 -0.2526  0.5876
 7820SOL    HW135093   2.786   2.510   2.705 -0.0609 -0.0170  0.1640
 7820SOL    HW235094   2.894   2.443   2.642  0.6905  0.1361 -1.3688
 7821SOL     OW35095   2.491   1.854   6.235 -0.0037  0.5601  1.1809
 7821SOL    HW135096   2.467   1.795   6.307  0.8605 -0.9827  0.1868
 7821SOL    HW235097   2.437   1.927   6.265  1.0299  0.8335  2.3868
 7822SOL     OW35098   2.764   1.901  17.409 -0.0635 -0.0827  0.6895
 7822SOL    HW135099   2.732   1.957  17.338  3.0159 -0.1807 -0.7851
 7822SOL    HW235100   2.683   1.864  17.443 -0.6500  0.8028  0.2368
 7823SOL     OW35101   0.041   0.990  12.430  0.2089 -0.1227 -0.8931
 7823SOL    HW135102   4.695   1.024  12.461  0.2592 -0.3332 -0.5227
 7823SOL    HW235103   0.086   1.073  12.448 -1.0427  0.3236  0.1778
 7824SOL     OW35104   1.990   2.106   5.818 -0.1860 -0.2587 -0.2763
 7824SOL    HW135105   1.988   2.023   5.866 -0.4953  0.2089  0.5159
 7824SOL    HW235106   1.903   2.091   5.780 -0.9203 -0.1215  1.3481
 7825SOL     OW35107   2.928   3.154   1.023 -0.1739 -0.2465 -0.0746
 7825SOL    HW135108   2.985   3.202   0.963  0.1972  0.2351  0.6663
 7825SOL    HW235109   2.866   3.106   0.970 -0.4115 -1.8939  1.7019
 7826SOL     OW35110   1.456   0.483  14.648 -0.5717  0.6760 -0.2364
 7826SOL    HW135111   1.493   0.569  14.667  1.5022 -0.9455  3.1100
 7826SOL    HW235112   1.366   0.492  14.619 -0.4777 -0.3777 -0.8618
 7827SOL     OW35113   2.159   0.061   9.026  0.2595 -0.2567  0.0550
 7827SOL    HW135114   2.121   4.716   9.053  2.7988 -0.7146  2.2166
 7827SOL    HW235115   2.106   0.123   9.077  3.2248  0.8030  1.8665
 7828SOL     OW35116   3.620   4.077   0.452  0.4362  0.0719 -0.2290
 7828SOL    HW135117   3.527   4.068   0.469  0.7690 -0.5853  1.1939
 7828SOL    HW235118   3.631   4.167   0.485  1.9619  0.6613 -2.3408
 7829SOL     OW35119   3.613   2.088   0.412 -0.4040 -0.6181  0.1421
 7829SOL    HW135120   3.527   2.126   0.430  0.4454  0.4023  2.0680
 7829SOL    HW235121   3.659   2.136   0.481  1.3037  0.3341 -1.6718
 7830SOL     OW35122   0.600   2.440   8.057 -0.6475  0.1272  0.0835
 7830SOL    HW135123   0.638   2.501   7.995  1.9555 -0.1095  1.4622
 7830SOL    HW235124   0.561   2.374   7.999 -1.1988  0.1526  0.4195
 7831SOL     OW35125   2.194   4.425   5.731 -0.1736 -0.5025 -0.1774
 7831SOL    HW135126   2.284   4.435   5.761  0.1372 -1.8665 -0.6444
 7831SOL    HW235127   2.210   4.370   5.654 -0.6297 -3.7663  2.0478
 7832SOL     OW35128   0.229   3.209   4.691 -0.1483 -0.1520 -0.1289
 7832SOL    HW135129   0.279   3.273   4.640 -0.3284 -1.6315 -2.1964
 7832SOL    HW235130   0.155   3.266   4.710 -0.6972 -0.9165  0.0661
 7833SOL     OW35131   2.611   0.029   4.496 -0.2380  0.3391 -0.2787
 7833SOL    HW135132   2.664   0.034   4.416  0.3495  0.1404  0.0920
 7833SOL    HW235133   2.654   0.087   4.558 -1.2873  0.0964  0.6710
 7834SOL     OW35134   2.191   3.557  10.803  0.3880 -0.4571  0.0997
 7834SOL    HW135135   2.249   3.486  10.830 -0.6547 -1.6615 -0.7899
 7834SOL    HW235136   2.139   3.516  10.734 -0.0605 -1.2555  0.9128
 7835SOL     OW35137   3.937   3.124   1.876 -0.1397 -0.3608 -0.6842
 7835SOL    HW135138   3.868   3.099   1.815 -2.3559  0.3117  1.5850
 7835SOL    HW235139   3.969   3.036   1.898  0.5053 -0.1503 -0.7701
 7836SOL     OW35140   1.694   3.016  13.754  0.3095 -0.4411 -0.3153
 7836SOL    HW135141   1.609   2.985  13.724 -1.2162  2.1422  1.3803
 7836SOL    HW235142   1.713   2.951  13.822  0.8487  0.5811  0.5045
 7837SOL     OW35143   4.395   0.895   7.696  0.4224  0.6860  0.1381
 7837SOL    HW135144   4.377   0.801   7.696 -0.5987  0.8855  0.5169
 7837SOL    HW235145   4.484   0.896   7.658  0.7749  0.0030  0.9552
 7838SOL     OW35146   2.418   0.632   5.111 -0.1818  0.3442  0.1500
 7838SOL    HW135147   2.413   0.580   5.031 -0.9170  0.3317  0.2073
 7838SOL    HW235148   2.343   0.591   5.154  0.8523 -1.1153  0.5316
 7839SOL     OW35149   4.269   1.854  13.864 -0.4483 -0.5866 -0.1329
 7839SOL    HW135150   4.215   1.919  13.909  1.7933  1.1613  0.0290
 7839SOL    HW235151   4.352   1.899  13.852 -1.4517  1.2516 -0.2272
 7840SOL     OW35152   1.476   0.257  16.480  0.2317  0.4380  0.0709
 7840SOL    HW135153   1.408   0.312  16.519  0.4286  1.9036 -1.6369
 7840SOL    HW235154   1.545   0.318  16.452 -0.2527  1.3543  0.8810
 7841SOL     OW35155   1.268   1.337  13.142  0.2874 -0.0523 -0.0307
 7841SOL    HW135156   1.224   1.415  13.178 -1.1910 -0.5013 -0.8527
 7841SOL    HW235157   1.282   1.365  13.052  1.4445 -1.6385 -0.3387
 7842SOL     OW35158   1.354   1.093   0.372 -0.1746  0.1656  0.4787
 7842SOL    HW135159   1.435   1.090   0.422  0.2021  0.1467 -0.1375
 7842SOL    HW235160   1.301   1.037   0.430 -1.3586  0.6721 -0.1265
 7843SOL     OW35161   0.191   1.252   1.226 -0.6102 -0.1065 -0.4615
 7843SOL    HW135162   0.108   1.250   1.274 -0.2084 -0.0889  0.2346
 7843SOL    HW235163   0.168   1.272   1.135 -2.1827 -3.1769 -0.7503
 7844SOL     OW35164   4.135   2.868   9.048 -0.1635 -0.4766 -0.1071
 7844SOL    HW135165   4.075   2.905   8.983 -0.4624  1.3071  1.1851
 7844SOL    HW235166   4.079   2.798   9.082 -1.1702 -0.7028 -2.2444
 7845SOL     OW35167   2.779   4.587   3.201 -0.2092 -0.3184  0.6314
 7845SOL    HW135168   2.805   4.597   3.292 -1.3823  1.2417  0.8001
 7845SOL    HW235169   2.841   4.525   3.163 -1.2133 -0.1781 -1.2292
 7846SOL     OW35170   0.859   3.969   2.668  0.2992 -0.1176 -0.2790
 7846SOL    HW135171   0.820   4.054   2.646  0.8120  0.0355 -0.5974
 7846SOL    HW235172   0.878   3.980   2.761  0.7256 -0.8273 -0.2865
 7847SOL     OW35173   1.311   4.732   2.256 -0.3092 -0.0491  0.1344
 7847SOL    HW135174   1.286   0.004   2.348  2.0159  1.4212  0.5940
 7847SOL    HW235175   1.329   4.638   2.262  3.7781  0.6941 -0.3701
 7848SOL     OW35176   4.347   3.479   3.261 -0.0178 -0.4169 -0.1186
 7848SOL    HW135177   4.337   3.461   3.354  1.0105  0.9025  0.2343
 7848SOL    HW235178   4.271   3.431   3.226 -1.5704  0.0939  2.5537
 7849SOL     OW35179   3.763   2.572   3.684  0.8585  0.0380 -0.4780
 7849SOL    HW135180   3.778   2.666   3.687 -0.1703  0.2661 -2.8051
 7849SOL    HW235181   3.841   2.531   3.648 -0.3127 -2.6342  0.0409
 7850SOL     OW35182   4.118   4.724  16.910 -0.2100  0.4494 -0.2010
 7850SOL    HW135183   4.191   4.663  16.913 -0.5086  0.1487  0.9864
 7850SOL    HW235184   4.067   4.704  16.831  0.5478 -1.2164 -0.2708
 7851SOL     OW35185   1.701   3.194  10.200 -0.1813 -0.0209 -0.1872
 7851SOL    HW135186   1.702   3.099  10.204  0.2991 -0.0311 -0.5543
 7851SOL    HW235187   1.640   3.199  10.126  1.7356  1.5407 -1.6435
 7852SOL     OW35188   2.373   4.468  13.058 -0.0320  0.1004  0.6551
 7852SOL    HW135189   2.363   4.468  12.963  0.4831  1.6980  0.5979
 7852SOL    HW235190   2.453   4.521  13.059 -0.1987  0.3596 -0.6262
 7853SOL     OW35191   3.637   2.010   3.438  0.0692  0.1098  0.0053
 7853SOL    HW135192   3.565   2.064   3.405  0.0338 -0.7178 -1.2482
 7853SOL    HW235193   3.663   1.964   3.359 -1.4998 -1.2429  0.2767
 7854SOL     OW35194   1.929   0.233   6.414 -0.4762  0.7326  0.8867
 7854SOL    HW135195   1.930   0.195   6.501  0.8426  1.0722  1.0193
 7854SOL    HW235196   2.022   0.230   6.392 -0.4984 -1.4010  1.0460
 7855SOL     OW35197   0.795   1.107  10.096  0.2386 -0.2518 -0.2225
 7855SOL    HW135198   0.848   1.156  10.158 -1.3174  0.8648  0.2123
 7855SOL    HW235199   0.856   1.041  10.063 -1.3668 -0.6050 -2.4340
 7856SOL     OW35200   2.767   1.556   8.179 -0.0826 -0.2500  0.7648
 7856SOL    HW135201   2.731   1.499   8.247 -2.5347 -0.1942 -0.4813
 7856SOL    HW235202   2.800   1.619   8.244  0.8511  0.7600 -0.6753
 7857SOL     OW35203   0.367   3.778   5.696 -0.1641  0.4522 -0.2568
 7857SOL    HW135204   0.338   3.779   5.787 -0.3079 -0.1195 -0.2951
 7857SOL    HW235205   0.388   3.870   5.677  1.3071  0.5055  1.5890
 7858SOL     OW35206   3.253   3.779   5.481 -0.4070 -0.0152  0.0718
 7858SOL    HW135207   3.256   3.720   5.406 -1.7499  0.8566 -0.6580
 7858SOL    HW235208   3.346   3.786   5.500 -0.4997  3.3837 -0.8549
 7859SOL     OW35209   3.898   1.344   7.938 -0.1705  0.6417  0.3215
 7859SOL    HW135210   3.953   1.365   8.014 -1.1883 -1.7908  1.7278
 7859SOL    HW235211   3.941   1.407   7.881  0.2196  0.2997  0.2396
 7860SOL     OW35212   1.000   4.279   4.786  0.8877  0.4592  0.2780
 7860SOL    HW135213   0.957   4.337   4.723 -2.0595 -1.8634  0.1174
 7860SOL    HW235214   0.944   4.305   4.860  0.9330 -2.6257  1.4192
 7861SOL     OW35215   1.481   1.075  12.229  0.5470 -0.2507 -0.3162
 7861SOL    HW135216   1.491   1.143  12.296  0.2334 -0.0314 -0.4941
 7861SOL    HW235217   1.560   1.090  12.177 -1.1454  0.1660 -2.7593
 7862SOL     OW35218   4.693   1.020   4.577  0.2050 -0.4970  0.9522
 7862SOL    HW135219   4.652   1.106   4.586 -0.6353 -0.6777 -0.9848
 7862SOL    HW235220   4.659   1.005   4.488  0.1150 -0.9748  1.0647
 7863SOL     OW35221   2.477   0.345   7.219 -0.0092  0.2123  0.3026
 7863SOL    HW135222   2.564   0.351   7.257 -0.2526  2.1503  0.5871
 7863SOL    HW235223   2.421   0.363   7.295 -0.2652  1.4585 -0.1825
 7864SOL     OW35224   3.282   2.201   5.576  0.0206  0.0425 -0.7481
 7864SOL    HW135225   3.190   2.221   5.591 -0.4903 -1.7904 -1.4147
 7864SOL    HW235226   3.320   2.289   5.576  2.1624 -0.8653  0.0827
 7865SOL     OW35227   1.471   0.264   8.341  0.3964 -0.0177 -0.1305
 7865SOL    HW135228   1.485   0.358   8.333  0.3338 -0.1048 -1.2671
 7865SOL    HW235229   1.526   0.240   8.266  0.1742 -0.0373 -0.2845
 7866SOL     OW35230   4.277   1.502   2.296  0.2320  0.0835 -0.3469
 7866SOL    HW135231   4.194   1.455   2.303  1.1587 -1.4212  0.4119
 7866SOL    HW235232   4.333   1.430   2.324 -0.6752 -0.2958  0.4892
 7867SOL     OW35233   4.573   2.701   7.527 -0.0412  0.2174  0.1173
 7867SOL    HW135234   4.668   2.692   7.527 -0.0155  0.4818 -0.4525
 7867SOL    HW235235   4.558   2.795   7.521  3.1628  0.6735 -0.8680
 7868SOL     OW35236   1.997   0.671  13.365 -0.3074 -0.1418 -0.0825
 7868SOL    HW135237   2.014   0.583  13.400 -2.9209 -0.5444  0.1583
 7868SOL    HW235238   2.077   0.719  13.387  0.2758 -2.2806  2.5063
 7869SOL     OW35239   1.580   0.205   9.774  0.0525 -0.3774  0.0581
 7869SOL    HW135240   1.598   0.123   9.820  2.5053  1.5815  2.5880
 7869SOL    HW235241   1.670   0.237   9.765  0.3104 -0.5620  2.0526
 7870SOL     OW35242   1.425   4.497  12.280  0.0540  0.0951  0.3989
 7870SOL    HW135243   1.430   4.502  12.376 -1.2724 -1.4506  0.5412
 7870SOL    HW235244   1.457   4.409  12.264  1.2877  1.2472 -3.3818
 7871SOL     OW35245   3.210   0.018   7.799 -0.3504 -0.3188  0.3303
 7871SOL    HW135246   3.213   4.695   7.872 -0.0765 -0.5624  0.1115
 7871SOL    HW235247   3.287   0.074   7.807 -0.7173 -0.0684  2.1933
 7872SOL     OW35248   3.498   1.155   4.370  0.6005 -0.0122  0.6988
 7872SOL    HW135249   3.423   1.095   4.376 -0.2942  1.3198  2.7989
 7872SOL    HW235250   3.456   1.224   4.318 -1.1972 -1.3349  0.3832
 7873SOL     OW35251   4.334   4.463   8.949  0.2532  0.0076  0.3048
 7873SOL    HW135252   4.375   4.413   9.019  1.4701 -0.9250 -1.0665
 7873SOL    HW235253   4.296   4.537   8.996 -0.1952  0.9355 -1.5027
 7874SOL     OW35254   1.906   2.540   4.029 -0.0727  0.2103  0.4637
 7874SOL    HW135255   1.986   2.488   4.019 -1.2161 -1.6869  1.1703
 7874SOL    HW235256   1.937   2.630   4.021 -0.3643  0.2891  0.2258
 7875SOL     OW35257   1.422   0.387   4.989 -0.3615 -0.7647 -0.3146
 7875SOL    HW135258   1.450   0.316   4.931  2.0487 -0.9786  1.0988
 7875SOL    HW235259   1.491   0.371   5.053  0.5415 -1.0376 -1.3497
 7876SOL     OW35260   4.364   2.189   0.188  0.5536  0.2217 -0.3284
 7876SOL    HW135261   4.375   2.275   0.229 -4.4824  0.2979  0.8520
 7876SOL    HW235262   4.341   2.135   0.265 -2.6768  2.7523  0.4912
 7877SOL     OW35263   0.407   0.924   4.302 -0.1200  0.0109 -0.0352
 7877SOL    HW135264   0.433   0.996   4.361  1.1351  0.0271 -0.6254
 7877SOL    HW235265   0.386   0.974   4.223  0.1328  1.7856  1.0168
 7878SOL     OW35266   1.800   4.399   5.327 -0.0172 -0.7105 -0.5505
 7878SOL    HW135267   1.847   4.318   5.312 -1.1451 -1.3258 -0.7527
 7878SOL    HW235268   1.713   4.366   5.351 -0.1440 -0.4377 -0.6387
 7879SOL     OW35269   2.959   3.897  14.688  0.0545 -0.3752 -0.1340
 7879SOL    HW135270   2.968   3.959  14.616  1.1554 -0.8279 -0.3976
 7879SOL    HW235271   2.868   3.913  14.712  0.1967  0.9370 -0.4644
 7880SOL     OW35272   3.219   2.729  15.710  0.1328  0.1986 -1.0952
 7880SOL    HW135273   3.191   2.740  15.801  0.5458  0.7139 -1.0278
 7880SOL    HW235274   3.293   2.668  15.713 -0.2474 -0.2570 -1.1648
 7881SOL     OW35275   1.466   2.265   5.050  0.0336 -0.3908 -0.0708
 7881SOL    HW135276   1.489   2.321   5.124 -0.4430  0.8951 -0.8954
 7881SOL    HW235277   1.381   2.229   5.072 -1.0909  1.4713 -1.3449
 7882SOL     OW35278   1.451   1.462   9.889  0.0873  0.3698 -0.2758
 7882SOL    HW135279   1.404   1.437   9.809 -0.5365  0.2105  0.1382
 7882SOL    HW235280   1.398   1.423   9.957  1.6722 -2.3518 -0.5897
 7883SOL     OW35281   1.717   1.742  11.774 -0.3971  0.1189  0.4020
 7883SOL    HW135282   1.692   1.756  11.683  4.7753 -2.5746 -1.3892
 7883SOL    HW235283   1.754   1.827  11.799  0.9665 -0.9797  2.1174
 7884SOL     OW35284   2.443   1.047   9.780 -0.0976 -0.0258  0.2445
 7884SOL    HW135285   2.394   1.100   9.842 -4.1425 -1.0431 -2.1008
 7884SOL    HW235286   2.402   1.067   9.696  0.3852  1.8782  0.4644
 7885SOL     OW35287   3.862   2.072  17.512  0.3675  0.1298  0.2158
 7885SOL    HW135288   3.839   1.983  17.486  0.7449 -0.4460  1.8319
 7885SOL    HW235289   3.805   2.125  17.458  1.8898 -1.8777 -3.3723
 7886SOL     OW35290   0.963   0.333   4.344 -0.2428  0.0525 -0.1321
 7886SOL    HW135291   0.924   0.417   4.319 -0.5959 -0.0489  0.0904
 7886SOL    HW235292   0.964   0.327   4.440  3.2295 -0.6792 -0.1922
 7887SOL     OW35293   2.850   4.541  15.384 -0.1084 -0.7206 -1.1065
 7887SOL    HW135294   2.862   4.634  15.365  0.9749 -0.4953  0.6338
 7887SOL    HW235295   2.896   4.530  15.467 -1.1738 -2.0195 -0.6859
 7888SOL     OW35296   3.435   4.603  12.481  0.3749  0.0691  0.3455
 7888SOL    HW135297   3.447   4.675  12.418  0.1570 -0.5723 -0.4363
 7888SOL    HW235298   3.366   4.637  12.538  0.4666  1.4209 -0.3235
 7889SOL     OW35299   1.961   3.543   9.404 -0.0265  0.1579 -0.1769
 7889SOL    HW135300   1.867   3.541   9.389 -0.2255 -1.0762  1.3020
 7889SOL    HW235301   1.971   3.628   9.446 -2.3867 -0.4207  1.5434
 7890SOL     OW35302   0.851   3.765   0.348  0.1741  0.6019  0.1225
 7890SOL    HW135303   0.837   3.726   0.434 -0.3662  0.5680  0.0190
 7890SOL    HW235304   0.810   3.707   0.283  0.6948  0.8380 -0.4154
 7891SOL     OW35305   2.120   1.132   8.248  0.3414 -0.8088 -0.6976
 7891SOL    HW135306   2.145   1.094   8.332 -0.8767  2.2639  1.0728
 7891SOL    HW235307   2.195   1.137   8.189 -0.4931 -1.4917 -1.8162
 7892SOL     OW35308   4.572   3.801  12.644 -0.1605 -0.0883  0.0039
 7892SOL    HW135309   4.622   3.759  12.575 -1.5652 -0.8510 -0.5433
 7892SOL    HW235310   4.554   3.881  12.594  1.3292  0.7411  0.7875
 7893SOL     OW35311   4.131   4.229  12.006 -0.3213  0.4424 -0.2029
 7893SOL    HW135312   4.146   4.160  11.942  1.1253  0.7306 -0.1812
 7893SOL    HW235313   4.199   4.291  11.980  0.2582  0.0539  0.3800
 7894SOL     OW35314   1.960   0.206   3.770 -0.1148  0.5584 -0.2521
 7894SOL    HW135315   2.025   0.168   3.829  0.3389  1.1597 -0.3515
 7894SOL    HW235316   1.943   0.144   3.699  1.5488  1.0239 -1.0561
 7895SOL     OW35317   3.142   0.409   9.206 -0.1105  0.0045  0.2467
 7895SOL    HW135318   3.132   0.315   9.219  1.6354 -0.8514 -4.5468
 7895SOL    HW235319   3.082   0.440   9.274  1.8099 -0.0891  1.9621
 7896SOL     OW35320   0.903   1.559   3.241 -0.0005  0.1142 -0.0115
 7896SOL    HW135321   0.819   1.542   3.198  0.3016  1.1737 -1.0428
 7896SOL    HW235322   0.926   1.475   3.278 -2.8851 -0.3333  0.8102
 7897SOL     OW35323   1.381   3.327  10.422  0.1438  0.6199 -0.0132
 7897SOL    HW135324   1.287   3.320  10.437 -0.3653  4.3078 -1.5124
 7897SOL    HW235325   1.367   3.377  10.341  0.0747 -1.3859 -1.2520
 7898SOL     OW35326   1.002   2.724   4.476 -0.3864 -0.3012 -0.3155
 7898SOL    HW135327   0.909   2.718   4.500 -0.1243 -0.3273  0.6778
 7898SOL    HW235328   1.052   2.759   4.550  0.7147 -0.5533 -0.9405
 7899SOL     OW35329   3.614   1.037   6.698  0.1818 -0.4123  0.4595
 7899SOL    HW135330   3.619   1.067   6.607  1.6527 -1.3902  0.2154
 7899SOL    HW235331   3.638   0.947   6.676 -0.2161 -0.5199  0.4653
 7900SOL     OW35332   0.746   3.661  10.109  0.4603 -0.3935  0.3862
 7900SOL    HW135333   0.665   3.618  10.082 -0.8094  2.7043 -0.7384
 7900SOL    HW235334   0.793   3.661  10.025  0.0772  0.9862  0.1681
 7901SOL     OW35335   0.741   4.141  16.348 -0.1829 -0.0672  1.0691
 7901SOL    HW135336   0.654   4.176  16.368 -1.5871 -3.5126  1.1772
 7901SOL    HW235337   0.749   4.082  16.423 -1.3775 -2.2921 -0.5389
 7902SOL     OW35338   1.289   3.817   2.298  0.1341  0.1396  0.3028
 7902SOL    HW135339   1.368   3.777   2.264  0.3135  2.4015 -1.9632
 7902SOL    HW235340   1.306   3.827   2.392 -0.4993  0.7950  0.3504
 7903SOL     OW35341   3.255   0.210  10.415  0.0928 -0.6715  0.4837
 7903SOL    HW135342   3.213   0.284  10.459 -0.5336 -0.0706 -1.1513
 7903SOL    HW235343   3.187   0.169  10.362  0.8887  0.6827 -1.5717
 7904SOL     OW35344   2.912   3.740   3.109  0.3341  0.0274  0.2896
 7904SOL    HW135345   2.997   3.755   3.068  0.2222  2.2680  0.9057
 7904SOL    HW235346   2.927   3.646   3.121 -0.3641 -0.2612 -1.0340
 7905SOL     OW35347   3.945   2.690   5.331  0.0220 -0.3102  0.3591
 7905SOL    HW135348   4.026   2.661   5.373 -1.0382 -1.5566  1.5425
 7905SOL    HW235349   3.943   2.626   5.260  0.0188 -0.3856  0.4275
 7906SOL     OW35350   0.806   4.604   9.716  0.0103 -0.2482 -0.0509
 7906SOL    HW135351   0.847   4.557   9.643 -0.8306  0.8542 -1.2236
 7906SOL    HW235352   0.733   4.548   9.743  1.6121 -1.4595  1.7904
 7907SOL     OW35353   3.529   3.284  14.603 -0.5115  0.4526  0.7360
 7907SOL    HW135354   3.448   3.334  14.594  0.0550  1.0844 -0.7644
 7907SOL    HW235355   3.499   3.201  14.566 -1.0299  0.4407  1.1776
 7908SOL     OW35356   0.104   2.367   9.167 -0.0450 -0.2977 -0.3787
 7908SOL    HW135357   0.159   2.413   9.231  0.0415  0.3619 -0.9302
 7908SOL    HW235358   0.095   2.432   9.097  0.5262  1.0472  0.7838
 7909SOL     OW35359   4.551   2.859   1.841  0.1515 -0.1361 -0.2944
 7909SOL    HW135360   4.631   2.839   1.794  0.7535  1.7118 -0.0558
 7909SOL    HW235361   4.575   2.830   1.928 -2.0162  0.2718  0.4490
 7910SOL     OW35362   3.168   1.638   5.500 -0.0577  0.7513 -0.5065
 7910SOL    HW135363   3.212   1.629   5.416 -2.6910 -0.2688 -1.7989
 7910SOL    HW235364   3.180   1.729   5.525 -1.6560  1.7283 -3.2368
 7911SOL     OW35365   3.396   1.878   7.982 -0.2095 -0.1170  0.3018
 7911SOL    HW135366   3.381   1.834   8.066 -0.8718  0.0632  0.2838
 7911SOL    HW235367   3.376   1.802   7.927 -1.4527  0.4046  0.0106
 7912SOL     OW35368   0.651   2.907   4.036  0.3902  0.3050  0.0447
 7912SOL    HW135369   0.742   2.891   4.012 -0.0393 -1.6972 -0.2560
 7912SOL    HW235370   0.644   2.995   4.000 -2.1703 -0.3187 -1.0142
 7913SOL     OW35371   3.466   4.568   2.132 -1.2256  0.7567 -0.2041
 7913SOL    HW135372   3.506   4.617   2.060 -1.4722 -1.6391 -1.9695
 7913SOL    HW235373   3.386   4.618   2.150 -0.8795  0.8026  1.2281
 7914SOL     OW35374   2.816   4.224  12.981 -0.7969  0.0590 -0.5241
 7914SOL    HW135375   2.785   4.139  13.013 -0.3632  0.8539  2.0510
 7914SOL    HW235376   2.800   4.273  13.062 -2.2024 -1.2498 -0.0151
 7915SOL     OW35377   1.615   2.294   8.838 -0.2928 -0.3467 -0.1170
 7915SOL    HW135378   1.639   2.354   8.767  3.5587 -0.8514  0.7399
 7915SOL    HW235379   1.692   2.237   8.843 -1.6612 -2.4000 -2.4249
 7916SOL     OW35380   2.952   0.276   5.029 -0.0238 -0.6216  0.4032
 7916SOL    HW135381   2.993   0.291   5.115 -0.0789 -0.2461  0.3645
 7916SOL    HW235382   2.910   0.362   5.025  0.8498 -0.2899 -1.3485
 7917SOL     OW35383   1.874   1.167  13.754  0.6545  0.0444  0.6488
 7917SOL    HW135384   1.865   1.077  13.724  0.2123  0.2287  0.2219
 7917SOL    HW235385   1.969   1.177  13.766  0.5925 -1.0148  2.0163
 7918SOL     OW35386   3.857   1.120   8.741  0.4229 -0.0158 -0.3684
 7918SOL    HW135387   3.812   1.189   8.694 -0.2430  0.2465  0.6489
 7918SOL    HW235388   3.881   1.166   8.821  0.3810  1.8339 -1.4270
 7919SOL     OW35389   4.048   3.638   4.848 -0.5298  0.3868 -0.1842
 7919SOL    HW135390   4.122   3.658   4.792 -0.1019 -2.6526 -0.7013
 7919SOL    HW235391   4.004   3.578   4.788  0.4484  1.4733 -1.9519
 7920SOL     OW35392   4.129   0.425   3.323  0.5878  0.3856 -0.4660
 7920SOL    HW135393   4.112   0.330   3.321  1.3294  0.2025  1.4298
 7920SOL    HW235394   4.045   0.456   3.290  2.0799  1.8479 -2.8477
 7921SOL     OW35395   4.204   1.897   3.737 -0.1788 -0.5851 -0.1374
 7921SOL    HW135396   4.125   1.853   3.768  1.1149 -2.4439  0.5233
 7921SOL    HW235397   4.184   1.991   3.739  0.5746 -0.4004 -1.0303
 7922SOL     OW35398   1.074   2.451  14.244 -0.1397  0.3881  0.2875
 7922SOL    HW135399   1.015   2.423  14.314  0.7480  0.6684  1.1246
 7922SOL    HW235400   1.021   2.508  14.187  0.7898  0.6191 -0.3391
 7923SOL     OW35401   2.353   2.313  10.297  0.2100  0.3276  0.7860
 7923SOL    HW135402   2.336   2.408  10.296  1.1244  0.4934  1.3782
 7923SOL    HW235403   2.373   2.306  10.204 -1.6091  1.4880  0.2925
 7924SOL     OW35404   4.221   2.715   5.816 -1.0308 -0.1782  0.5816
 7924SOL    HW135405   4.240   2.732   5.724 -2.1203 -0.8677  0.2262
 7924SOL    HW235406   4.201   2.801   5.853 -2.9960  0.0785 -1.0930
 7925SOL     OW35407   2.740   2.876  12.541  0.2470 -0.3028  0.5515
 7925SOL    HW135408   2.678   2.822  12.491 -0.4115  0.1448  0.8887
 7925SOL    HW235409   2.680   2.911  12.607 -2.9700 -4.1521 -0.3329
 7926SOL     OW35410   0.660   4.235   9.002 -0.1098 -0.3426 -0.0868
 7926SOL    HW135411   0.728   4.244   8.935 -0.0780 -1.0837 -0.1539
 7926SOL    HW235412   0.633   4.145   8.986  1.1343 -0.8586  0.7460
 7927SOL     OW35413   3.822   2.726  16.331 -0.0322  0.0523 -0.1175
 7927SOL    HW135414   3.786   2.637  16.337  2.5091 -1.0486 -0.8316
 7927SOL    HW235415   3.908   2.705  16.294  0.2500 -0.0460  0.6028
 7928SOL     OW35416   2.619   0.205   6.318  0.2598  0.4320 -0.5387
 7928SOL    HW135417   2.531   0.188   6.284 -0.0031 -0.4306  0.5704
 7928SOL    HW235418   2.631   0.296   6.293  0.1052  0.9383  1.2485
 7929SOL     OW35419   3.136   0.787  12.865 -0.0339 -0.6136  0.2568
 7929SOL    HW135420   3.110   0.866  12.818  1.3584 -0.3279 -0.0512
 7929SOL    HW235421   3.053   0.740  12.868 -0.3815 -0.1443 -1.7241
 7930SOL     OW35422   0.009   3.621   0.717  0.1102  0.2703  0.3767
 7930SOL    HW135423   0.012   3.607   0.623  0.8416 -0.2064  0.4727
 7930SOL    HW235424   4.654   3.643   0.718 -0.2561 -1.1121 -2.3166
 7931SOL     OW35425   2.074   0.362   5.145  0.2612  0.1274 -0.2613
 7931SOL    HW135426   2.079   0.448   5.104 -0.9764  0.7248  0.8633
 7931SOL    HW235427   1.980   0.369   5.162 -0.3037 -3.9844 -1.5276
 7932SOL     OW35428   2.410   0.633   2.830  0.1869 -0.5893  0.1579
 7932SOL    HW135429   2.358   0.554   2.811 -1.0197  0.4691 -0.9208
 7932SOL    HW235430   2.418   0.677   2.746 -2.1117  0.5819  0.5529
 7933SOL     OW35431   1.030   1.212   5.520  0.0614 -0.3593 -0.2205
 7933SOL    HW135432   0.999   1.215   5.429  2.9603  1.8844 -1.1286
 7933SOL    HW235433   0.993   1.131   5.556 -1.6733  0.6365  0.2447
 7934SOL     OW35434   3.387   4.023  15.018  0.0983 -0.1000  0.0212
 7934SOL    HW135435   3.403   4.117  15.004 -1.2994 -0.0729 -1.4528
 7934SOL    HW235436   3.405   3.996  14.928  1.6797  0.2527  0.2391
 7935SOL     OW35437   1.574   1.726   7.576  0.4301 -0.0041  0.0381
 7935SOL    HW135438   1.559   1.799   7.517 -0.4933 -1.6548 -1.7705
 7935SOL    HW235439   1.499   1.740   7.633 -0.6091  2.1455 -1.8828
 7936SOL     OW35440   2.279   1.196  14.398 -0.2306  0.7178 -0.5036
 7936SOL    HW135441   2.211   1.143  14.440  1.3713  0.2670  1.4829
 7936SOL    HW235442   2.218   1.248  14.345 -2.5375  0.4771  1.9139
 7937SOL     OW35443   0.084   0.466  15.661 -0.1022 -0.3631 -0.2490
 7937SOL    HW135444   0.115   0.554  15.682 -1.1386  0.9788 -4.3239
 7937SOL    HW235445   0.170   0.425  15.662  0.1173  0.1137  0.5457
 7938SOL     OW35446   4.577   2.811  10.450  0.2924  0.0182  0.4079
 7938SOL    HW135447   4.484   2.809  10.472 -0.3262 -1.3355 -2.2455
 7938SOL    HW235448   4.583   2.786  10.358  1.3348 -0.2088  0.5393
 7939SOL     OW35449   2.381   2.749   7.027 -0.1941  0.2306 -0.3243
 7939SOL    HW135450   2.285   2.751   7.030 -0.2660 -1.4604 -1.6015
 7939SOL    HW235451   2.409   2.799   7.103 -1.7659  0.1470  0.3084
 7940SOL     OW35452   0.888   3.814   6.912  0.5552 -0.7811  0.4982
 7940SOL    HW135453   0.829   3.786   6.982  1.0769 -0.9564  0.8610
 7940SOL    HW235454   0.822   3.830   6.844 -0.3163  0.6110  1.6594
 7941SOL     OW35455   4.151   2.299   9.617 -0.3824  0.1852 -0.3785
 7941SOL    HW135456   4.107   2.215   9.631  0.0588  0.3547  1.9314
 7941SOL    HW235457   4.176   2.314   9.708  0.1879 -0.0689 -0.4904
 7942SOL     OW35458   4.303   0.048  16.367  0.4869 -0.3957 -0.3663
 7942SOL    HW135459   4.287   0.135  16.403  2.2973 -0.0784 -0.3400
 7942SOL    HW235460   4.274   4.724  16.434 -0.6095 -0.0238 -0.4859
 7943SOL     OW35461   1.691   0.832  12.334  0.3370 -0.1987  0.1855
 7943SOL    HW135462   1.642   0.772  12.389  0.7809 -0.5604  0.1851
 7943SOL    HW235463   1.644   0.913  12.355  1.8775  0.4925  0.9851
 7944SOL     OW35464   2.518   2.286   2.549 -0.0363 -0.4679  0.2097
 7944SOL    HW135465   2.556   2.199   2.539 -0.1965 -0.7054  1.7558
 7944SOL    HW235466   2.484   2.307   2.461  1.6756 -0.1765 -0.3819
 7945SOL     OW35467   0.777   4.036   8.204  0.0493  0.2165 -0.3316
 7945SOL    HW135468   0.813   4.111   8.252  1.1470 -0.6110  0.1126
 7945SOL    HW235469   0.691   4.033   8.246 -0.1579  1.4310 -0.6556
 7946SOL     OW35470   2.185   2.148   2.908  1.4647  0.0857  0.2941
 7946SOL    HW135471   2.111   2.139   2.969 -0.6981  0.2628 -2.2957
 7946SOL    HW235472   2.189   2.243   2.898 -1.4769  0.5371  3.1930
 7947SOL     OW35473   1.555   4.131   4.821  0.2029  0.0852 -0.4457
 7947SOL    HW135474   1.606   4.131   4.740  3.4150 -1.7687  1.5678
 7947SOL    HW235475   1.535   4.037   4.830 -0.6872  0.1881 -1.3136
 7948SOL     OW35476   4.572   3.644   1.517  0.3719  0.1739 -0.1210
 7948SOL    HW135477   4.478   3.656   1.503 -0.1037 -2.3852  0.9273
 7948SOL    HW235478   4.600   3.654   1.426 -0.0576  1.3972 -0.1141
 7949SOL     OW35479   1.218   1.968   3.135  0.3539 -1.0876  0.0479
 7949SOL    HW135480   1.152   2.008   3.078  0.7969 -1.8127 -0.9653
 7949SOL    HW235481   1.294   2.003   3.089  0.4977  0.2171  1.2882
 7950SOL     OW35482   2.993   3.671   8.899  0.1244 -0.3266 -0.0578
 7950SOL    HW135483   3.086   3.650   8.889  0.6774  1.4428  1.4304
 7950SOL    HW235484   2.970   3.714   8.816  3.2155  0.6390 -0.3904
 7951SOL     OW35485   3.167   0.856   9.299 -0.2537  0.1907 -0.0293
 7951SOL    HW135486   3.119   0.780   9.332 -0.6816 -0.0971 -1.3402
 7951SOL    HW235487   3.091   0.913   9.285 -0.2143 -0.2978 -2.2198
 7952SOL     OW35488   1.080   1.315   2.734  0.1406 -0.2791  0.0917
 7952SOL    HW135489   1.082   1.409   2.748  0.5020 -0.4901  1.5060
 7952SOL    HW235490   1.010   1.303   2.670 -1.9403  0.2625  2.2993
 7953SOL     OW35491   4.396   3.884  11.526  0.0072  0.3337  0.2310
 7953SOL    HW135492   4.314   3.888  11.478  0.5154  0.4809 -0.6216
 7953SOL    HW235493   4.463   3.877  11.458  0.5099 -0.4626  0.8075
 7954SOL     OW35494   4.565   3.923  12.239  0.0382  0.2590  0.4161
 7954SOL    HW135495   4.634   3.879  12.190 -2.1564  0.0990 -2.4711
 7954SOL    HW235496   4.485   3.878  12.215  0.0285 -0.7665  2.3012
 7955SOL     OW35497   4.725   3.633   7.556  0.1952 -0.1666  0.1474
 7955SOL    HW135498   0.038   3.641   7.637 -0.7854 -0.7430  0.8106
 7955SOL    HW235499   4.658   3.701   7.556  2.0215  1.6384  1.2736
 7956SOL     OW35500   3.559   3.813   1.910  0.2195  0.2897 -0.3441
 7956SOL    HW135501   3.557   3.717   1.911  0.6103  0.2748 -1.0364
 7956SOL    HW235502   3.468   3.831   1.932 -0.1897  0.1819 -1.9249
 7957SOL     OW35503   2.324   3.574   8.443 -0.2436 -0.1408 -0.4742
 7957SOL    HW135504   2.324   3.479   8.457 -0.4682 -0.3603 -1.9792
 7957SOL    HW235505   2.295   3.612   8.526  3.9560  0.2100  0.8478
 7958SOL     OW35506   3.072   3.250   9.950  0.4377 -0.1402  0.4146
 7958SOL    HW135507   3.151   3.197   9.959  0.0333 -1.1665 -2.0041
 7958SOL    HW235508   3.107   3.311  10.015  1.4277 -0.8091  0.5070
 7959SOL     OW35509   3.615   0.584  16.246 -0.8200 -0.4337 -0.5052
 7959SOL    HW135510   3.647   0.508  16.295 -1.0596 -1.3717 -1.7949
 7959SOL    HW235511   3.699   0.623  16.224  0.3808 -2.5182  0.3987
 7960SOL     OW35512   0.346   1.165   2.601  0.0872 -0.1799 -0.3931
 7960SOL    HW135513   0.323   1.072   2.606 -2.7943  0.4689 -1.7819
 7960SOL    HW235514   0.324   1.193   2.512 -0.8068  0.1139 -0.0812
 7961SOL     OW35515   2.427   4.633  14.725 -0.2958 -0.1435 -0.2847
 7961SOL    HW135516   2.349   4.623  14.669 -0.6635  1.1161 -0.0104
 7961SOL    HW235517   2.498   4.642  14.662 -0.5011 -1.8700 -0.7537
 7962SOL     OW35518   3.428   3.270   4.427 -0.0138  0.4744 -0.0952
 7962SOL    HW135519   3.364   3.281   4.356 -0.3696 -2.4629 -0.2286
 7962SOL    HW235520   3.393   3.336   4.487 -2.3719 -0.7574 -0.1254
 7963SOL     OW35521   0.642   3.802   5.879 -0.1155 -0.0992  0.4750
 7963SOL    HW135522   0.708   3.841   5.822  0.1439 -2.6798 -0.9886
 7963SOL    HW235523   0.692   3.744   5.936 -0.3601 -1.6476 -0.8904
 7964SOL     OW35524   3.695   1.120  15.662 -0.5319  0.0989 -0.3347
 7964SOL    HW135525   3.669   1.085  15.747 -0.9722 -0.7381 -0.8175
 7964SOL    HW235526   3.651   1.205  15.658  1.0731  0.9839  1.1241
 7965SOL     OW35527   2.488   4.482   5.782  0.2769  0.2276  0.3520
 7965SOL    HW135528   2.552   4.502   5.715  1.5557  3.8960  2.6750
 7965SOL    HW235529   2.548   4.417   5.821 -2.2276 -1.6798  1.0397
 7966SOL     OW35530   2.870   0.703  12.913  0.3253 -0.2571  0.0253
 7966SOL    HW135531   2.794   0.651  12.936 -0.6790 -0.0503 -2.7794
 7966SOL    HW235532   2.837   0.793  12.918 -3.2187 -1.5283 -0.7324
 7967SOL     OW35533   4.617   2.473   4.582  0.0120 -0.0295  0.3759
 7967SOL    HW135534   4.525   2.486   4.606  0.2685  2.7938 -0.2189
 7967SOL    HW235535   4.621   2.378   4.573  1.1074  0.2760 -2.3978
 7968SOL     OW35536   1.711   1.130  17.297 -0.1528  0.5221 -0.2020
 7968SOL    HW135537   1.626   1.172  17.288 -2.0384 -3.3199 -0.3227
 7968SOL    HW235538   1.699   1.089  17.383  0.1636  1.3251  0.2191
 7969SOL     OW35539   1.975   0.377   1.685  0.6935 -0.0974  0.1366
 7969SOL    HW135540   1.968   0.472   1.696 -1.3871 -0.1920 -0.3741
 7969SOL    HW235541   1.909   0.353   1.750 -1.2539  0.6298 -1.5439
 7970SOL     OW35542   2.340   1.595   6.723  0.0495  0.5008 -0.1512
 7970SOL    HW135543   2.270   1.614   6.785 -0.4214  0.3096 -0.6281
 7970SOL    HW235544   2.380   1.519   6.766 -0.6282  0.7168  0.8380
 7971SOL     OW35545   0.479   0.829   8.789 -0.1821 -0.4597 -0.5794
 7971SOL    HW135546   0.536   0.788   8.853  2.0077  0.4287 -1.9801
 7971SOL    HW235547   0.447   0.903   8.840 -3.0594 -1.1626 -1.3420
 7972SOL     OW35548   3.097   0.229  14.163 -0.3477  0.4655 -0.2987
 7972SOL    HW135549   3.062   0.246  14.075 -0.5683  2.6530  0.2278
 7972SOL    HW235550   3.167   0.292  14.177 -1.3646  1.6954 -0.7946
 7973SOL     OW35551   0.298   3.562   6.623  0.3600 -0.0460 -0.0393
 7973SOL    HW135552   0.229   3.592   6.683  0.0365  2.2288 -1.5265
 7973SOL    HW235553   0.240   3.544   6.548 -0.5804  2.7426  0.0076
 7974SOL     OW35554   3.180   1.372  14.431 -0.1105 -0.3506  0.1029
 7974SOL    HW135555   3.150   1.430  14.501  1.6168 -1.2015  1.5641
 7974SOL    HW235556   3.099   1.329  14.405 -0.5386  0.9306 -0.6659
 7975SOL     OW35557   4.553   1.671   6.081 -0.4047  0.3000 -0.0123
 7975SOL    HW135558   4.594   1.741   6.133  2.6984 -2.0215  0.6558
 7975SOL    HW235559   4.530   1.716   6.000  0.5194  0.7409 -0.0327
 7976SOL     OW35560   1.848   4.549   6.120 -0.5349  0.3944 -0.5110
 7976SOL    HW135561   1.873   4.483   6.055  0.7724  2.4958 -2.1322
 7976SOL    HW235562   1.763   4.516   6.149  0.0091 -0.8809 -0.3464
 7977SOL     OW35563   3.872   3.083   8.194  0.1271 -0.6648 -0.1315
 7977SOL    HW135564   3.797   3.124   8.236  1.5128  2.2738 -0.4897
 7977SOL    HW235565   3.833   3.014   8.141 -2.0391  1.3349 -1.1208
 7978SOL     OW35566   4.195   3.281   2.850 -0.7083  0.4574 -0.3950
 7978SOL    HW135567   4.167   3.357   2.798  1.6136  1.9584  0.5568
 7978SOL    HW235568   4.216   3.213   2.787  0.4749  0.6061 -0.1503
 7979SOL     OW35569   0.474   0.509   7.681 -0.3820  0.9264  0.1674
 7979SOL    HW135570   0.412   0.441   7.706  0.0220  1.7241  3.3577
 7979SOL    HW235571   0.556   0.487   7.726 -0.3220  0.8784  0.0363
 7980SOL     OW35572   2.412   4.495   2.564 -0.1825 -0.2727 -0.3526
 7980SOL    HW135573   2.482   4.442   2.524  0.9338  1.8599 -1.2054
 7980SOL    HW235574   2.451   4.492   2.651 -0.0445  3.8941 -0.2846
 7981SOL     OW35575   4.039   3.737  15.550  0.4007 -0.7493  0.0026
 7981SOL    HW135576   3.998   3.818  15.580 -0.9036 -1.4967  0.2282
 7981SOL    HW235577   4.068   3.765  15.463  0.4449  1.3793  0.7036
 7982SOL     OW35578   4.348   3.663   7.293 -0.2728 -0.1575  0.3195
 7982SOL    HW135579   4.254   3.672   7.308 -0.3058 -1.9502  1.2375
 7982SOL    HW235580   4.380   3.746   7.328  1.5456 -0.6225 -0.2137
 7983SOL     OW35581   3.622   1.482   1.696  0.4166  0.4479 -0.0878
 7983SOL    HW135582   3.624   1.441   1.609  0.1145  0.3885 -0.0659
 7983SOL    HW235583   3.533   1.517   1.697 -0.3831 -1.5885  1.3247
 7984SOL     OW35584   0.420   2.691   0.795  0.0969 -0.3771 -0.0631
 7984SOL    HW135585   0.488   2.753   0.770  0.2251 -0.7613 -0.6932
 7984SOL    HW235586   0.348   2.724   0.741 -0.4278 -1.3120  0.0553
 7985SOL     OW35587   0.032   2.523   8.949 -0.2529  0.4263  0.1754
 7985SOL    HW135588   4.729   2.562   8.873 -1.5002 -1.0431  0.0930
 7985SOL    HW235589   0.037   2.430   8.925  2.5757  0.0941  1.9901
 7986SOL     OW35590   0.915   3.050   6.229 -0.3495 -0.0689  0.3748
 7986SOL    HW135591   0.837   3.068   6.282  0.2602  1.2477  0.8366
 7986SOL    HW235592   0.969   3.128   6.242 -0.3277 -0.0602  0.2295
 7987SOL     OW35593   2.792   0.047   5.391 -0.2953  0.2652  0.1730
 7987SOL    HW135594   2.877   0.007   5.411 -0.4787 -0.5448 -0.6469
 7987SOL    HW235595   2.811   0.128   5.343 -1.4312  0.0902 -0.5654
 7988SOL     OW35596   4.258   2.284   7.276 -0.3252 -0.0518  0.3916
 7988SOL    HW135597   4.230   2.202   7.235  0.3248 -1.1770  2.2084
 7988SOL    HW235598   4.341   2.256   7.315  0.0282  1.1521  0.4908
 7989SOL     OW35599   4.232   2.385   4.005 -0.1336  1.0146 -0.2253
 7989SOL    HW135600   4.273   2.425   3.928  1.8825  1.0614  0.8679
 7989SOL    HW235601   4.276   2.300   3.999 -0.7991  0.6931 -0.6031
 7990SOL     OW35602   2.233   1.835   1.555 -0.1880  0.4279  0.0631
 7990SOL    HW135603   2.209   1.905   1.615  1.7428  0.2566  1.0469
 7990SOL    HW235604   2.163   1.831   1.490 -1.2990 -0.7980  1.3427
 7991SOL     OW35605   1.570   3.579   5.237  0.1147  0.7341 -0.0370
 7991SOL    HW135606   1.474   3.580   5.234  0.1645  0.6349 -1.9863
 7991SOL    HW235607   1.594   3.662   5.195 -0.4341  0.1367 -1.5231
 7992SOL     OW35608   4.246   2.997   7.954 -0.2390 -0.1119  0.0826
 7992SOL    HW135609   4.202   3.078   7.979  1.2863  0.2255  1.6332
 7992SOL    HW235610   4.232   2.986   7.859  3.7954  1.0296 -0.6444
 7993SOL     OW35611   3.789   1.622   1.840 -0.2217 -0.3287  0.7325
 7993SOL    HW135612   3.731   1.677   1.893 -0.8427  0.0109 -0.2988
 7993SOL    HW235613   3.718   1.572   1.800  1.1912 -2.3864  0.8099
 7994SOL     OW35614   4.712   0.806  15.355 -0.7221 -0.1705 -0.1856
 7994SOL    HW135615   0.038   0.752  15.400 -0.5402 -0.7151 -1.1041
 7994SOL    HW235616   4.715   0.771  15.266 -1.2620 -0.6434 -0.0178
 7995SOL     OW35617   2.688   3.408   9.942 -0.5544 -0.0849 -0.1338
 7995SOL    HW135618   2.749   3.362   9.884 -0.4739 -2.9572  2.2267
 7995SOL    HW235619   2.612   3.349   9.935  0.0138 -0.8886  0.3811
 7996SOL     OW35620   0.760   1.384   5.412  0.4513 -0.1385 -0.0648
 7996SOL    HW135621   0.748   1.306   5.358  1.6086 -0.3123 -0.0734
 7996SOL    HW235622   0.747   1.337   5.494 -3.3955 -0.8024 -1.0508
 7997SOL     OW35623   0.462   4.672   4.217  0.1859  0.7528  0.2065
 7997SOL    HW135624   0.427   4.727   4.287  0.3180  0.9322  0.1285
 7997SOL    HW235625   0.539   4.715   4.181  0.2107  0.0483 -0.5977
 7998SOL     OW35626   1.046   1.732   0.135  0.3737  0.3325 -0.1025
 7998SOL    HW135627   1.141   1.726   0.120  0.3004 -0.1006 -0.3933
 7998SOL    HW235628   1.032   1.778   0.052 -1.6571 -1.7240 -0.8863
 7999SOL     OW35629   3.064   4.538   1.601  0.1242 -0.3391  0.6405
 7999SOL    HW135630   3.029   4.600   1.538  0.9931 -0.2133  0.2819
 7999SOL    HW235631   3.141   4.588   1.629 -0.1971  0.5678 -0.1332
 8000SOL     OW35632   2.413   4.307   3.538 -0.5447 -0.0602 -0.2258
 8000SOL    HW135633   2.352   4.381   3.530 -0.7012  0.1652  2.9289
 8000SOL    HW235634   2.494   4.344   3.501 -0.4921  0.6335  0.5607
 8001SOL     OW35635   2.665   1.457   7.088  0.1011 -0.0735  0.3925
 8001SOL    HW135636   2.712   1.388   7.135 -0.0382  0.2313  0.9718
 8001SOL    HW235637   2.628   1.512   7.156 -2.6994  2.0243 -2.7917
 8002SOL     OW35638   2.792   2.172  12.760  0.0678 -0.2574 -0.1810
 8002SOL    HW135639   2.796   2.137  12.849 -0.9312 -0.7470 -0.3298
 8002SOL    HW235640   2.793   2.092  12.708  2.5607 -1.0151  1.0628
 8003SOL     OW35641   1.924   2.669   3.111  0.0054 -0.0618  0.5216
 8003SOL    HW135642   1.995   2.732   3.094  0.1213 -0.5849 -0.9403
 8003SOL    HW235643   1.912   2.664   3.206  0.6898 -0.3668  0.5938
 8004SOL     OW35644   4.195   4.470   5.448 -0.4113  0.0688 -0.1439
 8004SOL    HW135645   4.180   4.505   5.360 -0.1267 -0.6942 -0.4973
 8004SOL    HW235646   4.122   4.408   5.454 -0.9623  0.7454  0.1685
 8005SOL     OW35647   0.077   4.169  11.501 -0.3783 -0.0836 -0.2645
 8005SOL    HW135648   0.022   4.159  11.423 -1.2802  2.5845  0.0582
 8005SOL    HW235649   0.154   4.211  11.462  1.3259  0.3833  3.6779
 8006SOL     OW35650   1.090   1.551  11.130 -0.2762  0.8313 -0.0152
 8006SOL    HW135651   1.050   1.547  11.217 -0.2618 -2.5669 -0.1918
 8006SOL    HW235652   1.012   1.541  11.075 -0.2152  0.4842 -0.0332
 8007SOL     OW35653   2.879   3.250  12.451 -0.3218  0.1161 -0.3721
 8007SOL    HW135654   2.909   3.308  12.381  0.2666  2.1524  1.5628
 8007SOL    HW235655   2.834   3.181  12.401  3.1934 -0.3725 -2.8778
 8008SOL     OW35656   4.611   1.792  11.968  0.2998  0.4948  0.5091
 8008SOL    HW135657   4.643   1.716  11.920 -1.6949 -0.6828  1.0274
 8008SOL    HW235658   4.516   1.788  11.957  0.1765 -1.2929  2.1914
 8009SOL     OW35659   0.407   4.524   6.270  0.5257 -0.3006  0.1380
 8009SOL    HW135660   0.432   4.484   6.353  3.6433 -0.5564 -0.9390
 8009SOL    HW235661   0.486   4.572   6.247  0.5778 -0.0736  0.7974
 8010SOL     OW35662   4.261   0.172  11.490  0.0314 -0.1261 -0.1926
 8010SOL    HW135663   4.314   0.252  11.492  2.1517 -1.5503 -0.1567
 8010SOL    HW235664   4.264   0.151  11.397  0.0050  0.2685 -0.2842
 8011SOL     OW35665   3.683   2.033   0.789  0.3246 -0.3202 -0.2420
 8011SOL    HW135666   3.678   2.081   0.871  0.3562 -0.7756  0.0290
 8011SOL    HW235667   3.591   2.031   0.762  0.0112  1.5741  0.7595
 8012SOL     OW35668   2.653   1.288   3.094 -0.6160  0.0850  0.3876
 8012SOL    HW135669   2.648   1.209   3.148  0.2525 -2.3182 -3.0083
 8012SOL    HW235670   2.737   1.325   3.121 -0.5751  0.4673 -0.2483
 8013SOL     OW35671   1.601   1.101   2.878  0.0289  0.6978  0.1792
 8013SOL    HW135672   1.690   1.071   2.897  0.2828 -0.0586 -2.1931
 8013SOL    HW235673   1.556   1.020   2.853  0.8079  0.8361 -1.6637
 8014SOL     OW35674   1.119   3.210   9.608 -0.0969 -0.2269 -0.6250
 8014SOL    HW135675   1.210   3.193   9.585  0.0830  0.1232 -0.1815
 8014SOL    HW235676   1.107   3.292   9.560  2.5692  1.2568  1.2244
 8015SOL     OW35677   3.979   3.860   6.015  0.0282  0.3127  0.2524
 8015SOL    HW135678   3.890   3.840   6.044  0.4752 -1.8175  0.1986
 8015SOL    HW235679   4.027   3.839   6.095  1.3958 -0.0368 -0.6552
 8016SOL     OW35680   2.140   0.982   7.961 -0.0617  0.4918 -0.0051
 8016SOL    HW135681   2.137   1.054   7.898 -0.1166  0.3379 -0.1780
 8016SOL    HW235682   2.206   1.020   8.020  0.8363 -0.0890 -0.6321
 8017SOL     OW35683   3.262   3.700  11.339  0.2827  0.3098 -0.1705
 8017SOL    HW135684   3.347   3.727  11.304  0.4965  0.5375  0.5376
 8017SOL    HW235685   3.291   3.637  11.405  0.3526  0.3969 -0.1192
 8018SOL     OW35686   1.484   0.142   7.597  0.3298 -0.0219 -0.2040
 8018SOL    HW135687   1.494   0.048   7.606  0.2146 -0.2461 -2.4153
 8018SOL    HW235688   1.469   0.166   7.689  1.0691  0.7786 -0.2885
 8019SOL     OW35689   3.596   2.390   1.017 -0.6201  0.5131  0.4366
 8019SOL    HW135690   3.650   2.438   0.954  2.0194 -2.2231  0.6202
 8019SOL    HW235691   3.517   2.444   1.012 -2.1390 -1.6004  1.7873
 8020SOL     OW35692   2.065   1.101   9.245  0.5952 -0.3214  0.5691
 8020SOL    HW135693   2.048   1.014   9.209  2.7098  0.5439 -2.4936
 8020SOL    HW235694   2.129   1.091   9.316 -0.0724 -2.0585  0.9379
 8021SOL     OW35695   0.858   0.155   8.972 -0.2419  0.6471 -0.3619
 8021SOL    HW135696   0.852   0.212   9.048  1.9655  3.7956 -2.5488
 8021SOL    HW235697   0.840   0.220   8.904  1.3508  1.1706 -0.2963
 8022SOL     OW35698   0.089   0.091   4.029 -0.4198  0.2233  0.4520
 8022SOL    HW135699   0.137   0.090   3.946  0.3609  1.9376  0.8947
 8022SOL    HW235700   0.118   0.012   4.075 -0.1420 -0.2773 -0.5560
 8023SOL     OW35701   2.635   2.593   5.839 -0.4312 -0.0820 -0.3828
 8023SOL    HW135702   2.548   2.568   5.871 -0.4598  1.3804  0.7008
 8023SOL    HW235703   2.691   2.528   5.882  0.3279  0.7765 -0.0650
 8024SOL     OW35704   2.487   4.215   7.520  0.4543 -0.0261  0.0636
 8024SOL    HW135705   2.474   4.238   7.428  1.7973  0.5716  0.0328
 8024SOL    HW235706   2.581   4.230   7.528  1.0670 -4.1660  0.3147
 8025SOL     OW35707   3.302   2.032   3.657 -0.1072  0.1254 -0.2678
 8025SOL    HW135708   3.285   2.069   3.571  2.0038  0.6712 -0.4686
 8025SOL    HW235709   3.369   2.097   3.680 -1.7595  1.3120  1.1477
 8026SOL     OW35710   1.620   0.894   7.751  0.2542 -0.4974 -0.1126
 8026SOL    HW135711   1.694   0.856   7.798 -1.2662 -1.9339  1.1190
 8026SOL    HW235712   1.641   0.987   7.762 -0.2387 -0.1760 -1.9474
 8027SOL     OW35713   4.298   0.100   8.683 -0.5525  0.7588 -0.5139
 8027SOL    HW135714   4.215   0.094   8.731 -0.2685  1.4864  0.0822
 8027SOL    HW235715   4.268   0.154   8.610 -2.0249 -1.2402 -1.3940
 8028SOL     OW35716   0.531   2.438   7.633  0.5689  0.2674  0.6715
 8028SOL    HW135717   0.623   2.435   7.659  0.4193  3.2651  1.6143
 8028SOL    HW235718   0.516   2.351   7.596  1.5972 -0.2945  1.5748
 8029SOL     OW35719   3.006   2.372   4.053 -0.0495 -0.3452 -0.3368
 8029SOL    HW135720   2.916   2.397   4.035 -0.2202 -2.1556 -2.0285
 8029SOL    HW235721   3.045   2.434   3.990 -0.8697  0.8256  0.3058
 8030SOL     OW35722   1.451   4.243  16.457 -0.4783 -0.0130 -0.5311
 8030SOL    HW135723   1.540   4.219  16.484 -1.1365 -0.8516  0.9404
 8030SOL    HW235724   1.451   4.329  16.416 -0.0053  0.6551  0.8719
 8031SOL     OW35725   2.323   2.406   5.655  0.4662 -0.2354  0.2849
 8031SOL    HW135726   2.374   2.340   5.702 -0.6486 -3.2380 -2.7164
 8031SOL    HW235727   2.303   2.462   5.730 -1.0319  0.1147 -0.3784
 8032SOL     OW35728   3.015   0.336   3.635  0.3379 -0.0635  0.0792
 8032SOL    HW135729   3.088   0.319   3.576 -1.4243  0.9490 -2.3658
 8032SOL    HW235730   2.962   0.399   3.586 -1.1610 -1.0056  0.4842
 8033SOL     OW35731   3.051   0.306   7.331 -0.4016 -0.0470  0.1854
 8033SOL    HW135732   3.140   0.292   7.298 -0.1743 -2.2691  1.7286
 8033SOL    HW235733   3.051   0.254   7.412  1.7570  2.4263  1.7533
 8034SOL     OW35734   1.427   2.088   5.849  0.3084  0.0568  0.5750
 8034SOL    HW135735   1.462   2.172   5.878  1.6994 -0.3075 -0.0004
 8034SOL    HW235736   1.334   2.101   5.867 -0.3860 -0.3265 -2.6963
 8035SOL     OW35737   4.337   2.268   0.458  0.4336 -0.4724  0.0143
 8035SOL    HW135738   4.418   2.296   0.501 -0.1703  0.5187  0.5388
 8035SOL    HW235739   4.297   2.213   0.526  0.3361  2.2782  2.2042
 8036SOL     OW35740   0.211   4.133  15.941 -0.4285 -0.2986 -0.1889
 8036SOL    HW135741   0.131   4.092  15.909  0.7563 -0.8107 -2.4794
 8036SOL    HW235742   0.175   4.211  15.982 -0.3785 -0.2197 -0.2954
 8037SOL     OW35743   2.093   0.665   8.198  0.1552 -0.1164 -0.3041
 8037SOL    HW135744   2.070   0.579   8.163 -0.7991 -0.8045  1.9981
 8037SOL    HW235745   2.009   0.711   8.195  0.7622  0.8867 -1.8730
 8038SOL     OW35746   0.753   3.611   7.783 -0.2279  0.9112  0.5109
 8038SOL    HW135747   0.767   3.540   7.845 -0.1136  0.2091 -0.3306
 8038SOL    HW235748   0.736   3.682   7.846  0.3769 -1.0124  2.8309
 8039SOL     OW35749   2.373   3.971   7.740  0.4151  0.1883 -0.0419
 8039SOL    HW135750   2.452   3.923   7.715 -1.2714 -1.1883 -2.8155
 8039SOL    HW235751   2.418   4.041   7.787  0.0726  1.7815 -2.0882
 8040SOL     OW35752   1.439   2.742  15.264  0.2500  0.6022 -0.4169
 8040SOL    HW135753   1.366   2.802  15.279  0.7253  0.7942  1.0685
 8040SOL    HW235754   1.468   2.777  15.179  1.4051  1.8818  0.5133
 8041SOL     OW35755   2.450   3.455  10.847 -0.0568  0.0887 -0.6533
 8041SOL    HW135756   2.412   3.397  10.914 -0.3004  1.2574  0.2199
 8041SOL    HW235757   2.539   3.464  10.882 -1.1307 -0.6621  2.2541
 8042SOL     OW35758   3.675   4.117   7.472  0.3732  0.5321  0.4497
 8042SOL    HW135759   3.652   4.095   7.562  0.2092 -0.3588  0.1930
 8042SOL    HW235760   3.587   4.096   7.441  0.3875 -1.6151  1.8752
 8043SOL     OW35761   3.562   0.834   5.340 -0.5465 -0.3524 -0.3701
 8043SOL    HW135762   3.569   0.744   5.309 -0.9625  0.2860 -2.2738
 8043SOL    HW235763   3.570   0.823   5.435  0.8709  0.1437 -0.4276
 8044SOL     OW35764   2.470   1.567  16.924 -0.8607 -0.0018 -0.4367
 8044SOL    HW135765   2.408   1.496  16.907  0.1363 -1.2294  0.9385
 8044SOL    HW235766   2.468   1.612  16.840 -1.3172  0.7609 -0.0193
 8045SOL     OW35767   0.256   0.253   7.899  0.6603 -0.0873 -0.2544
 8045SOL    HW135768   0.230   0.336   7.940  0.5812  0.5839 -1.6544
 8045SOL    HW235769   0.215   0.263   7.812 -0.9084 -0.1349  0.4728
 8046SOL     OW35770   3.056   3.665   7.287 -0.3843 -0.1739 -0.0769
 8046SOL    HW135771   3.035   3.653   7.380 -0.9267 -0.9904 -0.2993
 8046SOL    HW235772   2.965   3.668   7.257 -0.0969  1.3039 -0.7930
 8047SOL     OW35773   4.226   3.633   1.898  0.0639 -0.0313  0.2832
 8047SOL    HW135774   4.203   3.673   1.981  1.2185  2.3080 -0.5050
 8047SOL    HW235775   4.285   3.563   1.927  2.7060  1.4924 -1.4383
 8048SOL     OW35776   0.421   2.024   8.087 -0.1279  0.2714 -0.4173
 8048SOL    HW135777   0.492   1.961   8.091  0.8275  1.3775 -0.0506
 8048SOL    HW235778   0.381   2.012   8.001  0.2548 -0.7815 -0.4457
 8049SOL     OW35779   4.583   1.884   5.306 -0.0211 -0.1557 -0.3574
 8049SOL    HW135780   4.549   1.840   5.228 -0.8687  1.1272 -0.7123
 8049SOL    HW235781   4.676   1.873   5.289 -0.7243 -3.6669 -2.0456
 8050SOL     OW35782   1.705   4.464   1.373 -0.2593  0.4275 -0.4529
 8050SOL    HW135783   1.800   4.465   1.361 -0.0917  3.0059  1.0509
 8050SOL    HW235784   1.688   4.375   1.343  2.2871 -0.3383  0.3385
 8051SOL     OW35785   4.389   2.653   9.893  0.6158  0.5684  0.6157
 8051SOL    HW135786   4.457   2.600   9.851 -0.3099 -1.2080  1.3754
 8051SOL    HW235787   4.330   2.678   9.822  1.3258  0.1882 -0.1069
 8052SOL     OW35788   3.614   1.133   8.042  0.2356  0.2082 -0.5116
 8052SOL    HW135789   3.542   1.074   8.063  1.0023 -0.0322  1.4116
 8052SOL    HW235790   3.653   1.088   7.968  0.2121 -0.2717 -0.2277
 8053SOL     OW35791   0.012   4.006   5.178 -0.1345 -0.5272 -0.0366
 8053SOL    HW135792   0.041   4.079   5.124  1.3440 -0.4679  0.8253
 8053SOL    HW235793   0.037   4.040   5.264  1.4445  0.1603 -0.7777
 8054SOL     OW35794   0.916   0.899   1.771 -0.2927  0.7733  0.3189
 8054SOL    HW135795   0.999   0.939   1.745  0.0545  0.3714  0.8126
 8054SOL    HW235796   0.930   0.810   1.740  0.8834  1.4663 -1.0947
 8055SOL     OW35797   1.722   1.021   3.826 -0.2018  0.2528  0.3640
 8055SOL    HW135798   1.695   1.074   3.901  0.2256  0.7504  0.1689
 8055SOL    HW235799   1.810   1.058   3.817 -1.2508  2.6115 -0.1897
 8056SOL     OW35800   2.116   0.088   7.137 -0.1464  0.3474 -0.5122
 8056SOL    HW135801   2.210   0.090   7.155 -0.9223  0.2640  3.4527
 8056SOL    HW235802   2.108   0.144   7.060 -0.8007  1.6212  0.4880
 8057SOL     OW35803   4.368   3.072   4.444  0.4039 -0.3571  0.2242
 8057SOL    HW135804   4.440   3.023   4.485  1.0000 -0.8202 -1.3905
 8057SOL    HW235805   4.420   3.122   4.380  0.1176 -0.7956 -0.3455
 8058SOL     OW35806   2.258   0.039   1.489  0.2205 -0.3766  0.2165
 8058SOL    HW135807   2.235   0.102   1.557 -1.8224 -3.0573  1.9603
 8058SOL    HW235808   2.193   0.057   1.421 -1.5844 -1.1477  1.7563
 8059SOL     OW35809   3.066   3.079   5.567 -0.6247  0.3824  0.5929
 8059SOL    HW135810   3.105   3.088   5.654  1.2602 -0.5934 -0.1484
 8059SOL    HW235811   3.151   3.063   5.526 -1.7678 -3.1030 -0.3330
 8060SOL     OW35812   3.053   4.542   2.173 -0.0389  0.1402  0.0326
 8060SOL    HW135813   2.976   4.580   2.215 -0.5187  0.9990 -1.6438
 8060SOL    HW235814   3.116   4.614   2.181 -0.3364  0.7291 -2.8522
 8061SOL     OW35815   3.029   3.693  10.781 -0.0991 -0.4320 -0.5100
 8061SOL    HW135816   3.009   3.601  10.765 -0.5828 -0.9585  2.9993
 8061SOL    HW235817   2.944   3.736  10.785 -0.0555 -0.1749 -2.2839
 8062SOL     OW35818   3.005   2.982   0.529 -0.2468 -0.1339 -0.0607
 8062SOL    HW135819   3.056   3.064   0.528 -1.0743  0.3568 -1.5560
 8062SOL    HW235820   3.046   2.941   0.605 -0.5566 -1.3119 -0.5327
 8063SOL     OW35821   3.959   0.994   3.049  0.6377 -0.1822 -0.7596
 8063SOL    HW135822   4.010   1.004   2.968 -0.7167 -1.2259 -1.7386
 8063SOL    HW235823   3.876   1.019   3.009  0.8543  2.1724  0.3015
 8064SOL     OW35824   4.409   0.024   6.056 -0.4431 -0.3298 -0.3686
 8064SOL    HW135825   4.349   4.728   5.990  0.0725 -0.2964 -0.8515
 8064SOL    HW235826   4.488   4.708   6.052  0.7678  1.2988  1.0203
 8065SOL     OW35827   4.066   1.851   8.336  0.2568  0.3313  0.3153
 8065SOL    HW135828   4.054   1.944   8.317  2.0207  0.5259  0.1232
 8065SOL    HW235829   4.162   1.849   8.332  0.1704  0.8769 -2.0690
 8066SOL     OW35830   2.741   3.940   8.308  0.1279  0.1488 -0.3757
 8066SOL    HW135831   2.666   3.974   8.356 -0.3795 -0.4999 -0.7241
 8066SOL    HW235832   2.757   3.859   8.356 -1.6586  0.4797  0.8001
 8067SOL     OW35833   2.899   0.962   9.232  0.3627 -0.7192  0.7588
 8067SOL    HW135834   2.934   1.007   9.155 -2.8730 -0.6803 -0.7119
 8067SOL    HW235835   2.873   1.041   9.279 -0.1018 -0.7918  0.6246
 8068SOL     OW35836   2.446   3.711   5.786  0.2788  0.1728 -0.2539
 8068SOL    HW135837   2.372   3.650   5.792 -1.1885  2.2895  2.8907
 8068SOL    HW235838   2.447   3.744   5.875  0.2723  0.3390 -0.3151
 8069SOL     OW35839   3.618   0.790   9.378 -0.3546  0.6240 -0.3033
 8069SOL    HW135840   3.626   0.736   9.300 -0.3682 -0.2664  0.3182
 8069SOL    HW235841   3.552   0.848   9.339 -1.2393 -0.7722 -0.8649
 8070SOL     OW35842   2.007   2.767   4.583 -0.0798  0.0141  0.6172
 8070SOL    HW135843   2.014   2.802   4.494 -1.5683  1.4628  1.0664
 8070SOL    HW235844   2.076   2.810   4.634  2.3634 -3.0260 -0.1423
 8071SOL     OW35845   0.994   4.299   5.806 -0.6268  0.5958 -0.8564
 8071SOL    HW135846   1.053   4.318   5.879  0.2868  1.3920 -1.8158
 8071SOL    HW235847   0.949   4.382   5.792  0.2246  1.3052  0.6053
 8072SOL     OW35848   4.381   0.972   2.844 -0.0644  0.5180  0.1555
 8072SOL    HW135849   4.443   0.993   2.914  2.2765 -0.8432 -1.5386
 8072SOL    HW235850   4.392   0.878   2.828  0.7869  0.8591 -1.2495
 8073SOL     OW35851   2.706   3.345   4.963 -0.1042  0.1126  0.1125
 8073SOL    HW135852   2.732   3.253   4.964  1.9278  0.6859 -0.3610
 8073SOL    HW235853   2.770   3.391   4.909 -1.1301  0.8672 -0.4652
 8074SOL     OW35854   1.570   1.749   2.606 -0.7611  0.8311 -0.1162
 8074SOL    HW135855   1.634   1.696   2.654 -0.2046  0.3499 -1.3820
 8074SOL    HW235856   1.485   1.712   2.628 -0.0124  0.4926  2.2005
 8075SOL     OW35857   4.139   2.451   4.744 -0.6965 -0.6749 -0.0055
 8075SOL    HW135858   4.196   2.443   4.820 -1.0597  0.1692  0.3556
 8075SOL    HW235859   4.060   2.477   4.793 -0.0111 -1.5529  1.5419
 8076SOL     OW35860   2.112   0.490  11.342  0.3345  0.7423 -0.0129
 8076SOL    HW135861   2.118   0.399  11.313  3.8073  1.3406 -1.2891
 8076SOL    HW235862   2.018   0.507  11.346  0.3177  0.0548  2.0662
 8077SOL     OW35863   2.462   1.811   7.882 -0.1159  0.6634  0.5555
 8077SOL    HW135864   2.545   1.780   7.920  0.7924  1.6538 -0.6335
 8077SOL    HW235865   2.421   1.854   7.958  1.3688  1.1149  1.1169
 8078SOL     OW35866   3.103   3.161  14.476  0.3177 -0.2794 -0.1668
 8078SOL    HW135867   3.028   3.126  14.428  0.9228 -2.4421  0.4733
 8078SOL    HW235868   3.178   3.123  14.428 -1.4158 -1.5266 -1.8854
 8079SOL     OW35869   1.801   3.120   0.768  0.1394  0.1446  0.1745
 8079SOL    HW135870   1.880   3.139   0.718  1.1611 -0.8283  1.4027
 8079SOL    HW235871   1.810   3.159   0.855 -0.0078  0.3184  0.1110
 8080SOL     OW35872   2.249   1.840  12.526 -0.0486  0.0677  0.0681
 8080SOL    HW135873   2.225   1.931  12.516  1.7012  0.6996  1.5222
 8080SOL    HW235874   2.232   1.819  12.618 -0.4903 -1.0144 -0.2612
 8081SOL     OW35875   2.300   2.532  14.891 -0.5271 -0.2731 -0.0304
 8081SOL    HW135876   2.312   2.620  14.927 -1.0343 -1.0972  2.1402
 8081SOL    HW235877   2.348   2.473  14.950  0.4011  0.0562 -0.4442
 8082SOL     OW35878   1.334   1.774   9.740 -0.2341 -0.5958 -0.0271
 8082SOL    HW135879   1.368   1.701   9.689  0.7823  0.3617 -0.7357
 8082SOL    HW235880   1.412   1.829   9.730 -0.2001 -1.0221 -2.1051
 8083SOL     OW35881   0.968   4.131   5.165  0.5918 -0.6589  0.5502
 8083SOL    HW135882   0.926   4.046   5.178 -0.4369 -0.3295 -0.6907
 8083SOL    HW235883   1.048   4.113   5.214  0.8704  1.1483  0.7581
 8084SOL     OW35884   2.297   3.929   7.429 -0.1564  0.6142 -0.4080
 8084SOL    HW135885   2.376   3.895   7.386 -0.7952 -1.8047  0.3174
 8084SOL    HW235886   2.331   3.974   7.506 -0.6431  1.5917 -0.7602
 8085SOL     OW35887   0.416   2.587   8.227  0.6519 -0.2178 -0.3453
 8085SOL    HW135888   0.374   2.504   8.250 -0.2440  0.4250  0.3932
 8085SOL    HW235889   0.491   2.555   8.177  1.4324 -1.9574  1.9157
 8086SOL     OW35890   3.018   2.297   4.525 -0.2402  0.5321  0.2417
 8086SOL    HW135891   3.006   2.203   4.539  1.8864  0.5142  1.9154
 8086SOL    HW235892   3.067   2.326   4.602 -1.8018 -0.3045  1.5655
 8087SOL     OW35893   3.798   1.806   8.341 -0.5659  0.1330 -0.3235
 8087SOL    HW135894   3.891   1.813   8.364 -0.4938 -0.4503 -0.4281
 8087SOL    HW235895   3.793   1.835   8.250  1.5710  2.2863  0.2447
 8088SOL     OW35896   3.559   1.296  14.003  0.2035  0.2495  0.8753
 8088SOL    HW135897   3.630   1.345  13.962  0.5937  0.0140  1.2544
 8088SOL    HW235898   3.613   1.237  14.056 -1.4071 -1.4607  0.5826
 8089SOL     OW35899   2.509   1.948  12.714 -0.3976  0.0319 -0.4009
 8089SOL    HW135900   2.558   1.916  12.638 -0.6282  1.3646 -1.1129
 8089SOL    HW235901   2.509   2.044  12.711  0.2624  0.0147 -1.0035
 8090SOL     OW35902   0.212   1.012   3.390  0.2547 -0.0992  0.3187
 8090SOL    HW135903   0.234   1.048   3.475  0.0214  0.3347  0.1950
 8090SOL    HW235904   0.160   1.078   3.344 -0.5299  0.0009  1.3497
 8091SOL     OW35905   1.289   2.121   4.260 -0.1944  1.7180 -0.2877
 8091SOL    HW135906   1.362   2.152   4.207  1.4525 -1.5780  0.0951
 8091SOL    HW235907   1.244   2.204   4.279 -1.4799  0.9197  0.1925
 8092SOL     OW35908   4.308   1.412  14.887 -0.1483  0.0022  0.0007
 8092SOL    HW135909   4.243   1.349  14.856 -1.3667  0.6094  1.3496
 8092SOL    HW235910   4.308   1.473  14.812  0.6301 -1.7932 -1.4653
 8093SOL     OW35911   2.329   2.067  17.232 -0.3895  0.4433  0.6035
 8093SOL    HW135912   2.248   2.019  17.219 -1.2394  1.8133  0.8257
 8093SOL    HW235913   2.369   2.090  17.148 -1.5256  0.6574  0.1184
 8094SOL     OW35914   0.212   2.205  12.644  0.7080  0.5818  1.0935
 8094SOL    HW135915   0.270   2.131  12.665  0.1552 -0.5052 -1.2270
 8094SOL    HW235916   0.271   2.248  12.582 -1.6286  1.2338 -0.6749
 8095SOL     OW35917   2.843   2.402  13.790  0.5725 -0.5132 -0.1139
 8095SOL    HW135918   2.803   2.321  13.757 -0.0705 -0.6391  0.9829
 8095SOL    HW235919   2.791   2.421  13.868  1.7948  0.9058  0.3537
 8096SOL     OW35920   2.481   4.169   7.214 -0.3781 -0.5415 -0.0759
 8096SOL    HW135921   2.435   4.122   7.143 -0.9159 -1.0524  0.6091
 8096SOL    HW235922   2.556   4.111   7.225  1.4704  1.9898  0.6663
 8097SOL     OW35923   4.218   0.515   8.525 -0.3705 -0.4970  0.4283
 8097SOL    HW135924   4.283   0.500   8.594 -0.1001  1.5729  0.6438
 8097SOL    HW235925   4.193   0.426   8.503  0.5916 -0.1230 -2.1040
 8098SOL     OW35926   4.099   1.359  12.907 -0.9116  0.3285  0.7533
 8098SOL    HW135927   4.158   1.284  12.900 -0.8815  0.7658 -3.2993
 8098SOL    HW235928   4.148   1.427  12.860 -0.8879 -1.7626 -2.2216
 8099SOL     OW35929   2.109   3.359  11.328  0.1670  0.2543  1.1967
 8099SOL    HW135930   2.110   3.281  11.384 -1.3460 -0.4955  0.1633
 8099SOL    HW235931   2.137   3.420  11.396  1.6392 -1.5061  2.1991
 8100SOL     OW35932   2.058   0.718   2.092 -0.4126 -0.1862  0.2803
 8100SOL    HW135933   2.056   0.770   2.011  1.2743  0.5386  0.6862
 8100SOL    HW235934   2.106   0.641   2.059  0.3406  0.2359  0.3818
 8101SOL     OW35935   2.011   1.689  11.575 -0.4632 -0.2960 -0.0890
 8101SOL    HW135936   1.950   1.757  11.604 -0.4747 -0.0771 -0.6104
 8101SOL    HW235937   2.090   1.735  11.603 -0.4824 -0.4780  0.2581
 8102SOL     OW35938   3.262   3.779   5.084  0.1973 -0.1009  0.9662
 8102SOL    HW135939   3.261   3.847   5.017  2.3499  0.0126  1.0377
 8102SOL    HW235940   3.225   3.838   5.150 -0.1876 -0.5352  1.1375
 8103SOL     OW35941   0.698   1.436   8.381 -0.0258 -0.2721  0.6522
 8103SOL    HW135942   0.613   1.399   8.403  0.1166 -2.1577 -1.9031
 8103SOL    HW235943   0.680   1.524   8.348  1.8133 -0.7529 -1.6122
 8104SOL     OW35944   0.992   3.263   5.288  0.4759 -0.3758 -0.3760
 8104SOL    HW135945   1.001   3.181   5.337  2.4651  0.2181  0.2324
 8104SOL    HW235946   1.084   3.287   5.274  0.4439  0.5366  0.9423
 8105SOL     OW35947   0.026   2.140   5.543 -0.1950  0.0663  0.3185
 8105SOL    HW135948   0.060   2.188   5.618  0.9521 -1.2862  0.6566
 8105SOL    HW235949   0.020   2.053   5.583  0.0524  0.4273  1.1384
 8106SOL     OW35950   4.425   1.226   8.658 -0.3245  0.0322 -0.1503
 8106SOL    HW135951   4.385   1.153   8.610 -0.1245  0.4232 -0.9050
 8106SOL    HW235952   4.503   1.247   8.606  0.2488  0.8374  1.0285
 8107SOL     OW35953   3.829   2.097   6.913 -0.2400  0.1084 -0.0227
 8107SOL    HW135954   3.818   2.010   6.874  2.5361 -0.8496  1.3448
 8107SOL    HW235955   3.891   2.142   6.856  1.5262 -3.0557 -0.5854
 8108SOL     OW35956   0.977   3.134   1.069 -0.4283  0.6217 -0.0164
 8108SOL    HW135957   1.007   3.220   1.100 -2.0436  0.8785  0.8270
 8108SOL    HW235958   0.959   3.152   0.977 -1.1645 -0.0943  0.0001
 8109SOL     OW35959   1.352   0.713   3.115  0.2919  0.2501 -0.0540
 8109SOL    HW135960   1.265   0.703   3.153  0.4023  0.6688  0.3061
 8109SOL    HW235961   1.382   0.778   3.178  0.7599  0.5377 -0.5785
 8110SOL     OW35962   0.799   0.239  16.323  0.3516  0.4723 -0.1808
 8110SOL    HW135963   0.868   0.256  16.259  0.9000 -0.4026  0.1721
 8110SOL    HW235964   0.727   0.229  16.261  0.8585  1.2389 -0.8843
 8111SOL     OW35965   3.324   0.376   6.505  0.3095 -0.0013  0.6599
 8111SOL    HW135966   3.292   0.369   6.415 -0.0325 -0.2743  0.8057
 8111SOL    HW235967   3.385   0.450   6.492  0.1864 -0.2511 -1.2781
 8112SOL     OW35968   3.614   2.219   1.662 -0.0915 -0.0580  0.3376
 8112SOL    HW135969   3.691   2.276   1.664 -0.4895  0.4437  1.2179
 8112SOL    HW235970   3.569   2.250   1.583  1.4357  1.3083 -0.0053
 8113SOL     OW35971   1.603   2.346   3.462  0.3870 -0.0536 -0.3255
 8113SOL    HW135972   1.613   2.439   3.442 -0.3605  0.3517  1.1784
 8113SOL    HW235973   1.579   2.341   3.555  0.1788 -3.0946 -0.5290
 8114SOL     OW35974   1.649   2.028   8.362  0.7828  0.5734  0.4555
 8114SOL    HW135975   1.609   1.964   8.303  0.2022  0.5888  0.8294
 8114SOL    HW235976   1.740   2.004   8.347 -0.0220 -2.7755  1.0637
 8115SOL     OW35977   0.950   3.447   1.677  0.0660 -0.2447 -0.3114
 8115SOL    HW135978   1.027   3.482   1.722 -2.9175  1.3412  3.6558
 8115SOL    HW235979   0.975   3.481   1.591 -1.9373  1.1329 -0.3561
 8116SOL     OW35980   4.013   0.814  11.876  0.1314 -0.6232  0.0936
 8116SOL    HW135981   4.087   0.832  11.818 -0.6435 -0.6154 -0.9133
 8116SOL    HW235982   4.053   0.817  11.963 -1.2606  3.2660  0.6081
 8117SOL     OW35983   4.130   3.925   4.565 -0.8009 -0.3609  0.2661
 8117SOL    HW135984   4.172   3.839   4.562  0.3537  0.3102 -2.3552
 8117SOL    HW235985   4.169   3.969   4.490  0.4909 -2.0977 -0.0894
 8118SOL     OW35986   4.509   1.006   8.434 -0.2698 -0.5318 -0.3231
 8118SOL    HW135987   4.509   0.974   8.525  0.0576 -2.7860 -1.1212
 8118SOL    HW235988   4.600   1.010   8.405 -0.7667  0.6059 -1.7146
 8119SOL     OW35989   3.973   2.809   7.000  0.0832 -0.1091 -0.1964
 8119SOL    HW135990   4.027   2.814   7.079 -1.3086 -1.0327  0.8186
 8119SOL    HW235991   3.888   2.788   7.038  1.3086 -1.0997  2.0138
 8120SOL     OW35992   2.338   2.516   2.455 -0.2153  0.2386  0.0446
 8120SOL    HW135993   2.242   2.513   2.459 -0.2575  0.9571 -0.3031
 8120SOL    HW235994   2.354   2.453   2.525  0.2206 -0.3604 -0.6015
 8121SOL     OW35995   3.204   2.045   2.573 -0.1603 -0.0648  0.0933
 8121SOL    HW135996   3.134   1.994   2.532  0.5998  0.7683 -2.2754
 8121SOL    HW235997   3.154   2.062   2.652  3.3344  0.9406  2.0734
 8122SOL     OW35998   2.228   0.031   9.898  0.3387  0.1641  0.6469
 8122SOL    HW135999   2.272   0.023   9.982  0.7068 -1.3773  0.3114
 8122SOL    HW236000   2.193   4.680   9.891  1.2384 -0.2265  1.1379
 8123SOL     OW36001   2.937   1.619   5.787  0.5632  0.0677 -0.2078
 8123SOL    HW136002   2.850   1.651   5.763  0.5263  1.0161  1.1970
 8123SOL    HW236003   2.912   1.543   5.839 -1.2749  0.1640 -0.9303
 8124SOL     OW36004   3.346   3.365  12.933 -0.4511  0.3650  0.0096
 8124SOL    HW136005   3.313   3.321  13.010 -2.0114  0.1359 -0.8003
 8124SOL    HW236006   3.331   3.300  12.865 -0.4319 -0.0777  0.4325
 8125SOL     OW36007   2.644   3.182  17.136 -0.1956 -0.2007  0.0531
 8125SOL    HW136008   2.592   3.227  17.069 -0.7563 -2.1696 -0.8327
 8125SOL    HW236009   2.625   3.093  17.104 -0.2304 -1.0083  2.3335
 8126SOL     OW36010   1.685   1.008   3.527  0.0442  0.4114 -0.1748
 8126SOL    HW136011   1.713   1.098   3.510 -1.7384  1.3105  1.6809
 8126SOL    HW236012   1.710   0.984   3.616 -0.9744 -1.7030 -0.4459
 8127SOL     OW36013   1.670   1.553  15.004 -0.4830 -0.6298 -0.3718
 8127SOL    HW136014   1.758   1.590  14.997 -1.3652  1.9083  2.0875
 8127SOL    HW236015   1.690   1.480  14.946  1.1849  0.4971 -1.2048
 8128SOL     OW36016   2.771   4.107   2.774  0.6070 -0.0176 -0.3551
 8128SOL    HW136017   2.770   4.017   2.806  0.3191  0.2479  0.3769
 8128SOL    HW236018   2.682   4.123   2.744  0.8292 -2.0218 -2.0525
 8129SOL     OW36019   4.375   1.771  16.546  0.3845  0.4456  0.1113
 8129SOL    HW136020   4.452   1.730  16.584  0.6865  1.5074  0.6635
 8129SOL    HW236021   4.369   1.735  16.458 -0.4482  3.0582 -0.9139
 8130SOL     OW36022   1.191   2.873   4.843  0.1750  0.9592  0.2923
 8130SOL    HW136023   1.270   2.856   4.894  0.2370  0.1536 -0.0755
 8130SOL    HW236024   1.236   2.925   4.776 -1.4352  2.4200  0.3527
 8131SOL     OW36025   3.559   0.794  16.735  0.0946 -0.2655  0.1042
 8131SOL    HW136026   3.626   0.854  16.766  0.9277 -0.4577 -1.3017
 8131SOL    HW236027   3.546   0.827  16.646  2.7170  0.4315 -0.0043
 8132SOL     OW36028   0.132   1.680   4.974  0.4865  0.9468  0.2121
 8132SOL    HW136029   0.110   1.652   5.063 -0.4757 -0.3372 -0.4318
 8132SOL    HW236030   0.227   1.689   4.980  0.7328 -0.9153 -0.8553
 8133SOL     OW36031   2.577   1.462   4.851 -0.3734  0.0151  0.2410
 8133SOL    HW136032   2.538   1.544   4.881  0.6504  1.0312 -1.2051
 8133SOL    HW236033   2.661   1.489   4.812  0.5318 -0.0197  2.1927
 8134SOL     OW36034   0.932   1.448   7.846 -0.3272  0.0482 -0.6089
 8134SOL    HW136035   0.917   1.528   7.796 -0.7998  0.4183  0.1286
 8134SOL    HW236036   1.017   1.463   7.887  0.1622 -0.7762 -1.3238
 8135SOL     OW36037   2.873   4.434   3.805  0.2486 -0.7427 -0.3101
 8135SOL    HW136038   2.895   4.454   3.714 -2.6197  0.8931 -0.6174
 8135SOL    HW236039   2.905   4.344   3.810 -0.1913 -1.0430 -2.6229
 8136SOL     OW36040   1.535   0.146  15.207 -0.5032 -0.3192  0.3770
 8136SOL    HW136041   1.510   0.076  15.147  1.0050  0.4939 -1.1944
 8136SOL    HW236042   1.562   0.106  15.290 -1.4836  1.6640  1.6309
 8137SOL     OW36043   1.663   1.127   6.075  0.3497 -0.1043 -0.5047
 8137SOL    HW136044   1.645   1.061   6.142 -3.4054 -0.0915 -1.5096
 8137SOL    HW236045   1.608   1.108   5.999 -0.3463  3.1243 -0.8131
 8138SOL     OW36046   2.670   2.244  10.330 -0.1767 -0.3584 -0.2966
 8138SOL    HW136047   2.576   2.244  10.314 -0.0518  1.5539 -1.0688
 8138SOL    HW236048   2.679   2.160  10.286 -1.5753 -0.2378 -0.8074
 8139SOL     OW36049   1.085   2.260   3.799 -0.1887 -0.6796  0.0961
 8139SOL    HW136050   1.005   2.286   3.753 -0.9355 -1.0349  1.2008
 8139SOL    HW236051   1.111   2.336   3.850 -0.0308 -0.5718 -0.1429
 8140SOL     OW36052   3.983   0.681   2.501 -0.0725  0.3338 -0.1683
 8140SOL    HW136053   3.926   0.705   2.428 -0.4574 -0.3570 -0.0905
 8140SOL    HW236054   3.919   0.641   2.559  0.2061  0.3484  0.1515
 8141SOL     OW36055   1.468   2.890   9.421  0.4045  0.7565 -0.0954
 8141SOL    HW136056   1.419   2.819   9.379  1.5503 -1.9017  3.0989
 8141SOL    HW236057   1.510   2.925   9.342  1.1170  2.7558  1.1720
 8142SOL     OW36058   4.273   2.110   4.280 -0.0633 -0.1000 -0.2351
 8142SOL    HW136059   4.365   2.136   4.284 -0.6979  1.9303  1.2111
 8142SOL    HW236060   4.246   2.137   4.193 -1.3733 -0.7989 -0.0574
 8143SOL     OW36061   2.392   3.275  13.611  0.3280 -0.7812  0.7066
 8143SOL    HW136062   2.358   3.243  13.694  1.0030 -1.6916  0.6352
 8143SOL    HW236063   2.429   3.192  13.580  1.5218 -0.5110  1.3900
 8144SOL     OW36064   2.858   3.231   9.793 -0.1177  0.1840 -0.0356
 8144SOL    HW136065   2.858   3.162   9.726  2.6670 -1.2112  1.4141
 8144SOL    HW236066   2.941   3.222   9.839  1.5886  1.6480 -2.8279
 8145SOL     OW36067   1.209   4.450  15.486  0.0635  0.0902  0.2574
 8145SOL    HW136068   1.175   4.408  15.565  2.1964 -1.0223  0.6002
 8145SOL    HW236069   1.127   4.461  15.438  0.1841 -1.8928 -0.4249
 8146SOL     OW36070   3.260   3.679   8.114 -0.3503 -0.1891 -0.2485
 8146SOL    HW136071   3.191   3.723   8.163 -1.1316 -1.3846 -0.2627
 8146SOL    HW236072   3.294   3.754   8.066 -0.6039  0.6702  0.9216
 8147SOL     OW36073   1.136   2.671   8.219  0.2562 -0.3527 -0.1158
 8147SOL    HW136074   1.066   2.622   8.262  0.1399  0.2850  0.4182
 8147SOL    HW236075   1.208   2.609   8.233  1.3841  0.8847 -0.3964
 8148SOL     OW36076   2.816   2.122  14.785  0.2762  0.0226  0.1462
 8148SOL    HW136077   2.830   2.102  14.692  0.4351 -3.0266  0.8389
 8148SOL    HW236078   2.903   2.127  14.825  0.5173 -1.9492 -0.1491
 8149SOL     OW36079   1.872   2.192   9.626 -0.2830 -0.2769 -0.1663
 8149SOL    HW136080   1.879   2.096   9.623 -0.8951 -0.3636  1.0796
 8149SOL    HW236081   1.957   2.224   9.595  0.0554 -1.7984 -0.8460
 8150SOL     OW36082   4.255   2.753   0.273  0.1265 -0.1159  0.2186
 8150SOL    HW136083   4.307   2.818   0.320  2.5632 -2.0325  0.1484
 8150SOL    HW236084   4.270   2.676   0.327 -0.1790 -2.2491 -2.7248
 8151SOL     OW36085   3.488   3.583   1.353 -0.1047 -0.1174 -0.1342
 8151SOL    HW136086   3.461   3.508   1.407  0.0058  1.5977  2.2807
 8151SOL    HW236087   3.408   3.630   1.328 -1.0709 -0.6171  1.9993
 8152SOL     OW36088   0.799   3.074   3.449  0.0887 -0.0714 -0.3507
 8152SOL    HW136089   0.721   3.090   3.501 -0.7417 -2.1131 -0.9330
 8152SOL    HW236090   0.864   3.141   3.469 -0.3554 -0.5396  2.6319
 8153SOL     OW36091   3.016   4.470   5.303  0.3713  0.1777 -0.0097
 8153SOL    HW136092   2.932   4.487   5.261  1.0662  0.7225 -1.1996
 8153SOL    HW236093   3.065   4.552   5.299  1.8472 -0.6353  1.0279
 8154SOL     OW36094   0.136   3.352  15.236  0.1568  0.2506  0.3845
 8154SOL    HW136095   0.052   3.393  15.215  0.9631  0.5097 -2.3324
 8154SOL    HW236096   0.183   3.375  15.156 -1.8370  1.9312 -0.2922
 8155SOL     OW36097   0.277   0.970   0.441  0.0228 -0.3397  0.4357
 8155SOL    HW136098   0.333   1.027   0.494  2.4318  0.1588 -2.6170
 8155SOL    HW236099   0.334   0.948   0.367  1.2466  0.2432  1.2157
 8156SOL     OW36100   3.674   0.857   3.748  0.4994 -0.3878  0.6353
 8156SOL    HW136101   3.607   0.851   3.679  0.9460  0.9889  0.0929
 8156SOL    HW236102   3.697   0.764   3.752 -1.4988 -0.9805 -1.5482
 8157SOL     OW36103   2.726   1.426   4.196  0.1015  0.7549  0.2092
 8157SOL    HW136104   2.712   1.413   4.102  0.1977 -0.9658  0.4203
 8157SOL    HW236105   2.785   1.500   4.192 -0.1646  0.9274 -0.5942
 8158SOL     OW36106   4.707   2.387   1.981 -0.0187 -0.2726  0.0837
 8158SOL    HW136107   0.038   2.323   1.995  1.5873  1.7579  1.4380
 8158SOL    HW236108   0.023   2.448   1.930  1.2998 -1.0576  0.5246
 8159SOL     OW36109   1.819   3.132   6.068 -0.2802  0.2336  0.2373
 8159SOL    HW136110   1.837   3.225   6.054  1.5869 -0.1972 -0.1535
 8159SOL    HW236111   1.893   3.123   6.127 -0.2383 -1.2452 -0.0356
 8160SOL     OW36112   2.939   0.342   6.736  0.3224 -0.2641 -0.2309
 8160SOL    HW136113   3.018   0.289   6.725  0.7687  0.7650 -1.9652
 8160SOL    HW236114   2.959   0.425   6.694 -0.0994 -0.0385  0.0192
 8161SOL     OW36115   1.422   2.059   4.817  0.2881 -0.0962  0.1133
 8161SOL    HW136116   1.507   2.028   4.784  0.5987 -0.6082  1.3486
 8161SOL    HW236117   1.412   1.992   4.885  0.4491  1.0476  1.2571
 8162SOL     OW36118   4.243   3.676   4.637  0.1574 -0.3097  0.1827
 8162SOL    HW136119   4.256   3.672   4.542 -0.2395  0.2875  0.1016
 8162SOL    HW236120   4.328   3.638   4.660  0.8348  1.3369  0.4431
 8163SOL     OW36121   4.616   3.019   4.854 -0.1367  0.3851 -0.0800
 8163SOL    HW136122   4.711   3.009   4.847 -0.2870  0.2078 -1.9769
 8163SOL    HW236123   4.593   3.100   4.899  1.4737 -0.3702  2.0975
 8164SOL     OW36124   4.283   4.007  15.586  0.3798 -0.7850  0.2008
 8164SOL    HW136125   4.309   3.973  15.500 -0.5708  0.7502 -0.7039
 8164SOL    HW236126   4.188   4.019  15.583  0.5518  0.4198 -0.6251
 8165SOL     OW36127   1.423   4.508   6.913 -0.2967  0.4647  0.1682
 8165SOL    HW136128   1.356   4.518   6.844 -0.3394 -2.1123 -0.1891
 8165SOL    HW236129   1.482   4.445   6.871 -2.7888 -2.1331  0.5576
 8166SOL     OW36130   2.724   1.555   5.172 -0.1118 -0.3773  0.2163
 8166SOL    HW136131   2.797   1.615   5.187  0.1359 -0.4211 -0.8370
 8166SOL    HW236132   2.681   1.549   5.257 -0.3757  1.4478  0.2271
 8167SOL     OW36133   1.337   0.784  10.707  0.0364  0.1362 -0.0246
 8167SOL    HW136134   1.351   0.800  10.800  0.9455  0.6364 -0.2566
 8167SOL    HW236135   1.425   0.758  10.680  0.6591  2.4071 -0.1312
 8168SOL     OW36136   4.418   3.125  15.750  0.1342  0.4050  0.0581
 8168SOL    HW136137   4.328   3.145  15.721  0.3686  2.4278  0.7445
 8168SOL    HW236138   4.445   3.217  15.749 -1.1725  0.7999  0.5288
 8169SOL     OW36139   1.440   3.368   6.906 -0.3468 -0.2633  0.4328
 8169SOL    HW136140   1.364   3.311   6.923 -0.5374 -0.5008 -1.2713
 8169SOL    HW236141   1.391   3.446   6.880  1.0070  0.1858 -0.7707
 8170SOL     OW36142   1.654   2.222   7.154 -0.3475 -0.1753  0.2363
 8170SOL    HW136143   1.649   2.206   7.249  5.0216  2.4501  0.9823
 8170SOL    HW236144   1.571   2.263   7.131 -0.0271 -0.1146 -0.7846
 8171SOL     OW36145   0.648   2.124  14.993 -0.3752 -0.4589 -0.2744
 8171SOL    HW136146   0.739   2.134  14.965 -0.7316  2.8746 -0.2095
 8171SOL    HW236147   0.634   2.031  15.011  0.3158 -0.1101  2.1039
 8172SOL     OW36148   3.873   3.260   6.167  0.0872  0.2091 -0.2401
 8172SOL    HW136149   3.920   3.219   6.095  1.3578 -0.4879  0.9821
 8172SOL    HW236150   3.827   3.335   6.128 -1.3104  1.2467  3.3840
 8173SOL     OW36151   1.560   4.483   8.630  0.2962 -0.2917  0.2849
 8173SOL    HW136152   1.593   4.518   8.714 -1.6838 -0.2834  1.0488
 8173SOL    HW236153   1.606   4.401   8.611 -0.8938 -0.3798 -2.0803
 8174SOL     OW36154   2.308   4.212  11.330  0.1219 -0.3250  0.1027
 8174SOL    HW136155   2.328   4.257  11.412 -0.9935 -2.1040  1.3683
 8174SOL    HW236156   2.395   4.222  11.291  0.7328 -1.8152  1.0677
 8175SOL     OW36157   2.216   3.857   3.507  0.0955 -0.0725  0.0995
 8175SOL    HW136158   2.248   3.774   3.542  1.2402  0.3398  0.0234
 8175SOL    HW236159   2.219   3.898   3.593  0.1638  1.9536 -0.8677
 8176SOL     OW36160   2.299   1.803   3.419  0.3635 -0.2497  0.5320
 8176SOL    HW136161   2.334   1.817   3.332 -0.8913 -3.2016 -0.4362
 8176SOL    HW236162   2.371   1.750   3.454  1.7005  0.1144 -1.7087
 8177SOL     OW36163   1.752   3.375   3.046 -0.3113 -0.1309 -0.3358
 8177SOL    HW136164   1.732   3.365   3.139 -3.3183  1.9325 -0.7349
 8177SOL    HW236165   1.670   3.417   3.018 -0.8704  0.3332  2.0308
 8178SOL     OW36166   3.773   3.785  17.272  0.3378 -0.0549 -0.4360
 8178SOL    HW136167   3.855   3.736  17.264  0.5968  0.4796 -1.0177
 8178SOL    HW236168   3.715   3.739  17.212  0.4749 -2.3859  1.2319
 8179SOL     OW36169   0.510   0.854   2.038 -0.2213 -0.4389 -0.4359
 8179SOL    HW136170   0.415   0.861   2.046 -0.3723 -1.1947 -1.4929
 8179SOL    HW236171   0.518   0.809   1.953  0.5221 -0.2525 -0.4618
 8180SOL     OW36172   3.499   2.084   4.312 -0.5753  0.1161  0.0107
 8180SOL    HW136173   3.433   2.097   4.245 -0.0653 -0.5795 -0.6290
 8180SOL    HW236174   3.474   2.137   4.388  0.3049 -1.0823  1.1541
 8181SOL     OW36175   3.493   4.127   2.158  0.0665  0.6287 -0.3536
 8181SOL    HW136176   3.536   4.179   2.225 -0.7798  1.9973 -0.8877
 8181SOL    HW236177   3.552   4.052   2.162  0.6507  1.0831 -0.5043
 8182SOL     OW36178   0.760   2.297  12.813  0.0838  0.2590 -0.4900
 8182SOL    HW136179   0.758   2.368  12.877  3.2250 -1.2384  1.2794
 8182SOL    HW236180   0.700   2.314  12.740  1.9275  1.1050 -1.8079
 8183SOL     OW36181   3.177   0.499   2.764 -0.3524  0.3504 -0.1542
 8183SOL    HW136182   3.238   0.492   2.837 -0.4187 -0.4995 -0.1808
 8183SOL    HW236183   3.224   0.543   2.694  0.5869 -1.5549 -0.7189
 8184SOL     OW36184   2.040   2.488  14.072  0.3145  0.0324 -0.0233
 8184SOL    HW136185   2.015   2.573  14.036  1.4399  0.0300 -0.8441
 8184SOL    HW236186   1.967   2.468  14.131  0.8524  1.8482  1.2466
 8185SOL     OW36187   0.544   3.219  14.390 -0.1563  0.1205 -0.5403
 8185SOL    HW136188   0.486   3.294  14.378 -1.0021 -0.1446  1.8998
 8185SOL    HW236189   0.630   3.254  14.369  1.3099 -3.4381 -0.4520
 8186SOL     OW36190   4.058   0.863  15.171  0.2758  0.0626  0.0692
 8186SOL    HW136191   3.997   0.799  15.134  2.5154 -0.2427 -3.1002
 8186SOL    HW236192   4.121   0.793  15.187  0.9470  0.2634 -1.6965
 8187SOL     OW36193   3.682   2.128   5.711 -0.2303 -0.1120 -0.0083
 8187SOL    HW136194   3.624   2.053   5.697 -0.5330 -0.0533  0.9745
 8187SOL    HW236195   3.638   2.165   5.787  3.5344 -0.4322  2.3328
 8188SOL     OW36196   2.755   4.194   9.930 -0.4793  0.1142  0.4477
 8188SOL    HW136197   2.711   4.110   9.946  1.2149 -0.9652 -0.6259
 8188SOL    HW236198   2.687   4.257   9.905 -0.9285  0.1322  1.6895
 8189SOL     OW36199   2.778   1.424   2.653 -0.3880 -0.3298  0.1037
 8189SOL    HW136200   2.752   1.502   2.603 -1.1552 -0.7507 -0.1445
 8189SOL    HW236201   2.697   1.408   2.701  0.3266 -1.8306  0.8024
 8190SOL     OW36202   1.886   0.671  11.022  0.0980 -0.1437  0.7400
 8190SOL    HW136203   1.837   0.653  11.102 -0.6612  2.1616  0.7966
 8190SOL    HW236204   1.972   0.701  11.053  1.4975 -1.8660 -1.5170
 8191SOL     OW36205   2.693   0.474   3.718  0.2975  0.1262  0.2025
 8191SOL    HW136206   2.750   0.464   3.641 -1.1031 -2.4299 -0.4754
 8191SOL    HW236207   2.706   0.568   3.734 -2.4406  0.7837 -1.3798
 8192SOL     OW36208   0.070   0.728  15.854 -0.1144  0.3600  0.4617
 8192SOL    HW136209   0.078   0.816  15.890 -2.6392 -0.0088  1.9475
 8192SOL    HW236210   0.081   0.667  15.927 -1.4656  2.7376  2.6473
 8193SOL     OW36211   4.580   2.055   8.889  0.5600  0.5049 -0.1580
 8193SOL    HW136212   4.532   2.106   8.955 -0.3910  0.1838 -0.5973
 8193SOL    HW236213   4.554   1.964   8.905 -0.4751  0.9940  0.9853
 8194SOL     OW36214   0.362   2.434   1.207 -0.1198  0.6155 -0.3394
 8194SOL    HW136215   0.331   2.358   1.257  2.6905  0.4042  1.0849
 8194SOL    HW236216   0.294   2.494   1.235 -0.6706 -0.0982 -0.1343
 8195SOL     OW36217   4.126   1.451   5.282 -0.0357  1.0083  0.7938
 8195SOL    HW136218   4.165   1.426   5.366 -0.9532 -0.1420  0.8917
 8195SOL    HW236219   4.160   1.539   5.270  2.7164 -0.6043 -3.3696
 8196SOL     OW36220   3.096   3.274   6.823 -0.6772 -0.1074 -0.5460
 8196SOL    HW136221   3.055   3.188   6.832 -2.1641  0.4380 -2.2741
 8196SOL    HW236222   3.038   3.317   6.760 -1.5928  1.1145  1.0958
 8197SOL     OW36223   4.092   2.401  17.340 -0.1644 -0.3557 -0.0270
 8197SOL    HW136224   4.101   2.326  17.399 -0.6368  0.5480  1.1843
 8197SOL    HW236225   4.001   2.393  17.312  0.6461 -1.5846 -2.4081
 8198SOL     OW36226   0.531   4.203   5.238 -0.0039  0.1959 -0.2910
 8198SOL    HW136227   0.526   4.259   5.316  2.3936  0.2485 -0.1636
 8198SOL    HW236228   0.495   4.261   5.171  0.2943 -2.7827 -3.0439
 8199SOL     OW36229   4.650   3.448   2.105  0.4526 -0.4532 -0.2772
 8199SOL    HW136230   4.694   3.495   2.034 -0.5634 -1.5873 -1.6885
 8199SOL    HW236231   4.685   3.358   2.105 -0.6921 -0.8948  1.6661
 8200SOL     OW36232   3.084   2.659  12.358 -0.2704  0.2398 -0.2405
 8200SOL    HW136233   3.030   2.606  12.417 -0.2195 -0.6448 -0.9917
 8200SOL    HW236234   3.011   2.700  12.311 -0.6859  0.2673  0.4288
 8201SOL     OW36235   1.004   3.179   0.793 -0.2753  0.2692 -0.2612
 8201SOL    HW136236   1.059   3.101   0.783 -1.1138 -0.4146  0.4821
 8201SOL    HW236237   1.072   3.244   0.806  0.4807 -0.7887  1.1057
 8202SOL     OW36238   2.750   0.769   2.301  0.0001  0.1205  0.1918
 8202SOL    HW136239   2.678   0.706   2.302  1.3210 -1.4005 -2.5498
 8202SOL    HW236240   2.699   0.843   2.269  0.4623  0.7613  0.9129
 8203SOL     OW36241   4.388   1.058   0.599 -0.5808 -0.0292 -0.0246
 8203SOL    HW136242   4.380   1.152   0.584  0.0725  0.1675  0.8852
 8203SOL    HW236243   4.316   1.027   0.652  0.6521 -0.3821  1.4352
 8204SOL     OW36244   2.340   1.216   9.465  0.4094 -0.0307 -0.1768
 8204SOL    HW136245   2.285   1.139   9.478  1.3150 -1.0230 -2.3016
 8204SOL    HW236246   2.323   1.270   9.543 -0.6711 -2.7858  1.5027
 8205SOL     OW36247   3.105   2.128   4.761 -0.3747 -0.2924 -0.6537
 8205SOL    HW136248   3.133   2.207   4.806 -0.0519 -0.2018 -1.0163
 8205SOL    HW236249   3.188   2.081   4.774 -0.7818 -0.2999  1.9530
 8206SOL     OW36250   1.979   1.971   5.041 -0.3183  0.0281 -0.1782
 8206SOL    HW136251   2.073   1.966   5.060 -0.2336 -0.6589 -0.7764
 8206SOL    HW236252   1.943   1.910   5.106 -1.6779  1.9206  0.8531
 8207SOL     OW36253   1.205   2.217   4.859 -0.3219 -0.0924 -0.1129
 8207SOL    HW136254   1.271   2.149   4.846  0.6636  0.6266  1.1681
 8207SOL    HW236255   1.194   2.229   4.954 -0.4069  0.3323 -0.1778
 8208SOL     OW36256   2.718   1.967   3.916 -0.4484 -0.0469 -0.2854
 8208SOL    HW136257   2.767   1.987   3.996  2.5520 -1.1095 -1.9057
 8208SOL    HW236258   2.630   1.945   3.948 -0.8456  1.1730 -0.5244
 8209SOL     OW36259   3.956   1.765   3.768 -0.6513 -0.2922 -0.3385
 8209SOL    HW136260   3.990   1.741   3.682 -3.8114  2.2256 -2.3147
 8209SOL    HW236261   3.874   1.808   3.744  0.0791  1.1092 -0.3566
 8210SOL     OW36262   1.497   0.912   0.067 -0.2172 -0.6741 -0.2232
 8210SOL    HW136263   1.451   0.856   0.130  1.3025  1.2681  2.6192
 8210SOL    HW236264   1.434   0.982   0.050 -1.3220 -1.2500  1.4536
 8211SOL     OW36265   1.010   3.439   8.389  0.1305 -0.6926  0.3208
 8211SOL    HW136266   1.032   3.521   8.433 -1.3543 -0.9192  1.4628
 8211SOL    HW236267   0.916   3.436   8.407 -0.0649  1.0223 -0.3621
 8212SOL     OW36268   3.090   1.569   5.166  0.5380  0.1021 -0.0312
 8212SOL    HW136269   3.177   1.542   5.137  1.1733  0.1784  1.7909
 8212SOL    HW236270   3.049   1.482   5.156 -0.5555  0.6799 -0.5638
 8213SOL     OW36271   3.913   1.171  13.414  0.1017 -0.1803 -0.2293
 8213SOL    HW136272   3.869   1.200  13.494  3.1218  2.8389  0.3106
 8213SOL    HW236273   3.866   1.226  13.352 -0.6495  1.0283  1.4189
 8214SOL     OW36274   0.265   1.206   9.260 -0.0994 -0.4628 -0.6344
 8214SOL    HW136275   0.322   1.214   9.336 -0.0670 -1.1482 -0.5911
 8214SOL    HW236276   0.289   1.279   9.202 -1.6172  1.3055  0.9745
 8215SOL     OW36277   2.940   3.871  17.438 -0.3156  0.3212 -0.2443
 8215SOL    HW136278   3.022   3.918  17.454  0.8366 -1.1506 -1.9241
 8215SOL    HW236279   2.883   3.930  17.387  0.7137  0.5034 -1.1840
 8216SOL     OW36280   0.852   2.176   5.282  0.3020 -0.0975 -0.2211
 8216SOL    HW136281   0.872   2.176   5.188  1.2995 -0.7988  0.0050
 8216SOL    HW236282   0.877   2.089   5.310  0.5470  0.4227  1.1427
 8217SOL     OW36283   0.171   2.015   7.134  0.3027  0.8090  0.7893
 8217SOL    HW136284   0.101   1.984   7.076 -0.2073  2.3803  0.5486
 8217SOL    HW236285   0.188   1.929   7.174  0.9038  0.3575 -0.4581
 8218SOL     OW36286   2.273   0.917  11.724 -0.1401 -0.0594  0.0469
 8218SOL    HW136287   2.204   0.920  11.792 -1.7673 -2.0261 -1.5238
 8218SOL    HW236288   2.219   0.891  11.650  1.7634  1.3138 -1.7932
 8219SOL     OW36289   2.675   0.378   6.780  0.0826  0.6048 -0.0888
 8219SOL    HW136290   2.761   0.338   6.764 -0.4221 -0.4700 -0.1446
 8219SOL    HW236291   2.699   0.449   6.839  0.0639 -2.2712  3.3959
 8220SOL     OW36292   3.361   0.330   3.905 -0.0805  0.1558  0.0724
 8220SOL    HW136293   3.418   0.266   3.948  1.8190  0.6785 -1.6419
 8220SOL    HW236294   3.418   0.394   3.862 -1.6407  0.7117 -1.1500
 8221SOL     OW36295   1.489   0.329  12.171  0.1197 -0.1659  0.0442
 8221SOL    HW136296   1.535   0.320  12.087  0.1128 -1.8292  0.2188
 8221SOL    HW236297   1.536   0.265  12.224 -1.9056 -0.6810  1.1997
 8222SOL     OW36298   3.566   1.932   7.758  0.0993 -0.0343  0.2703
 8222SOL    HW136299   3.495   1.912   7.819  0.0019 -0.5585 -0.0227
 8222SOL    HW236300   3.516   1.993   7.704  0.7736 -1.0110 -1.4461
 8223SOL     OW36301   1.582   1.580   9.236  0.7057 -0.3799  0.5948
 8223SOL    HW136302   1.630   1.577   9.153 -0.5997  1.9131 -0.2249
 8223SOL    HW236303   1.560   1.487   9.238 -0.3495 -0.1799 -1.7547
 8224SOL     OW36304   4.088   0.190  17.100  0.5346  0.3494  0.5730
 8224SOL    HW136305   4.115   0.110  17.055 -3.0227 -0.1925 -0.5948
 8224SOL    HW236306   4.006   0.156  17.135  1.9639 -2.8542  0.7639
 8225SOL     OW36307   2.531   3.975   2.271 -0.1751 -0.4843 -0.1057
 8225SOL    HW136308   2.520   3.950   2.363  1.5652 -1.1900 -0.0869
 8225SOL    HW236309   2.616   3.940   2.245 -0.0839 -2.2900  2.6350
 8226SOL     OW36310   1.717   0.891  13.934  0.0850  0.5210  0.0869
 8226SOL    HW136311   1.782   0.833  13.973  0.2526 -0.0763 -1.0811
 8226SOL    HW236312   1.642   0.877  13.992  1.1468 -1.3479  1.0032
 8227SOL     OW36313   0.010   1.614   9.271 -0.5411  0.3833  0.0236
 8227SOL    HW136314   0.028   1.527   9.307  0.1317  0.8603  0.8496
 8227SOL    HW236315   4.665   1.604   9.225 -0.3083 -1.5899  0.0494
 8228SOL     OW36316   3.262   4.509   5.070 -0.2900  0.2101 -0.3930
 8228SOL    HW136317   3.289   4.538   5.156  0.7387  0.7431 -0.9008
 8228SOL    HW236318   3.215   4.427   5.088 -0.4886  0.6527  1.0381
 8229SOL     OW36319   2.526   4.145   7.885  0.5703  0.0368  0.9014
 8229SOL    HW136320   2.596   4.208   7.873  0.6195 -0.2483 -0.3453
 8229SOL    HW236321   2.563   4.085   7.950 -2.6654  1.7003  4.2768
 8230SOL     OW36322   1.749   4.123   4.613  0.1811 -0.3154  0.1250
 8230SOL    HW136323   1.837   4.089   4.604 -0.2263 -1.4120  0.2935
 8230SOL    HW236324   1.737   4.200   4.558 -0.2160  0.1843  0.9120
 8231SOL     OW36325   4.025   3.658  16.584  0.2840  0.1290  0.5659
 8231SOL    HW136326   4.088   3.614  16.641  0.8215 -0.4842 -0.4960
 8231SOL    HW236327   4.047   3.748  16.608  1.3182 -0.5061  2.0313
 8232SOL     OW36328   1.193   0.664  11.210 -0.3302 -0.1949  0.3106
 8232SOL    HW136329   1.201   0.707  11.295  1.4907  1.7272 -0.8372
 8232SOL    HW236330   1.199   0.736  11.147 -2.5874 -0.7200 -0.5173
 8233SOL     OW36331   0.506   0.923  15.538 -0.0437  0.2136  0.0144
 8233SOL    HW136332   0.567   0.982  15.583  0.0514 -0.2896  0.5354
 8233SOL    HW236333   0.438   0.914  15.605  0.6443  4.4658  1.2873
 8234SOL     OW36334   1.591   2.082   2.102 -0.0429 -0.3254 -0.0272
 8234SOL    HW136335   1.523   2.020   2.128 -1.0366  0.8445  0.1590
 8234SOL    HW236336   1.615   2.128   2.183  1.1479 -1.1132  0.0566
 8235SOL     OW36337   0.544   4.099   1.348 -0.1111  0.7439 -0.0191
 8235SOL    HW136338   0.480   4.169   1.358 -1.1297 -0.4431  1.6710
 8235SOL    HW236339   0.503   4.045   1.280 -1.8375  1.4468  0.4669
 8236SOL     OW36340   1.711   1.961  15.222 -0.0289  0.6141  0.0141
 8236SOL    HW136341   1.669   2.045  15.202 -0.9725 -0.3536 -2.1006
 8236SOL    HW236342   1.640   1.902  15.247  0.5359 -0.1182 -0.1250
 8237SOL     OW36343   2.958   4.535  15.633 -0.7880  0.0418 -0.0001
 8237SOL    HW136344   3.016   4.592  15.683 -1.7508  2.7973 -2.0430
 8237SOL    HW236345   2.935   4.467  15.696  0.6081 -1.6799 -1.3436
 8238SOL     OW36346   3.085   0.647   5.796  0.2520 -0.0365  0.4943
 8238SOL    HW136347   3.122   0.641   5.884  1.4914 -1.3462 -0.1111
 8238SOL    HW236348   3.154   0.694   5.748 -0.3838  2.7014  2.2800
 8239SOL     OW36349   2.687   2.352  14.771  0.3763 -0.3132 -0.0043
 8239SOL    HW136350   2.739   2.274  14.753  0.0191 -0.4545 -0.3992
 8239SOL    HW236351   2.760   2.394  14.817  2.8998 -1.6962 -2.7693
 8240SOL     OW36352   2.304   0.229   3.998  0.0213  0.3971  0.2951
 8240SOL    HW136353   2.399   0.232   3.983  0.0732 -2.2201  0.2261
 8240SOL    HW236354   2.278   0.313   3.959  1.6695 -0.3845 -2.5098
 8241SOL     OW36355   1.567   3.135   4.206  0.8499 -0.2550  0.4631
 8241SOL    HW136356   1.483   3.095   4.182 -0.0793  0.8627  1.8437
 8241SOL    HW236357   1.608   3.142   4.120 -0.5023 -2.8368 -0.3986
 8242SOL     OW36358   1.281   1.285   2.093 -0.3599 -0.6241 -0.0944
 8242SOL    HW136359   1.214   1.296   2.159 -0.6519  0.3960 -0.5727
 8242SOL    HW236360   1.247   1.216   2.034 -0.8195 -0.5635  0.1026
 8243SOL     OW36361   2.681   4.291   5.889  0.3097  0.8081  0.2568
 8243SOL    HW136362   2.747   4.356   5.865 -0.0528  0.7612 -0.8772
 8243SOL    HW236363   2.727   4.229   5.946  0.0958 -0.1887 -0.6548
 8244SOL     OW36364   0.430   2.881   4.346 -0.4785  0.3268 -0.9234
 8244SOL    HW136365   0.523   2.893   4.365 -0.3106  0.1926 -1.6355
 8244SOL    HW236366   0.403   2.915   4.431 -1.1597  0.0691 -1.0370
 8245SOL     OW36367   3.901   1.240   6.655  0.0046  0.1969  0.0260
 8245SOL    HW136368   3.933   1.171   6.596  1.7415  1.0174 -0.0017
 8245SOL    HW236369   3.877   1.305   6.589 -0.5479 -1.6661 -1.5798
 8246SOL     OW36370   4.599   3.921   1.201 -0.0034 -0.3286 -0.2519
 8246SOL    HW136371   4.660   3.850   1.223  1.7033  0.5756 -2.0973
 8246SOL    HW236372   4.541   3.926   1.277 -0.3290  1.4870 -0.6248
 8247SOL     OW36373   0.760   2.216   0.535 -0.2490 -0.4055  0.0596
 8247SOL    HW136374   0.774   2.121   0.542  0.9279 -0.3655 -1.6696
 8247SOL    HW236375   0.817   2.240   0.608  1.7329 -2.1823 -0.9147
 8248SOL     OW36376   2.656   2.825   2.889 -0.0190 -0.0380 -0.8749
 8248SOL    HW136377   2.742   2.786   2.901  0.4934  1.8762  1.6774
 8248SOL    HW236378   2.624   2.773   2.815 -3.8226  0.9132  0.1077
 8249SOL     OW36379   4.103   1.698  17.066  0.3823  0.1821 -0.6679
 8249SOL    HW136380   4.107   1.631  16.999 -1.0965 -1.2346  0.6652
 8249SOL    HW236381   4.012   1.725  17.081  0.2555  0.3175 -1.6917
 8250SOL     OW36382   0.408   0.444  13.888 -1.1770 -0.4546 -0.0353
 8250SOL    HW136383   0.340   0.379  13.868 -0.5282 -0.9037 -0.7968
 8250SOL    HW236384   0.345   0.506  13.925 -1.3673 -0.6026 -0.1090
 8251SOL     OW36385   2.504   2.433   8.431  0.4199  0.0580  0.0069
 8251SOL    HW136386   2.596   2.460   8.425  0.8312 -1.8648 -2.1248
 8251SOL    HW236387   2.464   2.495   8.492  0.5880 -0.8847  1.0778
 8252SOL     OW36388   0.219   2.079   3.813 -0.4420  0.3312 -0.5208
 8252SOL    HW136389   0.212   2.057   3.720  0.4204  0.2674 -0.5740
 8252SOL    HW236390   0.179   2.005   3.858  0.5241 -0.3752 -0.7917
 8253SOL     OW36391   1.260   1.055   0.094  0.5390 -0.3168 -0.1337
 8253SOL    HW136392   1.287   1.071   0.184  0.7915 -0.0084 -0.2635
 8253SOL    HW236393   1.165   1.062   0.106  0.6567  0.2835  0.4638
 8254SOL     OW36394   4.433   1.759   4.323  0.1323 -0.2754 -0.4648
 8254SOL    HW136395   4.469   1.847   4.315  0.8190 -0.5804 -0.7853
 8254SOL    HW236396   4.434   1.742   4.229 -1.2322  1.7489 -0.8329
 8255SOL     OW36397   1.138   0.761   7.210  0.4212  0.6094  0.0306
 8255SOL    HW136398   1.223   0.774   7.251  0.4567 -1.3034  0.5357
 8255SOL    HW236399   1.084   0.753   7.288 -0.5175  0.0673 -0.6710
 8256SOL     OW36400   3.140   1.293   5.095  0.0728 -0.1025 -0.0609
 8256SOL    HW136401   3.049   1.263   5.087  0.2458 -1.0794  1.7247
 8256SOL    HW236402   3.187   1.218   5.131  4.4699  1.3297 -2.8028
 8257SOL     OW36403   3.370   1.350   4.190  0.3120 -0.1656  0.1866
 8257SOL    HW136404   3.302   1.332   4.125 -0.3565 -0.2748  0.9154
 8257SOL    HW236405   3.338   1.430   4.230 -0.7962 -0.7389  0.4550
 8258SOL     OW36406   2.619   0.647  14.555  0.5440  0.2944 -0.4588
 8258SOL    HW136407   2.655   0.563  14.582 -0.6481 -0.4302 -1.1658
 8258SOL    HW236408   2.572   0.672  14.635  2.7998  0.4984  0.8138
 8259SOL     OW36409   2.038   0.096   6.638  0.4414 -0.0425  0.1013
 8259SOL    HW136410   1.980   0.049   6.698  3.0813  0.7435  3.2551
 8259SOL    HW236411   2.112   0.036   6.634  0.2923 -0.1889 -0.5048
 8260SOL     OW36412   1.007   0.951  17.268 -0.6331 -0.3806  0.0025
 8260SOL    HW136413   0.980   1.001  17.191  0.2095 -1.9562 -1.3040
 8260SOL    HW236414   0.927   0.963  17.320 -0.0389 -0.9562  1.0366
 8261SOL     OW36415   4.378   1.034   7.222  0.5116 -0.4426  0.8584
 8261SOL    HW136416   4.288   1.069   7.218  0.0159 -1.6792  1.3373
 8261SOL    HW236417   4.412   1.070   7.140 -0.0740 -1.2201  0.2674
 8262SOL     OW36418   1.688   1.759   8.282  0.1248  0.2597  0.2625
 8262SOL    HW136419   1.612   1.712   8.248  1.5458 -1.4700 -0.5185
 8262SOL    HW236420   1.706   1.691   8.347 -0.6843 -0.3665 -0.1752
 8263SOL     OW36421   2.040   2.375   8.664 -0.6805 -0.4295 -0.4439
 8263SOL    HW136422   2.058   2.281   8.652  3.2480  0.4101 -1.2208
 8263SOL    HW236423   2.051   2.410   8.575 -0.2643  0.8203  0.1029
 8264SOL     OW36424   0.110   2.298   5.305 -0.6279  0.3052  0.5688
 8264SOL    HW136425   0.098   2.229   5.370 -2.3567 -1.2842 -1.4196
 8264SOL    HW236426   0.141   2.362   5.369 -0.7710  2.1813 -1.2606
 8265SOL     OW36427   0.392   3.401  13.231 -0.9009 -0.0677  0.6887
 8265SOL    HW136428   0.421   3.312  13.213  1.5588  0.7714  0.5213
 8265SOL    HW236429   0.339   3.381  13.308  1.2294 -1.2080  1.8594
 8266SOL     OW36430   3.044   3.242   5.195  0.0795 -0.8476  0.7555
 8266SOL    HW136431   2.961   3.263   5.236 -0.0099 -1.8861  1.1095
 8266SOL    HW236432   3.032   3.150   5.170 -3.5803 -0.2740  0.4757
 8267SOL     OW36433   1.370   0.493  14.219  0.1547  0.6254 -0.0031
 8267SOL    HW136434   1.349   0.529  14.305  0.2017  0.8199 -0.0729
 8267SOL    HW236435   1.290   0.497  14.166 -1.4230  0.5026  2.3428
 8268SOL     OW36436   0.184   0.971   7.787  0.2808  0.0206  0.6382
 8268SOL    HW136437   0.164   0.880   7.810  0.6465 -0.0230  0.7775
 8268SOL    HW236438   0.202   1.009   7.873  1.7201  0.1135  0.2883
 8269SOL     OW36439   0.612   4.606   6.645  0.5593 -0.1404 -0.1999
 8269SOL    HW136440   0.690   4.588   6.697  1.1274  1.8660 -0.3555
 8269SOL    HW236441   0.652   4.661   6.578 -2.0409  0.7244 -1.0410
 8270SOL     OW36442   4.650   3.824   3.266  0.2207  0.1707 -0.8676
 8270SOL    HW136443   4.567   3.787   3.296  0.6660 -1.5045 -1.6816
 8270SOL    HW236444   4.674   3.769   3.191 -0.2690 -0.1900 -0.7672
 8271SOL     OW36445   1.771   1.129   7.547 -0.0580  0.5639  0.1820
 8271SOL    HW136446   1.812   1.049   7.515 -0.3916  0.2915  0.4467
 8271SOL    HW236447   1.803   1.128   7.637  0.7284 -0.2840 -0.1131
 8272SOL     OW36448   3.865   1.374   9.603 -0.6933 -0.1675  0.3312
 8272SOL    HW136449   3.855   1.354   9.696  1.4983 -0.5703  0.4914
 8272SOL    HW236450   3.792   1.330   9.559  1.0249 -1.7050 -0.9909
 8273SOL     OW36451   2.413   0.121   6.135  0.0451  0.0277  0.3719
 8273SOL    HW136452   2.383   0.031   6.123 -0.0250  0.4130 -2.4268
 8273SOL    HW236453   2.484   0.130   6.071 -3.2493  1.5096 -3.0390
 8274SOL     OW36454   0.829   3.387   7.910  1.0090  0.3000  0.1757
 8274SOL    HW136455   0.912   3.360   7.871  0.2002 -0.0397 -1.3115
 8274SOL    HW236456   0.769   3.323   7.873  2.6502 -0.0702 -1.8333
 8275SOL     OW36457   4.271   4.608   7.014  0.2034 -0.0341 -0.1020
 8275SOL    HW136458   4.283   4.563   7.098 -0.1838 -1.1972 -0.6774
 8275SOL    HW236459   4.326   4.685   7.029 -0.4692  0.6776 -1.2744
 8276SOL     OW36460   3.423   4.593   3.793 -0.3611  0.2042  0.6496
 8276SOL    HW136461   3.467   4.560   3.871 -1.2959 -0.3166  0.9487
 8276SOL    HW236462   3.335   4.562   3.812  0.1051 -2.0173 -0.7336
 8277SOL     OW36463   1.209   0.524   4.899 -0.5742  0.3345  0.8670
 8277SOL    HW136464   1.183   0.456   4.836  0.8576  1.7868 -1.2602
 8277SOL    HW236465   1.297   0.493   4.920 -0.0719  0.4028 -1.1129
 8278SOL     OW36466   1.994   4.577   3.640 -0.0198 -0.1960 -0.4174
 8278SOL    HW136467   1.911   4.624   3.645 -0.0463 -0.2310 -0.5485
 8278SOL    HW236468   1.981   4.494   3.686  1.9621 -0.0466  0.4346
 8279SOL     OW36469   1.466   4.627   5.046 -0.4044 -0.2586 -0.0185
 8279SOL    HW136470   1.441   4.718   5.063  3.0299  1.0313 -1.9623
 8279SOL    HW236471   1.408   4.571   5.098  0.1313 -0.3463  0.4884
 8280SOL     OW36472   2.539   0.871   7.072  0.5555 -0.0598  0.4878
 8280SOL    HW136473   2.614   0.855   7.130  1.5298 -1.1724 -1.0777
 8280SOL    HW236474   2.474   0.883   7.141  1.7982 -1.8575  1.9668
 8281SOL     OW36475   0.297   4.180   6.919  0.5454  0.2597 -0.1522
 8281SOL    HW136476   0.246   4.184   6.838  0.3623  2.2994  0.0634
 8281SOL    HW236477   0.339   4.266   6.918 -1.6460  1.3317  1.1699
 8282SOL     OW36478   4.714   1.970   6.943  0.7445 -0.0046 -0.3047
 8282SOL    HW136479   4.674   1.883   6.954  0.4340  0.2367  0.4751
 8282SOL    HW236480   4.735   1.957   6.850 -0.7966  1.8294 -0.9007
 8283SOL     OW36481   1.366   4.478   9.803  0.0318 -0.4704  0.0602
 8283SOL    HW136482   1.341   4.498   9.893  2.7724  0.3810  0.6302
 8283SOL    HW236483   1.281   4.452   9.769 -0.6807  1.9175  0.0467
 8284SOL     OW36484   3.500   3.212   4.701 -0.0431 -0.4282  0.8799
 8284SOL    HW136485   3.488   3.201   4.607 -1.0119  1.3123  0.7903
 8284SOL    HW236486   3.595   3.220   4.710  0.0967  0.6355 -1.7566
 8285SOL     OW36487   0.974   2.622   7.522 -0.7761 -0.1687 -0.0586
 8285SOL    HW136488   1.030   2.698   7.506 -0.5028 -0.1968  0.7805
 8285SOL    HW236489   1.047   2.560   7.520 -0.6853 -0.0000 -1.8523
 8286SOL     OW36490   0.936   0.005   9.972 -0.3343  0.1868  0.2261
 8286SOL    HW136491   0.959   4.678  10.038 -1.4129  1.0169  1.4141
 8286SOL    HW236492   0.903   4.688   9.901  1.4889  0.0087 -0.4905
 8287SOL     OW36493   3.531   0.663   0.640  0.2119  0.7754  0.1013
 8287SOL    HW136494   3.620   0.690   0.619 -0.2026  2.3208  0.2630
 8287SOL    HW236495   3.542   0.569   0.626 -1.9111  0.5405 -0.1113
 8288SOL     OW36496   0.367   1.841  17.540  0.0320 -0.2287  0.1277
 8288SOL    HW136497   0.385   1.934  17.558 -2.2498  0.4129 -0.8533
 8288SOL    HW236498   0.432   1.833  17.471 -0.3929 -1.8072 -0.0707
 8289SOL     OW36499   1.604   3.494   7.655 -0.4902  0.3797  0.0537
 8289SOL    HW136500   1.610   3.489   7.560 -0.4497 -0.2048  0.0891
 8289SOL    HW236501   1.697   3.485   7.672 -0.5474 -0.3993 -0.0644
 8290SOL     OW36502   0.538   0.877   7.757 -0.2842  0.1042  0.2571
 8290SOL    HW136503   0.478   0.947   7.784 -0.1309 -0.7483  2.8825
 8290SOL    HW236504   0.548   0.838   7.844 -0.0756  1.4746  0.8445
 8291SOL     OW36505   3.134   2.880   0.982 -0.3850  0.3851  0.3424
 8291SOL    HW136506   3.127   2.822   1.057 -0.8203  1.2664  0.9861
 8291SOL    HW236507   3.064   2.943   0.999 -0.0910  0.7319  0.2884
 8292SOL     OW36508   2.051   4.262   3.427 -0.0617  0.2624  0.6435
 8292SOL    HW136509   2.111   4.333   3.449 -0.0816  0.1297  1.1501
 8292SOL    HW236510   2.070   4.188   3.486 -2.1253 -0.2965  0.6158
 8293SOL     OW36511   0.537   3.676   0.370  0.3579 -0.4221 -0.4724
 8293SOL    HW136512   0.618   3.645   0.412  1.2745  2.3388 -0.2015
 8293SOL    HW236513   0.566   3.675   0.279  0.9233 -0.9570 -0.2866
 8294SOL     OW36514   4.300   3.090   2.164  0.6029  0.0036 -0.1279
 8294SOL    HW136515   4.209   3.100   2.190  0.5630 -1.5271  0.2836
 8294SOL    HW236516   4.337   3.141   2.237  0.1331  0.7805 -0.4383
 8295SOL     OW36517   3.946   3.422   3.275  0.1609  0.2882  0.3310
 8295SOL    HW136518   3.968   3.512   3.300  0.8961  1.1777 -3.6176
 8295SOL    HW236519   3.991   3.409   3.192  0.8631 -0.1996  0.7869
 8296SOL     OW36520   1.552   2.689   2.618 -0.6205 -0.4257  0.0566
 8296SOL    HW136521   1.596   2.603   2.616 -1.1909 -0.7044 -0.7537
 8296SOL    HW236522   1.477   2.660   2.669 -1.3217 -1.2198 -1.4106
 8297SOL     OW36523   4.125   2.926  16.507 -0.0083 -0.3729  0.4765
 8297SOL    HW136524   4.094   3.007  16.467  0.2744  0.2786  1.5790
 8297SOL    HW236525   4.207   2.910  16.460 -0.0385  1.4060 -0.1846
 8298SOL     OW36526   0.399   1.415   8.104 -0.3700  0.1392 -0.9236
 8298SOL    HW136527   0.424   1.323   8.110  0.2536  0.4453  1.2551
 8298SOL    HW236528   0.319   1.410   8.157  0.4140 -2.8312 -0.0540
 8299SOL     OW36529   1.029   3.189  17.528 -0.2817 -0.3558  0.1630
 8299SOL    HW136530   1.025   3.254  17.598  2.7143 -1.6132  1.4710
 8299SOL    HW236531   0.971   3.232  17.464 -1.5013 -0.9103  0.8938
 8300SOL     OW36532   1.756   4.694   0.911 -0.5559  0.5491  0.6514
 8300SOL    HW136533   1.790   4.611   0.879 -0.6847  1.5728 -2.0759
 8300SOL    HW236534   1.812   4.710   0.987 -0.2480  0.4707  0.4376
 8301SOL     OW36535   0.360   1.825   6.765  0.8727 -0.0813  0.4595
 8301SOL    HW136536   0.285   1.804   6.710  1.9899 -0.1766 -1.0332
 8301SOL    HW236537   0.361   1.920   6.753  3.4492 -0.1932 -0.2280
 8302SOL     OW36538   4.031   3.336   3.556 -0.0041  0.3862 -0.2271
 8302SOL    HW136539   3.976   3.373   3.626  1.4255 -0.0718  1.1395
 8302SOL    HW236540   4.029   3.407   3.492 -0.4732  0.5286 -0.0603
 8303SOL     OW36541   2.658   4.405   3.052  0.3153 -0.2764 -0.3903
 8303SOL    HW136542   2.674   4.480   3.108  0.0917  0.0521 -0.7621
 8303SOL    HW236543   2.707   4.427   2.973  0.9975 -0.1946  0.0665
 8304SOL     OW36544   1.728   3.196   7.386  0.1917 -0.1053  0.2839
 8304SOL    HW136545   1.763   3.145   7.313 -1.5019 -0.2661 -0.4306
 8304SOL    HW236546   1.791   3.265   7.402  0.0319  0.0507  0.2484
 8305SOL     OW36547   2.890   2.099   7.864  0.2955 -0.4330  0.2506
 8305SOL    HW136548   2.890   2.008   7.893  4.7398 -0.9486 -1.3435
 8305SOL    HW236549   2.981   2.113   7.836 -0.1701  4.7462  1.2308
 8306SOL     OW36550   3.569   1.872   4.872  0.7613 -0.1281 -0.2930
 8306SOL    HW136551   3.607   1.899   4.789 -1.5346 -0.7275 -1.5128
 8306SOL    HW236552   3.571   1.957   4.916 -1.7601 -1.3289  2.1712
 8307SOL     OW36553   0.866   2.120  17.681  0.3250 -0.1877  0.1450
 8307SOL    HW136554   0.917   2.042  17.658 -2.0556 -1.2396 -1.4679
 8307SOL    HW236555   0.929   2.174  17.730 -1.4877  2.4946 -0.4934
 8308SOL     OW36556   4.722   2.182   7.723  0.4825 -0.1030 -0.2486
 8308SOL    HW136557   4.683   2.095   7.710  0.3982  0.0810 -1.1931
 8308SOL    HW236558   0.058   2.171   7.663 -0.5386 -3.1832 -0.9633
 8309SOL     OW36559   0.112   0.764   0.505  0.1860  0.4649 -0.0879
 8309SOL    HW136560   0.032   0.814   0.518 -0.1362  0.2005 -1.0744
 8309SOL    HW236561   0.156   0.833   0.455  1.1798 -1.4897 -1.8912
 8310SOL     OW36562   1.192   0.862   6.485 -0.1844  0.0237  0.2563
 8310SOL    HW136563   1.267   0.896   6.436  0.2975 -0.2349  0.8169
 8310SOL    HW236564   1.235   0.838   6.567  1.8604  1.6378 -0.3466
 8311SOL     OW36565   2.449   2.639   1.216 -0.6997 -0.1162  0.1465
 8311SOL    HW136566   2.453   2.676   1.304  3.6092 -0.0998 -0.0183
 8311SOL    HW236567   2.541   2.653   1.191 -0.6311  1.4397  1.3225
 8312SOL     OW36568   1.579   4.252  11.705 -0.4099 -0.0713  0.3919
 8312SOL    HW136569   1.484   4.242  11.698 -0.3925 -0.4922  0.7732
 8312SOL    HW236570   1.591   4.346  11.713  0.2656 -0.1434  0.1643
 8313SOL     OW36571   1.682   2.721   2.974 -0.4570  0.0515  0.2067
 8313SOL    HW136572   1.752   2.689   3.030  1.8576  0.7928 -2.3212
 8313SOL    HW236573   1.732   2.723   2.893 -1.2230  0.4556 -0.2565
 8314SOL     OW36574   3.117   2.420   6.453  0.2355 -0.5010 -0.1517
 8314SOL    HW136575   3.068   2.340   6.434  1.5142 -1.1175 -0.8571
 8314SOL    HW236576   3.152   2.441   6.366  0.9824  1.0964  0.5234
 8315SOL     OW36577   2.715   0.948  12.864  0.7390 -0.5234 -0.0783
 8315SOL    HW136578   2.715   0.982  12.953  0.6931 -0.2660 -0.1775
 8315SOL    HW236579   2.622   0.942  12.841  0.9041  0.9207 -1.1451
 8316SOL     OW36580   1.977   2.119  15.190 -0.3867 -0.4539  0.2172
 8316SOL    HW136581   1.890   2.095  15.159 -0.6543 -0.7918  1.2540
 8316SOL    HW236582   1.988   2.202  15.143 -2.6698  0.1370  0.7340
 8317SOL     OW36583   1.675   0.088   0.135 -0.0383 -0.2723  0.3407
 8317SOL    HW136584   1.718   0.026   0.075  0.1451  1.1099 -0.9532
 8317SOL    HW236585   1.616   0.111   0.063  0.7001 -3.5573 -1.3096
 8318SOL     OW36586   2.526   0.370   3.896 -0.1309 -0.5472  0.5361
 8318SOL    HW136587   2.517   0.317   3.817 -1.0118  0.9752 -0.3723
 8318SOL    HW236588   2.588   0.434   3.861 -0.2311 -0.3737  0.6739
 8319SOL     OW36589   0.221   2.468   4.992 -0.2966  0.2012 -0.3401
 8319SOL    HW136590   0.150   2.508   4.943 -0.2128 -0.3620 -0.9223
 8319SOL    HW236591   0.170   2.408   5.047 -0.5136 -0.7164 -1.5384
 8320SOL     OW36592   3.569   0.720  12.177  0.4382  0.2724 -0.2399
 8320SOL    HW136593   3.577   0.777  12.254  1.3848 -1.1402  0.6914
 8320SOL    HW236594   3.536   0.640  12.217 -0.1946  0.3388 -0.6267
 8321SOL     OW36595   2.703   0.193   4.689 -0.0091 -0.1121 -0.1211
 8321SOL    HW136596   2.794   0.212   4.666  0.2282 -0.4285  0.5745
 8321SOL    HW236597   2.659   0.278   4.696  0.5615  0.0137  2.0313
 8322SOL     OW36598   1.678   0.927  16.446  0.0954 -0.4702 -0.2256
 8322SOL    HW136599   1.704   1.019  16.438 -0.6470  0.0521  3.5650
 8322SOL    HW236600   1.728   0.891  16.519 -0.9852  0.8110  1.1504
 8323SOL     OW36601   2.410   3.432  17.669  0.0003 -0.1749 -0.1368
 8323SOL    HW136602   2.434   3.340  17.680 -0.9864 -0.3154  0.8173
 8323SOL    HW236603   2.492   3.480  17.679  0.2383 -0.3927 -1.0246
 8324SOL     OW36604   2.657   4.708  16.538  0.1861  0.6073 -0.1338
 8324SOL    HW136605   2.720   4.635  16.544 -1.6918 -0.9085  1.2508
 8324SOL    HW236606   2.672   4.738  16.449 -2.7128  0.3741 -0.6951
 8325SOL     OW36607   4.562   1.497   5.122 -0.2545  0.6386  0.2526
 8325SOL    HW136608   4.524   1.424   5.171  1.7231 -1.1498 -0.8636
 8325SOL    HW236609   4.493   1.561   5.104 -2.2450 -1.4255  0.4639
 8326SOL     OW36610   2.548   1.178  16.788 -0.0163 -0.1577 -0.0278
 8326SOL    HW136611   2.478   1.114  16.770  0.6690 -1.0902  0.6275
 8326SOL    HW236612   2.597   1.178  16.706 -0.8796 -0.5265 -0.5441
 8327SOL     OW36613   0.133   2.527   5.786 -0.2153  0.0800  0.0144
 8327SOL    HW136614   0.208   2.477   5.817 -0.8752 -0.9519 -0.0603
 8327SOL    HW236615   0.129   2.608   5.836 -2.9638 -0.0164 -0.0468
 8328SOL     OW36616   4.174   1.706   5.258 -0.1530 -0.2659 -0.4707
 8328SOL    HW136617   4.137   1.731   5.342  0.2413 -2.3828  0.3498
 8328SOL    HW236618   4.115   1.747   5.194 -1.9577  1.2663  2.1881
 8329SOL     OW36619   0.094   3.562   1.898  0.5284  0.1344 -0.0225
 8329SOL    HW136620   0.123   3.653   1.902 -1.6437  0.8717 -1.5025
 8329SOL    HW236621   0.008   3.568   1.858  0.6001  1.3662  0.0172
 8330SOL     OW36622   1.273   3.493   5.858 -0.0333 -0.2973  0.1610
 8330SOL    HW136623   1.319   3.422   5.814 -1.1998 -0.8841 -0.1240
 8330SOL    HW236624   1.214   3.523   5.789 -0.4730 -1.0542  0.2083
 8331SOL     OW36625   1.582   0.554   8.731 -0.1992 -0.2286  0.8075
 8331SOL    HW136626   1.531   0.618   8.682 -2.1414 -1.0928  1.7032
 8331SOL    HW236627   1.524   0.516   8.797 -2.1094  2.6084  0.7344
 8332SOL     OW36628   1.095   0.115   4.584  0.0981 -0.2023  0.3047
 8332SOL    HW136629   1.129   0.072   4.506  0.0806 -0.8776  0.6631
 8332SOL    HW236630   1.156   0.087   4.652  1.1189 -0.9436 -0.9186
 8333SOL     OW36631   3.602   1.403  15.551  0.1970 -0.1334 -0.4170
 8333SOL    HW136632   3.596   1.488  15.594  1.2507  0.4458 -1.4134
 8333SOL    HW236633   3.591   1.428  15.459  1.6568  1.1468 -0.2441
 8334SOL     OW36634   0.251   2.840   8.692 -0.0196 -0.4526 -0.1331
 8334SOL    HW136635   0.283   2.755   8.722 -0.1363 -0.5710 -0.3431
 8334SOL    HW236636   0.295   2.897   8.756 -0.6303  0.6728 -0.7171
 8335SOL     OW36637   2.460   0.666   6.082 -0.5320 -0.7179  0.4735
 8335SOL    HW136638   2.551   0.695   6.072 -0.9589  0.0891 -1.1155
 8335SOL    HW236639   2.448   0.653   6.176  2.0445  2.7186  1.3088
 8336SOL     OW36640   4.700   2.138  12.528  0.1240 -0.1663  0.1433
 8336SOL    HW136641   0.020   2.099  12.463  0.5070  0.4046  0.1381
 8336SOL    HW236642   0.032   2.181  12.577 -0.6137 -1.8823  2.6573
 8337SOL     OW36643   2.983   2.971  13.934 -0.4599 -0.0922  0.9319
 8337SOL    HW136644   2.946   2.918  13.864  0.3056  0.5465  0.0402
 8337SOL    HW236645   2.910   3.026  13.963  0.5465 -0.0140  3.3678
 8338SOL     OW36646   0.130   4.614   4.193 -0.6672 -0.3268  0.6130
 8338SOL    HW136647   0.207   4.578   4.238 -0.4068 -0.5599 -0.0292
 8338SOL    HW236648   0.102   4.543   4.136  0.9231 -0.7605  0.3689
 8339SOL     OW36649   3.588   3.097  14.206 -0.6829  0.7949  0.1656
 8339SOL    HW136650   3.610   3.011  14.170  1.1815  2.0734 -1.7885
 8339SOL    HW236651   3.502   3.117  14.168 -1.3322  1.2925  1.9048
 8340SOL     OW36652   1.245   1.743  17.630  0.2846 -0.4942  0.3798
 8340SOL    HW136653   1.300   1.779  17.700 -0.1886  0.5467  0.2277
 8340SOL    HW236654   1.208   1.827  17.601  0.1796 -1.6998 -2.9122
 8341SOL     OW36655   1.168   0.505  17.355  0.4905 -0.3135  0.5409
 8341SOL    HW136656   1.144   0.592  17.389  1.2788 -0.1474  0.6670
 8341SOL    HW236657   1.247   0.530  17.308 -0.0851  1.4813  0.5175
 8342SOL     OW36658   1.367   2.799   8.961  0.9672 -0.2428 -0.5030
 8342SOL    HW136659   1.408   2.881   8.990  0.6594 -0.5504  0.7961
 8342SOL    HW236660   1.402   2.794   8.872  1.1661  1.1618 -0.5004
 8343SOL     OW36661   1.928   3.384   6.000 -0.0525  0.0201 -0.5516
 8343SOL    HW136662   2.019   3.368   6.023 -0.0804 -0.6008 -0.8718
 8343SOL    HW236663   1.916   3.458   6.060 -0.3306 -2.2208  2.1570
 8344SOL     OW36664   1.771   1.577   0.752  0.5588 -0.3652  0.4711
 8344SOL    HW136665   1.681   1.573   0.720  0.9234 -0.4858 -0.5361
 8344SOL    HW236666   1.817   1.587   0.668 -2.8046  2.2921 -1.0250
 8345SOL     OW36667   0.045   0.057  11.223  0.1104 -0.1979  0.3475
 8345SOL    HW136668   0.036   0.149  11.246 -0.3954 -0.3708  0.8368
 8345SOL    HW236669   0.109   0.065  11.152 -0.3937  0.0879 -0.0740
 8346SOL     OW36670   0.491   1.687   4.662  0.0854  0.6408  0.3422
 8346SOL    HW136671   0.489   1.779   4.636 -1.6926  0.9509  1.5801
 8346SOL    HW236672   0.458   1.642   4.584 -0.2621  0.5814  0.5198
 8347SOL     OW36673   0.145   4.179   4.531  0.3467  0.5666  0.1232
 8347SOL    HW136674   0.143   4.203   4.438 -3.3365  1.1315  0.3752
 8347SOL    HW236675   0.057   4.152   4.557  0.6223 -1.0744 -0.5986
 8348SOL     OW36676   2.858   0.839   5.185  0.2675  0.1386  0.0480
 8348SOL    HW136677   2.861   0.821   5.091 -1.2899  0.0940  0.0104
 8348SOL    HW236678   2.771   0.805   5.207 -0.1225  1.0512 -0.0950
 8349SOL     OW36679   3.804   0.232  16.640  0.6613  0.3124  0.2387
 8349SOL    HW136680   3.881   0.244  16.696 -0.0939 -2.3313  1.8670
 8349SOL    HW236681   3.752   0.310  16.656  0.0510  0.1224 -0.8643
 8350SOL     OW36682   3.861   3.339  15.664 -0.0679  0.5735  0.4934
 8350SOL    HW136683   3.805   3.315  15.738 -1.0048  0.7918 -0.1446
 8350SOL    HW236684   3.848   3.254  15.622 -2.0289  0.7157  0.8275
 8351SOL     OW36685   4.319   3.872   0.371  0.0934  0.3436  0.0123
 8351SOL    HW136686   4.227   3.853   0.350 -0.0056 -0.3557  1.0916
 8351SOL    HW236687   4.350   3.933   0.304 -0.2542  0.3894 -0.1068
 8352SOL     OW36688   4.326   2.799   3.982  1.1270 -0.1256  0.2352
 8352SOL    HW136689   4.332   2.887   3.944 -0.5254 -0.4598 -0.7700
 8352SOL    HW236690   4.415   2.764   3.971  1.0283 -0.4379  0.4438
 8353SOL     OW36691   3.895   0.624   5.862  0.2116 -0.1814 -0.4625
 8353SOL    HW136692   3.903   0.581   5.947  2.8565  0.2137 -0.5157
 8353SOL    HW236693   3.910   0.716   5.886  1.5884 -0.9385  1.4803
 8354SOL     OW36694   2.669   0.253  16.221  0.1519  0.7387 -0.0989
 8354SOL    HW136695   2.581   0.232  16.251 -1.3903  1.7283 -3.9969
 8354SOL    HW236696   2.734   0.193  16.257 -1.9623 -0.2430  2.1114
 8355SOL     OW36697   2.996   2.710   3.492  0.4398 -0.1548  0.4736
 8355SOL    HW136698   2.957   2.732   3.577  0.1984  1.4463 -0.0353
 8355SOL    HW236699   2.998   2.789   3.437  1.1846 -1.2933 -1.1119
 8356SOL     OW36700   3.371   1.672   1.927  0.1561  0.0446  0.0825
 8356SOL    HW136701   3.304   1.604   1.923  0.5575 -0.3124 -0.4915
 8356SOL    HW236702   3.310   1.746   1.923  2.0486  1.4929 -1.9258
 8357SOL     OW36703   2.300   0.415   4.491  0.0987 -0.2130 -0.1332
 8357SOL    HW136704   2.329   0.331   4.526 -1.7042 -0.1045  1.5895
 8357SOL    HW236705   2.362   0.419   4.418  0.1988 -1.5182 -0.1146
 8358SOL     OW36706   2.545   4.403   0.962 -0.3108 -0.2250  0.4027
 8358SOL    HW136707   2.477   4.378   0.899  0.7560 -1.3120 -0.3153
 8358SOL    HW236708   2.507   4.372   1.044  0.5189 -1.0054  0.4963
 8359SOL     OW36709   1.544   0.146   5.532  0.1085 -0.3288  0.6785
 8359SOL    HW136710   1.577   0.068   5.576 -2.3121 -1.7494 -0.0219
 8359SOL    HW236711   1.511   0.201   5.603 -3.0250 -0.3191 -0.7815
 8360SOL     OW36712   0.868   4.269   8.774 -0.2151  0.3643 -0.6961
 8360SOL    HW136713   0.797   4.223   8.729 -0.3608  0.8018 -0.9139
 8360SOL    HW236714   0.945   4.260   8.716  1.0531 -0.2682  1.0908
 8361SOL     OW36715   0.074   0.624   3.018 -0.1722  0.3351 -0.5999
 8361SOL    HW136716   0.118   0.561   3.075  0.4534  0.6075 -0.7811
 8361SOL    HW236717   4.721   0.612   3.044  0.1433 -1.2461 -0.2106
 8362SOL     OW36718   2.169   3.760  17.539 -0.6553 -0.6497 -0.4268
 8362SOL    HW136719   2.107   3.714  17.595  0.7987 -0.7411  1.0948
 8362SOL    HW236720   2.202   3.689  17.484  1.8361  0.7299 -0.7046
 8363SOL     OW36721   1.180   2.013  17.574 -0.2328  0.0445  0.0809
 8363SOL    HW136722   1.237   2.090  17.574  2.3039 -1.8127 -1.8306
 8363SOL    HW236723   1.127   2.018  17.494  1.4371  0.8472 -0.9632
 8364SOL     OW36724   1.240   2.329   3.216  0.3997 -0.1764  0.1141
 8364SOL    HW136725   1.320   2.294   3.177 -0.2782  0.7218 -2.0893
 8364SOL    HW236726   1.271   2.350   3.304 -0.7897 -0.0831  0.5110
 8365SOL     OW36727   3.395   1.934  16.999 -0.3523 -0.3851 -0.3159
 8365SOL    HW136728   3.313   1.985  16.996  1.2319  2.3160  1.9601
 8365SOL    HW236729   3.387   1.865  16.934  0.2152 -0.6693 -0.0772
 8366SOL     OW36730   1.337   4.591  15.753 -0.9370  0.2802 -0.0838
 8366SOL    HW136731   1.389   4.549  15.685  0.7986 -0.8774  1.9613
 8366SOL    HW236732   1.262   4.532  15.764 -0.5090 -0.3411 -0.4765
 8367SOL     OW36733   0.593   0.204   2.098  0.6330  0.2941 -0.0024
 8367SOL    HW136734   0.550   0.194   2.183 -0.2291 -1.3212 -0.6216
 8367SOL    HW236735   0.610   0.112   2.079 -1.6649  0.0236 -0.7892
 8368SOL     OW36736   0.648   1.559   4.844 -0.1052 -0.7033 -0.2025
 8368SOL    HW136737   0.592   1.574   4.768  0.2973 -2.5636 -0.8736
 8368SOL    HW236738   0.622   1.468   4.859 -0.2312 -1.1973 -3.3978
 8369SOL     OW36739   2.501   2.314   7.546  0.4683 -0.2275  0.6688
 8369SOL    HW136740   2.457   2.289   7.464  2.2837  2.3852 -1.1171
 8369SOL    HW236741   2.555   2.237   7.563  0.1884 -0.3413  1.0436
 8370SOL     OW36742   3.918   1.227   9.011 -0.2600  0.1693  0.2452
 8370SOL    HW136743   3.925   1.322   9.004  0.0549  0.0883 -0.5033
 8370SOL    HW236744   4.008   1.200   9.028  0.0310  1.5385  0.8646
 8371SOL     OW36745   2.383   0.668   2.538 -1.0668 -0.2660 -0.2687
 8371SOL    HW136746   2.401   0.760   2.558 -1.2656 -0.6517  1.6048
 8371SOL    HW236747   2.412   0.672   2.446 -0.1316  2.4809  0.1206
 8372SOL     OW36748   4.140   1.100   8.500  0.0285 -0.5224  0.6055
 8372SOL    HW136749   4.153   1.040   8.573 -0.7414 -0.0090  1.1623
 8372SOL    HW236750   4.098   1.054   8.428  2.8487  1.6074 -2.4213
 8373SOL     OW36751   4.128   2.451   1.667  0.2185  0.3794  0.3779
 8373SOL    HW136752   4.163   2.540   1.659  1.6755 -0.2657 -0.3665
 8373SOL    HW236753   4.210   2.402   1.669 -0.1768 -0.3424 -1.5680
 8374SOL     OW36754   0.102   4.373   0.300  0.2355 -0.2943 -0.0643
 8374SOL    HW136755   0.118   4.466   0.284 -1.0907  0.3399  2.2862
 8374SOL    HW236756   0.071   4.375   0.391  0.1310  1.0660 -0.1213
 8375SOL     OW36757   2.663   0.994   8.597  0.2831  0.5723  0.2129
 8375SOL    HW136758   2.610   0.990   8.517  2.0170 -1.2189 -0.8275
 8375SOL    HW236759   2.639   0.917   8.648 -0.1675  0.3473 -0.3465
 8376SOL     OW36760   0.494   2.666   1.113  0.9690  0.3809 -0.4534
 8376SOL    HW136761   0.477   2.691   1.022 -0.9498  1.2539  0.1262
 8376SOL    HW236762   0.436   2.590   1.112  1.4402  0.0191 -0.1217
 8377SOL     OW36763   2.411   3.604  10.626  0.6625  0.6803 -0.2852
 8377SOL    HW136764   2.401   3.566  10.713  1.3758  0.0175 -0.4913
 8377SOL    HW236765   2.448   3.536  10.569 -3.6367  0.1968 -2.5038
 8378SOL     OW36766   0.818   3.431   8.707  0.2357  0.1433 -0.0357
 8378SOL    HW136767   0.789   3.483   8.632  0.5423 -0.7512 -0.7749
 8378SOL    HW236768   0.814   3.504   8.769  2.0165  1.1649 -1.1279
 8379SOL     OW36769   4.455   2.198  17.598 -0.8491 -0.0122 -0.2252
 8379SOL    HW136770   4.402   2.130  17.639 -0.8153 -0.8155 -1.4916
 8379SOL    HW236771   4.422   2.207  17.509 -0.5563  0.2775 -0.3060
 8380SOL     OW36772   0.427   2.439   1.524 -0.1748  0.4561 -0.2081
 8380SOL    HW136773   0.423   2.460   1.617 -0.2699  0.0777 -0.1294
 8380SOL    HW236774   0.430   2.344   1.525 -0.1466  0.4934  3.8094
 8381SOL     OW36775   1.019   0.231   3.679  0.4336  0.0982 -0.3970
 8381SOL    HW136776   1.058   0.283   3.750 -1.8029 -0.4578  1.2216
 8381SOL    HW236777   1.040   0.142   3.709 -2.4171  0.2196  1.8745
 8382SOL     OW36778   3.745   4.298   6.738 -0.3729 -0.3679  0.1256
 8382SOL    HW136779   3.723   4.270   6.827  2.1430 -0.7570  0.6069
 8382SOL    HW236780   3.834   4.265   6.730  0.4812  2.5850 -2.6115
 8383SOL     OW36781   1.109   0.645   5.618 -0.7253  0.0324  0.5664
 8383SOL    HW136782   1.112   0.701   5.695  0.6982  2.4282 -1.2092
 8383SOL    HW236783   1.055   0.703   5.565 -1.7566  0.0623  1.6629
 8384SOL     OW36784   1.404   4.162  13.085  0.4946  0.2083  0.0839
 8384SOL    HW136785   1.322   4.210  13.068  0.6722  0.2645 -0.6370
 8384SOL    HW236786   1.453   4.241  13.106  0.1565  0.4115  0.1235
 8385SOL     OW36787   3.599   4.243  10.261 -0.3546 -0.4727  0.3889
 8385SOL    HW136788   3.536   4.284  10.202  1.5994  2.1695  0.1438
 8385SOL    HW236789   3.653   4.191  10.202 -2.0401 -3.2197  1.2522
 8386SOL     OW36790   1.124   0.384   3.894  0.1741 -0.0236  0.5933
 8386SOL    HW136791   1.193   0.443   3.864 -0.4588  0.6630  0.4678
 8386SOL    HW236792   1.082   0.448   3.952 -1.1634 -0.2944 -0.0814
 8387SOL     OW36793   2.979   2.533   0.481  0.0663 -0.3492 -0.3329
 8387SOL    HW136794   2.992   2.485   0.563  1.6497 -1.2851 -1.1194
 8387SOL    HW236795   3.057   2.515   0.429  0.7467 -0.3333  0.6719
 8388SOL     OW36796   1.117   1.250   3.971 -0.0158 -0.1728  0.1279
 8388SOL    HW136797   1.060   1.270   4.045 -1.0120 -1.7068 -0.2258
 8388SOL    HW236798   1.129   1.342   3.949  0.7704 -0.6446 -1.4420
 8389SOL     OW36799   4.626   4.452  11.482 -0.5718  0.4972  0.3489
 8389SOL    HW136800   4.576   4.407  11.414  1.0843 -1.1260  0.2334
 8389SOL    HW236801   4.700   4.489  11.434  0.1142 -0.4325  0.7014
 8390SOL     OW36802   4.519   2.798   4.712 -0.3633 -0.0009 -0.2102
 8390SOL    HW136803   4.506   2.734   4.782  0.7225 -0.5367 -0.4972
 8390SOL    HW236804   4.570   2.866   4.756  0.7220 -0.2065 -1.1595
 8391SOL     OW36805   3.465   3.899   4.518 -0.7007 -0.0142  0.4109
 8391SOL    HW136806   3.409   3.831   4.556  0.9328 -1.2751  0.5254
 8391SOL    HW236807   3.410   3.928   4.445  2.1158  0.7474 -1.3663
 8392SOL     OW36808   2.086   4.462   4.764 -0.4066 -0.4144  0.3275
 8392SOL    HW136809   2.154   4.528   4.767  0.6410 -1.3910 -2.2652
 8392SOL    HW236810   2.033   4.494   4.837 -1.6483 -0.6155 -0.4867
 8393SOL     OW36811   4.556   2.211   2.859  0.2400  0.5896 -0.3313
 8393SOL    HW136812   4.643   2.223   2.821  1.8578 -0.5331  2.9919
 8393SOL    HW236813   4.568   2.126   2.901 -1.6437  0.7116  0.4449
 8394SOL     OW36814   1.790   2.154   4.434 -0.5691  0.6319  0.2159
 8394SOL    HW136815   1.849   2.141   4.509 -1.2360  1.4385  0.8887
 8394SOL    HW236816   1.829   2.235   4.401  0.2679 -0.2162 -0.8610
 8395SOL     OW36817   0.018   4.168  10.238  0.2044  0.4854  0.0700
 8395SOL    HW136818   0.080   4.108  10.197  0.4711  1.2994 -0.7129
 8395SOL    HW236819   4.675   4.137  10.198  0.8775  1.8458 -2.3131
 8396SOL     OW36820   1.418   2.534   5.358 -0.3747  0.0428  0.2855
 8396SOL    HW136821   1.465   2.596   5.302 -2.5692  1.8795  0.4746
 8396SOL    HW236822   1.333   2.550   5.317  0.7808 -2.8378 -3.2384
 8397SOL     OW36823   3.098   1.833   1.850 -0.4101  0.5027 -0.7733
 8397SOL    HW136824   3.038   1.787   1.909  1.8239  0.0643  1.1483
 8397SOL    HW236825   3.044   1.866   1.778 -0.0945  1.1630 -0.7038
 8398SOL     OW36826   3.057   1.240   8.300 -0.0811  0.3732 -0.0724
 8398SOL    HW136827   3.116   1.182   8.347  0.1773  1.7760  1.3497
 8398SOL    HW236828   3.081   1.327   8.332  0.2368  0.7519 -1.3344
 8399SOL     OW36829   2.230   0.355   3.745 -0.0191  0.6918  0.3655
 8399SOL    HW136830   2.240   0.347   3.651  2.0898  1.1720  0.5390
 8399SOL    HW236831   2.267   0.268   3.758  0.5289  1.0688  1.3932
 8400SOL     OW36832   1.049   3.156   2.223  0.7234 -0.1486 -0.1298
 8400SOL    HW136833   1.057   3.092   2.152  1.1171 -0.4007  0.1383
 8400SOL    HW236834   1.058   3.238   2.176 -0.3413  1.2593  2.0858
 8401SOL     OW36835   3.273   0.776   3.877 -0.3871  0.4249  0.1810
 8401SOL    HW136836   3.313   0.715   3.815 -0.9339  0.4215 -0.1727
 8401SOL    HW236837   3.182   0.744   3.881 -0.2219 -0.0121  0.3896
 8402SOL     OW36838   0.681   1.822   3.670  0.1956 -0.0190 -0.1412
 8402SOL    HW136839   0.726   1.742   3.699 -1.5930 -1.4759 -1.3919
 8402SOL    HW236840   0.602   1.813   3.724 -1.7765  1.8700 -2.7554
 8403SOL     OW36841   2.981   3.899   5.154 -0.4794 -0.6920  0.3963
 8403SOL    HW136842   2.890   3.927   5.145 -0.4843 -0.1189  2.2111
 8403SOL    HW236843   2.967   3.805   5.161 -1.0328 -0.6448 -0.1082
 8404SOL     OW36844   2.521   3.413  12.327 -0.1369  0.4537 -0.1017
 8404SOL    HW136845   2.462   3.488  12.323  0.2448  0.7627  0.1074
 8404SOL    HW236846   2.496   3.356  12.255  1.3221 -0.7774  0.3651
 8405SOL     OW36847   3.958   0.513   7.422 -0.3807 -0.0729  0.2830
 8405SOL    HW136848   3.955   0.598   7.379  1.2645  0.2958  0.8626
 8405SOL    HW236849   4.031   0.476   7.372 -0.8032  0.6817 -0.8968
 8406SOL     OW36850   4.650   0.670   6.567 -0.5244 -0.0047 -0.5374
 8406SOL    HW136851   4.661   0.750   6.515  2.4521 -1.3237 -1.9773
 8406SOL    HW236852   4.720   0.624   6.520 -0.2335 -1.0514  0.9218
 8407SOL     OW36853   0.733   0.366   6.252 -0.2767 -0.7157 -0.1687
 8407SOL    HW136854   0.729   0.338   6.344  1.8926  2.0124  0.7812
 8407SOL    HW236855   0.727   0.460   6.268  3.6382 -0.7042  1.3718
 8408SOL     OW36856   0.623   3.658   0.893  0.2255  0.0902 -0.0599
 8408SOL    HW136857   0.588   3.668   0.982  1.4048  3.7184  0.0242
 8408SOL    HW236858   0.540   3.676   0.850  0.4467 -1.7646 -1.2162
 8409SOL     OW36859   0.885   1.270   2.548 -0.5108  0.2024  0.6209
 8409SOL    HW136860   0.938   1.197   2.514 -1.8183 -0.0645 -0.8775
 8409SOL    HW236861   0.797   1.233   2.534 -0.8546  1.3508 -0.2115
 8410SOL     OW36862   2.023   2.652   8.333  0.5147 -0.1572 -0.0816
 8410SOL    HW136863   1.952   2.594   8.304  1.3790 -1.6359  0.7509
 8410SOL    HW236864   2.084   2.657   8.260  0.6163 -0.2786 -0.0055
 8411SOL     OW36865   3.892   0.137  17.262  0.2030  0.1578  0.5662
 8411SOL    HW136866   3.809   0.185  17.267 -0.6326 -1.1186 -1.0626
 8411SOL    HW236867   3.892   0.081  17.340 -0.1604  0.5631  0.8597
 8412SOL     OW36868   4.118   3.446   3.064  0.9012  0.3199  0.0289
 8412SOL    HW136869   4.087   3.400   2.986 -1.2442  1.2720  0.3258
 8412SOL    HW236870   4.172   3.509   3.018  1.1276  1.2378  1.5467
 8413SOL     OW36871   4.157   2.745  11.480 -0.3934 -0.2682 -0.2653
 8413SOL    HW136872   4.157   2.657  11.516 -1.7445 -0.4530 -0.7277
 8413SOL    HW236873   4.221   2.778  11.543 -0.9225  1.9859 -0.9080
 8414SOL     OW36874   2.758   3.363   3.329  0.4148 -0.1137 -0.3278
 8414SOL    HW136875   2.828   3.420   3.295  0.1141 -0.1905 -1.0797
 8414SOL    HW236876   2.703   3.348   3.252 -1.3321  0.0841  0.9073
 8415SOL     OW36877   3.361   4.454  17.439  0.1891 -0.3755  0.4292
 8415SOL    HW136878   3.388   4.546  17.437  0.0877 -0.3070  3.1865
 8415SOL    HW236879   3.356   4.431  17.346  1.3303  0.0245  0.2640
 8416SOL     OW36880   3.257   2.562   9.049  0.3621 -0.5527  0.1766
 8416SOL    HW136881   3.213   2.485   9.084  0.9664 -1.0247 -0.0883
 8416SOL    HW236882   3.297   2.510   8.978 -0.2621  1.3000 -1.5149
 8417SOL     OW36883   1.383   1.072   5.484 -0.1889  0.1283 -0.1320
 8417SOL    HW136884   1.370   1.165   5.501  0.7878  0.4694 -1.2928
 8417SOL    HW236885   1.358   1.030   5.567  0.7829  2.5583  1.3824
 8418SOL     OW36886   4.694   2.925   5.258 -0.7016 -0.1974 -0.0286
 8418SOL    HW136887   4.609   2.903   5.221 -0.5181 -1.1678  0.1261
 8418SOL    HW236888   4.680   3.000   5.317  1.4533 -0.2767  0.6088
 8419SOL     OW36889   4.439   2.772   1.496 -0.2193  0.5596 -0.0851
 8419SOL    HW136890   4.380   2.718   1.548  0.0022  0.4474  0.0493
 8419SOL    HW236891   4.405   2.859   1.514 -0.3373  0.2611  1.0997
 8420SOL     OW36892   4.262   0.342  12.706  0.1067 -0.8932  0.1053
 8420SOL    HW136893   4.238   0.275  12.770 -1.2125  0.0641  0.6036
 8420SOL    HW236894   4.357   0.338  12.693  0.5004 -0.4034  2.8719
 8421SOL     OW36895   0.777   3.284   3.174  0.5909 -0.5440  0.3653
 8421SOL    HW136896   0.819   3.283   3.261 -1.2347  2.1812  1.2880
 8421SOL    HW236897   0.830   3.354   3.135 -1.0625  1.2559  1.3683
 8422SOL     OW36898   3.140   4.061  11.700  0.0810 -1.0387  0.6969
 8422SOL    HW136899   3.162   4.095  11.787  0.0491 -0.3516  0.4322
 8422SOL    HW236900   3.084   4.127  11.661 -1.2992 -1.7196  1.5433
 8423SOL     OW36901   1.704   3.038  15.359 -0.3354 -0.1935  0.1035
 8423SOL    HW136902   1.758   2.960  15.344 -0.2355 -0.2105  0.5503
 8423SOL    HW236903   1.673   3.035  15.450 -2.1791 -0.2361 -0.5258
 8424SOL     OW36904   2.450   4.261  10.478  0.2512  0.2564  0.4774
 8424SOL    HW136905   2.401   4.198  10.426 -0.6887  1.3194  0.0752
 8424SOL    HW236906   2.383   4.327  10.495 -2.8935 -1.7558 -4.2407
 8425SOL     OW36907   2.097   3.430   4.105 -0.1021  0.2076  0.1406
 8425SOL    HW136908   2.083   3.471   4.020  0.1275  0.7317  0.3537
 8425SOL    HW236909   2.141   3.507   4.142 -1.2538  1.4179 -0.9795
 8426SOL     OW36910   0.146   4.398   1.866 -0.1581 -0.0568 -0.2190
 8426SOL    HW136911   0.078   4.464   1.874 -0.2530 -0.3077  1.1020
 8426SOL    HW236912   0.142   4.339   1.942 -0.1766  3.2291  2.3050
 8427SOL     OW36913   3.507   3.809   5.545  0.2907 -0.1514 -0.0260
 8427SOL    HW136914   3.525   3.729   5.594  0.0281  0.4414  1.0381
 8427SOL    HW236915   3.585   3.815   5.490  0.7811  0.1910  0.6993
 8428SOL     OW36916   4.097   2.577   7.425  0.0988  0.5363  0.0086
 8428SOL    HW136917   4.025   2.544   7.479  0.9603  0.3059  1.0260
 8428SOL    HW236918   4.089   2.511   7.356 -2.6454  2.0294 -1.1084
 8429SOL     OW36919   0.347   3.635   3.506 -0.0668 -0.9571  0.4351
 8429SOL    HW136920   0.312   3.718   3.477  0.2899 -1.4997 -1.5427
 8429SOL    HW236921   0.264   3.591   3.526 -0.3518 -1.3832 -1.7415
 8430SOL     OW36922   3.265   0.662   6.323  0.0796  0.5459 -0.4710
 8430SOL    HW136923   3.234   0.720   6.392  0.4365 -3.1505  2.7651
 8430SOL    HW236924   3.350   0.699   6.300  0.8623 -1.1801 -0.2531
 8431SOL     OW36925   0.221   3.616   2.142  0.3082 -0.5380  0.0364
 8431SOL    HW136926   0.299   3.564   2.125  0.6437  0.2356 -0.7754
 8431SOL    HW236927   0.163   3.587   2.072  0.9990 -1.9840  0.0741
 8432SOL     OW36928   1.491   1.207   2.282  0.0401  0.1316  0.2663
 8432SOL    HW136929   1.408   1.228   2.239 -0.4876 -2.0734  0.2532
 8432SOL    HW236930   1.504   1.286   2.336 -0.2351 -1.4024  2.5748
 8433SOL     OW36931   1.918   4.709   0.383 -0.4569  0.3858  0.6116
 8433SOL    HW136932   1.847   0.034   0.392  1.0561  2.2663 -0.5964
 8433SOL    HW236933   1.929   4.703   0.478  0.1533  0.0816  0.5211
 8434SOL     OW36934   4.610   3.457   5.821 -0.5302 -0.0089 -0.1650
 8434SOL    HW136935   4.696   3.453   5.781 -0.8784 -1.8652 -0.7462
 8434SOL    HW236936   4.569   3.526   5.771 -2.1450 -1.2685 -0.5888
 8435SOL     OW36937   0.423   4.711   1.820 -0.1871 -0.0889  0.4551
 8435SOL    HW136938   0.464   0.060   1.828 -1.3051  0.7827 -3.1699
 8435SOL    HW236939   0.451   4.673   1.903 -0.0642 -1.1046 -0.0470
 8436SOL     OW36940   1.445   4.726   8.194 -0.4045 -0.1424 -0.7761
 8436SOL    HW136941   1.431   4.676   8.114  1.2082 -1.9026  0.0456
 8436SOL    HW236942   1.487   0.069   8.164 -0.0565  0.1977  0.6331
 8437SOL     OW36943   3.180   2.767   2.271 -0.0411  0.2345 -0.1686
 8437SOL    HW136944   3.114   2.832   2.296  1.7384  0.8383  3.0384
 8437SOL    HW236945   3.129   2.689   2.252 -1.6199  1.3270 -0.4130
 8438SOL     OW36946   1.713   3.641   1.093  0.4448  0.2605  0.1203
 8438SOL    HW136947   1.794   3.596   1.071 -0.3278  0.9608 -4.1842
 8438SOL    HW236948   1.738   3.701   1.164  0.1676  1.1575 -0.5458
 8439SOL     OW36949   3.540   1.868   6.836  0.0202 -0.0940  0.0006
 8439SOL    HW136950   3.621   1.827   6.865  1.3820  2.2998 -0.3898
 8439SOL    HW236951   3.574   1.953   6.808 -0.0261 -0.6730 -1.8253
 8440SOL     OW36952   2.282   0.399   7.419 -0.3139  0.4677  0.0288
 8440SOL    HW136953   2.257   0.491   7.432 -0.8134  0.3050  0.2319
 8440SOL    HW236954   2.196   0.364   7.396  0.9617 -1.6472 -1.4994
 8441SOL     OW36955   3.513   2.307   8.076 -0.0514  0.3120 -0.6709
 8441SOL    HW136956   3.558   2.226   8.098  1.1959  1.0341 -0.6014
 8441SOL    HW236957   3.593   2.351   8.048 -1.0887  2.4131 -0.3140
 8442SOL     OW36958   0.436   3.012   2.754  0.2778  0.2740 -0.0456
 8442SOL    HW136959   0.529   3.031   2.760  0.2107  1.1973 -1.6602
 8442SOL    HW236960   0.422   2.940   2.815  1.5700  1.0922  1.2074
 8443SOL     OW36961   4.654   2.935   4.198 -0.1139 -0.1372  0.0579
 8443SOL    HW136962   0.006   2.902   4.208 -0.3307 -0.2778  1.5098
 8443SOL    HW236963   4.628   2.924   4.290  1.4757  1.1118  0.6655
 8444SOL     OW36964   3.731   1.875   6.297  0.0592 -0.5059 -0.9493
 8444SOL    HW136965   3.806   1.832   6.337  0.7064  2.0517  0.5640
 8444SOL    HW236966   3.671   1.860   6.370 -0.0518  0.6034 -0.8132
 8445SOL     OW36967   3.716   3.632  15.575 -0.1503  0.3636  0.1268
 8445SOL    HW136968   3.651   3.667  15.514  2.4531  2.0922 -1.6764
 8445SOL    HW236969   3.711   3.708  15.632  1.9301 -1.9047  3.3021
 8446SOL     OW36970   3.919   4.495   2.029  0.1192  0.1838  0.0907
 8446SOL    HW136971   3.964   4.477   2.112  0.5609 -0.9570 -0.4014
 8446SOL    HW236972   3.841   4.440   2.035  0.5564 -0.5351 -0.9515
 8447SOL     OW36973   0.104   0.204   5.412  0.3069 -0.2000 -0.4593
 8447SOL    HW136974   0.021   0.177   5.372 -1.0118  1.7991  0.9271
 8447SOL    HW236975   0.080   0.277   5.468 -1.7109 -1.2466  0.0561
 8448SOL     OW36976   2.475   2.197   6.435 -0.2067  0.0517 -0.2803
 8448SOL    HW136977   2.457   2.248   6.514 -2.1263 -1.3102  0.1498
 8448SOL    HW236978   2.516   2.262   6.377  0.8576  0.7135  1.2329
 8449SOL     OW36979   1.169   0.569  11.700 -0.0326 -0.5073  0.0991
 8449SOL    HW136980   1.095   0.619  11.667  0.5444 -0.6467 -1.4205
 8449SOL    HW236981   1.127   0.525  11.773 -0.3807  1.1770  0.9137
 8450SOL     OW36982   3.804   0.912   5.781 -0.2851 -0.0119 -0.0625
 8450SOL    HW136983   3.841   0.993   5.816  0.6247  0.0395 -1.1550
 8450SOL    HW236984   3.877   0.874   5.731 -0.0540  2.8352 -1.8812
 8451SOL     OW36985   1.652   3.154   3.923  0.2019 -0.3035 -0.0003
 8451SOL    HW136986   1.612   3.075   3.887 -3.3840  1.5241 -0.0184
 8451SOL    HW236987   1.635   3.213   3.849 -0.2487 -2.0409 -1.2798
 8452SOL     OW36988   0.181   1.846   8.797 -0.3037  0.0793 -0.2225
 8452SOL    HW136989   0.227   1.915   8.845  1.7358 -0.0286 -2.0173
 8452SOL    HW236990   0.153   1.801   8.877 -1.2220  2.1313  0.6156
 8453SOL     OW36991   3.676   2.548   0.760  0.3675 -0.5252  0.1937
 8453SOL    HW136992   3.686   2.621   0.822  0.4350  1.0215 -1.6522
 8453SOL    HW236993   3.696   2.595   0.679 -0.9057  0.5384  0.5018
 8454SOL     OW36994   2.367   3.099   1.783 -0.1342 -0.2330  0.1046
 8454SOL    HW136995   2.425   3.093   1.859 -0.1132  1.6390  0.2306
 8454SOL    HW236996   2.278   3.095   1.819  0.4546  2.5126  1.8850
 8455SOL     OW36997   4.205   4.172   4.722  0.1037  0.0278  0.0467
 8455SOL    HW136998   4.127   4.141   4.767  0.0304 -0.6414 -0.5446
 8455SOL    HW236999   4.226   4.107   4.656  2.2034  1.3192 -0.5716
 8456SOL     OW37000   1.427   4.067  12.473 -0.1679  0.2726  0.4964
 8456SOL    HW137001   1.459   3.987  12.432 -1.0355 -0.2885  0.9117
 8456SOL    HW237002   1.401   4.023  12.554  0.9579 -0.7412  0.2977
 8457SOL     OW37003   4.085   3.013   8.379  0.5332 -0.2123  0.5592
 8457SOL    HW137004   4.019   3.023   8.310  0.2048  1.7786  1.1720
 8457SOL    HW237005   4.141   2.971   8.314 -1.1912 -0.1005 -1.0008
 8458SOL     OW37006   1.009   1.189   4.515  0.1861 -0.2160  0.1580
 8458SOL    HW137007   0.959   1.108   4.526  1.0660 -0.4851  2.2173
 8458SOL    HW237008   0.959   1.246   4.573 -0.2244  0.3722 -0.7810
 8459SOL     OW37009   0.097   1.697   9.780  0.0979 -0.0972  0.1813
 8459SOL    HW137010   0.030   1.641   9.820  0.7057 -0.4887  0.6504
 8459SOL    HW237011   0.137   1.647   9.709 -0.3034  2.3679 -1.7719
 8460SOL     OW37012   4.087   1.732   7.788 -0.6361  0.2577 -0.6870
 8460SOL    HW137013   4.093   1.727   7.883  0.0123  2.0016 -0.6339
 8460SOL    HW237014   4.093   1.827   7.777  0.0166  0.0939 -1.7719
 8461SOL     OW37015   0.613   3.096   5.755  0.1340 -0.2926  0.4265
 8461SOL    HW137016   0.698   3.051   5.758  0.0248 -0.5252 -0.1521
 8461SOL    HW237017   0.551   3.029   5.727  1.3583 -2.2673  2.4209
 8462SOL     OW37018   1.405   4.517   8.396 -0.9755 -0.3870 -0.1629
 8462SOL    HW137019   1.451   4.572   8.333  0.1912  0.4001  1.3976
 8462SOL    HW237020   1.466   4.504   8.468 -0.8403 -0.8071 -0.3488
 8463SOL     OW37021   4.421   4.103   4.912  0.1673 -0.3291 -0.1561
 8463SOL    HW137022   4.451   4.024   4.867  2.3726  0.8028 -0.6873
 8463SOL    HW237023   4.365   4.136   4.841  2.9659  0.1711 -2.1423
 8464SOL     OW37024   1.310   0.058   6.483 -0.5223  0.0041  0.3004
 8464SOL    HW137025   1.382   0.098   6.434 -1.2396  1.2842  0.2960
 8464SOL    HW237026   1.247   0.128   6.466 -0.1001 -0.1461 -1.8749
 8465SOL     OW37027   0.925   4.705   7.851  0.5286  0.4099 -0.4390
 8465SOL    HW137028   1.017   4.726   7.834  0.3817  1.3344 -0.0886
 8465SOL    HW237029   0.931   4.637   7.917 -0.3853  1.0337  0.2926
 8466SOL     OW37030   2.577   1.728   3.441  0.1923  0.1708 -0.0861
 8466SOL    HW137031   2.640   1.764   3.503 -2.2588 -0.8676  3.0019
 8466SOL    HW237032   2.633   1.654   3.417 -0.8412 -0.5448 -0.3241
 8467SOL     OW37033   2.881   1.477   5.460  0.1061 -0.4647  0.5182
 8467SOL    HW137034   2.941   1.512   5.526  0.3889 -2.3718  1.2568
 8467SOL    HW237035   2.945   1.475   5.389  0.2697  0.0329  0.6505
 8468SOL     OW37036   4.692   4.547  12.766  0.0187  0.8200 -0.5572
 8468SOL    HW137037   4.665   4.486  12.835  0.7582  0.6565 -0.4099
 8468SOL    HW237038   4.631   4.531  12.694 -0.0200  1.4203 -0.6548
 8469SOL     OW37039   3.398   1.189  14.951 -0.3049 -0.4840 -0.0235
 8469SOL    HW137040   3.471   1.251  14.947 -2.0031  1.5692  0.3778
 8469SOL    HW237041   3.442   1.114  14.989 -0.2593  0.2352  1.3327
 8470SOL     OW37042   1.676   2.509   2.363  0.0957 -0.0388  0.2128
 8470SOL    HW137043   1.584   2.486   2.357  0.1967 -0.3492 -0.1330
 8470SOL    HW237044   1.702   2.477   2.450  0.6284 -0.3553 -0.0641
 8471SOL     OW37045   0.173   3.354   6.858 -0.2917  0.6097 -0.0575
 8471SOL    HW137046   0.130   3.438   6.841  0.3898  1.0819  0.5524
 8471SOL    HW237047   0.146   3.340   6.949  1.1489  0.3844  0.3278
 8472SOL     OW37048   3.775   4.724   2.140  0.4715 -0.1367 -0.1327
 8472SOL    HW137049   3.816   4.638   2.146 -0.3478 -0.4527  0.9486
 8472SOL    HW237050   3.818   0.031   2.212 -1.9732 -1.0656  1.8995
 8473SOL     OW37051   2.988   4.065  14.474  0.3877 -0.6101  0.2246
 8473SOL    HW137052   2.947   4.144  14.439  0.3510 -1.1969 -1.0634
 8473SOL    HW237053   3.077   4.082  14.444  0.1232  1.0871  0.3882
 8474SOL     OW37054   2.359   3.132  17.061 -0.1316 -0.7937  0.3432
 8474SOL    HW137055   2.278   3.085  17.043  0.8883 -1.6196 -2.1000
 8474SOL    HW237056   2.326   3.192  17.127  1.3800 -0.1593  0.5318
 8475SOL     OW37057   0.022   2.763   7.794 -0.5739 -0.5382  0.0996
 8475SOL    HW137058   4.697   2.709   7.842  0.6018 -1.7108  0.3246
 8475SOL    HW237059   4.727   2.853   7.795  1.5030  0.2353 -1.6369
 8476SOL     OW37060   3.718   2.749   7.145  0.7115  0.3525 -0.1747
 8476SOL    HW137061   3.623   2.758   7.148  0.7711  0.5512  1.4368
 8476SOL    HW237062   3.734   2.657   7.124 -1.0604  0.4556 -1.9181
 8477SOL     OW37063   3.604   2.773   6.830 -0.4632  0.1409  0.6283
 8477SOL    HW137064   3.594   2.682   6.804  1.0003 -0.5390  2.4523
 8477SOL    HW237065   3.553   2.774   6.911  0.3750  1.3722  1.1422
 8478SOL     OW37066   1.998   4.364   3.014  0.6035 -0.0450  0.4435
 8478SOL    HW137067   1.957   4.347   3.099 -3.6188  2.2265 -1.1875
 8478SOL    HW237068   1.949   4.435   2.973 -0.2121  0.0467  1.5639
 8479SOL     OW37069   0.742   0.997   5.069  0.3496 -0.2622  0.1579
 8479SOL    HW137070   0.651   1.025   5.056  1.3499  2.6742 -0.4636
 8479SOL    HW237071   0.789   1.034   4.995 -0.8517  1.0002  0.0208
 8480SOL     OW37072   1.956   0.114   5.528 -0.0580 -0.3126 -0.1621
 8480SOL    HW137073   1.995   0.054   5.591 -0.5825 -1.4418 -0.9160
 8480SOL    HW237074   2.035   0.152   5.487 -0.3756  1.1927  0.6175
 8481SOL     OW37075   2.980   3.903   9.034 -0.1376 -0.3593 -0.3768
 8481SOL    HW137076   2.967   3.827   8.977  1.1290 -0.2915 -0.7585
 8481SOL    HW237077   3.075   3.905   9.031 -0.1536  0.8227  0.1293
 8482SOL     OW37078   3.997   0.932   8.314 -0.2550 -0.3223  0.2272
 8482SOL    HW137079   3.907   0.954   8.339  0.0288 -0.0489  1.0270
 8482SOL    HW237080   3.993   0.984   8.234 -1.0578  1.6444  1.5471
 8483SOL     OW37081   3.222   0.532  16.800 -0.0173 -0.7113 -0.2084
 8483SOL    HW137082   3.133   0.525  16.834  0.6115  2.0123  1.9542
 8483SOL    HW237083   3.222   0.464  16.732 -1.2408 -0.9454  0.0163
 8484SOL     OW37084   2.280   4.048  10.078 -0.3147 -0.1712 -0.0623
 8484SOL    HW137085   2.227   4.113  10.033 -1.7663 -1.5119 -0.3200
 8484SOL    HW237086   2.270   4.071  10.170  1.6047 -0.5922  0.2484
 8485SOL     OW37087   2.403   3.198   0.848  0.2843 -0.9132  0.6248
 8485SOL    HW137088   2.489   3.186   0.889  0.2232  0.9690  1.3355
 8485SOL    HW237089   2.359   3.233   0.926 -2.0951 -2.0852 -0.2157
 8486SOL     OW37090   1.397   0.727   4.894  0.2678 -0.0554  0.1490
 8486SOL    HW137091   1.371   0.794   4.957  2.8755  0.8145  0.3042
 8486SOL    HW237092   1.315   0.716   4.846  0.5213  1.5655 -0.6412
 8487SOL     OW37093   1.924   1.952  11.621 -0.5473 -0.0459 -0.4042
 8487SOL    HW137094   1.843   1.976  11.574  0.0665  0.1615 -1.3497
 8487SOL    HW237095   1.980   2.029  11.614 -1.1136  0.2299 -1.9764
 8488SOL     OW37096   2.849   2.312   3.800  0.7206  0.2062 -0.8419
 8488SOL    HW137097   2.798   2.344   3.874 -0.7481 -1.7792 -0.9911
 8488SOL    HW237098   2.840   2.217   3.800 -2.4390  0.4974  0.0234
 8489SOL     OW37099   3.307   2.803   7.286 -0.0963  0.1867 -0.1221
 8489SOL    HW137100   3.348   2.825   7.202  1.9612  0.7268  1.0312
 8489SOL    HW237101   3.318   2.709   7.302  1.4184 -0.4079 -4.6944
 8490SOL     OW37102   1.111   3.140  12.599  0.0233  0.5125  0.3243
 8490SOL    HW137103   1.034   3.083  12.609  0.0336  0.3671 -0.4641
 8490SOL    HW237104   1.181   3.080  12.625 -0.2431 -1.7108 -4.0398
 8491SOL     OW37105   3.002   3.772   4.846  0.3090  0.3083  0.0529
 8491SOL    HW137106   2.969   3.853   4.884 -0.9693 -1.7961  3.3695
 8491SOL    HW237107   3.021   3.720   4.923 -2.9168  1.2660  1.4774
 8492SOL     OW37108   2.141   0.507   5.498 -0.2786  0.1662 -0.0963
 8492SOL    HW137109   2.047   0.510   5.481 -0.5823 -3.9106  0.7477
 8492SOL    HW237110   2.128   0.474   5.587  0.2977 -3.1158 -1.2535
 8493SOL     OW37111   2.824   3.797   1.244 -0.0635 -0.2386 -0.0204
 8493SOL    HW137112   2.905   3.819   1.198  0.6933 -1.5684  0.6860
 8493SOL    HW237113   2.855   3.800   1.335 -0.4356  0.7487  0.0788
 8494SOL     OW37114   2.614   3.271   3.129 -0.6092  0.5622  0.0218
 8494SOL    HW137115   2.547   3.317   3.078  0.4105 -0.6011 -2.4121
 8494SOL    HW237116   2.598   3.183   3.095  2.2285  0.7489 -1.8013
 8495SOL     OW37117   3.119   4.280   5.071 -0.1451 -0.4111 -0.4972
 8495SOL    HW137118   3.114   4.250   4.980  0.1865  1.7810 -1.2243
 8495SOL    HW237119   3.056   4.218   5.108  0.9230 -0.3527  1.4560
 8496SOL     OW37120   3.888   3.169   6.606  0.0266 -0.0730 -0.7235
 8496SOL    HW137121   3.831   3.108   6.653  0.2817 -1.1301 -1.7922
 8496SOL    HW237122   3.823   3.222   6.561 -0.8432  0.3238  1.0062
 8497SOL     OW37123   3.079   4.285   5.495 -0.1528 -0.2314  0.3730
 8497SOL    HW137124   3.146   4.227   5.460  1.4783  2.0641 -0.2941
 8497SOL    HW237125   3.060   4.351   5.429  4.3639  1.9486  1.2762
 8498SOL     OW37126   0.249   0.301   8.398  0.3703 -0.5095  0.3900
 8498SOL    HW137127   0.326   0.291   8.341  1.8237 -1.9473  2.5719
 8498SOL    HW237128   0.229   0.210   8.423 -0.5387 -0.3094  0.3601
 8499SOL     OW37129   3.120   0.853   5.336  0.1926  0.1374  0.3220
 8499SOL    HW137130   3.049   0.840   5.273 -0.5027 -1.6807  1.4990
 8499SOL    HW237131   3.195   0.817   5.288 -0.1032 -2.7301  2.0362
 8500SOL     OW37132   3.623   3.070  11.846 -0.7965 -0.0751 -0.0699
 8500SOL    HW137133   3.687   3.000  11.836 -1.4968 -0.5401 -1.3381
 8500SOL    HW237134   3.542   3.021  11.857 -0.4845 -1.0174 -1.9981
 8501SOL     OW37135   4.259   4.538  14.754  0.3725  0.5490  0.4472
 8501SOL    HW137136   4.201   4.527  14.679  0.7643 -1.8752  0.4876
 8501SOL    HW237137   4.279   4.631  14.749  1.6503  0.3229  1.3939
 8502SOL     OW37138   1.771   3.201   4.551 -0.9292  0.4851  0.6911
 8502SOL    HW137139   1.856   3.225   4.514 -0.9258  1.4292  1.3035
 8502SOL    HW237140   1.749   3.135   4.486  0.9202  0.7633 -0.2194
 8503SOL     OW37141   2.195   2.807   1.256 -0.0850  0.4791  0.2764
 8503SOL    HW137142   2.281   2.764   1.256 -0.0840  0.5053  3.4021
 8503SOL    HW237143   2.196   2.861   1.335 -0.6138  0.8668  0.0177
 8504SOL     OW37144   2.864   1.799  10.926 -0.2222  0.5395 -0.1936
 8504SOL    HW137145   2.946   1.749  10.932 -0.7758 -0.6593 -2.9680
 8504SOL    HW237146   2.806   1.756  10.864 -0.0820 -0.1071  0.1130
 8505SOL     OW37147   3.461   1.207   6.506 -0.1931  0.2584  0.8515
 8505SOL    HW137148   3.417   1.291   6.520 -0.5481  0.0401  1.0233
 8505SOL    HW237149   3.427   1.142   6.567  1.1920 -0.0671  1.2849
 8506SOL     OW37150   0.829   0.368   2.433 -0.2746 -0.1487  0.1500
 8506SOL    HW137151   0.833   0.369   2.337  2.7497  0.8409  0.2708
 8506SOL    HW237152   0.782   0.451   2.441  1.7747  1.0824 -0.4202
 8507SOL     OW37153   1.177   0.800  10.955 -0.1370 -0.2137 -0.2668
 8507SOL    HW137154   1.119   0.757  10.892 -1.4535 -0.0150  0.8062
 8507SOL    HW237155   1.179   0.889  10.918 -1.3834  0.4904  1.3652
 8508SOL     OW37156   4.661   1.098   6.273 -0.1165 -0.3575  0.0955
 8508SOL    HW137157   4.593   1.155   6.310  0.7053  1.7337 -1.6035
 8508SOL    HW237158   0.002   1.137   6.310  0.8689 -3.2189  0.9681
 8509SOL     OW37159   4.465   2.802  10.928 -0.1625 -0.5853  0.0215
 8509SOL    HW137160   4.445   2.714  10.960  0.6033 -1.1428 -1.0385
 8509SOL    HW237161   4.395   2.856  10.966  2.3711  2.5845  0.1932
 8510SOL     OW37162   3.933   1.037   2.455  0.5608  0.2689 -0.1477
 8510SOL    HW137163   3.868   0.998   2.398  1.1561 -0.6733 -0.1859
 8510SOL    HW237164   3.902   1.011   2.542 -0.4762  0.7020 -0.3932
 8511SOL     OW37165   4.654   2.417   7.851  0.3775  0.8521  0.2098
 8511SOL    HW137166   0.003   2.426   7.889  1.3711 -2.0088 -1.4109
 8511SOL    HW237167   4.687   2.349   7.793 -1.1816 -0.2090  0.5776
 8512SOL     OW37168   0.706   1.144   9.063  0.1116  0.4054  0.8927
 8512SOL    HW137169   0.733   1.136   9.154 -2.6137 -0.2966  1.6061
 8512SOL    HW237170   0.770   1.201   9.020 -0.7392  1.7459  1.4104
 8513SOL     OW37171   1.786   1.702   8.781  0.4390 -0.1158  0.2876
 8513SOL    HW137172   1.813   1.788   8.749  0.3946 -0.0651  0.3868
 8513SOL    HW237173   1.852   1.650   8.736 -0.4892  0.7042 -2.0071
 8514SOL     OW37174   2.414   1.494  15.616  0.6683 -0.0896  0.3081
 8514SOL    HW137175   2.442   1.582  15.640  1.4447 -0.1089 -0.5271
 8514SOL    HW237176   2.466   1.447  15.682 -0.7218  0.1094  1.5400
 8515SOL     OW37177   2.715   4.351   7.811 -0.2202 -0.3829  0.3094
 8515SOL    HW137178   2.719   4.325   7.719  0.6083  0.4503  0.1117
 8515SOL    HW237179   2.809   4.340   7.824  0.1328  2.3913  0.0292
 8516SOL     OW37180   4.328   2.114   3.996  0.2772 -0.3637  0.0251
 8516SOL    HW137181   4.269   2.072   3.933 -0.4764  2.2799 -1.0082
 8516SOL    HW237182   4.416   2.088   3.968  0.5136 -1.0544  1.4509
 8517SOL     OW37183   2.307   1.350  16.883  0.0905  0.5347 -0.7984
 8517SOL    HW137184   2.294   1.358  16.978  1.9540 -0.2157 -0.4748
 8517SOL    HW237185   2.330   1.258  16.874  1.6727  0.9529 -1.0311
 8518SOL     OW37186   1.262   4.568   5.469  0.2834  0.1074  0.4424
 8518SOL    HW137187   1.317   4.643   5.445  0.3215  0.1740  0.7349
 8518SOL    HW237188   1.180   4.604   5.435 -0.2770 -1.0179  0.6090
 8519SOL     OW37189   1.041   4.148   6.963  0.4428  0.4478 -0.1656
 8519SOL    HW137190   1.090   4.069   6.939  0.4007  0.6520 -0.9214
 8519SOL    HW237191   1.036   4.126   7.057  0.3063 -1.6798 -0.6621
 8520SOL     OW37192   1.755   4.048  12.904  0.2623  0.3585 -0.0167
 8520SOL    HW137193   1.845   4.014  12.898  0.4306  0.8775 -0.4777
 8520SOL    HW237194   1.706   3.970  12.928  0.3445  0.0790 -0.7332
 8521SOL     OW37195   0.234   1.625  12.030  0.3985  0.1773  0.2102
 8521SOL    HW137196   0.227   1.637  12.124  0.9830 -0.1723  0.2981
 8521SOL    HW237197   0.286   1.545  12.031 -1.5689 -1.1235 -0.8930
 8522SOL     OW37198   1.937   3.254   0.036  0.0087  0.0975 -0.1103
 8522SOL    HW137199   1.993   3.326   0.065  1.9019 -1.7114  0.7934
 8522SOL    HW237200   1.854   3.273   0.078  1.5080  0.3334  2.7511
 8523SOL     OW37201   0.447   3.452   1.891 -0.3660 -0.6858 -0.4959
 8523SOL    HW137202   0.534   3.463   1.852 -0.6148  1.5188 -0.4152
 8523SOL    HW237203   0.469   3.433   1.982 -0.8221 -0.0290 -0.2468
 8524SOL     OW37204   0.927   4.198   4.387  0.0138  0.1334  0.4018
 8524SOL    HW137205   0.984   4.203   4.311 -1.8772  0.5036 -0.9803
 8524SOL    HW237206   0.888   4.285   4.381  2.4007  1.2728  1.0946
 8525SOL     OW37207   3.263   3.582   9.071 -0.0018 -0.1271  0.6462
 8525SOL    HW137208   3.320   3.577   8.994 -0.0693 -0.2299  0.6023
 8525SOL    HW237209   3.268   3.490   9.096 -0.7097  0.5244  3.2260
 8526SOL     OW37210   3.763   0.304   4.019  0.3876  0.0868  0.3979
 8526SOL    HW137211   3.767   0.273   4.109 -0.1622  0.3064  0.4942
 8526SOL    HW237212   3.728   0.391   4.039  2.6878  1.3193 -0.8482
 8527SOL     OW37213   3.045   2.873   7.320 -0.1017 -0.2766 -0.4869
 8527SOL    HW137214   3.123   2.920   7.349 -1.0848  1.4494 -0.6199
 8527SOL    HW237215   3.071   2.823   7.243 -1.7665 -1.0412 -0.5642
 8528SOL     OW37216   3.639   0.341   7.195 -0.2936  0.1797 -0.0628
 8528SOL    HW137217   3.567   0.401   7.172 -0.8366 -0.8839 -1.1729
 8528SOL    HW237218   3.585   0.269   7.229 -0.4385  0.5027  0.3867
 8529SOL     OW37219   0.488   4.648   7.570 -0.1272 -0.3461 -0.0445
 8529SOL    HW137220   0.436   4.716   7.527 -0.2687 -0.5835 -0.2438
 8529SOL    HW237221   0.558   4.635   7.506  2.4982  1.3294  2.4535
 8530SOL     OW37222   2.917   3.261   3.781  0.4078 -0.1789  0.0319
 8530SOL    HW137223   2.862   3.186   3.758  0.1051 -0.0349  0.2971
 8530SOL    HW237224   2.855   3.315   3.829 -0.6742 -1.6919  0.3468
 8531SOL     OW37225   3.338   2.821  13.688  0.0983  0.4389 -0.9419
 8531SOL    HW137226   3.293   2.889  13.739 -1.1847  0.4087 -2.0204
 8531SOL    HW237227   3.279   2.816  13.612 -0.0971  3.4885 -1.0017
 8532SOL     OW37228   1.831   4.293   4.411 -0.0082  0.6166  0.4043
 8532SOL    HW137229   1.913   4.327   4.447 -0.3587 -0.6068  2.3105
 8532SOL    HW237230   1.781   4.374   4.399  1.9891  1.5025 -2.1482
 8533SOL     OW37231   2.058   2.500   2.204  0.2044  0.0891  0.3430
 8533SOL    HW137232   1.967   2.474   2.194 -0.1911  1.1836  1.1516
 8533SOL    HW237233   2.097   2.423   2.246 -1.6206  0.1427  2.1165
 8534SOL     OW37234   2.258   3.789   2.886 -0.0783 -0.4244  0.6822
 8534SOL    HW137235   2.231   3.804   2.976 -0.2555 -2.3824  0.9554
 8534SOL    HW237236   2.263   3.877   2.849 -2.0277 -0.8553 -0.5977
 8535SOL     OW37237   4.172   4.427   0.169 -0.0212 -0.4380  0.1174
 8535SOL    HW137238   4.168   4.361   0.237  0.7455 -0.5584  0.0367
 8535SOL    HW237239   4.176   4.372   0.091 -1.7703  0.1212 -0.3845
 8536SOL     OW37240   4.065   4.447   2.606  0.1632  0.3281  0.7000
 8536SOL    HW137241   4.047   4.372   2.664 -0.2741  0.4832  0.7627
 8536SOL    HW237242   4.156   4.472   2.623  0.4896  0.4970 -1.3297
 8537SOL     OW37243   1.911   3.397   5.018 -0.0785  0.3055 -0.5512
 8537SOL    HW137244   1.874   3.368   4.935  1.7307 -2.3280 -0.4240
 8537SOL    HW237245   1.966   3.320   5.033 -0.0729  0.4619  0.2573
 8538SOL     OW37246   1.158   3.941   2.867  0.2339  0.2904 -0.4125
 8538SOL    HW137247   1.112   4.025   2.859  0.7410  0.6543  0.3974
 8538SOL    HW237248   1.247   3.976   2.877 -0.0326  1.2613 -1.4678
 8539SOL     OW37249   1.553   3.088   5.996  0.3838 -0.1426  0.0294
 8539SOL    HW137250   1.580   3.028   5.926 -2.0677 -0.1070 -0.9285
 8539SOL    HW237251   1.643   3.118   6.012  1.0799 -2.3089  0.2492
 8540SOL     OW37252   3.485   3.259   3.417 -0.2017  0.2572 -0.2053
 8540SOL    HW137253   3.502   3.182   3.471  0.0759  0.6698  0.2995
 8540SOL    HW237254   3.574   3.275   3.385 -0.0184  0.4305  0.4069
 8541SOL     OW37255   3.190   0.363  13.669 -0.1022  0.3115 -0.1943
 8541SOL    HW137256   3.199   0.321  13.755  0.6512 -0.7396 -0.7786
 8541SOL    HW237257   3.108   0.412  13.670 -0.1500  0.1884  2.5710
 8542SOL     OW37258   1.848   1.314   6.056  0.2801  0.3234 -0.1803
 8542SOL    HW137259   1.853   1.336   6.149  1.2882  0.1331 -0.1845
 8542SOL    HW237260   1.781   1.246   6.062  0.3764  0.3502  1.3725
 8543SOL     OW37261   2.259   4.022   2.744  0.7249 -0.0280  0.9818
 8543SOL    HW137262   2.220   4.028   2.657 -0.0852  1.4140  1.4434
 8543SOL    HW237263   2.231   4.105   2.783  0.8995  1.0698 -1.2442
 8544SOL     OW37264   0.868   1.032   3.409 -0.5937  0.3586  0.4125
 8544SOL    HW137265   0.946   0.990   3.445  0.4136  0.9246 -1.1242
 8544SOL    HW237266   0.807   0.971   3.449 -1.1147 -1.2160 -2.8322
 8545SOL     OW37267   4.412   1.886   8.576  0.4295  0.1606 -0.6915
 8545SOL    HW137268   4.507   1.894   8.575  0.6382 -2.4618 -3.0873
 8545SOL    HW237269   4.391   1.917   8.488 -1.1988  0.3689 -0.2325
 8546SOL     OW37270   3.387   4.676  14.767  0.1269  0.2052 -0.7312
 8546SOL    HW137271   3.339   4.594  14.777  1.8974 -0.2784  3.8384
 8546SOL    HW237272   3.475   4.644  14.787  0.2277  1.2755  0.5326
 8547SOL     OW37273   0.177   0.275   7.635 -0.2328 -0.1163  0.4062
 8547SOL    HW137274   0.223   0.220   7.572 -0.6224  0.8581 -0.7311
 8547SOL    HW237275   0.098   0.279   7.581  0.0091 -1.8340 -0.0781
 8548SOL     OW37276   3.485   0.486   6.951  0.1883  0.0981  0.1185
 8548SOL    HW137277   3.459   0.394   6.952 -0.1648  0.1716 -2.0938
 8548SOL    HW237278   3.400   0.520   6.921  1.3965  1.9306 -1.2006
 8549SOL     OW37279   4.506   3.136  17.622 -1.1752 -0.4249  0.6379
 8549SOL    HW137280   4.414   3.154  17.642 -1.0895 -0.9098  1.4698
 8549SOL    HW237281   4.502   3.043  17.601  0.2654  0.0471 -1.7195
 8550SOL     OW37282   2.904   4.050   1.791 -0.3539 -0.2481  0.4268
 8550SOL    HW137283   2.827   4.000   1.765 -0.6762 -0.0650  1.0198
 8550SOL    HW237284   2.872   4.118   1.851 -0.7706 -0.8578  0.8948
 8551SOL     OW37285   1.300   4.577   6.653  0.2017 -0.2420  0.1109
 8551SOL    HW137286   1.219   4.526   6.650 -1.7286  2.6444  2.2974
 8551SOL    HW237287   1.271   4.652   6.600  1.1117  0.5407  0.7281
 8552SOL     OW37288   2.098   0.656   8.494  0.6075 -0.7053 -0.6724
 8552SOL    HW137289   2.128   0.568   8.516 -1.9412 -1.7069 -1.2844
 8552SOL    HW237290   2.115   0.665   8.400 -1.2137 -0.6381 -0.9863
 8553SOL     OW37291   2.691   3.010   4.508 -0.2280  0.0315 -0.2448
 8553SOL    HW137292   2.737   2.930   4.483  1.7904  1.6308 -1.6408
 8553SOL    HW237293   2.764   3.045   4.559 -1.1919 -1.9198  2.4895
 8554SOL     OW37294   0.296   3.719   3.105  0.2107  0.1770 -0.1243
 8554SOL    HW137295   0.297   3.639   3.052 -4.5734  1.2711 -1.8443
 8554SOL    HW237296   0.257   3.782   3.044  2.1850 -0.2781 -1.8304
 8555SOL     OW37297   3.488   0.888   3.533  1.3057 -0.6664  0.1737
 8555SOL    HW137298   3.514   0.942   3.458  1.4464 -1.1336 -0.1113
 8555SOL    HW237299   3.446   0.944   3.599 -0.1652 -0.5279 -0.8814
 8556SOL     OW37300   1.866   2.501   8.118 -0.8765 -0.2742 -0.0241
 8556SOL    HW137301   1.789   2.449   8.095 -0.6618 -1.0559  1.0465
 8556SOL    HW237302   1.890   2.528   8.029 -5.3624  0.7580 -0.8819
 8557SOL     OW37303   2.351   3.567   9.017 -0.5869 -0.4241 -0.0466
 8557SOL    HW137304   2.392   3.615   8.945  0.7378  1.3647  1.9338
 8557SOL    HW237305   2.333   3.484   8.973 -0.5376  1.4489 -3.6550
 8558SOL     OW37306   3.883   1.382   7.141 -0.2536  0.6123 -0.2800
 8558SOL    HW137307   3.836   1.299   7.152  2.2926 -0.7982  0.0897
 8558SOL    HW237308   3.822   1.435   7.193  1.1529  1.7455  0.2101
 8559SOL     OW37309   0.070   1.894   1.657  0.2809 -0.1110  0.0656
 8559SOL    HW137310   0.000   1.941   1.703  2.3829  1.8786  1.2232
 8559SOL    HW237311   0.126   1.880   1.733 -1.4537 -0.0996  1.3426
 8560SOL     OW37312   3.685   2.977  17.442 -0.0289  0.1319  0.7031
 8560SOL    HW137313   3.719   3.011  17.359  1.2967 -0.5678  0.9457
 8560SOL    HW237314   3.665   3.057  17.490  0.9700  0.5451  0.4421
 8561SOL     OW37315   3.001   3.989   6.669 -0.5292 -0.2841  0.3592
 8561SOL    HW137316   3.045   4.071   6.690  1.1034 -0.9711 -0.3247
 8561SOL    HW237317   3.000   4.005   6.575  0.7930  0.2455  0.4352
 8562SOL     OW37318   4.660   0.440   4.338 -0.3113 -0.1455 -0.0780
 8562SOL    HW137319   0.007   0.422   4.300  0.7971  1.7163  1.5711
 8562SOL    HW237320   4.615   0.355   4.341 -0.6427 -0.0195 -1.3823
 8563SOL     OW37321   4.549   1.203   4.022 -0.4707  0.3642  0.5305
 8563SOL    HW137322   4.593   1.227   3.940  0.8528  1.5710  1.6019
 8563SOL    HW237323   4.515   1.115   4.003 -1.6064  0.8007  0.5922
 8564SOL     OW37324   3.244   0.149   8.063 -0.1435  0.2907 -0.2669
 8564SOL    HW137325   3.291   0.066   8.064 -1.1214 -0.2551 -0.7703
 8564SOL    HW237326   3.165   0.119   8.107  0.5375 -0.4190  0.4634
 8565SOL     OW37327   4.121   4.244   3.499 -0.1167  0.2978 -0.0592
 8565SOL    HW137328   4.071   4.163   3.486  2.1529 -1.2426  0.8625
 8565SOL    HW237329   4.053   4.310   3.514 -0.1960 -0.4454  2.7355
 8566SOL     OW37330   3.094   3.472   1.709  0.0891 -0.1991  0.0495
 8566SOL    HW137331   3.126   3.410   1.643  0.9421  1.2202 -0.8744
 8566SOL    HW237332   3.030   3.520   1.655 -1.1064 -0.2822  1.3995
 8567SOL     OW37333   1.369   4.453   2.317  0.1403 -0.1463 -0.2684
 8567SOL    HW137334   1.346   4.426   2.405  0.5737  3.4969  0.9472
 8567SOL    HW237335   1.459   4.424   2.301  0.5194  0.4846  0.7014
 8568SOL     OW37336   2.491   0.200   1.590  0.1694 -0.4157  0.9353
 8568SOL    HW137337   2.429   0.230   1.656 -0.3269  0.8791 -0.1056
 8568SOL    HW237338   2.437   0.191   1.511  0.3669 -0.6491  0.8257
 8569SOL     OW37339   0.120   2.581   9.381  0.0608  0.5265 -0.0911
 8569SOL    HW137340   0.053   2.519   9.410 -0.0669  0.1516 -1.1999
 8569SOL    HW237341   0.116   2.653   9.444 -0.1565 -0.9314  1.5579
 8570SOL     OW37342   4.287   2.207   8.456 -0.0918 -0.6803  0.2380
 8570SOL    HW137343   4.333   2.190   8.374  0.3708 -1.6880  0.7029
 8570SOL    HW237344   4.336   2.285   8.483 -2.5153  0.5991  0.9611
 8571SOL     OW37345   4.200   2.179   3.746 -0.2963  0.1195 -0.1124
 8571SOL    HW137346   4.265   2.232   3.792 -3.0205  3.2738  0.0367
 8571SOL    HW237347   4.135   2.244   3.720 -0.4290  0.2822  0.6373
 8572SOL     OW37348   2.223   4.066   9.041 -0.0536 -0.6799 -0.1534
 8572SOL    HW137349   2.183   4.017   8.969  0.3225  0.2918 -1.0240
 8572SOL    HW237350   2.197   4.157   9.032 -1.2004 -0.9670  0.3224
 8573SOL     OW37351   1.865   1.478   8.658  0.8120  0.1747 -0.1996
 8573SOL    HW137352   1.895   1.387   8.654  0.7331  0.1233  0.4172
 8573SOL    HW237353   1.779   1.473   8.701  1.7175  0.4953  1.6216
 8574SOL     OW37354   1.111   3.276   6.538  0.0931 -0.1427 -0.3356
 8574SOL    HW137355   1.174   3.336   6.578  1.1467 -1.3345 -0.2151
 8574SOL    HW237356   1.044   3.260   6.605 -0.0135  2.7398  0.2281
 8575SOL     OW37357   3.615   4.502   4.751  0.1508 -0.9247 -0.3388
 8575SOL    HW137358   3.561   4.507   4.672 -0.6359 -2.2491  0.1096
 8575SOL    HW237359   3.690   4.559   4.739 -1.9064  1.4286 -1.8494
 8576SOL     OW37360   0.954   2.459   9.774  0.0988 -0.1987 -0.0735
 8576SOL    HW137361   0.952   2.424   9.685  1.0451  1.0910 -0.5991
 8576SOL    HW237362   0.991   2.544   9.750 -0.5365 -0.1315 -0.8369
 8577SOL     OW37363   1.316   0.042   8.991  0.7462  0.5805 -0.1440
 8577SOL    HW137364   1.286   0.048   9.082 -0.8580  3.2547 -0.8808
 8577SOL    HW237365   1.234   0.040   8.942  0.7863  1.5963 -0.2492
 8578SOL     OW37366   4.163   2.174  11.726 -0.6555  0.3683 -0.7060
 8578SOL    HW137367   4.257   2.157  11.731 -0.6822  0.8061  1.2970
 8578SOL    HW237368   4.154   2.235  11.799 -0.8542 -1.3263  0.6594
 8579SOL     OW37369   0.579   0.034   3.594 -0.3449 -0.0801  0.4283
 8579SOL    HW137370   0.666   0.018   3.557 -0.9360 -1.7902 -0.2109
 8579SOL    HW237371   0.543   4.684   3.593 -1.3332  0.3144  0.4276
 8580SOL     OW37372   4.559   4.631   6.775 -0.3688  0.0439 -0.0237
 8580SOL    HW137373   4.535   4.723   6.785 -0.7015 -0.2417  1.9070
 8580SOL    HW237374   4.542   4.622   6.681  1.9030  1.3441 -0.5594
 8581SOL     OW37375   0.007   0.153  13.114  0.4851 -0.3025  0.1828
 8581SOL    HW137376   0.080   0.116  13.063  0.9271  1.8607 -0.7382
 8581SOL    HW237377   4.704   0.075  13.150 -0.8817  0.5636  0.5018
 8582SOL     OW37378   4.097   4.363   8.842 -0.2512 -0.0326 -0.0554
 8582SOL    HW137379   4.170   4.404   8.888 -1.4271 -0.2552  2.0307
 8582SOL    HW237380   4.044   4.427   8.794  0.5096  1.2225  0.7696
 8583SOL     OW37381   1.523   1.051   7.379  0.0544  0.3369  0.1685
 8583SOL    HW137382   1.619   1.054   7.375  0.1197  0.5359  2.0140
 8583SOL    HW237383   1.512   1.111   7.453 -0.1721  2.0356 -1.2504
 8584SOL     OW37384   3.932   3.649   7.777 -0.2661 -0.5330 -0.1656
 8584SOL    HW137385   3.938   3.562   7.737 -2.4264 -1.1814  0.9547
 8584SOL    HW237386   3.992   3.700   7.722 -1.2000  0.0534 -0.6385
 8585SOL     OW37387   3.385   2.255   5.237 -0.2488 -0.5902 -0.1073
 8585SOL    HW137388   3.469   2.275   5.280  0.0596 -1.7533 -0.1648
 8585SOL    HW237389   3.341   2.336   5.264  3.3493  1.7581 -1.2501
 8586SOL     OW37390   3.022   3.768  14.182  0.3715  0.3115 -0.0324
 8586SOL    HW137391   3.037   3.676  14.159  1.9906  1.0065 -1.7936
 8586SOL    HW237392   2.998   3.766  14.275  0.9921 -2.5641  0.0867
 8587SOL     OW37393   2.819   0.475   7.879 -0.7063 -0.2582 -0.1147
 8587SOL    HW137394   2.813   0.438   7.967  1.8915 -0.6152 -0.1044
 8587SOL    HW237395   2.856   0.559   7.905 -0.3271 -0.9772  1.6174
 8588SOL     OW37396   1.035   4.176   5.570  0.1946  0.2238  0.7338
 8588SOL    HW137397   1.013   4.229   5.647 -2.5852 -0.6582  0.5553
 8588SOL    HW237398   1.122   4.158   5.605 -0.1081  2.4635  2.5801
 8589SOL     OW37399   3.281   4.738   6.774 -0.2448 -0.3443  0.0849
 8589SOL    HW137400   3.344   0.057   6.731 -0.4039 -0.1616  0.0956
 8589SOL    HW237401   3.197   0.040   6.752  0.1839  0.4983 -0.0142
 8590SOL     OW37402   3.846   4.578   1.759 -0.0273  0.3594 -0.3161
 8590SOL    HW137403   3.922   4.600   1.706  0.1343 -1.0460 -0.6912
 8590SOL    HW237404   3.881   4.570   1.848 -1.3130  3.6705  0.4655
 8591SOL     OW37405   1.596   1.384   3.332 -0.5221 -0.0632  0.3769
 8591SOL    HW137406   1.650   1.460   3.308 -1.4378 -0.1620 -1.9616
 8591SOL    HW237407   1.573   1.353   3.244  0.9412 -3.7491  1.2981
 8592SOL     OW37408   4.205   2.637   3.225  0.3189 -0.0069  0.2574
 8592SOL    HW137409   4.290   2.616   3.265 -0.3581 -0.1675  1.6336
 8592SOL    HW237410   4.154   2.671   3.298 -0.6401 -0.1672 -0.3448
 8593SOL     OW37411   1.682   2.808  13.990  0.3172  0.2162 -0.3934
 8593SOL    HW137412   1.627   2.748  14.042 -0.8296  0.9367 -0.7716
 8593SOL    HW237413   1.669   2.895  14.027  0.3967 -0.4283  1.1666
 8594SOL     OW37414   2.311   2.846   8.505 -0.5117 -0.3373  0.1644
 8594SOL    HW137415   2.218   2.834   8.485  0.0323 -1.5163 -1.5861
 8594SOL    HW237416   2.299   2.879   8.594  0.8408 -1.2631  0.6929
 8595SOL     OW37417   2.151   3.972   2.474 -0.7859 -0.0794 -0.7515
 8595SOL    HW137418   2.146   3.998   2.382  0.9489 -1.5336 -1.2531
 8595SOL    HW237419   2.201   3.893   2.455 -2.6113 -1.2930 -0.5661
 8596SOL     OW37420   2.938   2.810  14.530 -0.2139 -0.1944  0.2853
 8596SOL    HW137421   2.952   2.717  14.547  1.1754  0.0001  0.1745
 8596SOL    HW237422   2.974   2.853  14.608  1.2406 -1.9220  0.5615
 8597SOL     OW37423   4.220   0.507  16.732 -0.4247  0.2745  0.3981
 8597SOL    HW137424   4.291   0.467  16.782 -2.3259 -2.3655  0.9730
 8597SOL    HW237425   4.266   0.566  16.673 -0.2762 -2.3974 -2.1366
 8598SOL     OW37426   0.106   2.880   7.411 -0.0068  0.0230  0.5082
 8598SOL    HW137427   0.163   2.929   7.471 -0.7729 -1.4222  2.4098
 8598SOL    HW237428   0.018   2.905   7.439  0.1044  0.9015  0.0729
 8599SOL     OW37429   3.505   4.163   5.670  0.4100  0.1694 -0.1060
 8599SOL    HW137430   3.544   4.149   5.584  0.0065  1.5970 -0.5211
 8599SOL    HW237431   3.528   4.081   5.714  0.1827  0.8830  1.3247
 8600SOL     OW37432   4.642   3.625  10.081 -0.4544  0.0897  0.2284
 8600SOL    HW137433   4.647   3.717  10.107 -0.7389 -0.4071  1.9769
 8600SOL    HW237434   4.559   3.635  10.033  0.0075  1.3207 -0.2938
 8601SOL     OW37435   3.407   1.419   0.257  0.2421 -0.0767 -0.1266
 8601SOL    HW137436   3.379   1.486   0.320 -1.1091  1.5048 -2.4047
 8601SOL    HW237437   3.349   1.346   0.280  0.7620 -0.5623 -0.3606
 8602SOL     OW37438   0.212   0.159   6.400 -0.5436  0.4824  0.2728
 8602SOL    HW137439   0.300   0.193   6.382  0.6227 -1.1971  2.7065
 8602SOL    HW237440   0.214   0.157   6.496 -1.7774  2.2566  0.3240
 8603SOL     OW37441   3.184   3.192   1.201 -0.2748 -0.0045 -0.4301
 8603SOL    HW137442   3.120   3.213   1.132  1.1257  1.3875 -1.2914
 8603SOL    HW237443   3.158   3.246   1.275  3.3819 -1.5469  1.9251
 8604SOL     OW37444   1.347   3.896   2.626 -0.8487 -0.0865  0.0372
 8604SOL    HW137445   1.437   3.881   2.598 -0.7723  0.1106  0.1778
 8604SOL    HW237446   1.363   3.905   2.720 -3.0820 -0.5570  0.4606
 8605SOL     OW37447   2.228   0.889   4.018 -0.3455 -0.3132 -0.0667
 8605SOL    HW137448   2.205   0.925   4.104 -1.7075 -0.2522 -0.4604
 8605SOL    HW237449   2.146   0.858   3.980  0.1217 -1.1409 -0.4058
 8606SOL     OW37450   0.926   2.922   4.871 -0.3783  0.3185 -0.0592
 8606SOL    HW137451   1.015   2.896   4.894 -0.1998  0.4726 -0.5783
 8606SOL    HW237452   0.887   2.841   4.838  0.8345 -0.6528  0.8838
 8607SOL     OW37453   0.854   4.012   7.947  0.1959 -0.0659  0.0176
 8607SOL    HW137454   0.840   4.030   8.040  2.8646 -0.0474  0.3962
 8607SOL    HW237455   0.937   4.054   7.927  0.3379  0.0334  0.8236
 8608SOL     OW37456   1.989   1.930   2.720  0.1785 -0.3715  0.3368
 8608SOL    HW137457   1.956   2.004   2.668 -1.3331 -0.8615  0.6025
 8608SOL    HW237458   1.941   1.949   2.801  0.4558  1.5803  0.0371
 8609SOL     OW37459   1.132   4.587   4.923  0.4996  0.7130 -0.1832
 8609SOL    HW137460   1.189   4.530   4.974  1.6734  3.8795  2.0775
 8609SOL    HW237461   1.053   4.585   4.978  0.1968  0.0825 -0.6487
 8610SOL     OW37462   0.458   3.678   9.903  0.4472 -0.0208 -0.3038
 8610SOL    HW137463   0.496   3.766   9.899  1.5861 -0.4874  0.2426
 8610SOL    HW237464   0.375   3.695   9.860  0.6010 -0.0467 -0.6137
 8611SOL     OW37465   1.548   2.347   5.963 -0.9549  0.2333  0.0386
 8611SOL    HW137466   1.530   2.441   5.965  0.7822  0.5777 -0.9188
 8611SOL    HW237467   1.533   2.333   6.057  1.7275  0.8650  0.5447
 8612SOL     OW37468   3.215   2.518   7.671  0.3452 -0.2940  0.0035
 8612SOL    HW137469   3.288   2.571   7.702  0.4581 -1.3185  1.4953
 8612SOL    HW237470   3.233   2.441   7.724  2.4965  0.7055  0.7226
 8613SOL     OW37471   2.647   0.583  15.657 -0.2433  0.1945 -0.3465
 8613SOL    HW137472   2.569   0.625  15.622  0.0224 -0.1407 -1.3313
 8613SOL    HW237473   2.609   0.507  15.702 -3.7317  1.0438 -1.8676
 8614SOL     OW37474   0.049   4.413  14.634 -0.1234  0.0906 -0.1507
 8614SOL    HW137475   0.017   4.475  14.700 -1.4587 -2.0660  1.2287
 8614SOL    HW237476   4.728   4.419  14.559  1.0367  0.6574 -1.0291
 8615SOL     OW37477   3.492   0.368   2.798 -0.1344 -0.1025 -0.1414
 8615SOL    HW137478   3.584   0.369   2.824  0.0767  1.8392 -0.9371
 8615SOL    HW237479   3.463   0.456   2.823  2.3285  1.5817 -3.2956
 8616SOL     OW37480   1.729   0.437   6.367 -0.3317  0.0109 -0.0206
 8616SOL    HW137481   1.793   0.366   6.370 -0.3526 -0.0209 -0.3975
 8616SOL    HW237482   1.705   0.439   6.460 -0.0029  0.2168  0.0614
 8617SOL     OW37483   2.528   1.812   7.596 -0.1707  0.4183  0.0931
 8617SOL    HW137484   2.521   1.784   7.687  1.6811 -1.7153 -0.3995
 8617SOL    HW237485   2.439   1.840   7.576 -0.1889 -0.1229 -0.6082
 8618SOL     OW37486   2.739   4.582   8.381  0.1108 -0.1945 -0.3939
 8618SOL    HW137487   2.691   4.651   8.336 -2.4702 -1.7912 -0.1426
 8618SOL    HW237488   2.772   4.620   8.462  0.1159 -1.2464  0.1016
 8619SOL     OW37489   4.162   1.427   9.810  0.3055  0.3427 -0.3738
 8619SOL    HW137490   4.136   1.384   9.891 -0.9908  0.2379 -0.8358
 8619SOL    HW237491   4.171   1.347   9.757  1.2641 -0.7496  1.4562
 8620SOL     OW37492   0.260   3.602  12.774 -0.1177  0.4080  0.2496
 8620SOL    HW137493   0.278   3.603  12.868 -2.7547  1.6264  0.7554
 8620SOL    HW237494   0.332   3.552  12.737 -1.5125 -0.5251 -1.2421
 8621SOL     OW37495   3.846   0.371   5.115  0.3512 -0.5070  0.6514
 8621SOL    HW137496   3.905   0.447   5.114 -0.2105 -0.1040 -1.9529
 8621SOL    HW237497   3.851   0.347   5.023 -2.0854 -1.1870  0.6965
 8622SOL     OW37498   3.830   4.121   2.045  0.3723  0.5315 -0.4237
 8622SOL    HW137499   3.791   4.035   2.060  0.3557  0.8684  1.3926
 8622SOL    HW237500   3.775   4.171   2.105 -0.7958  0.1021 -1.1262
 8623SOL     OW37501   0.884   1.403  10.598 -0.3043  0.2786  0.2337
 8623SOL    HW137502   0.875   1.309  10.585 -1.7569  0.2676  1.2106
 8623SOL    HW237503   0.852   1.431  10.512 -0.8749 -0.1201  0.3155
 8624SOL     OW37504   1.781   0.936   3.235  0.4461  0.2754  0.2406
 8624SOL    HW137505   1.843   0.868   3.262 -0.6372 -1.3947 -1.3949
 8624SOL    HW237506   1.710   0.913   3.295 -0.5169 -1.2048 -1.4115
 8625SOL     OW37507   0.696   3.166  17.179  0.6946  0.1228  0.0704
 8625SOL    HW137508   0.748   3.086  17.188  1.1445  0.3403 -0.6000
 8625SOL    HW237509   0.622   3.150  17.238 -0.6401  1.7666 -1.1578
 8626SOL     OW37510   0.035   0.775  14.778  0.1121  0.8421 -0.1851
 8626SOL    HW137511   0.074   0.759  14.864  0.7692 -0.4314 -0.7293
 8626SOL    HW237512   0.024   0.870  14.777 -0.7616  0.7508  0.3313
 8627SOL     OW37513   0.548   2.214   0.379 -0.6993  0.5119  0.0390
 8627SOL    HW137514   0.616   2.225   0.445  0.7659 -0.7116 -1.2786
 8627SOL    HW237515   0.596   2.198   0.298 -1.0861 -1.6440  0.2316
 8628SOL     OW37516   3.713   0.416   5.864 -0.0038 -0.8382  0.0904
 8628SOL    HW137517   3.781   0.481   5.849 -0.0087 -0.9714 -0.5208
 8628SOL    HW237518   3.735   0.392   5.954 -2.0233 -0.2743  0.7371
 8629SOL     OW37519   2.324   2.576   9.598  0.1349 -0.2524 -0.6813
 8629SOL    HW137520   2.291   2.511   9.661 -0.9378  1.3515  0.4219
 8629SOL    HW237521   2.417   2.565   9.616 -0.5095 -1.7259  1.8795
 8630SOL     OW37522   1.007   1.977   0.771  0.5779 -0.1892  0.0716
 8630SOL    HW137523   1.091   1.951   0.732 -0.1685 -0.8370 -1.1035
 8630SOL    HW237524   0.946   1.938   0.708  0.5927 -0.8167  0.4520
 8631SOL     OW37525   4.572   4.701  11.550  0.5006 -0.2263 -0.2229
 8631SOL    HW137526   4.588   4.608  11.535  0.9668 -0.1119 -0.4430
 8631SOL    HW237527   4.610   4.708  11.637 -1.2870  0.2568  0.4967
 8632SOL     OW37528   0.677   0.908   6.897 -0.7391  0.1594  0.6865
 8632SOL    HW137529   0.700   0.905   6.990 -2.4817 -1.0885  1.0641
 8632SOL    HW237530   0.760   0.949   6.872 -1.4760  2.2165  1.6092
 8633SOL     OW37531   0.744   2.321   2.898 -0.2892 -0.3694  0.2325
 8633SOL    HW137532   0.649   2.329   2.898 -0.3204 -0.7586  0.7337
 8633SOL    HW237533   0.755   2.307   2.992 -1.3196  0.4103  0.4599
 8634SOL     OW37534   2.932   2.597  13.028  0.2789  0.3061  0.5680
 8634SOL    HW137535   2.896   2.684  13.012 -3.2111 -0.3649  4.7829
 8634SOL    HW237536   2.990   2.588  12.953  2.3755 -0.6519  2.3016
 8635SOL     OW37537   2.826   1.892   2.861  0.5480  0.4706 -0.3801
 8635SOL    HW137538   2.839   1.859   2.950 -0.2230 -0.1053 -0.4852
 8635SOL    HW237539   2.883   1.836   2.808 -1.4284 -2.1137  0.2547
 8636SOL     OW37540   1.648   2.307   9.753 -0.2175  0.3633  0.1448
 8636SOL    HW137541   1.736   2.297   9.716 -0.7476 -0.2407 -0.9331
 8636SOL    HW237542   1.658   2.316   9.848 -1.1604 -0.7141  0.3488
 8637SOL     OW37543   2.291   2.081   5.829 -0.0529 -0.4114 -0.3906
 8637SOL    HW137544   2.202   2.061   5.799 -0.5448 -1.4341  1.8312
 8637SOL    HW237545   2.267   2.085   5.921  2.0133 -0.0222  0.1296
 8638SOL     OW37546   0.433   1.308   2.804 -0.1843  0.5876  0.0642
 8638SOL    HW137547   0.420   1.389   2.754  1.0888  0.5658 -0.3222
 8638SOL    HW237548   0.424   1.247   2.731 -1.8734  1.3824 -0.3866
 8639SOL     OW37549   4.683   3.754   4.556 -0.7614 -0.4057  0.3215
 8639SOL    HW137550   4.611   3.694   4.578 -0.0025 -1.7173 -0.7591
 8639SOL    HW237551   4.735   3.700   4.497  0.3473 -1.9731  2.7488
 8640SOL     OW37552   3.072   4.168   4.820 -0.0086  0.0305 -0.2682
 8640SOL    HW137553   3.011   4.121   4.764  1.1174 -2.6714  0.7603
 8640SOL    HW237554   3.125   4.216   4.756 -0.4073  0.1046 -0.5359
 8641SOL     OW37555   4.067   4.547  10.921  0.0633  0.0642  0.0611
 8641SOL    HW137556   4.118   4.517  10.996 -1.3027 -0.4394  0.7913
 8641SOL    HW237557   3.994   4.598  10.954 -1.7290 -0.9338 -2.3198
 8642SOL     OW37558   3.476   2.871   1.887  0.2540 -0.2279  0.1460
 8642SOL    HW137559   3.426   2.876   1.969  0.9136  0.5522  0.5037
 8642SOL    HW237560   3.463   2.958   1.850 -0.8153 -0.2031  0.5897
 8643SOL     OW37561   1.494   0.820  17.303 -0.1918 -0.0739 -0.5230
 8643SOL    HW137562   1.468   0.801  17.393 -0.2249  1.2341 -0.2491
 8643SOL    HW237563   1.451   0.905  17.291  0.2816 -0.3921 -4.5776
 8644SOL     OW37564   3.239   2.610   4.835  0.0653 -0.0322 -0.1677
 8644SOL    HW137565   3.305   2.612   4.765  1.3052 -1.9888  0.9635
 8644SOL    HW237566   3.259   2.694   4.877 -3.3523  0.7029 -0.0327
 8645SOL     OW37567   2.484   1.574   8.984 -0.1921  0.4670  0.1674
 8645SOL    HW137568   2.479   1.588   8.889  0.1556  0.2082  0.1116
 8645SOL    HW237569   2.578   1.587   8.992 -0.1332  0.1024  0.0788
 8646SOL     OW37570   0.957   2.744  11.036 -0.2637  0.6281  0.0944
 8646SOL    HW137571   0.943   2.819  10.978 -1.4857 -0.2727 -0.7627
 8646SOL    HW237572   0.883   2.762  11.093 -0.4005 -0.3045  0.2019
 8647SOL     OW37573   2.190   3.653  12.677  0.5083 -0.3375  0.0374
 8647SOL    HW137574   2.194   3.600  12.597  1.4574  0.8657 -0.7109
 8647SOL    HW237575   2.098   3.663  12.701  0.2243 -2.0288 -0.2817
 8648SOL     OW37576   3.776   3.496   5.149 -0.1732 -0.2883 -0.6004
 8648SOL    HW137577   3.811   3.572   5.101  0.4066  0.2108  0.6122
 8648SOL    HW237578   3.806   3.419   5.101 -1.5566 -0.4898 -1.1456
 8649SOL     OW37579   2.294   3.811  10.841  0.1415  0.4519 -0.3679
 8649SOL    HW137580   2.266   3.721  10.822  0.0545  0.5065 -0.4969
 8649SOL    HW237581   2.209   3.853  10.830 -0.5028 -0.5726  0.7529
 8650SOL     OW37582   3.534   4.186  13.765 -0.0831  0.0777  0.1026
 8650SOL    HW137583   3.595   4.113  13.760  0.1890  0.3611 -0.7059
 8650SOL    HW237584   3.497   4.184  13.853 -0.9878 -1.1535 -0.3003
 8651SOL     OW37585   1.857   3.976   2.384  0.1179 -0.4808 -0.1870
 8651SOL    HW137586   1.928   4.026   2.344  2.4008 -1.5923  2.5486
 8651SOL    HW237587   1.840   3.905   2.322 -0.1390  0.6513 -1.4381
 8652SOL     OW37588   3.194   1.739   6.328 -0.3392  0.1279  0.0377
 8652SOL    HW137589   3.160   1.715   6.415  0.0503 -3.8399 -0.9085
 8652SOL    HW237590   3.115   1.736   6.275  1.1344 -0.2456 -2.1412
 8653SOL     OW37591   3.926   2.261   2.517  0.0842  0.2019  0.3579
 8653SOL    HW137592   3.906   2.188   2.458  0.6219  0.5061 -0.2073
 8653SOL    HW237593   3.885   2.335   2.473  2.0119  0.3985 -1.1417
 8654SOL     OW37594   2.048   0.577   2.547 -0.0851  0.3688  0.3933
 8654SOL    HW137595   1.962   0.535   2.542 -0.5382  1.8800 -4.8555
 8654SOL    HW237596   2.049   0.620   2.461  1.0805  0.7406  0.5939
 8655SOL     OW37597   3.549   1.616   0.111  0.2402  0.3993  0.2462
 8655SOL    HW137598   3.617   1.552   0.090  0.9612  1.4110 -0.4811
 8655SOL    HW237599   3.502   1.574   0.183  1.2436  1.1633  1.3452
 8656SOL     OW37600   2.613   3.534  13.767 -0.1579 -0.2965 -1.1819
 8656SOL    HW137601   2.696   3.565  13.731 -0.0281 -0.9126 -1.4154
 8656SOL    HW237602   2.628   3.576  13.852 -3.1217 -0.7170 -0.4447
 8657SOL     OW37603   2.097   2.299   4.918 -0.0875 -0.0140  0.2376
 8657SOL    HW137604   2.106   2.326   5.009  1.2121  1.5167 -0.3497
 8657SOL    HW237605   2.014   2.339   4.891 -1.2918 -0.5394  3.1230
 8658SOL     OW37606   1.672   2.596   3.395 -0.0652  0.3247 -0.0367
 8658SOL    HW137607   1.637   2.653   3.327 -0.2659 -0.3755 -0.5230
 8658SOL    HW237608   1.762   2.626   3.403 -0.5225  1.6162  0.3380
 8659SOL     OW37609   2.758   0.256   8.406  0.2104 -0.0038  0.3316
 8659SOL    HW137610   2.720   0.208   8.479 -0.0986 -1.5497 -0.8585
 8659SOL    HW237611   2.727   0.206   8.330 -0.4453 -0.3671  0.8434
 8660SOL     OW37612   0.570   2.653   2.004  0.2431  1.1686  0.1503
 8660SOL    HW137613   0.566   2.723   1.938 -0.5685  0.7578 -0.2476
 8660SOL    HW237614   0.654   2.617   1.978  0.6713  0.4674  2.5471
 8661SOL     OW37615   1.205   4.566   6.143 -0.2590  0.0853 -0.6796
 8661SOL    HW137616   1.209   4.657   6.116 -2.0871  0.4415  0.2329
 8661SOL    HW237617   1.222   4.518   6.062 -1.1753  1.7451 -1.8510
 8662SOL     OW37618   4.666   4.577  13.166  0.0329  0.0499  0.3864
 8662SOL    HW137619   4.609   4.521  13.114  0.3958 -0.5848  0.6660
 8662SOL    HW237620   4.719   4.507  13.207 -0.6599 -0.1657  0.9089
 8663SOL     OW37621   0.808   3.595   2.808 -0.6495 -0.0926 -0.1691
 8663SOL    HW137622   0.862   3.534   2.757  2.2458  0.7107  1.9770
 8663SOL    HW237623   0.718   3.569   2.786 -0.9023  1.1760 -0.6410
 8664SOL     OW37624   0.154   1.238   3.910 -0.3649 -0.1865 -0.2981
 8664SOL    HW137625   0.135   1.332   3.911  0.3215 -0.0431 -0.8112
 8664SOL    HW237626   0.139   1.220   4.003  1.4053  1.1098  0.2442
 8665SOL     OW37627   3.526   2.267  17.739 -0.0703 -0.5355 -0.4552
 8665SOL    HW137628   3.474   2.290   0.065  1.3780  0.4732  0.2334
 8665SOL    HW237629   3.553   2.181   0.020  1.0884 -0.1110 -0.2790
 8666SOL     OW37630   4.116   3.632   3.626 -0.2961  0.0915  0.1581
 8666SOL    HW137631   4.162   3.700   3.675  2.7985 -1.4187 -0.6508
 8666SOL    HW237632   4.029   3.624   3.667 -0.9458  0.5413 -1.1473
 8667SOL     OW37633   2.311   0.163   4.281 -0.4482  0.5237  0.1025
 8667SOL    HW137634   2.270   0.228   4.224  0.8889  2.9888  1.9080
 8667SOL    HW237635   2.376   0.132   4.219 -0.7927  0.0397 -0.0166
 8668SOL     OW37636   3.322   3.025  11.088 -0.2177  0.3630  0.6994
 8668SOL    HW137637   3.381   3.092  11.054 -1.5088  0.4888 -1.2795
 8668SOL    HW237638   3.383   2.953  11.070  0.2768  1.1612 -0.8057
 8669SOL     OW37639   4.434   3.511   8.650 -0.5374  0.3143 -0.3035
 8669SOL    HW137640   4.410   3.459   8.727 -0.1730 -1.8473 -1.6558
 8669SOL    HW237641   4.471   3.443   8.594  0.8671  0.8270  0.0193
 8670SOL     OW37642   3.155   0.463   7.763 -0.0433  1.0231 -0.3520
 8670SOL    HW137643   3.187   0.456   7.853 -0.0882  0.0109 -0.4117
 8670SOL    HW237644   3.240   0.478   7.721  2.1331 -2.8422  2.6618
 8671SOL     OW37645   3.512   1.721   2.242  0.1445  0.0363 -0.3008
 8671SOL    HW137646   3.518   1.629   2.215 -1.8883 -0.1633 -0.0697
 8671SOL    HW237647   3.430   1.749   2.203 -1.0945 -1.6011  1.1393
 8672SOL     OW37648   3.129   4.596  15.271  0.0666 -0.3893  0.0054
 8672SOL    HW137649   3.050   4.542  15.267  0.9077 -1.3586 -3.0720
 8672SOL    HW237650   3.163   4.582  15.183  2.1136  1.9188  0.4316
 8673SOL     OW37651   0.421   4.612   8.093  0.2357 -0.0023  0.5607
 8673SOL    HW137652   0.405   4.567   8.010  1.1819 -0.8003  0.8050
 8673SOL    HW237653   0.447   4.702   8.071  2.6290 -0.8125  0.0938
 8674SOL     OW37654   3.404   3.360   3.854  0.5248  0.2773  0.5886
 8674SOL    HW137655   3.314   3.330   3.861  0.0759  0.9757 -2.0239
 8674SOL    HW237656   3.441   3.273   3.835  0.4370  0.4207 -0.2743
 8675SOL     OW37657   3.655   1.793   8.919  0.3190  0.1040 -0.2299
 8675SOL    HW137658   3.566   1.823   8.903  0.7955  1.1412 -0.9717
 8675SOL    HW237659   3.685   1.850   8.990 -1.6332 -0.6499  1.1948
 8676SOL     OW37660   3.361   2.545   7.255  0.1515 -0.1242  0.4761
 8676SOL    HW137661   3.425   2.512   7.318  0.0543  0.6994  1.0030
 8676SOL    HW237662   3.399   2.507   7.176 -0.0565 -1.6102  1.0916
 8677SOL     OW37663   1.563   3.016  10.891  0.6077  0.1708 -0.2116
 8677SOL    HW137664   1.474   2.997  10.861 -0.4105  2.4545  1.4095
 8677SOL    HW237665   1.614   2.955  10.838  0.9028  0.1902  0.0495
 8678SOL     OW37666   1.408   3.271   5.712 -0.4473  0.2673  0.3321
 8678SOL    HW137667   1.478   3.253   5.649 -1.1390 -1.0225 -0.0721
 8678SOL    HW237668   1.357   3.190   5.720  1.0634 -0.8237 -1.0729
 8679SOL     OW37669   0.653   1.535   8.019  0.1995 -0.7968 -0.6669
 8679SOL    HW137670   0.570   1.498   8.049  0.1752 -1.1160 -1.1366
 8679SOL    HW237671   0.712   1.464   8.044  1.1357  0.2559  0.1108
 8680SOL     OW37672   3.000   2.539   2.186 -0.3423  0.0300  0.2668
 8680SOL    HW137673   3.055   2.470   2.222  0.6008  0.8925  0.5011
 8680SOL    HW237674   2.914   2.504   2.209 -1.4043  1.7518 -1.0431
 8681SOL     OW37675   0.471   2.890  16.137  0.2838  0.0976 -0.5940
 8681SOL    HW137676   0.393   2.834  16.142  0.6285 -0.3350 -0.0080
 8681SOL    HW237677   0.539   2.843  16.185 -0.4113  0.3930  0.6770
 8682SOL     OW37678   0.307   1.784   5.862  0.1984 -0.4203 -0.4111
 8682SOL    HW137679   0.361   1.737   5.799  2.4108 -0.1551  1.2833
 8682SOL    HW237680   0.247   1.833   5.807 -0.6951 -0.7763  0.2496
 8683SOL     OW37681   4.064   3.672   7.387 -0.4027 -0.0795 -0.8776
 8683SOL    HW137682   4.048   3.631   7.302  2.4759 -0.0548 -1.4380
 8683SOL    HW237683   3.987   3.729   7.388 -0.3101 -0.0324  1.9040
 8684SOL     OW37684   3.050   4.050  16.569  0.2243  0.2325 -0.7205
 8684SOL    HW137685   3.007   4.064  16.485  0.3691  0.6386 -0.7319
 8684SOL    HW237686   3.145   4.063  16.560  0.1933  1.9030  1.2584
 8685SOL     OW37687   2.168   1.685  12.041  0.2073 -0.0172  0.0806
 8685SOL    HW137688   2.151   1.637  12.122 -1.0977  0.9932  0.4032
 8685SOL    HW237689   2.213   1.758  12.084  0.5663 -1.9269  2.9079
 8686SOL     OW37690   2.314   0.931   1.968 -0.2065  0.1598  0.8217
 8686SOL    HW137691   2.308   0.918   2.062  0.1164 -0.3811  0.7657
 8686SOL    HW237692   2.399   0.894   1.943 -0.6759 -0.1603 -0.3086
 8687SOL     OW37693   2.916   0.000   9.103  0.2971 -0.1662  0.3511
 8687SOL    HW137694   2.965   0.071   9.146  1.4783 -0.1651 -0.9864
 8687SOL    HW237695   2.852   4.710   9.167 -0.2187  0.2381  0.0147
 8688SOL     OW37696   2.364   3.810   9.668 -0.3073  0.2921 -0.0662
 8688SOL    HW137697   2.407   3.823   9.583 -0.0945 -0.8410 -0.1331
 8688SOL    HW237698   2.279   3.781   9.635 -1.1173  3.4067 -0.7268
 8689SOL     OW37699   2.574   2.074   5.946  0.3586 -0.6222 -0.2948
 8689SOL    HW137700   2.490   2.059   5.903 -1.2482  0.3993  2.4946
 8689SOL    HW237701   2.564   2.020   6.024  0.5794 -2.5616 -1.6111
 8690SOL     OW37702   4.077   3.069   4.364  0.3128 -0.5549 -0.5915
 8690SOL    HW137703   4.166   3.073   4.399  0.4873 -1.5000 -0.9244
 8690SOL    HW237704   4.098   3.021   4.283 -0.9449 -1.8875 -0.1269
 8691SOL     OW37705   1.700   0.845   2.369 -0.3908 -0.4673  0.0103
 8691SOL    HW137706   1.668   0.880   2.453  1.4998 -0.8049  0.8781
 8691SOL    HW237707   1.671   0.909   2.304  2.0580 -0.2790 -0.8992
 8692SOL     OW37708   3.327   3.324   5.582 -0.6284  0.2152  0.1989
 8692SOL    HW137709   3.373   3.256   5.631  1.2606  1.8946  0.7390
 8692SOL    HW237710   3.265   3.279   5.524  0.5502  1.6497 -2.1956
 8693SOL     OW37711   0.535   1.836   7.259  0.2598  0.0698 -0.5111
 8693SOL    HW137712   0.568   1.771   7.322  1.3689 -0.8855 -2.0573
 8693SOL    HW237713   0.485   1.896   7.313 -0.8695 -1.4573  0.1394
 8694SOL     OW37714   0.837   0.897   3.747  0.1669  0.5338  0.1341
 8694SOL    HW137715   0.854   0.810   3.785 -0.0114 -0.0943 -1.2056
 8694SOL    HW237716   0.899   0.893   3.674  0.9085  0.0986  0.7785
 8695SOL     OW37717   1.850   3.400   0.710 -0.2538 -0.4519 -0.2861
 8695SOL    HW137718   1.788   3.333   0.683  0.1458 -1.9547  2.4816
 8695SOL    HW237719   1.802   3.483   0.701  0.7066  0.0126 -1.1816
 8696SOL     OW37720   2.611   0.070  15.331 -0.6884 -0.0366 -0.2281
 8696SOL    HW137721   2.706   0.079  15.338 -0.6569 -1.2710  0.7862
 8696SOL    HW237722   2.576   0.141  15.385  0.9121  0.4265  0.1935
 8697SOL     OW37723   3.765   3.126  15.537 -0.2398 -0.1233 -0.5015
 8697SOL    HW137724   3.694   3.156  15.481  0.5163  1.5299 -0.5866
 8697SOL    HW237725   3.828   3.093  15.472 -0.9248  0.8154 -1.6463
 8698SOL     OW37726   4.606   2.998   7.799  0.2380 -0.3566 -0.3756
 8698SOL    HW137727   4.537   2.991   7.733  0.0902 -1.6430 -0.0792
 8698SOL    HW237728   4.663   3.059   7.750 -0.1163 -1.2218 -1.8694
 8699SOL     OW37729   2.234   0.984   6.088  0.0468 -0.2109  0.3487
 8699SOL    HW137730   2.260   1.018   6.003  0.6064  0.2416  0.7024
 8699SOL    HW237731   2.316   0.940   6.112 -0.6273 -1.4466  0.3621
 8700SOL     OW37732   0.013   1.197   8.409 -0.1257 -0.0333  0.5416
 8700SOL    HW137733   0.003   1.217   8.316  1.2193 -0.5638  0.2885
 8700SOL    HW237734   4.720   1.280   8.445 -3.1183 -1.2677  0.7875
 8701SOL     OW37735   2.589   3.503   4.415  0.5929  0.3059  0.3780
 8701SOL    HW137736   2.630   3.568   4.471  0.8412 -0.1775  0.7511
 8701SOL    HW237737   2.521   3.555   4.370  1.9906  0.6058 -1.4084
 8702SOL     OW37738   0.509   1.152   4.409  0.6458  0.0276 -0.3839
 8702SOL    HW137739   0.555   1.165   4.491  3.0217  0.7769 -1.8500
 8702SOL    HW237740   0.573   1.192   4.351 -0.3269  0.2284 -1.3192
 8703SOL     OW37741   3.584   4.388   3.943  0.1799 -0.3204  0.1233
 8703SOL    HW137742   3.659   4.444   3.964  0.1077  0.2480 -1.0956
 8703SOL    HW237743   3.613   4.300   3.966 -2.3727 -0.6142  2.1883
 8704SOL     OW37744   0.073   3.327   7.119 -0.3225  0.5179  0.7063
 8704SOL    HW137745   4.719   3.304   7.113 -0.2351  0.0772  0.9706
 8704SOL    HW237746   0.110   3.242   7.145  0.2601  1.2735  2.3440
 8705SOL     OW37747   1.236   1.936   8.660  0.4181  0.5478  0.7860
 8705SOL    HW137748   1.192   1.987   8.592 -0.7332 -0.2085  0.9712
 8705SOL    HW237749   1.240   1.846   8.628  1.7095  0.8523  0.0966
 8706SOL     OW37750   1.329   0.122   5.045 -0.4253  0.2200  0.1251
 8706SOL    HW137751   1.275   0.078   5.111 -0.0732 -2.2216 -1.2262
 8706SOL    HW237752   1.307   0.214   5.056  1.5071  0.5575  1.1051
 8707SOL     OW37753   3.303   4.153   7.829  0.0287 -0.2405  0.2506
 8707SOL    HW137754   3.329   4.090   7.762  0.8742  0.0249  0.3363
 8707SOL    HW237755   3.295   4.101   7.909  0.1671 -0.4690  0.1147
 8708SOL     OW37756   2.456   2.802   9.401 -0.5627 -0.1629 -0.0475
 8708SOL    HW137757   2.395   2.730   9.417 -1.3555  1.2321  3.3130
 8708SOL    HW237758   2.536   2.760   9.432  0.0664  1.0361 -0.0335
 8709SOL     OW37759   1.743   4.086   4.214  0.7092  0.5251  0.3859
 8709SOL    HW137760   1.810   4.144   4.181  1.3809  0.6773  2.0310
 8709SOL    HW237761   1.732   4.118   4.303  1.0824  2.0603 -0.1358
 8710SOL     OW37762   4.657   3.967  12.869  0.2825  0.0569  0.3160
 8710SOL    HW137763   4.616   3.907  12.806  0.0614 -0.7849  1.2777
 8710SOL    HW237764   4.608   4.047  12.848  0.0821 -0.4136 -1.0373
 8711SOL     OW37765   3.355   2.053   0.878 -0.2663 -0.0715  0.4003
 8711SOL    HW137766   3.284   2.095   0.926 -0.5375  0.3541 -0.3738
 8711SOL    HW237767   3.412   2.008   0.941 -1.3802  0.0660  1.5092
 8712SOL     OW37768   4.294   4.109   6.090  0.5725  0.3885  0.5326
 8712SOL    HW137769   4.370   4.097   6.033  0.2208 -1.2364  0.4097
 8712SOL    HW237770   4.249   4.027   6.071 -1.3831  2.0158 -1.7709
 8713SOL     OW37771   2.122   3.810  13.217 -0.3863 -0.0939  0.2315
 8713SOL    HW137772   2.060   3.873  13.253 -0.0843 -1.5697  3.2930
 8713SOL    HW237773   2.056   3.752  13.179 -0.7186  0.8572 -0.6532
 8714SOL     OW37774   3.592   1.841   6.068  0.4549  0.0585  0.5009
 8714SOL    HW137775   3.618   1.867   6.156 -0.0674 -1.0600  0.9857
 8714SOL    HW237776   3.497   1.850   6.075  0.0772 -3.2021 -0.0770
 8715SOL     OW37777   1.318   0.735   8.026  0.4029  0.3620  0.5096
 8715SOL    HW137778   1.300   0.721   8.119 -1.9231 -0.3678 -0.0379
 8715SOL    HW237779   1.240   0.684   8.000  0.6247 -0.7967  2.1048
 8716SOL     OW37780   2.382   1.090   3.930  0.4848 -0.3969 -0.0231
 8716SOL    HW137781   2.341   1.018   3.978 -0.5159  0.0031 -0.2826
 8716SOL    HW237782   2.331   1.094   3.849  2.6638  0.3259 -1.3548
 8717SOL     OW37783   1.342   0.339   5.286  0.7492  0.5946  0.2912
 8717SOL    HW137784   1.323   0.402   5.217 -0.8946 -0.7775 -0.5148
 8717SOL    HW237785   1.306   0.386   5.362  0.2715 -1.9819  1.6609
 8718SOL     OW37786   0.636   4.480   3.960  0.0554  0.5358  0.8473
 8718SOL    HW137787   0.657   4.448   4.048  2.1688  0.3908  0.2902
 8718SOL    HW237788   0.720   4.496   3.917  0.5043  0.4796  1.7081
 8719SOL     OW37789   0.383   2.487   1.775 -0.0408  0.3208  0.3157
 8719SOL    HW137790   0.291   2.515   1.773 -0.5933 -1.7056 -2.5075
 8719SOL    HW237791   0.420   2.529   1.853 -2.0610  1.6513  0.5824
 8720SOL     OW37792   1.701   3.650   0.784 -0.1765  0.3161  0.0570
 8720SOL    HW137793   1.626   3.654   0.842  0.5609  0.5866  0.9844
 8720SOL    HW237794   1.767   3.677   0.848  0.6316 -0.3683 -0.4792
 8721SOL     OW37795   2.918   0.370  10.289 -0.4105  0.6615  0.1072
 8721SOL    HW137796   2.959   0.350  10.205  1.2177  2.7276  0.4048
 8721SOL    HW237797   2.833   0.332  10.266  0.2600 -0.9582  0.3133
 8722SOL     OW37798   2.001   2.363   6.195 -0.5758 -0.4247 -0.5743
 8722SOL    HW137799   2.038   2.362   6.106  0.4883  2.9273 -0.1614
 8722SOL    HW237800   2.056   2.433   6.229 -1.5856 -0.3326  0.8486
 8723SOL     OW37801   2.664   4.010   5.195  0.0410  0.2564  0.4247
 8723SOL    HW137802   2.621   3.935   5.236 -3.2260  1.7201 -0.3610
 8723SOL    HW237803   2.641   3.998   5.103 -1.2114  2.5216  0.4495
 8724SOL     OW37804   1.555   2.491   1.356  0.4266  0.2485 -0.6814
 8724SOL    HW137805   1.539   2.527   1.269  0.9296 -1.2540 -1.4013
 8724SOL    HW237806   1.641   2.523   1.383  0.5089  0.8665 -1.6939
 8725SOL     OW37807   2.470   3.554   2.587 -0.2854  0.8096  0.4842
 8725SOL    HW137808   2.374   3.559   2.592 -0.3847 -0.6492  0.1199
 8725SOL    HW237809   2.493   3.485   2.649  0.3613  0.7448  0.1676
 8726SOL     OW37810   4.631   3.259   3.698  0.1524  0.0792 -0.8780
 8726SOL    HW137811   4.577   3.261   3.777  1.8017 -1.5310  0.2833
 8726SOL    HW237812   4.643   3.165   3.683 -4.2286 -0.5688 -0.5227
 8727SOL     OW37813   1.984   0.519   7.002  0.3529  0.8038 -0.4598
 8727SOL    HW137814   1.992   0.444   7.060  1.4135  0.5421 -0.9270
 8727SOL    HW237815   1.955   0.592   7.056  0.7882  1.1121 -0.6395
 8728SOL     OW37816   1.823   0.409   5.157  0.2886 -0.0983  0.1592
 8728SOL    HW137817   1.786   0.496   5.172  0.4592  0.0581 -0.3309
 8728SOL    HW237818   1.749   0.357   5.189  0.0169 -0.7557 -1.4900
 8729SOL     OW37819   3.972   1.716   4.388  0.4352 -0.2675  0.1907
 8729SOL    HW137820   3.924   1.718   4.305 -1.0308 -4.7648  0.9491
 8729SOL    HW237821   3.942   1.633   4.424 -2.2635  0.6337  0.0626
 8730SOL     OW37822   1.660   0.322   0.611  0.9031 -0.4848  0.3948
 8730SOL    HW137823   1.675   0.271   0.532 -0.3735  0.7902 -0.6693
 8730SOL    HW237824   1.603   0.393   0.580  1.2565 -0.6649 -0.6284
 8731SOL     OW37825   2.292   0.775   2.240  0.7602 -0.3610 -0.0188
 8731SOL    HW137826   2.214   0.736   2.201  1.0565 -1.3176  0.3552
 8731SOL    HW237827   2.249   0.856   2.268 -1.0186 -1.1909 -0.3744
 8732SOL     OW37828   2.423   1.408   1.014  0.0903 -0.2078 -0.3430
 8732SOL    HW137829   2.437   1.323   0.973  0.1783 -0.2782 -0.1679
 8732SOL    HW237830   2.439   1.463   0.937  0.5940 -1.1027 -0.8835
 8733SOL     OW37831   2.201   0.139  12.468 -0.0510  0.2260 -0.5578
 8733SOL    HW137832   2.124   0.194  12.455 -0.1778 -0.3164 -2.1065
 8733SOL    HW237833   2.172   0.084  12.395 -1.3976 -0.4754  0.5193
 8734SOL     OW37834   2.458   3.391   5.000 -0.5281  0.3262  0.0280
 8734SOL    HW137835   2.443   3.351   4.914  0.7410 -0.5799  0.2224
 8734SOL    HW237836   2.551   3.374   5.014 -1.4217 -3.2957  1.6337
 8735SOL     OW37837   2.298   3.597   3.560 -0.3726 -0.3545 -0.3009
 8735SOL    HW137838   2.377   3.578   3.510 -1.4035  0.9348 -2.4173
 8735SOL    HW237839   2.288   3.510   3.597  0.0361  0.5562  1.9958
 8736SOL     OW37840   3.977   4.498   2.332  0.4681 -0.1206 -0.3952
 8736SOL    HW137841   3.958   4.513   2.424 -2.1285 -0.5977 -0.8616
 8736SOL    HW237842   3.981   4.403   2.327 -1.3682 -0.1206 -1.8933
 8737SOL     OW37843   1.192   2.908  11.007  0.8561 -0.4696 -0.2514
 8737SOL    HW137844   1.265   2.846  11.010  1.8926  0.7798  0.6951
 8737SOL    HW237845   1.124   2.841  11.006  1.4246 -1.0011 -2.0693
 8738SOL     OW37846   1.246   0.931  12.412 -0.0416 -0.6016 -0.6114
 8738SOL    HW137847   1.312   0.993  12.380  1.9841 -2.1486  0.5136
 8738SOL    HW237848   1.170   0.983  12.435  1.4529  0.8963  0.9765
 8739SOL     OW37849   4.607   4.599   7.036 -0.4461 -0.8618 -0.1066
 8739SOL    HW137850   4.557   4.672   7.072 -0.2373 -0.2536 -1.0667
 8739SOL    HW237851   4.582   4.603   6.944 -2.5711 -0.5496  0.4808
 8740SOL     OW37852   3.828   2.626  13.891 -0.7000 -0.2801  0.2330
 8740SOL    HW137853   3.826   2.689  13.819  1.0269 -0.6684 -0.1682
 8740SOL    HW237854   3.839   2.546  13.839 -0.1561 -0.2077  0.2350
 8741SOL     OW37855   2.233   2.111  14.058  0.1730  0.5102 -0.1522
 8741SOL    HW137856   2.232   2.031  14.111 -1.4498  1.2396  0.9274
 8741SOL    HW237857   2.313   2.096  14.007  0.2982  1.5169 -0.2610
 8742SOL     OW37858   0.053   2.726   0.508 -0.0986 -0.2756  0.0201
 8742SOL    HW137859   0.099   2.795   0.461 -0.3854  0.8582  1.4038
 8742SOL    HW237860   0.107   2.650   0.488 -0.9387 -0.9167  0.1537
 8743SOL     OW37861   2.475   2.815   3.714 -0.8008 -0.1503 -0.2836
 8743SOL    HW137862   2.396   2.866   3.699 -2.6260 -2.5570  1.2275
 8743SOL    HW237863   2.491   2.836   3.806 -1.0859  1.3240 -0.5622
 8744SOL     OW37864   2.402   2.367   3.081  0.0642  0.1189  0.1315
 8744SOL    HW137865   2.489   2.405   3.064  0.5029 -1.6467 -1.5773
 8744SOL    HW237866   2.379   2.421   3.156 -2.8670 -1.1239  0.1076
 8745SOL     OW37867   3.308   4.429   2.616 -0.0146 -0.2704  0.4242
 8745SOL    HW137868   3.277   4.438   2.526 -1.2149  2.3830  1.0784
 8745SOL    HW237869   3.382   4.372   2.597  1.5239  1.9803 -0.3435
 8746SOL     OW37870   1.860   0.022   2.755  0.1928  0.6714  0.0798
 8746SOL    HW137871   1.857   0.116   2.772 -3.0946  0.5692  0.0800
 8746SOL    HW237872   1.874   0.018   2.661  0.6065  1.2849  0.1172
 8747SOL     OW37873   2.163   0.467   6.233 -0.2202 -0.5807  0.4766
 8747SOL    HW137874   2.227   0.533   6.261 -1.0609 -0.1955  1.4942
 8747SOL    HW237875   2.075   0.505   6.239  0.0505  0.0116  0.8009
 8748SOL     OW37876   2.899   1.986   6.396  0.0551  0.3789 -0.3071
 8748SOL    HW137877   2.929   1.936   6.472 -0.3677  1.0463  0.2957
 8748SOL    HW237878   2.917   1.915   6.334  1.6489  1.4652 -1.0904
 8749SOL     OW37879   1.580   4.661   5.952 -0.3702 -0.1844 -0.3759
 8749SOL    HW137880   1.646   4.612   5.903 -1.7564 -2.0104 -0.4509
 8749SOL    HW237881   1.557   4.594   6.017  0.1153 -0.3146 -0.3397
 8750SOL     OW37882   2.293   1.265   4.133  0.2448  0.1453  0.5487
 8750SOL    HW137883   2.207   1.302   4.111  2.2941  4.0648 -0.8503
 8750SOL    HW237884   2.310   1.222   4.050  1.0970 -0.7934  1.2103
 8751SOL     OW37885   3.975   1.578   0.312 -0.0502 -0.0195 -0.5733
 8751SOL    HW137886   3.880   1.587   0.320 -0.0290  0.3782 -0.7828
 8751SOL    HW237887   3.990   1.672   0.322 -1.3498  0.3841 -2.4603
 8752SOL     OW37888   4.311   1.077   3.681  0.4395 -0.4624  0.4223
 8752SOL    HW137889   4.278   1.074   3.771 -1.3377  3.1694 -0.0912
 8752SOL    HW237890   4.372   1.003   3.678 -0.2732 -1.0193 -0.1971
 8753SOL     OW37891   3.357   4.598   7.113  0.0918  0.0939  0.5928
 8753SOL    HW137892   3.279   4.593   7.057  0.5886  0.8498 -0.1636
 8753SOL    HW237893   3.324   4.543   7.184 -0.1855 -1.5628 -0.8311
 8754SOL     OW37894   1.075   3.605   9.244 -0.2870 -0.3688 -1.1071
 8754SOL    HW137895   0.992   3.574   9.278  0.4127 -2.0718 -0.9876
 8754SOL    HW237896   1.062   3.697   9.220 -0.1173 -0.2954 -0.9191
 8755SOL     OW37897   0.503   3.395   2.163 -0.1753 -0.5941 -0.4242
 8755SOL    HW137898   0.561   3.326   2.197 -0.6176  0.1262  1.8334
 8755SOL    HW237899   0.429   3.374   2.221  0.6853  0.2332  0.9959
 8756SOL     OW37900   1.307   1.646   8.542 -0.1107  0.0349  0.5559
 8756SOL    HW137901   1.361   1.628   8.619 -2.3239 -1.8911  1.6433
 8756SOL    HW237902   1.373   1.699   8.496  0.2806  0.6834  1.8579
 8757SOL     OW37903   2.197   4.469   3.503 -0.3946  0.0210  0.0282
 8757SOL    HW137904   2.202   4.526   3.426  2.9833 -2.3961 -1.5657
 8757SOL    HW237905   2.131   4.508   3.560  0.0219 -1.0138  1.2106
 8758SOL     OW37906   1.669   1.895   6.897 -0.2371 -0.1107 -0.0923
 8758SOL    HW137907   1.669   1.815   6.950  1.3279 -0.7548 -1.0917
 8758SOL    HW237908   1.580   1.929   6.906 -0.4086 -0.5804 -0.0360
 8759SOL     OW37909   4.610   3.421   3.990 -0.5279  0.2083 -0.3952
 8759SOL    HW137910   4.695   3.449   4.023 -0.2387  0.6821 -1.5611
 8759SOL    HW237911   4.609   3.327   4.010 -0.8920  0.1854 -0.5091
 8760SOL     OW37912   0.144   2.811   9.001  0.5998  0.0268  0.2305
 8760SOL    HW137913   0.225   2.852   9.029  1.6748 -1.0732 -1.2958
 8760SOL    HW237914   0.149   2.717   9.019  0.6937 -0.3412 -1.7549
 8761SOL     OW37915   4.695   1.480   7.169  0.9382 -0.3007 -0.0203
 8761SOL    HW137916   4.720   1.418   7.100  1.7914  0.2533 -0.2072
 8761SOL    HW237917   4.623   1.437   7.216 -0.3724  2.3204  0.3351
 8762SOL     OW37918   3.662   1.064   4.556 -0.3003  0.1351 -0.0401
 8762SOL    HW137919   3.608   1.095   4.628 -1.4146  2.2597 -1.7770
 8762SOL    HW237920   3.602   1.075   4.482 -0.8496 -1.1691  0.2084
 8763SOL     OW37921   4.320   2.226   1.743 -0.1223 -0.0300  0.1205
 8763SOL    HW137922   4.312   2.146   1.794  1.1754 -0.4978 -0.4072
 8763SOL    HW237923   4.374   2.277   1.804 -1.8488  2.6144 -0.5419
 8764SOL     OW37924   3.938   3.237  13.391  0.0997  0.0160 -0.4219
 8764SOL    HW137925   3.999   3.181  13.344 -0.6793 -1.8725  0.8267
 8764SOL    HW237926   3.897   3.296  13.328  0.6136  1.5623  0.7004
 8765SOL     OW37927   1.748   4.157   7.785  0.2138  0.3551 -0.0748
 8765SOL    HW137928   1.822   4.114   7.741 -0.5447 -0.3433 -0.6583
 8765SOL    HW237929   1.716   4.091   7.846  1.0458  1.0855  1.1712
 8766SOL     OW37930   4.077   0.848   6.301  0.1377  0.2774  0.5671
 8766SOL    HW137931   4.126   0.852   6.219  0.0098 -0.8230  0.4359
 8766SOL    HW237932   4.099   0.757   6.322  0.5952 -0.3226 -2.5642
 8767SOL     OW37933   2.177   4.649   8.419  0.4653  0.4442 -0.3598
 8767SOL    HW137934   2.253   4.603   8.453  1.7865  4.0625  1.6659
 8767SOL    HW237935   2.211   4.665   8.331 -0.2824  0.1913 -0.6894
 8768SOL     OW37936   3.642   4.343  17.656  0.0937 -0.8446 -0.0747
 8768SOL    HW137937   3.691   4.275  17.702  2.2032  1.4721  1.1362
 8768SOL    HW237938   3.704   4.387  17.597 -0.3988  0.3648  0.3082
 8769SOL     OW37939   1.728   3.587   1.507  0.5885 -0.0507  0.3577
 8769SOL    HW137940   1.796   3.649   1.482 -1.6575  1.1930 -2.6694
 8769SOL    HW237941   1.691   3.629   1.585  0.8346  2.9729 -1.1492
 8770SOL     OW37942   1.907   3.729  12.410  0.3197  0.0264  0.1844
 8770SOL    HW137943   1.829   3.752  12.360  1.1810  0.3316 -1.0183
 8770SOL    HW237944   1.968   3.794  12.375  0.9497  1.5251  4.0278
 8771SOL     OW37945   3.497   4.519  11.308 -0.3048  0.1063 -0.2816
 8771SOL    HW137946   3.460   4.432  11.323 -0.4238  0.5493  2.0459
 8771SOL    HW237947   3.548   4.541  11.386 -0.2288  0.6959 -0.4998
 8772SOL     OW37948   0.483   1.541   6.312 -0.3283  0.1643  0.3343
 8772SOL    HW137949   0.542   1.609   6.279  0.8133 -1.7762 -1.5758
 8772SOL    HW237950   0.538   1.480   6.360  0.9303  1.6289  0.7628
 8773SOL     OW37951   2.325   3.473   1.964  0.2921 -0.1434  0.7668
 8773SOL    HW137952   2.363   3.555   1.931 -0.5184 -0.5442 -1.1578
 8773SOL    HW237953   2.240   3.498   2.002  0.3217  0.8858  0.1724
 8774SOL     OW37954   2.228   0.098  10.915  0.4461  0.0704 -0.0841
 8774SOL    HW137955   2.253   0.005  10.912  3.2458  0.8180 -0.6759
 8774SOL    HW237956   2.166   0.108  10.843 -1.2245  0.1867  1.3703
 8775SOL     OW37957   3.390   3.816   2.317  0.1726 -0.0807 -0.0825
 8775SOL    HW137958   3.340   3.742   2.351  0.4654 -0.1672  0.1547
 8775SOL    HW237959   3.388   3.785   2.226 -3.1086  0.4857 -0.2002
 8776SOL     OW37960   3.758   1.529   8.407 -0.3965  0.4265  0.7527
 8776SOL    HW137961   3.777   1.620   8.385 -2.0755  0.5958  0.0132
 8776SOL    HW237962   3.668   1.525   8.377 -0.2534 -0.3875  0.4384
 8777SOL     OW37963   2.514   4.697   4.171 -0.2911  0.3515  0.1232
 8777SOL    HW137964   2.520   4.710   4.076 -0.9949 -1.5036 -0.1846
 8777SOL    HW237965   2.568   4.618   4.183 -0.4236  0.0996 -0.9725
 8778SOL     OW37966   3.261   4.173   5.336  0.3611  0.3571 -0.5233
 8778SOL    HW137967   3.209   4.187   5.257 -0.2248  1.5624  0.0756
 8778SOL    HW237968   3.334   4.121   5.302  1.3190  2.5922 -1.9393
 8779SOL     OW37969   4.108   0.564   6.313 -0.5701  0.3019  0.4204
 8779SOL    HW137970   4.165   0.559   6.237 -0.3698 -2.2811  0.7598
 8779SOL    HW237971   4.064   0.481   6.297  1.4350 -0.9778  1.6830
 8780SOL     OW37972   0.645   1.154   2.507 -0.3029  0.3349 -0.5981
 8780SOL    HW137973   0.581   1.192   2.447 -1.1217  0.4277  0.3165
 8780SOL    HW237974   0.663   1.067   2.471  0.6153  0.0105  0.6316
 8781SOL     OW37975   2.146   1.045   5.230  0.4459 -0.6792  0.3551
 8781SOL    HW137976   2.174   1.111   5.293 -1.0645 -0.8560  1.2170
 8781SOL    HW237977   2.224   1.023   5.179  0.4587 -0.1915  0.1750
 8782SOL     OW37978   1.905   1.305  15.789  0.0494  0.1468  0.7016
 8782SOL    HW137979   1.905   1.215  15.756 -0.5755 -0.0643  1.2834
 8782SOL    HW237980   1.914   1.355  15.707 -0.6669  0.2206  0.6702
 8783SOL     OW37981   4.510   2.199   6.982 -0.3518 -0.7748 -0.0213
 8783SOL    HW137982   4.434   2.159   6.940 -0.6264 -0.1806 -0.0791
 8783SOL    HW237983   4.579   2.139   6.954  0.1003  0.6842 -1.9582
 8784SOL     OW37984   3.902   2.230   0.004  0.1364 -0.1249  0.7639
 8784SOL    HW137985   3.933   2.189  17.674 -1.9231 -1.0657  0.4563
 8784SOL    HW237986   3.862   2.155   0.048  0.9682 -1.1243 -0.1836
 8785SOL     OW37987   2.920   0.550   4.274  0.4606 -0.8414 -0.2752
 8785SOL    HW137988   2.860   0.561   4.348  0.9600  0.2582 -0.0426
 8785SOL    HW237989   3.005   0.553   4.316  0.0602  2.7995  0.2257
 8786SOL     OW37990   1.575   3.436   7.384 -0.2726 -0.0240 -0.2825
 8786SOL    HW137991   1.514   3.412   7.314  0.7909 -0.3428 -1.0985
 8786SOL    HW237992   1.634   3.361   7.389 -0.8840 -0.5558 -1.0475
 8787SOL     OW37993   0.565   2.384  15.069 -0.3177  0.2489 -0.4692
 8787SOL    HW137994   0.594   2.307  15.021  0.4142  1.0506 -1.3196
 8787SOL    HW237995   0.649   2.427  15.086 -0.4516 -0.0361  0.9380
 8788SOL     OW37996   4.178   1.168  14.213 -0.0036  0.8083  0.2124
 8788SOL    HW137997   4.161   1.145  14.304 -0.0777  0.4530  0.1062
 8788SOL    HW237998   4.101   1.224  14.205 -1.2445 -1.1570 -1.2947
 8789SOL     OW37999   3.266   0.425   7.998 -0.3126  0.4775  0.5363
 8789SOL    HW138000   3.346   0.436   8.049 -0.7772 -0.5841  1.5159
 8789SOL    HW238001   3.259   0.329   8.001 -0.7913  0.4669 -0.7688
 8790SOL     OW38002   4.369   2.435   6.989 -0.5096 -0.3368 -0.1747
 8790SOL    HW138003   4.349   2.442   7.083 -0.3181  0.4824 -0.1927
 8790SOL    HW238004   4.454   2.392   6.982 -0.6365 -0.9076  1.5342
 8791SOL     OW38005   1.070   4.378   6.637 -0.3853  0.0512  0.0421
 8791SOL    HW138006   1.051   4.401   6.546  0.5382  1.8017  0.2938
 8791SOL    HW238007   1.015   4.301   6.647 -0.6301 -0.0148 -1.8692
 8792SOL     OW38008   3.183   1.060   3.874 -0.3730  0.1446  0.1108
 8792SOL    HW138009   3.230   0.977   3.870 -0.5418  0.0181  0.7221
 8792SOL    HW238010   3.111   1.043   3.813 -0.7875 -2.2203  1.2848
 8793SOL     OW38011   3.298   0.084  15.067 -0.3071  0.2572  0.7663
 8793SOL    HW138012   3.357   0.040  15.128 -1.8569 -2.2819  0.4131
 8793SOL    HW238013   3.356   0.148  15.025  1.6443 -1.5711  0.6786
 8794SOL     OW38014   4.571   3.251   4.963  1.0510  0.0942 -0.2141
 8794SOL    HW138015   4.651   3.303   4.956 -0.4371  2.6276  1.4172
 8794SOL    HW238016   4.513   3.311   4.915 -1.1571 -0.3377  1.9222
 8795SOL     OW38017   0.496   0.231   8.257  0.0323 -0.4965  0.0697
 8795SOL    HW138018   0.476   0.188   8.174 -0.5853  2.6314 -1.3982
 8795SOL    HW238019   0.592   0.238   8.260  0.0457  0.3637 -2.2445
 8796SOL     OW38020   1.669   2.639   7.688  0.1413  0.1824 -0.0417
 8796SOL    HW138021   1.717   2.699   7.745 -0.7039 -0.4189  1.3108
 8796SOL    HW238022   1.584   2.684   7.692  0.7119  1.2870 -0.2263
 8797SOL     OW38023   4.239   1.662   5.727  0.1100 -0.9947 -0.0188
 8797SOL    HW138024   4.289   1.692   5.651  1.4817  0.2816  1.4027
 8797SOL    HW238025   4.285   1.709   5.796 -2.9854  3.4041 -0.9512
 8798SOL     OW38026   1.859   1.657   2.052 -0.0688 -0.0126  0.2504
 8798SOL    HW138027   1.824   1.709   1.980 -2.6909 -0.2159  1.3864
 8798SOL    HW238028   1.858   1.574   2.005  0.5953 -0.9814  1.9438
 8799SOL     OW38029   2.135   4.199   3.780  0.1579  0.3527 -0.0325
 8799SOL    HW138030   2.207   4.243   3.823 -0.4453 -1.6965  3.1015
 8799SOL    HW238031   2.160   4.107   3.765  1.1206  0.8678 -1.5774
 8800SOL     OW38032   1.425   4.701   4.035  0.4534  0.1033  0.2609
 8800SOL    HW138033   1.368   4.638   4.080  0.4709 -0.7107 -0.8545
 8800SOL    HW238034   1.369   0.040   4.038  1.2574  0.7442 -1.3151
 8801SOL     OW38035   4.414   2.249   0.775 -0.3476  0.4058  0.1192
 8801SOL    HW138036   4.426   2.278   0.865  0.0249  1.4759 -0.2682
 8801SOL    HW238037   4.446   2.331   0.736  0.6441 -0.9128 -1.8383
 8802SOL     OW38038   4.336   3.610   0.342  0.1385  0.2055  0.2664
 8802SOL    HW138039   4.401   3.563   0.394  1.1248  0.7387 -0.4964
 8802SOL    HW238040   4.347   3.703   0.361 -1.8552  0.9262 -2.0755
 8803SOL     OW38041   2.692   1.272   6.759 -0.1333 -0.0298 -0.2266
 8803SOL    HW138042   2.628   1.201   6.757 -0.3872  0.2102 -0.6859
 8803SOL    HW238043   2.733   1.271   6.672  2.5621 -0.6801  1.0364
 8804SOL     OW38044   4.638   1.714   7.003  0.4853  0.2863  0.2550
 8804SOL    HW138045   4.644   1.663   7.084  1.0925  0.1686  0.1374
 8804SOL    HW238046   4.621   1.646   6.938  0.3316  3.5477 -3.1219
 8805SOL     OW38047   2.487   1.974   2.447  0.0620 -0.0375  0.5436
 8805SOL    HW138048   2.431   1.897   2.462  0.0044 -0.0779  0.1371
 8805SOL    HW238049   2.432   2.049   2.466  0.0862  0.4563 -1.3430
 8806SOL     OW38050   3.903   0.266   5.556  0.3539  0.0385 -0.3070
 8806SOL    HW138051   3.820   0.218   5.566 -0.4212  0.4688 -4.7174
 8806SOL    HW238052   3.869   0.354   5.542  0.8065  0.1259 -0.8316
 8807SOL     OW38053   2.900   0.785   3.527 -0.2675 -0.4583 -0.1309
 8807SOL    HW138054   2.808   0.793   3.504 -0.2829  1.0577  0.4387
 8807SOL    HW238055   2.895   0.825   3.613 -1.1136  1.0922 -0.8921
 8808SOL     OW38056   2.044   1.137   6.833 -0.1853 -0.3555 -0.2891
 8808SOL    HW138057   2.106   1.202   6.866 -0.8055  0.6202 -1.0461
 8808SOL    HW238058   1.991   1.189   6.773  0.5158  1.7013  0.8819
 8809SOL     OW38059   3.096   3.548   2.869  0.1844 -0.2188 -0.4115
 8809SOL    HW138060   3.032   3.580   2.806  0.0840  1.2678  0.4450
 8809SOL    HW238061   3.092   3.624   2.927  0.0245 -0.5184 -0.0265
 8810SOL     OW38062   2.398   0.258   3.213 -0.3067  0.1490  0.4355
 8810SOL    HW138063   2.443   0.174   3.203  0.0682  0.1945  1.7167
 8810SOL    HW238064   2.469   0.322   3.217  0.3422 -0.5711  0.3187
 8811SOL     OW38065   1.610   3.524  15.274 -0.1505 -0.2424  0.0903
 8811SOL    HW138066   1.583   3.484  15.356  0.6594 -0.0940  0.4249
 8811SOL    HW238067   1.685   3.469  15.252  0.4878 -0.3028  2.4540
 8812SOL     OW38068   2.023   4.152   5.976  0.0910 -0.4575 -0.0497
 8812SOL    HW138069   2.022   4.135   6.070 -1.1087  0.5296  0.1082
 8812SOL    HW238070   1.962   4.084   5.948 -0.3578 -0.0887  0.0345
 8813SOL     OW38071   3.580   0.019   0.087  0.4094  0.0899 -0.3098
 8813SOL    HW138072   3.587   4.710   0.170 -1.9156 -3.2420 -1.9976
 8813SOL    HW238073   3.533   4.701   0.026 -0.6653 -0.8494  1.3645
 8814SOL     OW38074   1.616   1.974   9.397 -0.4748  0.7593  0.2666
 8814SOL    HW138075   1.672   1.909   9.355  0.1974 -0.7367  3.4662
 8814SOL    HW238076   1.531   1.931   9.396  0.7740 -1.6579 -1.9517
 8815SOL     OW38077   2.505   4.730   3.244  0.8573 -0.2847 -0.2118
 8815SOL    HW138078   2.589   0.034   3.260 -0.5855  2.4613  0.1653
 8815SOL    HW238079   2.499   4.662   3.311 -1.2452 -0.5497 -0.6683
 8816SOL     OW38080   0.918   1.902   7.508 -0.2855  0.2645  0.5370
 8816SOL    HW138081   0.945   1.832   7.449 -1.3624 -0.7580  1.2654
 8816SOL    HW238082   0.912   1.976   7.447 -2.1096 -1.1707 -1.0360
 8817SOL     OW38083   4.665   0.280   3.249 -0.7216 -0.4672 -0.0890
 8817SOL    HW138084   4.677   0.292   3.155 -0.3953 -1.8911 -0.2337
 8817SOL    HW238085   4.573   0.256   3.254 -0.3231 -1.8683  0.6416
 8818SOL     OW38086   2.917   2.917   4.788  0.0316 -0.8617 -0.3483
 8818SOL    HW138087   2.850   2.984   4.805  1.8564  0.4155  1.8456
 8818SOL    HW238088   2.856   2.846   4.770 -1.7694  0.6356 -0.1911
 8819SOL     OW38089   0.742   3.710  11.221  0.2927 -0.4264  0.1942
 8819SOL    HW138090   0.818   3.768  11.229 -1.4368  1.7705  0.7763
 8819SOL    HW238091   0.722   3.687  11.311 -0.3119 -0.0211  0.1595
 8820SOL     OW38092   0.672   3.604   8.540  0.2336  0.3486  0.4363
 8820SOL    HW138093   0.678   3.542   8.467 -0.6365  0.6998  0.0570
 8820SOL    HW238094   0.597   3.655   8.510  0.7948  1.0533  0.2132
 8821SOL     OW38095   2.533   2.681   2.661 -0.2739  0.1812  0.3622
 8821SOL    HW138096   2.581   2.675   2.578  0.6490  1.3133  0.8050
 8821SOL    HW238097   2.545   2.593   2.696  1.4888  0.3112  0.0920
 8822SOL     OW38098   0.394   2.562   9.001  0.0521 -0.5010  0.7440
 8822SOL    HW138099   0.384   2.479   9.048  0.0398  0.3114  2.1804
 8822SOL    HW238100   0.401   2.618   9.079 -1.0959 -1.1245  1.2943
 8823SOL     OW38101   2.092   3.529   7.850  0.0608 -0.5072  0.1329
 8823SOL    HW138102   2.099   3.618   7.814  0.3817 -0.6252 -0.0969
 8823SOL    HW238103   2.013   3.533   7.904  0.2917 -1.3436  0.5218
 8824SOL     OW38104   2.320   4.126   1.087  0.0283  0.3571  0.5387
 8824SOL    HW138105   2.382   4.177   1.140  0.5382  0.5088 -0.2094
 8824SOL    HW238106   2.384   4.087   1.028 -0.5633 -0.4895  0.4685
 8825SOL     OW38107   1.628   0.842   4.300  0.5675  0.0577  0.9312
 8825SOL    HW138108   1.645   0.771   4.238  0.9492 -2.0725  3.5202
 8825SOL    HW238109   1.572   0.793   4.359 -0.8485  1.3266  0.6512
 8826SOL     OW38110   3.778   2.241   3.560 -0.1410 -0.1180  0.6603
 8826SOL    HW138111   3.782   2.326   3.517 -1.0834 -0.6659 -0.4908
 8826SOL    HW238112   3.756   2.177   3.493 -1.6698  0.0801  0.9707
 8827SOL     OW38113   3.470   3.136   1.812  0.1863  0.2058 -0.5950
 8827SOL    HW138114   3.462   3.120   1.718  1.3428 -2.0649 -0.3337
 8827SOL    HW238115   3.537   3.204   1.805  0.4159  0.1969  1.3482
 8828SOL     OW38116   1.357   4.475   6.368 -0.1475  0.2286 -0.0910
 8828SOL    HW138117   1.355   4.541   6.438 -1.6283  1.7052 -1.5415
 8828SOL    HW238118   1.274   4.492   6.324  0.9100 -3.9647 -3.6973
 8829SOL     OW38119   4.520   2.752   6.088 -0.0991 -0.0953  0.1842
 8829SOL    HW138120   4.572   2.741   6.167  0.6961 -1.0483 -0.4739
 8829SOL    HW238121   4.428   2.733   6.104 -0.4532  0.6208 -0.9626
 8830SOL     OW38122   3.705   4.686   7.791  0.7987  0.6219  0.5957
 8830SOL    HW138123   3.709   4.600   7.750 -1.7815  0.2870  1.0488
 8830SOL    HW238124   3.756   4.733   7.724  0.4294  0.9940  0.5753
 8831SOL     OW38125   2.989   2.360   0.726 -0.3708  0.0349 -0.4668
 8831SOL    HW138126   2.950   2.431   0.777  0.4147 -0.0790  0.2962
 8831SOL    HW238127   3.078   2.358   0.761 -0.1125 -0.6564 -1.1593
 8832SOL     OW38128   1.152   4.295  14.244 -0.4210  0.1919 -0.3590
 8832SOL    HW138129   1.061   4.288  14.214 -1.1703  0.2637  1.8514
 8832SOL    HW238130   1.156   4.245  14.326  0.8285  1.5617  0.4188
 8833SOL     OW38131   4.350   3.354   4.835  0.2786  0.5716  0.3672
 8833SOL    HW138132   4.306   3.372   4.919 -1.4753 -0.5564 -0.3128
 8833SOL    HW238133   4.273   3.316   4.794  0.3637  0.6396  0.1452
 8834SOL     OW38134   2.432   1.003  12.866 -0.5590  0.4708  0.1053
 8834SOL    HW138135   2.402   1.081  12.914  0.1296  1.2109 -0.6669
 8834SOL    HW238136   2.378   1.010  12.787 -0.6893 -4.6662 -0.2424
 8835SOL     OW38137   0.280   2.679  16.917  0.5459 -0.0619  0.4744
 8835SOL    HW138138   0.192   2.654  16.890  0.2830 -1.2917  2.4486
 8835SOL    HW238139   0.331   2.612  16.870 -1.9150 -1.3858 -0.2959
 8836SOL     OW38140   1.764   0.573   3.530  0.0885 -0.2753 -0.1277
 8836SOL    HW138141   1.839   0.526   3.566 -0.3433  0.6538  1.9500
 8836SOL    HW238142   1.683   0.532   3.563  0.5066 -1.4480 -0.5494
 8837SOL     OW38143   2.401   2.469   5.945 -0.5275 -0.1772  0.8839
 8837SOL    HW138144   2.464   2.420   5.998  0.1228 -0.7592 -0.4394
 8837SOL    HW238145   2.338   2.504   6.008  2.3736  1.4467  2.9114
 8838SOL     OW38146   2.685   3.730   0.507  0.2429 -0.2132 -0.5217
 8838SOL    HW138147   2.627   3.781   0.451  1.2949  1.1705 -0.3424
 8838SOL    HW238148   2.648   3.642   0.499  1.9017 -1.1504  2.1034
 8839SOL     OW38149   4.610   3.467   6.273 -0.0839  0.2247 -0.2182
 8839SOL    HW138150   4.588   3.408   6.201 -0.7331 -1.3212  1.2223
 8839SOL    HW238151   4.648   3.542   6.228 -1.4225 -0.1265 -1.9262
 8840SOL     OW38152   0.456   3.637   4.082 -0.4301  0.6963  0.6647
 8840SOL    HW138153   0.466   3.714   4.026 -1.9065  2.0321  2.2246
 8840SOL    HW238154   0.443   3.570   4.015  0.7517  1.2776 -0.1482
 8841SOL     OW38155   3.835   2.997  16.270  0.1577 -0.3932 -0.3132
 8841SOL    HW138156   3.807   2.915  16.310 -0.0996 -0.3365 -0.3736
 8841SOL    HW238157   3.790   3.060  16.326  0.2569  0.2211 -0.9231
 8842SOL     OW38158   0.568   3.783  12.687 -0.0663 -0.0904 -0.3847
 8842SOL    HW138159   0.508   3.823  12.749  0.8401 -1.0580  1.1371
 8842SOL    HW238160   0.513   3.738  12.624  0.3082  0.9266 -1.4216
 8843SOL     OW38161   4.084   3.651   9.665  0.5153  0.1926 -0.1990
 8843SOL    HW138162   4.091   3.740   9.698  0.0794  0.8078 -1.7661
 8843SOL    HW238163   4.085   3.671   9.571  1.5273 -1.2447 -0.4998
 8844SOL     OW38164   1.433   2.739   7.779 -0.0664  0.1146  0.3790
 8844SOL    HW138165   1.427   2.833   7.761  0.2278 -0.5158 -3.0151
 8844SOL    HW238166   1.351   2.725   7.826 -2.1232  2.6918 -2.5201
 8845SOL     OW38167   4.587   2.992   5.794 -0.3454  1.0307  0.4975
 8845SOL    HW138168   4.640   3.069   5.779  1.7135 -0.5659 -0.3785
 8845SOL    HW238169   4.588   2.944   5.711 -0.1290  0.0192  1.0802
 8846SOL     OW38170   3.704   4.270   7.239 -0.7499  0.0441 -0.3592
 8846SOL    HW138171   3.619   4.295   7.202 -0.6676  1.4163  0.3745
 8846SOL    HW238172   3.693   4.249   7.332 -1.8395  2.4204  0.0404
 8847SOL     OW38173   0.703   1.995   5.542 -0.7905  0.2102 -0.3168
 8847SOL    HW138174   0.649   2.056   5.492 -0.2516  0.5393 -0.4953
 8847SOL    HW238175   0.630   1.940   5.572  0.3345 -0.7473  0.6404
 8848SOL     OW38176   4.558   1.518  10.148  0.5376 -0.3441  0.9041
 8848SOL    HW138177   4.548   1.509  10.243 -3.0875  0.9630  0.6282
 8848SOL    HW238178   4.468   1.491  10.129  0.1742  1.3388  0.2416
 8849SOL     OW38179   2.613   0.796   5.250  0.3959 -0.1398  0.2861
 8849SOL    HW138180   2.561   0.724   5.213  0.6228 -0.2689  0.2163
 8849SOL    HW238181   2.554   0.841   5.311  0.4899 -1.3295  1.2536
 8850SOL     OW38182   2.772   0.580   1.765  0.4489 -0.2330 -0.0349
 8850SOL    HW138183   2.689   0.570   1.719  1.4686  0.3211 -2.0042
 8850SOL    HW238184   2.779   0.487   1.786  2.6056  0.7481  3.5855
 8851SOL     OW38185   3.647   1.465   7.358 -0.6023 -0.5186 -0.3555
 8851SOL    HW138186   3.566   1.415   7.349 -0.8365 -0.5053  1.6616
 8851SOL    HW238187   3.715   1.403   7.384 -1.4582 -1.6601 -0.8308
 8852SOL     OW38188   2.732   1.890   8.809 -0.0358 -0.5288 -0.1032
 8852SOL    HW138189   2.646   1.924   8.787 -0.1719 -1.2352 -0.6802
 8852SOL    HW238190   2.775   1.974   8.789  2.2421 -1.9978 -1.4528
 8853SOL     OW38191   1.619   2.924   2.055 -0.0077  0.2361 -0.0362
 8853SOL    HW138192   1.556   2.946   1.985  1.1562  2.7583 -0.2850
 8853SOL    HW238193   1.630   3.009   2.097 -1.1180 -0.1801  1.1140
 8854SOL     OW38194   0.588   2.198   1.726 -0.4671  0.3591  0.3667
 8854SOL    HW138195   0.658   2.259   1.704  0.2486 -0.4099  0.4799
 8854SOL    HW238196   0.577   2.186   1.631  0.5913 -0.6936  0.3664
 8855SOL     OW38197   2.063   4.505  11.516 -0.0939  1.8431  0.7485
 8855SOL    HW138198   1.987   4.501  11.573 -1.0860  0.7885 -0.6673
 8855SOL    HW238199   2.046   4.432  11.456  0.7953  1.1075  1.3966
 8856SOL     OW38200   4.231   4.076  12.229  0.3378 -0.0003  0.6476
 8856SOL    HW138201   4.175   4.129  12.172 -0.3460 -2.1240 -0.6904
 8856SOL    HW238202   4.288   4.029  12.168 -0.2392 -0.2998  0.3435
 8857SOL     OW38203   1.749   2.785   7.225 -0.3261  0.3965 -0.2174
 8857SOL    HW138204   1.739   2.693   7.252 -0.4048  0.2798 -0.6388
 8857SOL    HW238205   1.736   2.833   7.306  1.7691  2.5476 -1.1751
 8858SOL     OW38206   4.044   4.412   7.570  0.2217 -0.1760 -0.0018
 8858SOL    HW138207   4.131   4.450   7.565  0.3681 -0.2837  1.6357
 8858SOL    HW238208   4.034   4.355   7.494 -0.3121 -0.2963  0.1580
 8859SOL     OW38209   1.545   1.864   5.556  0.2911 -0.3999  0.5897
 8859SOL    HW138210   1.490   1.940   5.537  1.5799  0.3423 -0.1715
 8859SOL    HW238211   1.484   1.806   5.601 -1.0036  2.4308  2.4619
 8860SOL     OW38212   4.124   3.689   4.145  0.5935  0.0788  0.3900
 8860SOL    HW138213   4.082   3.665   4.228  1.8973 -0.7783  0.8060
 8860SOL    HW238214   4.088   3.777   4.139 -0.2400 -0.2956 -0.0653
 8861SOL     OW38215   0.408   1.533  11.316  0.2155 -0.3714 -0.5716
 8861SOL    HW138216   0.358   1.463  11.357  0.5541 -1.0708 -1.3530
 8861SOL    HW238217   0.344   1.599  11.291  1.4827  1.1190  0.1576
 8862SOL     OW38218   2.701   2.688  13.924 -0.4367  0.3676  0.1697
 8862SOL    HW138219   2.721   2.724  14.010  0.2553 -1.0552  0.6095
 8862SOL    HW238220   2.605   2.693  13.929 -0.5497 -0.3708 -1.0926
 8863SOL     OW38221   2.021   0.315  15.759 -0.1013 -0.6859  0.4020
 8863SOL    HW138222   2.049   0.297  15.849 -2.0640 -1.1549  0.9344
 8863SOL    HW238223   2.029   0.236  15.705 -0.9087  0.2944 -1.1588
 8864SOL     OW38224   3.369   3.159   6.748 -0.3822 -0.0487  0.2493
 8864SOL    HW138225   3.281   3.196   6.737 -0.7241 -1.0382 -0.4151
 8864SOL    HW238226   3.420   3.191   6.673 -1.8991  2.8972  0.4868
 8865SOL     OW38227   0.194   2.290  15.162 -0.1970  0.3588 -0.0690
 8865SOL    HW138228   0.100   2.276  15.170 -0.1973  0.6011  0.3628
 8865SOL    HW238229   0.219   2.222  15.225  1.6116  1.9232  0.8978
 8866SOL     OW38230   3.586   4.717   8.218  0.9659 -0.0410  0.1432
 8866SOL    HW138231   3.640   4.674   8.152  1.2530  0.4591  0.0461
 8866SOL    HW238232   3.540   0.040   8.160 -0.0990 -0.2194  0.8024
 8867SOL     OW38233   3.815   3.679  14.841 -0.3165 -0.2903  0.0837
 8867SOL    HW138234   3.798   3.611  14.906  3.2363 -1.9920 -0.7744
 8867SOL    HW238235   3.813   3.628  14.760  1.1206  1.0064 -0.7517
 8868SOL     OW38236   1.734   1.860   1.888  0.2395 -0.2809 -0.5147
 8868SOL    HW138237   1.639   1.857   1.877  0.3281 -1.1279 -1.0069
 8868SOL    HW238238   1.738   1.871   1.983  1.7464  0.7210 -0.6740
 8869SOL     OW38239   2.481   2.533  17.746 -0.1979 -0.5820  0.1494
 8869SOL    HW138240   2.417   2.474  17.705 -0.9579  1.9112 -2.2925
 8869SOL    HW238241   2.426   2.602   0.033 -1.1392 -1.6356  0.7197
 8870SOL     OW38242   3.405   1.449   8.095 -0.2211 -0.8008 -0.0115
 8870SOL    HW138243   3.463   1.459   8.019 -0.8828  1.9371 -0.1698
 8870SOL    HW238244   3.326   1.434   8.043 -0.7215  1.6102  0.0464
 8871SOL     OW38245   3.097   2.947   8.427  0.3418  0.1103 -0.1043
 8871SOL    HW138246   3.059   2.944   8.339  2.0934 -0.3413 -0.8534
 8871SOL    HW238247   3.069   2.861   8.456 -1.9957  0.2029 -2.1146
 8872SOL     OW38248   1.376   1.124   2.682 -0.2028 -0.0105  0.6708
 8872SOL    HW138249   1.348   1.123   2.773  2.5666  2.1912  1.5536
 8872SOL    HW238250   1.385   1.219   2.672  1.1140 -0.3527 -1.4961
 8873SOL     OW38251   3.024   0.848   6.580 -0.3698  0.0618 -0.1534
 8873SOL    HW138252   3.074   0.922   6.545 -1.0080  0.7650  0.4399
 8873SOL    HW238253   2.940   0.886   6.607 -0.6394 -0.5400 -0.1521
 8874SOL     OW38254   3.816   1.509   6.906  0.7308  0.1237  0.0780
 8874SOL    HW138255   3.873   1.464   6.968 -0.2409  0.0293  0.8975
 8874SOL    HW238256   3.737   1.456   6.915  0.8028  0.1591  0.8643
 8875SOL     OW38257   1.484   4.331   2.935 -0.8486 -0.0172  0.4703
 8875SOL    HW138258   1.439   4.286   3.005  0.5078 -0.3886  1.1094
 8875SOL    HW238259   1.468   4.423   2.957 -0.7755  0.3552 -1.0157
 8876SOL     OW38260   0.483   2.881   7.495  0.3169  0.0145 -0.0413
 8876SOL    HW138261   0.412   2.930   7.538  1.0469 -1.2418  2.5787
 8876SOL    HW238262   0.531   2.947   7.444  0.3436  0.9559  1.1932
 8877SOL     OW38263   1.928   2.025  12.730 -0.3957 -0.0584  0.4945
 8877SOL    HW138264   2.012   2.026  12.777  0.3340  0.5042 -0.8201
 8877SOL    HW238265   1.903   2.118  12.728 -0.7333 -0.1653 -0.3053
 8878SOL     OW38266   1.967   4.306  14.107  0.4916 -0.2288  0.1630
 8878SOL    HW138267   1.949   4.321  14.014  3.0654 -0.2232 -0.3273
 8878SOL    HW238268   1.881   4.300  14.148  0.0045 -2.3674 -1.1786
 8879SOL     OW38269   1.178   1.674   9.140 -0.0165 -0.0941  0.2355
 8879SOL    HW138270   1.229   1.597   9.119  0.2591 -0.0092  0.5985
 8879SOL    HW238271   1.095   1.665   9.092  1.2963 -0.9855 -1.8388
 8880SOL     OW38272   1.399   4.076   2.820 -0.0297  0.6016  0.1616
 8880SOL    HW138273   1.380   4.169   2.833 -0.0489  0.8187 -1.3717
 8880SOL    HW238274   1.478   4.064   2.871  0.0040  0.0279 -0.0299
 8881SOL     OW38275   4.132   2.358   9.164 -0.2909 -0.3767 -0.5890
 8881SOL    HW138276   4.194   2.365   9.237  0.6701  0.7280 -1.5068
 8881SOL    HW238277   4.050   2.371   9.211  0.4981  4.8085 -0.6079
 8882SOL     OW38278   3.602   1.851   1.464 -0.4280  0.0726 -0.5612
 8882SOL    HW138279   3.651   1.770   1.479  0.4397  0.8688  0.9460
 8882SOL    HW238280   3.577   1.869   1.554 -1.6100 -1.8762 -0.5029
 8883SOL     OW38281   0.387   0.985   6.229 -0.5862 -0.6544  0.1744
 8883SOL    HW138282   0.319   0.924   6.257 -0.1228 -0.2875  2.1353
 8883SOL    HW238283   0.461   0.957   6.283 -0.4615 -0.3227  0.1733
 8884SOL     OW38284   1.114   0.410  15.231 -0.0680 -0.4784  0.0750
 8884SOL    HW138285   1.205   0.381  15.228  0.0082 -0.1350 -0.8179
 8884SOL    HW238286   1.073   0.395  15.146  3.2793  0.8214 -1.7417
 8885SOL     OW38287   1.258   2.221   3.561 -0.3655  0.4014  0.0280
 8885SOL    HW138288   1.293   2.309   3.571 -0.9712  0.7210 -0.7074
 8885SOL    HW238289   1.197   2.217   3.635 -1.3597 -1.5505 -0.8886
 8886SOL     OW38290   3.591   2.159   6.735 -0.0424 -0.0889 -0.4816
 8886SOL    HW138291   3.663   2.135   6.676  0.6855  0.8929  0.0242
 8886SOL    HW238292   3.559   2.244   6.706 -0.3463 -0.5141 -1.3979
 8887SOL     OW38293   4.478   2.194   7.451 -0.3251  0.3127 -0.0503
 8887SOL    HW138294   4.494   2.119   7.394 -0.7645  0.2939 -0.1522
 8887SOL    HW238295   4.539   2.168   7.519  1.2212  1.2912 -1.0773
 8888SOL     OW38296   4.727   3.992   2.023  0.2600  0.2933 -0.1375
 8888SOL    HW138297   4.651   3.936   2.042 -0.2651  0.0024 -3.0242
 8888SOL    HW238298   0.010   4.037   2.104  1.0551 -0.0885 -0.1418
 8889SOL     OW38299   0.116   3.157   8.240 -0.2616 -0.3555 -0.1726
 8889SOL    HW138300   0.127   3.090   8.307 -1.5259 -1.8276 -1.4277
 8889SOL    HW238301   0.068   3.108   8.173 -0.9452 -2.8170  2.1571
 8890SOL     OW38302   2.437   4.460   7.633  0.4971 -0.0005 -0.0644
 8890SOL    HW138303   2.443   4.367   7.613 -3.0793  0.6623 -4.1405
 8890SOL    HW238304   2.444   4.469   7.728  0.5659 -0.5375 -0.0196
 8891SOL     OW38305   0.500   0.678   7.103 -0.2023 -0.0832 -0.2032
 8891SOL    HW138306   0.447   0.603   7.129 -1.0039  1.3618  2.3148
 8891SOL    HW238307   0.556   0.695   7.179 -1.7394 -1.2114  1.1812
 8892SOL     OW38308   3.460   4.704   9.199  0.5545 -0.2983  0.2119
 8892SOL    HW138309   3.421   4.640   9.139 -2.3582  2.2540 -0.6340
 8892SOL    HW238310   3.439   4.651   9.276  0.1040  2.9454  2.3229
 8893SOL     OW38311   2.486   1.967   6.629  0.3154 -0.3983 -0.5817
 8893SOL    HW138312   2.479   2.042   6.570 -3.0634  0.6915  1.1937
 8893SOL    HW238313   2.552   1.998   6.690 -1.9654 -0.4370  1.9222
 8894SOL     OW38314   3.002   3.557   7.928 -0.1292 -0.4097 -0.0521
 8894SOL    HW138315   2.985   3.508   8.009 -0.2607 -0.4317 -0.0936
 8894SOL    HW238316   2.966   3.506   7.856  1.7080 -0.9908 -0.5673
 8895SOL     OW38317   3.402   3.889   1.008 -0.1885 -0.3451  0.6450
 8895SOL    HW138318   3.479   3.922   0.963 -1.7933  1.4436 -0.7565
 8895SOL    HW238319   3.343   3.956   0.976 -1.4519 -1.9411 -0.3577
 8896SOL     OW38320   2.242   4.330   4.213 -0.6654 -0.1934 -0.2743
 8896SOL    HW138321   2.247   4.389   4.288 -0.1310  1.6598 -1.7777
 8896SOL    HW238322   2.197   4.397   4.162 -0.7874  0.2929  0.4705
 8897SOL     OW38323   4.679   3.543  15.203  0.1580  0.3333 -0.1052
 8897SOL    HW138324   4.605   3.568  15.258  0.6363  1.5014  0.0032
 8897SOL    HW238325   4.636   3.557  15.119 -0.7806  0.0810  0.3271
 8898SOL     OW38326   3.637   4.554   7.354  0.2230 -0.1336  0.0573
 8898SOL    HW138327   3.707   4.617   7.335  0.7008 -0.5691  0.3913
 8898SOL    HW238328   3.634   4.489   7.283 -0.4281  0.2868 -0.2989
 8899SOL     OW38329   4.578   3.616   1.809 -0.2889  0.6395 -0.0286
 8899SOL    HW138330   4.526   3.696   1.810  0.7634  1.3441 -1.4938
 8899SOL    HW238331   4.577   3.603   1.714 -0.2311 -1.7911  0.2982
 8900SOL     OW38332   0.455   3.404   6.794 -0.1424  0.1795  0.2986
 8900SOL    HW138333   0.370   3.395   6.837 -0.4884 -2.8806 -1.0129
 8900SOL    HW238334   0.445   3.498   6.779 -1.2324  0.1549  0.8779
 8901SOL     OW38335   1.229   2.672   7.948  0.0568 -0.2737  0.5586
 8901SOL    HW138336   1.141   2.657   7.913  1.1599 -1.9714 -1.4102
 8901SOL    HW238337   1.205   2.702   8.036 -0.0210 -1.0405  0.7948
 8902SOL     OW38338   3.048   2.254   1.627 -0.4758 -0.0170  0.3417
 8902SOL    HW138339   2.976   2.293   1.578 -0.2145 -0.7768 -0.6512
 8902SOL    HW238340   3.111   2.326   1.627 -0.0605 -0.3762 -0.5132
 8903SOL     OW38341   3.673   3.970   5.781  0.3521  0.1401  0.0135
 8903SOL    HW138342   3.736   4.040   5.798  1.6683 -0.4793 -2.2978
 8903SOL    HW238343   3.733   3.901   5.752  1.6984  1.4616 -0.3369
 8904SOL     OW38344   3.898   1.029   7.136  0.4781 -0.2634  0.6097
 8904SOL    HW138345   3.807   1.054   7.146  0.5768 -0.2045  1.3892
 8904SOL    HW238346   3.910   1.043   7.042 -0.3715  1.5686  0.7877
 8905SOL     OW38347   1.205   4.550  11.493 -0.5280 -0.0875 -0.1749
 8905SOL    HW138348   1.247   4.551  11.579  1.2764  2.2591 -1.0792
 8905SOL    HW238349   1.116   4.535  11.526  0.3375 -0.1352  2.1738
 8906SOL     OW38350   2.810   2.424   5.956  0.1992 -0.7226 -0.6663
 8906SOL    HW138351   2.848   2.489   6.016 -1.3434 -0.7282  0.3145
 8906SOL    HW238352   2.873   2.353   5.964  1.6190  0.5028 -0.9072
 8907SOL     OW38353   4.342   3.140   6.540 -0.0143 -0.1599  0.5447
 8907SOL    HW138354   4.384   3.089   6.471 -1.4714 -0.2401 -0.2647
 8907SOL    HW238355   4.406   3.210   6.554  0.7524 -0.7246 -0.1240
 8908SOL     OW38356   2.766   2.756   8.868 -0.0012  0.3842 -0.0162
 8908SOL    HW138357   2.720   2.833   8.901 -1.1277 -0.4121  0.2687
 8908SOL    HW238358   2.767   2.713   8.954  1.6147 -0.6117 -0.5351
 8909SOL     OW38359   2.485   2.791   0.690  0.3250  0.3351  0.3719
 8909SOL    HW138360   2.416   2.840   0.735  0.1954  0.8415 -0.3860
 8909SOL    HW238361   2.541   2.757   0.759  0.9437 -1.6310 -1.0961
 8910SOL     OW38362   1.175   4.065   4.758 -0.6264 -0.3816 -0.2047
 8910SOL    HW138363   1.133   4.148   4.781 -0.8722 -0.9388  1.3715
 8910SOL    HW238364   1.154   4.061   4.665  2.8288 -0.1942 -0.9849
 8911SOL     OW38365   3.641   1.456   5.036  0.2834 -0.1978 -1.2255
 8911SOL    HW138366   3.729   1.453   5.074 -0.9883  1.4495  1.9050
 8911SOL    HW238367   3.648   1.520   4.965  0.3595  2.1629  0.9022
 8912SOL     OW38368   3.509   1.910   4.571 -0.5011 -0.7075 -0.1835
 8912SOL    HW138369   3.459   1.964   4.510  0.7270 -0.4198 -0.9317
 8912SOL    HW238370   3.498   1.827   4.524  0.9733 -0.8542 -0.2523
 8913SOL     OW38371   1.181   3.607   1.682 -0.2088  0.3232  0.0537
 8913SOL    HW138372   1.244   3.535   1.686  2.2792  2.5838  1.9125
 8913SOL    HW238373   1.195   3.646   1.768  1.4970 -0.7477  0.2568
 8914SOL     OW38374   3.461   3.204  16.823  0.6883  0.1643 -0.6839
 8914SOL    HW138375   3.493   3.142  16.756 -0.4256 -0.3728 -0.7148
 8914SOL    HW238376   3.451   3.286  16.774 -0.0999 -0.2517 -1.2253
 8915SOL     OW38377   1.159   1.324   6.559  0.4861  0.3459  0.3603
 8915SOL    HW138378   1.227   1.386   6.586 -1.4240  3.1372 -1.1836
 8915SOL    HW238379   1.221   1.251   6.553 -0.5927 -0.5582  0.3181
 8916SOL     OW38380   3.660   4.064   8.250 -0.2870  0.1231  0.1629
 8916SOL    HW138381   3.615   4.125   8.191 -0.5557 -0.9090 -0.7101
 8916SOL    HW238382   3.606   4.076   8.329 -0.3537  1.6971 -0.1255
 8917SOL     OW38383   4.330   3.641   2.932 -0.3033  0.2862 -0.0845
 8917SOL    HW138384   4.337   3.584   2.856 -2.1246 -0.6640  0.4658
 8917SOL    HW238385   4.283   3.717   2.899 -0.1865  1.3029  2.0594
 8918SOL     OW38386   2.832   3.154   5.871  0.2640 -0.1815  0.5793
 8918SOL    HW138387   2.921   3.120   5.878  0.8467  0.7976 -1.9650
 8918SOL    HW238388   2.847   3.246   5.846 -4.9354  0.1738 -1.2398
 8919SOL     OW38389   1.831   3.991  15.533 -0.1385 -0.2692  0.4255
 8919SOL    HW138390   1.860   3.909  15.492  3.3866  1.8413 -1.3359
 8919SOL    HW238391   1.905   4.006  15.591  0.5273 -1.9895  0.0389
 8920SOL     OW38392   3.677   2.192   6.365  0.0294  0.3049  0.1078
 8920SOL    HW138393   3.654   2.273   6.409 -1.5239  0.1519 -0.4015
 8920SOL    HW238394   3.721   2.150   6.438  0.8589  1.4399  0.2645
 8921SOL     OW38395   4.267   2.971   3.256  0.7164 -0.2109  0.5984
 8921SOL    HW138396   4.355   2.991   3.287  0.6431 -0.4950  0.9929
 8921SOL    HW238397   4.228   2.948   3.341  0.2922 -0.6213  0.2975
 8922SOL     OW38398   0.414   0.310   4.179 -0.0643 -0.6221 -0.3471
 8922SOL    HW138399   0.463   0.255   4.119  0.7909 -0.4379  0.1918
 8922SOL    HW238400   0.369   0.247   4.235 -0.5208 -0.9912 -1.1256
 8923SOL     OW38401   4.423   3.514   2.646  0.2966 -0.3270  0.5071
 8923SOL    HW138402   4.471   3.432   2.635 -0.7013 -0.8389 -0.0760
 8923SOL    HW238403   4.391   3.527   2.557  1.6736  0.5966  0.1668
 8924SOL     OW38404   0.204   4.451   7.458 -0.1705  0.3183  0.0466
 8924SOL    HW138405   0.233   4.368   7.419 -0.9430  1.0896 -2.1492
 8924SOL    HW238406   0.172   4.498   7.381 -0.8904 -0.6177 -0.2286
 8925SOL     OW38407   2.080   2.349   5.912  0.6331  0.0717 -0.2836
 8925SOL    HW138408   2.143   2.394   5.857  1.3930 -1.1223 -0.4012
 8925SOL    HW238409   2.059   2.275   5.855 -1.1907  1.4456 -1.3898
 8926SOL     OW38410   2.317   2.697   0.119  1.0641  0.3653  0.3104
 8926SOL    HW138411   2.239   2.681   0.172  0.6029 -1.0417 -0.7827
 8926SOL    HW238412   2.378   2.732   0.184  1.8707  0.8318 -0.6987
 8927SOL     OW38413   0.955   0.293   5.853  0.4216 -0.4155  0.6496
 8927SOL    HW138414   0.914   0.375   5.881  0.2074 -0.5290  0.6737
 8927SOL    HW238415   1.039   0.327   5.821  0.5297 -0.3780  0.9805
 8928SOL     OW38416   3.279   2.829   6.656  0.3006 -0.0365  0.1891
 8928SOL    HW138417   3.329   2.908   6.635 -1.3390  0.9486 -0.0230
 8928SOL    HW238418   3.275   2.836   6.751  1.3671 -1.4230  0.3341
 8929SOL     OW38419   2.403   0.635   7.731 -0.2947 -0.2710 -0.6583
 8929SOL    HW138420   2.346   0.636   7.808  1.3679  0.3567  0.5471
 8929SOL    HW238421   2.333   0.631   7.666 -1.4694  0.7120  0.5385
 8930SOL     OW38422   1.435   0.450   8.919  0.0192 -0.0609 -0.0359
 8930SOL    HW138423   1.489   0.371   8.925 -0.3188 -0.2168  1.0622
 8930SOL    HW238424   1.392   0.449   9.005  0.3697  2.1753  0.1703
 8931SOL     OW38425   1.208   0.383  12.108 -0.3326 -0.4238  0.2644
 8931SOL    HW138426   1.209   0.475  12.081 -2.5730  0.1776  2.1858
 8931SOL    HW238427   1.301   0.365  12.100 -0.3792 -0.6667  0.2740
 8932SOL     OW38428   0.556   0.277   6.932  0.0832 -0.3414  0.1212
 8932SOL    HW138429   0.613   0.329   6.989  0.1711  0.3662 -0.6122
 8932SOL    HW238430   0.618   0.207   6.914 -0.0765 -0.2107 -0.9637
 8933SOL     OW38431   2.656   3.641   9.133  0.3917  0.1190 -0.0983
 8933SOL    HW138432   2.585   3.606   9.079  1.2250 -2.0192  0.2029
 8933SOL    HW238433   2.714   3.566   9.145 -0.4909 -0.9035 -2.2045
 8934SOL     OW38434   4.640   2.848   5.557 -0.8210 -0.0477  0.1119
 8934SOL    HW138435   4.659   2.777   5.497 -0.5212  0.4699 -0.4060
 8934SOL    HW238436   4.732   2.857   5.584 -1.0512 -2.5111  1.7459
 8935SOL     OW38437   1.355   4.337   8.168  0.1027  0.0693 -0.1031
 8935SOL    HW138438   1.375   4.418   8.216 -0.2815  0.2995 -0.3303
 8935SOL    HW238439   1.424   4.340   8.103 -1.2455  2.3766 -1.4503
 8936SOL     OW38440   4.388   1.549   2.049  0.0471  0.2104 -0.0443
 8936SOL    HW138441   4.478   1.521   2.069  0.3542  1.9064  0.9233
 8936SOL    HW238442   4.345   1.510   2.125  0.9596  0.3490  0.5411
 8937SOL     OW38443   2.079   0.038   4.404  0.3518 -0.3714  0.0832
 8937SOL    HW138444   2.129   0.022   4.324  0.3835  2.2688 -0.4237
 8937SOL    HW238445   2.124   4.722   4.469 -0.5516  0.7086  1.6072
 8938SOL     OW38446   3.732   0.784   4.777  0.3142  0.4903  0.0851
 8938SOL    HW138447   3.746   0.846   4.847 -0.8247 -0.6883  1.3645
 8938SOL    HW238448   3.782   0.835   4.713  1.6809 -1.5316 -0.4630
 8939SOL     OW38449   4.584   1.469  10.871 -0.4982 -0.1724 -0.2182
 8939SOL    HW138450   4.550   1.559  10.867  0.4400  0.3660  4.0217
 8939SOL    HW238451   4.677   1.483  10.884 -0.8804  1.3897  0.8741
 8940SOL     OW38452   2.957   1.765   1.215 -0.3151  0.4257  0.3239
 8940SOL    HW138453   2.993   1.836   1.162 -1.3085 -0.7152 -1.8990
 8940SOL    HW238454   2.909   1.718   1.147  0.6550 -2.7402  1.8400
 8941SOL     OW38455   0.027   1.731  11.559 -0.1691 -0.0246  0.0372
 8941SOL    HW138456   0.019   1.693  11.646  2.1296  0.4706  0.4735
 8941SOL    HW238457   0.006   1.650  11.512  0.3645 -0.2664  0.2050
 8942SOL     OW38458   2.161   3.778   7.752  0.3112  0.4783 -0.0667
 8942SOL    HW138459   2.251   3.810   7.756  0.9482 -1.4218  0.5672
 8942SOL    HW238460   2.110   3.859   7.762 -1.3314 -0.6728  0.9517
 8943SOL     OW38461   0.992   0.515   7.538  0.7626  0.1540 -0.9378
 8943SOL    HW138462   1.045   0.452   7.489 -0.6424 -2.8392  1.3880
 8943SOL    HW238463   0.901   0.490   7.520  0.9806 -1.3547  0.0706
 8944SOL     OW38464   2.201   1.317   1.130 -0.4043  0.2446  0.1660
 8944SOL    HW138465   2.200   1.352   1.218 -0.5032 -0.5019  0.4642
 8944SOL    HW238466   2.276   1.368   1.098 -1.6156 -0.0228 -3.0639
 8945SOL     OW38467   3.439   1.606   9.012  0.1760  0.1986  0.3728
 8945SOL    HW138468   3.488   1.560   8.943  2.6912  1.1275  1.5534
 8945SOL    HW238469   3.434   1.695   8.978 -0.7756 -0.8661 -2.2531
 8946SOL     OW38470   4.065   2.663  16.227  0.4994  0.7354  0.0656
 8946SOL    HW138471   4.063   2.597  16.157  3.2096  2.6514 -1.8208
 8946SOL    HW238472   4.122   2.731  16.192  0.2096  0.6168 -0.6319
 8947SOL     OW38473   0.281   0.726   8.107  0.2471  0.2226 -0.3026
 8947SOL    HW138474   0.301   0.820   8.099  2.4104 -0.2547 -0.4841
 8947SOL    HW238475   0.365   0.694   8.139  0.6414 -1.0406 -2.6172
 8948SOL     OW38476   1.827   1.325   5.424  0.4078 -0.2867 -0.4952
 8948SOL    HW138477   1.918   1.330   5.455  0.6430  2.0246 -1.5927
 8948SOL    HW238478   1.838   1.267   5.349 -1.9565  2.1472 -2.6810
 8949SOL     OW38479   0.983   0.627   2.218 -0.3093 -0.5155  0.1027
 8949SOL    HW138480   0.924   0.553   2.209  0.0698 -1.1190  2.5500
 8949SOL    HW238481   0.926   0.702   2.236  0.2311  0.3219 -1.6085
 8950SOL     OW38482   2.873   0.129   0.685  0.1336  0.5599  0.1055
 8950SOL    HW138483   2.794   0.175   0.656 -0.0642  0.5450  0.6217
 8950SOL    HW238484   2.934   0.191   0.643  0.7992  1.8816  3.0247
 8951SOL     OW38485   1.636   0.186   6.090  0.0763 -0.2795 -0.5072
 8951SOL    HW138486   1.730   0.198   6.095 -0.2818  2.6636 -0.7977
 8951SOL    HW238487   1.641   0.118   6.022 -0.0407  0.7756 -1.5837
 8952SOL     OW38488   2.942   0.806   6.244  0.4690 -0.1771 -0.5515
 8952SOL    HW138489   2.997   0.880   6.218 -1.8279  1.3951 -0.9200
 8952SOL    HW238490   2.980   0.787   6.330 -1.9051 -2.6130 -0.0335
 8953SOL     OW38491   4.439   2.084   5.395  0.6160  0.2582 -0.6150
 8953SOL    HW138492   4.515   2.029   5.374 -1.0227 -2.0721 -0.5081
 8953SOL    HW238493   4.480   2.166   5.423 -0.7465  0.9988 -0.7849
 8954SOL     OW38494   4.559   2.663   0.799  0.2105  0.0201  0.6527
 8954SOL    HW138495   4.573   2.620   0.882 -0.0834 -1.7886 -0.2361
 8954SOL    HW238496   4.569   2.583   0.748 -0.1197  1.2873 -1.4542
 8955SOL     OW38497   1.879   2.343   4.712 -0.2394 -0.5452 -0.0229
 8955SOL    HW138498   1.790   2.332   4.679 -1.1533 -0.7092  2.5000
 8955SOL    HW238499   1.924   2.269   4.671 -1.2892 -1.5216  0.5661
 8956SOL     OW38500   1.202   2.246   5.158 -0.2227 -0.4362 -0.4811
 8956SOL    HW138501   1.121   2.229   5.206  0.2602 -0.6935  0.2396
 8956SOL    HW238502   1.212   2.339   5.181 -2.9552  0.0012 -1.0228
 8957SOL     OW38503   0.823   1.277   8.824  0.3180 -0.4281  0.6081
 8957SOL    HW138504   0.786   1.234   8.747 -0.9269  0.5007  0.6861
 8957SOL    HW238505   0.798   1.367   8.804  0.5423 -0.6092 -0.4947
 8958SOL     OW38506   3.261   4.142   6.520  0.4736 -0.4182  0.0295
 8958SOL    HW138507   3.350   4.131   6.553  0.5514 -0.8782 -0.3312
 8958SOL    HW238508   3.221   4.163   6.604 -0.1996  2.5058 -1.0289
 8959SOL     OW38509   4.228   4.734   5.844 -0.0210  0.1125  0.4475
 8959SOL    HW138510   4.188   0.069   5.797  0.3612  0.6723  1.0078
 8959SOL    HW238511   4.296   4.696   5.789 -2.7336 -0.2342 -2.6800
 8960SOL     OW38512   3.644   1.193  10.907 -0.1991  0.6650  0.0865
 8960SOL    HW138513   3.692   1.144  10.841 -0.3449 -1.1715  1.3358
 8960SOL    HW238514   3.556   1.181  10.873  0.4791 -3.1600 -0.2925
 8961SOL     OW38515   1.022   4.692   5.428 -0.0817 -0.0925  0.2705
 8961SOL    HW138516   1.065   0.007   5.361 -1.5138  0.2615 -0.3551
 8961SOL    HW238517   1.028   0.011   5.504 -1.1390 -0.2483  0.4747
 8962SOL     OW38518   0.030   0.721   5.924 -0.6050 -0.0252 -0.5880
 8962SOL    HW138519   0.008   0.696   6.013  0.4619 -0.4140 -0.4355
 8962SOL    HW238520   0.032   0.817   5.930 -2.0429  0.0008 -0.6815
 8963SOL     OW38521   2.681   2.447   8.985 -0.2165  0.2221  0.6686
 8963SOL    HW138522   2.768   2.416   8.958  0.6056  1.5699  1.7915
 8963SOL    HW238523   2.694   2.518   9.047  2.2827 -1.3742  1.9687
 8964SOL     OW38524   0.918   0.927   2.641  0.5040 -0.4995  0.3066
 8964SOL    HW138525   0.973   0.998   2.607 -0.7672 -0.1226 -1.0033
 8964SOL    HW238526   0.895   0.900   2.552  1.6461 -0.7978  0.1021
 8965SOL     OW38527   1.958   0.019   7.345  0.2127  0.3648 -0.2012
 8965SOL    HW138528   2.008   0.041   7.267 -0.3306  0.9943 -0.3755
 8965SOL    HW238529   1.877   0.067   7.328  0.5757  0.6316 -1.1801
 8966SOL     OW38530   4.607   1.252   4.671  0.0995 -0.3581 -0.2942
 8966SOL    HW138531   4.545   1.317   4.637  0.4571  0.1351 -0.0089
 8966SOL    HW238532   4.570   1.236   4.757 -1.4301  2.5769 -0.4076
 8967SOL     OW38533   3.265   4.004   4.925  0.3315 -0.4485 -0.5597
 8967SOL    HW138534   3.204   4.066   4.885 -0.5392 -0.9535 -0.0274
 8967SOL    HW238535   3.317   4.060   4.982 -0.2737 -0.5310  0.0917
 8968SOL     OW38536   4.492   4.374   2.377 -0.1829 -0.3483  0.6939
 8968SOL    HW138537   4.409   4.362   2.331  1.2793 -2.2465 -1.4764
 8968SOL    HW238538   4.560   4.371   2.310  0.2750  1.1068  1.0985
 8969SOL     OW38539   4.137   3.448   1.493 -0.3612  0.5183 -0.4281
 8969SOL    HW138540   4.046   3.473   1.509 -0.1447  1.0064  0.0386
 8969SOL    HW238541   4.175   3.441   1.580 -4.6905 -1.6100  1.2896
 8970SOL     OW38542   4.327   2.642   1.728  0.1850  0.0933  0.0896
 8970SOL    HW138543   4.382   2.615   1.802 -0.9521 -0.8803  0.5595
 8970SOL    HW238544   4.299   2.731   1.750  1.6051  0.4587  0.4846
 8971SOL     OW38545   3.624   3.863  14.111 -0.0466  0.3608 -0.1638
 8971SOL    HW138546   3.648   3.805  14.183 -1.9652  0.7892  0.8322
 8971SOL    HW238547   3.560   3.813  14.060 -1.7151  1.1524  1.1621
 8972SOL     OW38548   4.286   1.278   8.351  0.5360 -0.0873 -0.0260
 8972SOL    HW138549   4.237   1.262   8.432 -0.2458  0.8337 -0.3169
 8972SOL    HW238550   4.289   1.188   8.320  3.6117 -0.1335  0.3783
 8973SOL     OW38551   3.265   2.910   7.941 -0.5411 -0.0622  0.4163
 8973SOL    HW138552   3.351   2.871   7.955 -0.5736  0.3872  1.8718
 8973SOL    HW238553   3.260   2.977   8.009  1.1198  2.2020 -1.6868
 8974SOL     OW38554   0.814   0.989   8.052 -0.0327 -0.0744  0.6535
 8974SOL    HW138555   0.727   0.949   8.052 -0.3228  0.5875 -0.6934
 8974SOL    HW238556   0.816   1.059   7.987 -0.2889 -0.5073  0.1755
 8975SOL     OW38557   0.452   0.875  14.190 -0.1376  0.4160 -0.1278
 8975SOL    HW138558   0.464   0.802  14.129  0.8149  0.2756  0.2164
 8975SOL    HW238559   0.485   0.824  14.264 -1.3348  0.4927  0.4524
 8976SOL     OW38560   3.324   1.178  14.123  0.0944  0.0372  0.2229
 8976SOL    HW138561   3.417   1.174  14.100  1.1305  3.6912  3.6897
 8976SOL    HW238562   3.334   1.204  14.215 -0.6494  1.8104 -0.1901
 8977SOL     OW38563   1.264   0.476   2.632 -0.1134 -0.4300 -0.3131
 8977SOL    HW138564   1.296   0.482   2.722  0.7796  1.4387 -0.7627
 8977SOL    HW238565   1.179   0.520   2.636  1.1433  1.9727 -0.7121
 8978SOL     OW38566   1.947   4.143   8.926  0.0223  0.2604 -0.7701
 8978SOL    HW138567   1.974   4.064   8.880 -1.0684 -1.1170  0.9980
 8978SOL    HW238568   1.854   4.124   8.942 -0.2967  3.1523  0.9046
 8979SOL     OW38569   3.715   1.406   6.466 -0.2863 -0.5714  0.1520
 8979SOL    HW138570   3.642   1.407   6.528 -0.7437 -0.2491 -0.3946
 8979SOL    HW238571   3.670   1.353   6.400  0.9926  0.6878 -1.7230
 8980SOL     OW38572   4.527   1.321   7.310 -0.7765  0.5253  0.1920
 8980SOL    HW138573   4.433   1.307   7.321 -0.4936 -0.2304  1.5829
 8980SOL    HW238574   4.569   1.236   7.295  0.0068  0.7065  1.3437
 8981SOL     OW38575   3.864   1.497  13.362 -0.4915  0.4655  0.0480
 8981SOL    HW138576   3.944   1.507  13.415 -0.3739 -3.4741  0.5970
 8981SOL    HW238577   3.798   1.536  13.418 -1.6277 -2.8006  0.9747
 8982SOL     OW38578   1.481   0.298   0.864 -0.3319  0.7899  0.7037
 8982SOL    HW138579   1.515   0.291   0.775 -1.0236  0.6276  0.4478
 8982SOL    HW238580   1.389   0.326   0.866 -0.9542 -1.2768  1.2067
 8983SOL     OW38581   4.634   3.416  15.638 -0.1986  0.5085  0.1963
 8983SOL    HW138582   4.625   3.343  15.699 -2.1104 -1.4804 -2.4908
 8983SOL    HW238583   4.727   3.441  15.641 -0.1602  0.3728  0.1706
 8984SOL     OW38584   0.902   1.296   6.462  0.0878 -0.6137 -0.6318
 8984SOL    HW138585   0.997   1.295   6.475  0.1003 -1.1506 -0.7457
 8984SOL    HW238586   0.880   1.384   6.492 -1.4917 -1.1175 -0.3147
 8985SOL     OW38587   3.663   3.356  14.153  0.0364  0.4517 -0.0212
 8985SOL    HW138588   3.664   3.321  14.064  1.2923 -2.5926  1.2056
 8985SOL    HW238589   3.645   3.273  14.196 -2.1058  0.5943 -0.6089
 8986SOL     OW38590   3.759   1.488  17.226  0.0019  0.6040 -0.1984
 8986SOL    HW138591   3.689   1.430  17.195  1.2742 -0.5086 -0.9943
 8986SOL    HW238592   3.718   1.515  17.308 -0.0335 -0.8559  0.2650
 8987SOL     OW38593   3.242   1.455   2.818  0.1425 -0.0458  0.1527
 8987SOL    HW138594   3.229   1.507   2.738  1.6499  0.1951  0.0714
 8987SOL    HW238595   3.168   1.394   2.820 -0.5914  0.8489  0.3970
 8988SOL     OW38596   4.328   4.477   5.715 -0.1275 -0.2101 -0.0783
 8988SOL    HW138597   4.343   4.383   5.705 -1.6667 -0.4005 -0.6053
 8988SOL    HW238598   4.283   4.505   5.636 -0.4852 -0.3663  0.0713
 8989SOL     OW38599   2.274   4.583  10.782  0.0514  0.1964 -0.1589
 8989SOL    HW138600   2.324   4.620  10.709 -0.5797  0.5154 -0.4325
 8989SOL    HW238601   2.285   4.488  10.788 -0.2067  0.1798  0.0516
 8990SOL     OW38602   0.319   2.358  10.501  0.0304  0.0415  0.3726
 8990SOL    HW138603   0.243   2.301  10.488  1.4152 -1.6193 -0.3846
 8990SOL    HW238604   0.380   2.302  10.548 -0.0940  1.1067  1.7957
 8991SOL     OW38605   1.441   0.919   6.618  0.6410 -0.5265 -1.5414
 8991SOL    HW138606   1.421   0.914   6.711 -0.1708 -2.9434 -1.8411
 8991SOL    HW238607   1.521   0.867   6.614  0.3077 -1.2094  0.7226
 8992SOL     OW38608   3.275   0.822  14.737 -0.3216 -0.3894  0.3337
 8992SOL    HW138609   3.212   0.780  14.679 -0.8936  0.9555 -0.0133
 8992SOL    HW238610   3.276   0.917  14.726  0.1611 -0.5990 -1.3085
 8993SOL     OW38611   1.655   4.164   5.864  0.2169  0.3888  0.2848
 8993SOL    HW138612   1.716   4.236   5.880  0.5705  0.3495 -0.8741
 8993SOL    HW238613   1.653   4.166   5.768 -0.2406 -0.0436  0.2824
 8994SOL     OW38614   1.151   2.670   2.094  0.0767  0.1134  0.2727
 8994SOL    HW138615   1.107   2.731   2.036 -0.7742 -2.7919 -2.1355
 8994SOL    HW238616   1.148   2.595   2.035  0.3184 -0.5127  1.0497
 8995SOL     OW38617   4.311   2.048   9.261 -0.4334  0.5013  0.3101
 8995SOL    HW138618   4.288   2.100   9.338 -1.6376 -1.7212  1.4434
 8995SOL    HW238619   4.344   2.120   9.207 -2.6963 -0.1903 -2.0658
 8996SOL     OW38620   3.613   3.575   4.405  0.0621  0.4000  0.2705
 8996SOL    HW138621   3.580   3.596   4.493 -1.2170 -0.6158  0.0251
 8996SOL    HW238622   3.533   3.597   4.358 -0.2587  0.5923  0.9013
 8997SOL     OW38623   2.086   1.486   5.430  0.2526  0.7025  0.2400
 8997SOL    HW138624   2.159   1.486   5.492  0.0174  0.7962  0.5204
 8997SOL    HW238625   2.134   1.497   5.348  0.8261  0.4162  0.5429
 8998SOL     OW38626   0.507   3.490   3.830  0.0615  0.0019  0.3484
 8998SOL    HW138627   0.488   3.433   3.755  0.2686  0.8177 -0.3195
 8998SOL    HW238628   0.503   3.580   3.798  0.9868  1.1444  3.4670
 8999SOL     OW38629   2.316   2.567   6.584  0.0204  0.0220 -0.5412
 8999SOL    HW138630   2.258   2.526   6.520 -0.4721  0.3315 -0.3010
 8999SOL    HW238631   2.356   2.644   6.543  2.5162 -0.3803  1.1664
 9000SOL     OW38632   2.422   0.504   4.261 -0.6674  0.1751  0.0558
 9000SOL    HW138633   2.484   0.438   4.229  0.9506  1.5654  0.3405
 9000SOL    HW238634   2.424   0.567   4.190 -1.9240 -0.8262 -0.8708
 9001SOL     OW38635   3.989   3.600  15.793  0.1146  0.3472  0.2624
 9001SOL    HW138636   3.995   3.546  15.872 -1.4974  0.7673  0.6693
 9001SOL    HW238637   4.038   3.673  15.828 -0.8393  1.5221 -0.8572
 9002SOL     OW38638   3.942   4.285  13.273 -0.6914 -0.3594 -0.7873
 9002SOL    HW138639   3.987   4.208  13.238 -0.2170 -0.3952 -0.1071
 9002SOL    HW238640   3.946   4.267  13.367  1.3464 -0.8260 -0.9555
 9003SOL     OW38641   0.293   1.911  11.004  0.0713 -0.2169 -0.2122
 9003SOL    HW138642   0.308   1.841  10.941 -0.8464 -0.2667 -0.3875
 9003SOL    HW238643   0.197   1.907  11.005  0.0560 -0.0106 -0.7716
 9004SOL     OW38644   0.856   0.757   8.584  0.2259 -0.0537 -0.0067
 9004SOL    HW138645   0.862   0.816   8.510 -0.4460 -0.0183 -0.0336
 9004SOL    HW238646   0.871   0.818   8.656  0.2855 -1.6162  1.3282
 9005SOL     OW38647   1.822   4.732   4.220 -0.1901 -0.1922 -0.0644
 9005SOL    HW138648   1.877   0.034   4.288 -1.3384 -0.5530  1.0831
 9005SOL    HW238649   1.742   4.711   4.267  0.8573 -0.5447  1.6024
 9006SOL     OW38650   4.471   3.167   0.318 -0.0826  0.3967 -0.0656
 9006SOL    HW138651   4.567   3.167   0.328  0.0458  0.2147 -1.2478
 9006SOL    HW238652   4.444   3.092   0.370 -0.5588  0.7743  0.2357
 9007SOL     OW38653   2.562   4.079   5.756  0.1098 -0.3614  0.5131
 9007SOL    HW138654   2.475   4.110   5.782  0.1926 -1.3484  2.0001
 9007SOL    HW238655   2.616   4.151   5.788 -2.1637  1.0588  1.2069
 9008SOL     OW38656   1.721   1.022  12.903 -0.0376  0.4786  0.3203
 9008SOL    HW138657   1.687   0.953  12.959  0.3386  0.8016  0.9391
 9008SOL    HW238658   1.691   1.099  12.951  0.8732  1.1286 -0.1666
 9009SOL     OW38659   2.467   1.668   3.736  0.4243 -0.1671  0.6641
 9009SOL    HW138660   2.392   1.709   3.780  0.6657 -0.0865  1.0003
 9009SOL    HW238661   2.459   1.580   3.772 -0.2332  0.0260  0.9949
 9010SOL     OW38662   3.571   1.726   4.056  0.1933 -0.4346 -0.1401
 9010SOL    HW138663   3.493   1.691   4.013 -0.3221  0.3245  0.1806
 9010SOL    HW238664   3.547   1.818   4.066 -0.6828 -0.6209 -0.5506
 9011SOL     OW38665   2.747   4.593  13.400 -0.4397 -1.0650 -0.1200
 9011SOL    HW138666   2.704   4.596  13.485  0.4811 -0.8578  0.3447
 9011SOL    HW238667   2.800   4.673  13.399  0.8063 -1.8720  0.5476
 9012SOL     OW38668   3.770   0.200   3.765 -0.1020  0.2039 -0.2658
 9012SOL    HW138669   3.677   0.194   3.745  0.5104  0.2851 -3.0801
 9012SOL    HW238670   3.755   0.210   3.859  1.4435  1.9620 -0.2087
 9013SOL     OW38671   0.739   0.032   2.649  0.0578 -0.1178  0.0805
 9013SOL    HW138672   0.754   0.119   2.685  1.3664 -1.4404  2.6789
 9013SOL    HW238673   0.776   0.034   2.561 -0.8262  0.6596 -0.2780
 9014SOL     OW38674   0.210   3.326  17.358 -0.2708 -0.3813  0.5973
 9014SOL    HW138675   0.286   3.343  17.414  1.4206 -1.7708 -1.2721
 9014SOL    HW238676   0.236   3.368  17.276  0.8028 -1.6304  0.3054
 9015SOL     OW38677   0.846   0.041  11.894  0.0721  0.9372  0.2338
 9015SOL    HW138678   0.805   4.709  11.943  0.5932 -0.5378 -1.4477
 9015SOL    HW238679   0.939   0.028  11.911 -0.0901 -2.3757 -1.4573
 9016SOL     OW38680   1.826   4.685  12.293  0.0312 -0.1694  0.3934
 9016SOL    HW138681   1.826   4.589  12.302  0.5235 -0.1503  0.6368
 9016SOL    HW238682   1.921   4.692  12.305  0.3777 -3.0200 -0.4612
 9017SOL     OW38683   3.101   2.490  10.808  0.6107 -0.2312 -0.1567
 9017SOL    HW138684   3.086   2.558  10.743  1.0399  0.6102  0.6321
 9017SOL    HW238685   3.027   2.434  10.785 -0.6023  1.0849  0.5011
 9018SOL     OW38686   3.839   1.885   8.075  0.4310 -0.1880  0.5450
 9018SOL    HW138687   3.789   1.807   8.051 -2.0596  1.5789  0.0832
 9018SOL    HW238688   3.900   1.882   8.001 -2.5776 -0.5617 -1.8932
 9019SOL     OW38689   2.784   3.862   6.776 -0.2468  0.0785  0.2034
 9019SOL    HW138690   2.774   3.801   6.704  0.2300  0.5727 -0.2805
 9019SOL    HW238691   2.865   3.905   6.748 -0.2612  0.8598  1.3316
 9020SOL     OW38692   2.593   4.123   3.870 -0.0649 -0.0925  0.7088
 9020SOL    HW138693   2.685   4.130   3.895  0.7384 -1.5842 -1.7560
 9020SOL    HW238694   2.558   4.075   3.944 -0.4609  1.0612  1.2646
 9021SOL     OW38695   3.523   4.566   8.441  0.4172 -0.2487  0.1267
 9021SOL    HW138696   3.576   4.487   8.443 -0.7915 -0.9827  2.6993
 9021SOL    HW238697   3.551   4.614   8.363  1.3144  1.1739  1.3129
 9022SOL     OW38698   1.411   3.515   2.689  0.3328 -0.5584  0.0122
 9022SOL    HW138699   1.383   3.434   2.731 -1.8144  0.4115  0.4196
 9022SOL    HW238700   1.347   3.573   2.729  0.6960  0.4107 -0.7816
 9023SOL     OW38701   1.719   4.005   9.898 -0.1064  0.9545 -0.2369
 9023SOL    HW138702   1.760   3.996   9.984 -1.6757 -0.7649  0.3209
 9023SOL    HW238703   1.747   3.927   9.851 -1.3682 -0.1967  0.9301
 9024SOL     OW38704   0.418   2.761   5.523  0.7346 -0.0490 -0.2672
 9024SOL    HW138705   0.493   2.791   5.472  0.6186 -0.2789 -0.5728
 9024SOL    HW238706   0.394   2.695   5.457 -1.0028  1.2633 -0.9485
 9025SOL     OW38707   3.290   1.745   0.974 -0.4087  0.0288 -0.2500
 9025SOL    HW138708   3.226   1.816   0.976 -0.4151  0.0641 -2.2240
 9025SOL    HW238709   3.370   1.788   1.004  0.1203 -0.4707 -0.9456
 9026SOL     OW38710   4.696   0.810   7.673 -0.1341 -0.4429  0.3590
 9026SOL    HW138711   4.726   0.896   7.704  1.9997 -0.3066 -2.1130
 9026SOL    HW238712   0.043   0.773   7.650 -0.9401 -0.4170 -2.6505
 9027SOL     OW38713   2.741   0.049   1.924  0.6424  0.1756  0.1092
 9027SOL    HW138714   2.787   4.735   1.989 -0.8202  0.6508  1.5272
 9027SOL    HW238715   2.684   4.720   1.886  2.1584 -1.0804  0.0389
 9028SOL     OW38716   0.520   4.293   2.541 -0.0654  0.0040 -0.0291
 9028SOL    HW138717   0.465   4.341   2.479 -0.7401  0.6957  1.0840
 9028SOL    HW238718   0.564   4.358   2.597 -2.1140  1.0082  0.4025
 9029SOL     OW38719   3.094   4.521   8.758  0.1186 -0.0616 -0.4279
 9029SOL    HW138720   3.172   4.545   8.707 -1.5080 -0.1993 -3.0050
 9029SOL    HW238721   3.104   4.551   8.848 -0.2835 -3.6441  0.8192
 9030SOL     OW38722   3.433   0.230   5.558 -0.3174  0.1328 -0.2216
 9030SOL    HW138723   3.476   0.150   5.590  2.2057  1.2096 -0.9397
 9030SOL    HW238724   3.359   0.224   5.618  0.4816 -3.2047  0.4658
 9031SOL     OW38725   3.195   1.286   0.392 -0.3891 -0.4269 -0.0233
 9031SOL    HW138726   3.141   1.290   0.312  0.6693 -4.9610 -0.9871
 9031SOL    HW238727   3.125   1.296   0.457  0.3529  3.3821  0.1605
 9032SOL     OW38728   4.122   0.802   4.863 -0.0508 -0.0090  0.2948
 9032SOL    HW138729   4.121   0.893   4.891  1.3233 -0.0739  0.5313
 9032SOL    HW238730   4.213   0.781   4.883 -0.1827 -3.2026 -2.4471
 9033SOL     OW38731   4.343   3.571   5.162 -0.3929  0.5543  0.5767
 9033SOL    HW138732   4.303   3.484   5.148 -1.6664  1.5625 -2.0566
 9033SOL    HW238733   4.383   3.554   5.247  1.8219  1.6644 -0.2635
 9034SOL     OW38734   3.233   0.468   3.119  0.1341 -0.0347  0.3798
 9034SOL    HW138735   3.313   0.449   3.167  1.5031  3.2549 -0.5860
 9034SOL    HW238736   3.232   0.388   3.067  1.6949 -0.3404  0.8190
 9035SOL     OW38737   2.567   3.730   3.296 -0.0938 -0.6530  0.0929
 9035SOL    HW138738   2.574   3.659   3.360  1.8965 -0.3405  0.2335
 9035SOL    HW238739   2.528   3.681   3.224 -2.1379  1.7049 -0.3802
 9036SOL     OW38740   4.308   2.312   2.777  0.6548 -0.3084  0.3409
 9036SOL    HW138741   4.282   2.361   2.855  2.5052  0.8373  0.2460
 9036SOL    HW238742   4.393   2.275   2.801  0.3320  0.1223  2.1277
 9037SOL     OW38743   3.157   3.548   1.333 -0.0853  0.0052 -0.2680
 9037SOL    HW138744   3.188   3.623   1.284 -0.4286 -0.0386 -0.5465
 9037SOL    HW238745   3.185   3.575   1.420 -4.0225  1.2596  0.5879
 9038SOL     OW38746   2.731   3.301  15.417  0.1950  0.1495  0.0561
 9038SOL    HW138747   2.796   3.308  15.346 -1.3713 -0.3697 -1.4353
 9038SOL    HW238748   2.770   3.225  15.459 -0.9089  0.4690  1.6796
 9039SOL     OW38749   3.332   4.252   1.147 -0.0688 -0.2987 -0.1732
 9039SOL    HW138750   3.291   4.294   1.222  2.3566  1.6308  0.0818
 9039SOL    HW238751   3.424   4.271   1.164 -0.5094 -0.2109  2.1627
 9040SOL     OW38752   0.893   3.538   3.151 -0.0643 -0.3225 -0.0446
 9040SOL    HW138753   0.841   3.613   3.122 -0.0888 -0.4573 -0.3569
 9040SOL    HW238754   0.982   3.571   3.140  0.2218 -0.8343  0.7365
 9041SOL     OW38755   4.093   0.016   8.385  0.1928  0.5288  0.4821
 9041SOL    HW138756   4.010   0.058   8.406 -0.4988 -0.2371 -0.7047
 9041SOL    HW238757   4.097   4.678   8.442  4.1289  0.2284 -0.1728
 9042SOL     OW38758   0.648   2.660   7.445  0.2820 -0.7613  0.0360
 9042SOL    HW138759   0.743   2.669   7.448  0.0747  0.7680  2.4087
 9042SOL    HW238760   0.615   2.749   7.456  2.7223  0.2375 -0.6689
 9043SOL     OW38761   3.558   3.760   2.929 -0.0636 -0.4915  0.3199
 9043SOL    HW138762   3.511   3.677   2.938  0.3146 -0.8569 -1.0434
 9043SOL    HW238763   3.500   3.817   2.978  0.5987  0.9117 -0.5240
 9044SOL     OW38764   0.006   3.995   8.529  0.1944  0.0136 -0.0018
 9044SOL    HW138765   0.071   3.977   8.597  0.2409 -1.0719 -0.3395
 9044SOL    HW238766   4.673   4.029   8.584  0.2384 -0.5522  0.3987
 9045SOL     OW38767   2.889   3.559   1.539  0.1789  0.3548  0.3255
 9045SOL    HW138768   2.913   3.651   1.523  0.4078  0.2210 -0.1000
 9045SOL    HW238769   2.832   3.557   1.461  0.5284 -0.8543  0.0998
 9046SOL     OW38770   4.134   4.512  12.511  0.7537  0.4999  0.0209
 9046SOL    HW138771   4.180   4.592  12.537 -1.2571  0.6381  3.0900
 9046SOL    HW238772   4.112   4.540  12.422 -0.7742  0.8082  0.5052
 9047SOL     OW38773   1.209   3.132   5.488  0.0074  0.2971  0.1522
 9047SOL    HW138774   1.132   3.080   5.468  0.2069  0.6758 -1.5746
 9047SOL    HW238775   1.246   3.109   5.573  1.0303 -2.8350 -1.1486
 9048SOL     OW38776   3.520   1.986   8.664  0.7576  0.5936 -0.4624
 9048SOL    HW138777   3.483   2.034   8.590  0.4736  0.2570 -0.5363
 9048SOL    HW238778   3.536   1.903   8.618 -0.6621 -1.2502  2.4011
 9049SOL     OW38779   3.905   0.566   8.015  0.3502 -0.4296  0.1630
 9049SOL    HW138780   3.864   0.487   8.052  0.8558 -0.7082  0.1367
 9049SOL    HW238781   3.944   0.610   8.091 -1.1591 -2.5349  2.1543
 9050SOL     OW38782   0.993   3.803  11.247  0.4058  0.1620  0.3044
 9050SOL    HW138783   1.020   3.755  11.169 -0.9750  1.3654 -0.8859
 9050SOL    HW238784   1.031   3.755  11.321 -0.2274  0.9443  1.1393
 9051SOL     OW38785   0.153   2.885  11.493  0.4813 -0.1376 -0.2554
 9051SOL    HW138786   0.165   2.865  11.400 -0.7406 -0.5380 -0.3291
 9051SOL    HW238787   0.123   2.976  11.487 -0.4347 -0.5696 -2.1160
 9052SOL     OW38788   3.045   3.404   1.071 -0.6978  0.1730 -0.3257
 9052SOL    HW138789   3.075   3.409   1.162 -2.7737  0.9199  0.3280
 9052SOL    HW238790   3.028   3.497   1.055 -2.1070  0.4293  2.6123
 9053SOL     OW38791   4.150   0.533  14.372 -0.2083  0.1765  0.2376
 9053SOL    HW138792   4.228   0.587  14.382 -0.9068  1.1746  0.3254
 9053SOL    HW238793   4.151   0.517  14.277  0.9581 -0.9335  0.4378
 9054SOL     OW38794   2.844   4.627  14.426  0.3894  0.0344 -0.8430
 9054SOL    HW138795   2.847   4.677  14.344  0.6063  1.9074  0.3108
 9054SOL    HW238796   2.886   4.694  14.480  1.1233 -0.1482 -1.1885
 9055SOL     OW38797   4.227   3.767   3.884  0.1108  0.6545  0.0154
 9055SOL    HW138798   4.227   3.853   3.842  0.2567  1.1837  1.1070
 9055SOL    HW238799   4.190   3.794   3.968 -1.2971 -0.9359 -0.0793
 9056SOL     OW38800   2.100   2.644   4.977  0.0895  0.4144 -0.1022
 9056SOL    HW138801   2.127   2.677   4.891  1.0874 -1.2464 -0.4289
 9056SOL    HW238802   2.006   2.634   4.960  0.2656  0.0138 -0.8633
 9057SOL     OW38803   3.614   0.756   9.099 -0.5887 -0.0973 -0.7329
 9057SOL    HW138804   3.520   0.757   9.078 -0.1743 -0.9958 -2.6349
 9057SOL    HW238805   3.633   0.667   9.070  0.3167 -0.6883  1.7113
 9058SOL     OW38806   1.381   1.134   3.500 -0.2579 -0.3251  0.7123
 9058SOL    HW138807   1.447   1.180   3.447 -2.1053  1.9875  0.4226
 9058SOL    HW238808   1.419   1.149   3.586  1.5568 -0.1530 -0.1250
 9059SOL     OW38809   0.031   0.442   8.311 -0.1358 -0.2031 -0.2696
 9059SOL    HW138810   0.025   0.415   8.219 -2.5835  1.2020 -0.5306
 9059SOL    HW238811   0.107   0.399   8.351 -0.4572  1.6818  2.3364
 9060SOL     OW38812   0.754   2.179   2.246  0.0195 -0.1900  0.5928
 9060SOL    HW138813   0.707   2.112   2.196  0.5519 -0.9697  1.1355
 9060SOL    HW238814   0.685   2.244   2.256 -1.5586 -1.1672 -3.9206
 9061SOL     OW38815   0.560   1.202   5.596  0.0803 -0.0648 -0.0122
 9061SOL    HW138816   0.592   1.240   5.678  0.9177  1.0034 -0.8445
 9061SOL    HW238817   0.554   1.109   5.617 -2.4760 -0.4534 -2.4517
 9062SOL     OW38818   0.349   3.871   4.559 -0.5807 -0.4840  0.3785
 9062SOL    HW138819   0.275   3.863   4.620 -0.0132 -0.5875  1.0567
 9062SOL    HW238820   0.301   3.844   4.481 -0.4760 -1.0824  0.5176
 9063SOL     OW38821   2.616   1.978  13.291 -0.4996  0.2033 -0.3950
 9063SOL    HW138822   2.607   2.001  13.384 -1.2568 -0.9886 -0.1710
 9063SOL    HW238823   2.707   1.948  13.292 -0.3282  0.7371  1.1156
 9064SOL     OW38824   0.197   2.451   9.778  0.3752 -0.6604  0.9319
 9064SOL    HW138825   0.162   2.366   9.754  2.8559 -1.4157 -0.0394
 9064SOL    HW238826   0.260   2.468   9.707  0.1894 -1.2035  0.6365
 9065SOL     OW38827   2.081   4.729   6.034 -0.2724  0.1624 -0.6081
 9065SOL    HW138828   2.024   4.656   6.057 -1.4731  0.4538 -2.6257
 9065SOL    HW238829   2.149   4.680   5.986 -2.6209 -1.9011 -1.8481
 9066SOL     OW38830   3.179   1.744  17.604  0.0519  0.2547  0.2877
 9066SOL    HW138831   3.192   1.838  17.609  0.6047  0.2112 -0.3046
 9066SOL    HW238832   3.097   1.737  17.555 -0.0630  0.6391  0.4263
 9067SOL     OW38833   0.289   2.782   3.322  0.0591  0.0502 -0.0319
 9067SOL    HW138834   0.225   2.809   3.256  1.5699 -0.5701 -1.7453
 9067SOL    HW238835   0.315   2.696   3.290 -1.9035 -0.4071 -0.4028
 9068SOL     OW38836   0.186   1.900   1.921  0.1293  0.1691  0.0982
 9068SOL    HW138837   0.276   1.888   1.892 -0.1718 -0.1031 -0.7363
 9068SOL    HW238838   0.185   1.851   2.003 -0.7441  1.7548  1.0313
 9069SOL     OW38839   4.490   2.801  15.400 -0.6056  1.0655  0.1920
 9069SOL    HW138840   4.400   2.826  15.421 -1.7763 -1.4835 -1.7024
 9069SOL    HW238841   4.540   2.865  15.450  1.7228 -0.8924  0.3415
 9070SOL     OW38842   4.252   2.643  16.618 -0.4294 -0.1182  0.0731
 9070SOL    HW138843   4.228   2.727  16.656  0.6717  0.6522 -0.9355
 9070SOL    HW238844   4.170   2.599  16.597  0.5124 -0.8499 -2.0967
 9071SOL     OW38845   0.494   1.792   2.453  0.0654 -0.2037 -0.1087
 9071SOL    HW138846   0.583   1.775   2.484 -0.1613  0.3586  0.8734
 9071SOL    HW238847   0.459   1.704   2.440  0.3113  0.1747 -3.3207
 9072SOL     OW38848   2.145   3.186   9.458 -0.4210  0.3282  0.1736
 9072SOL    HW138849   2.138   3.254   9.526  0.4720  1.1695 -0.5708
 9072SOL    HW238850   2.106   3.235   9.387 -0.1998  0.2425 -0.0066
 9073SOL     OW38851   3.134   4.347   9.238  0.0913  0.1682 -0.7526
 9073SOL    HW138852   3.080   4.268   9.248  0.9601 -0.1392  1.5420
 9073SOL    HW238853   3.178   4.311   9.161  1.4436  0.5971 -0.1834
 9074SOL     OW38854   1.649   0.028   9.965  0.2247  0.0970 -0.0291
 9074SOL    HW138855   1.630   0.072  10.047  2.5524  0.6043  0.2345
 9074SOL    HW238856   1.658   4.677   9.999  0.8187  0.5282  0.9323
 9075SOL     OW38857   0.312   1.176   5.228  0.0387 -0.1983 -0.3778
 9075SOL    HW138858   0.225   1.138   5.239 -0.8289  1.4541 -1.5836
 9075SOL    HW238859   0.301   1.236   5.301  1.4584 -1.2800  0.7178
 9076SOL     OW38860   4.616   1.217   9.069  0.2154  0.3535 -0.0512
 9076SOL    HW138861   4.614   1.302   9.023 -2.5153  0.9623  1.1759
 9076SOL    HW238862   4.540   1.230   9.125  0.6053 -0.8832  0.7320
 9077SOL     OW38863   0.827   2.382   6.372  0.5697  0.4923  0.3519
 9077SOL    HW138864   0.786   2.306   6.330  2.0526 -0.4092  0.5052
 9077SOL    HW238865   0.769   2.381   6.448 -0.0966 -0.4299 -0.1722
 9078SOL     OW38866   4.406   1.894   6.244 -0.1117 -0.4408  0.0035
 9078SOL    HW138867   4.330   1.837   6.252 -0.4191  0.0899  0.8935
 9078SOL    HW238868   4.401   1.925   6.154  1.1240 -2.1322 -0.6448
 9079SOL     OW38869   4.669   2.153   3.259 -0.1811  0.4443  0.0266
 9079SOL    HW138870   4.601   2.182   3.320 -2.2919 -0.2603 -1.9976
 9079SOL    HW238871   4.709   2.082   3.310 -0.8212  0.5970  0.7392
 9080SOL     OW38872   1.887   2.387   4.313 -0.0157 -0.3571  0.0899
 9080SOL    HW138873   1.944   2.429   4.378 -0.7734 -0.7427  1.0007
 9080SOL    HW238874   1.897   2.455   4.247 -3.3406  0.0689  0.0121
 9081SOL     OW38875   3.147   2.611  14.705 -0.3810  0.2345 -0.0863
 9081SOL    HW138876   3.228   2.660  14.716  0.1717 -0.4017 -1.3701
 9081SOL    HW238877   3.091   2.656  14.768  0.2884 -0.2340  0.8599
 9082SOL     OW38878   3.123   0.176  12.808  0.1749 -0.3969  0.5603
 9082SOL    HW138879   3.128   0.214  12.896  1.8704  0.5999  0.0368
 9082SOL    HW238880   3.043   0.125  12.822  0.7537 -1.5429 -0.2738
 9083SOL     OW38881   2.125   0.328  10.592 -0.2179 -0.0808 -0.5158
 9083SOL    HW138882   2.077   0.410  10.603  1.1914  0.8349 -1.1767
 9083SOL    HW238883   2.121   0.287  10.679  0.3561 -0.4143 -0.6461
 9084SOL     OW38884   3.983   2.887  15.572 -0.3832  0.4219  0.0020
 9084SOL    HW138885   3.941   2.933  15.645 -0.6279 -1.0744  0.8054
 9084SOL    HW238886   3.911   2.840  15.530  1.7963 -3.0376  0.1020
 9085SOL     OW38887   3.999   0.500  10.853 -0.3739 -0.1412 -0.6478
 9085SOL    HW138888   3.943   0.480  10.779  0.2480  0.6793 -1.3364
 9085SOL    HW238889   3.941   0.516  10.927 -0.7172  0.3894 -1.0359
 9086SOL     OW38890   3.615   0.301   5.217  0.1489 -0.2153 -0.4169
 9086SOL    HW138891   3.701   0.333   5.187 -0.5051  1.5360 -0.4483
 9086SOL    HW238892   3.649   0.239   5.282  0.8477  2.7434  2.0761
 9087SOL     OW38893   4.676   1.734   3.812 -0.4362 -0.3127 -0.2881
 9087SOL    HW138894   4.640   1.715   3.725  1.2256  0.5860 -1.1830
 9087SOL    HW238895   4.596   1.705   3.856 -1.0011  1.2003 -0.3103
 9088SOL     OW38896   1.266   2.233   6.122  0.3278  0.0837 -0.5317
 9088SOL    HW138897   1.192   2.261   6.176 -0.2459  2.4240 -2.4959
 9088SOL    HW238898   1.327   2.301   6.150 -0.0351  1.1081 -2.2288
 9089SOL     OW38899   4.108   1.902   5.455 -0.0388 -0.5636  0.4999
 9089SOL    HW138900   4.067   1.855   5.527  1.8210  0.0356  1.9435
 9089SOL    HW238901   4.038   1.944   5.404  0.9980  0.5073 -0.0268
 9090SOL     OW38902   0.543   4.308   3.263 -0.1423 -0.3021 -0.6489
 9090SOL    HW138903   0.529   4.216   3.239 -0.4975 -0.8410  1.6239
 9090SOL    HW238904   0.597   4.302   3.342 -2.2052 -0.7100  0.7213
 9091SOL     OW38905   1.343   0.907  12.049  0.4728 -0.0467 -0.0973
 9091SOL    HW138906   1.251   0.924  12.068  0.6121  1.3814 -0.6624
 9091SOL    HW238907   1.383   0.979  12.098  1.3966 -0.4166 -0.2988
 9092SOL     OW38908   0.843   2.576   6.116 -0.2328  0.3879  0.5585
 9092SOL    HW138909   0.837   2.625   6.034 -0.5146 -1.3193 -0.4482
 9092SOL    HW238910   0.752   2.564   6.143  0.2269 -3.3625  0.4585
 9093SOL     OW38911   3.596   0.541   8.966 -0.8790  0.6126  0.6347
 9093SOL    HW138912   3.654   0.470   8.994 -0.3132  0.3038 -1.2643
 9093SOL    HW238913   3.590   0.525   8.871  0.2648 -0.6823  0.7809
 9094SOL     OW38914   1.821   2.933   5.334 -0.3329 -0.1895 -0.3300
 9094SOL    HW138915   1.773   2.880   5.396  0.4092  1.2256  1.4537
 9094SOL    HW238916   1.854   2.860   5.283  1.2224  2.1797 -2.7309
 9095SOL     OW38917   0.435   0.933   2.302  0.0578  0.0953  0.2334
 9095SOL    HW138918   0.469   0.952   2.214 -2.2872  3.5073  0.0733
 9095SOL    HW238919   0.481   0.849   2.301  1.2462  0.7359  1.7206
 9096SOL     OW38920   0.075   1.260   5.909 -0.2785  0.1579  0.0337
 9096SOL    HW138921   0.074   1.291   5.999 -0.8185  0.8973 -0.2213
 9096SOL    HW238922   0.165   1.270   5.879  0.2411 -1.7418  0.9526
 9097SOL     OW38923   0.010   2.174   2.616  0.1272 -0.7530 -0.5065
 9097SOL    HW138924   0.074   2.103   2.622  1.8413  0.7534 -0.8197
 9097SOL    HW238925   0.068   2.246   2.592 -1.5265  1.6324  2.6326
 9098SOL     OW38926   4.045   2.884   1.969 -0.1423 -0.2321 -0.1498
 9098SOL    HW138927   4.118   2.837   2.011 -2.7316 -1.1724  3.3082
 9098SOL    HW238928   3.975   2.835   2.013 -0.6032  2.8047  2.5275
 9099SOL     OW38929   0.048   0.086   0.093  0.5000  0.3429  0.0830
 9099SOL    HW138930   0.080   0.075   0.003  1.8935 -1.6426  0.8066
 9099SOL    HW238931   4.695   0.109   0.078  0.3885  0.4301  0.8934
 9100SOL     OW38932   2.328   4.218   1.750 -0.0626  0.3290  0.4569
 9100SOL    HW138933   2.417   4.248   1.768  0.3827 -1.4194  1.2098
 9100SOL    HW238934   2.292   4.227   1.838 -1.0958 -0.3945  0.1090
 9101SOL     OW38935   0.396   1.223  10.011 -0.0115 -0.4126  0.0730
 9101SOL    HW138936   0.345   1.290   9.966  1.8830  0.7406 -0.3814
 9101SOL    HW238937   0.378   1.241  10.103 -3.4683 -1.5396 -0.3850
 9102SOL     OW38938   1.581   0.637   6.272  0.1645  0.3851  0.0402
 9102SOL    HW138939   1.650   0.577   6.298  0.4253 -0.6991 -3.2344
 9102SOL    HW238940   1.549   0.602   6.189 -0.2987  0.4880  0.1740
 9103SOL     OW38941   2.466   4.598   1.517  0.3696  0.4401  0.4878
 9103SOL    HW138942   2.526   4.655   1.565 -0.4055  0.6006  1.2620
 9103SOL    HW238943   2.389   4.654   1.509  0.9673  1.0492 -0.8985
 9104SOL     OW38944   1.100   4.559   5.767 -0.1495  0.1420 -0.7442
 9104SOL    HW138945   1.184   4.593   5.799 -1.2552  0.9391  1.3640
 9104SOL    HW238946   1.135   4.538   5.681  1.4984  0.0032 -0.0296
 9105SOL     OW38947   0.078   2.469   6.557 -0.2819  0.2397  0.6948
 9105SOL    HW138948   0.112   2.467   6.468 -0.7055 -1.4510  0.5829
 9105SOL    HW238949   0.091   2.378   6.584  1.3333 -0.5039 -2.6320
 9106SOL     OW38950   2.557   2.776  13.597 -0.1795  0.5464 -0.6239
 9106SOL    HW138951   2.594   2.699  13.640 -0.2420  0.4497 -0.7423
 9106SOL    HW238952   2.554   2.841  13.667 -1.2576 -0.5766  0.3836
 9107SOL     OW38953   2.462   0.212   7.597 -1.1622  0.0889 -0.3520
 9107SOL    HW138954   2.495   0.283   7.652  0.8658 -1.7828  0.8320
 9107SOL    HW238955   2.398   0.271   7.557  0.6116  2.4904  0.3341
 9108SOL     OW38956   0.206   1.217  17.232 -0.5463 -0.7062 -0.5508
 9108SOL    HW138957   0.114   1.197  17.215 -1.6809  1.6391  2.8883
 9108SOL    HW238958   0.191   1.312  17.237  2.1229 -0.4701  3.0793
 9109SOL     OW38959   3.884   1.176   5.821 -0.2438 -0.5768  0.3960
 9109SOL    HW138960   3.885   1.248   5.758  3.1304 -0.0295  1.0851
 9109SOL    HW238961   3.805   1.200   5.869  1.3483  1.6848  1.8872
 9110SOL     OW38962   4.087   1.686   4.731  0.2128 -0.4882 -0.4459
 9110SOL    HW138963   4.123   1.684   4.642 -0.2113 -0.9823 -0.6076
 9110SOL    HW238964   4.067   1.593   4.744  2.9971 -1.1535 -0.8600
 9111SOL     OW38965   0.881   1.608  14.525 -0.0266 -0.4846  0.2575
 9111SOL    HW138966   0.900   1.547  14.454  1.1000 -0.1987  0.3151
 9111SOL    HW238967   0.916   1.563  14.602 -0.2049 -0.2261  0.4871
 9112SOL     OW38968   2.278   0.028   5.170  0.6798 -0.4279 -0.3643
 9112SOL    HW138969   2.350   4.719   5.129  0.7968 -1.6063  1.1936
 9112SOL    HW238970   2.253   4.718   5.249 -0.2937 -1.3199 -1.2313
 9113SOL     OW38971   4.083   4.291  11.391  0.1627 -0.3914  0.6393
 9113SOL    HW138972   4.016   4.252  11.447 -0.3993  0.5042  0.5843
 9113SOL    HW238973   4.127   4.351  11.451 -2.7770  1.3664  1.0262
 9114SOL     OW38974   2.631   0.875   4.202  0.4133 -0.1981  0.3862
 9114SOL    HW138975   2.701   0.837   4.149 -0.7821  0.6788 -1.8444
 9114SOL    HW238976   2.673   0.959   4.223  0.9442 -0.4697  0.4317
 9115SOL     OW38977   2.686   1.330   1.422  0.0294  0.2398 -0.0771
 9115SOL    HW138978   2.743   1.256   1.402 -2.1251 -1.3262 -0.4884
 9115SOL    HW238979   2.752   1.388   1.460  1.0927 -1.7065  1.0358
 9116SOL     OW38980   4.036   4.642  12.049  0.1663 -0.1410 -0.4398
 9116SOL    HW138981   3.969   4.574  12.051 -0.8370  0.9052  1.1855
 9116SOL    HW238982   3.978   4.714  12.070  1.1275  0.8331 -1.1466
 9117SOL     OW38983   4.535   4.639   3.807  0.3961 -0.2392 -0.6538
 9117SOL    HW138984   4.544   4.734   3.819  0.1881 -0.0245 -2.2713
 9117SOL    HW238985   4.625   4.624   3.775  0.7536  1.9105 -0.6274
 9118SOL     OW38986   2.812   2.695  12.248  0.1213  0.0466 -0.7256
 9118SOL    HW138987   2.747   2.632  12.280  1.6796 -0.9528  0.4933
 9118SOL    HW238988   2.764   2.766  12.206  0.7802  1.2134  0.4885
 9119SOL     OW38989   2.392   2.257   5.411  0.3388  0.6491  0.3268
 9119SOL    HW138990   2.362   2.334   5.458 -0.1639  0.6563  0.0023
 9119SOL    HW238991   2.379   2.195   5.482 -2.4957 -0.6939 -1.3263
 9120SOL     OW38992   1.093   2.150   9.313  0.2967  0.1157 -0.4090
 9120SOL    HW138993   1.012   2.106   9.337  0.2940  0.1691 -0.3194
 9120SOL    HW238994   1.153   2.108   9.374  0.4937 -0.2849 -0.8869
 9121SOL     OW38995   0.489   2.699   9.221  0.4838  0.0960 -0.3299
 9121SOL    HW138996   0.539   2.779   9.237 -0.0264  0.3199  0.1657
 9121SOL    HW238997   0.509   2.645   9.297  1.3944  0.5694 -0.2340
 9122SOL     OW38998   4.279   0.437  11.314  0.2256  0.7281  0.5732
 9122SOL    HW138999   4.371   0.442  11.340  0.4367  0.7123 -0.1787
 9122SOL    HW239000   4.249   0.528  11.313 -1.8037  0.0413  0.1858
 9123SOL     OW39001   1.165   0.621   0.215 -0.3710  0.1279  0.1881
 9123SOL    HW139002   1.202   0.660   0.135 -1.1746  2.3547  0.8953
 9123SOL    HW239003   1.200   0.533   0.202  2.1706  1.2400 -0.7604
 9124SOL     OW39004   3.953   2.983   2.292 -0.0700  0.0442 -0.1514
 9124SOL    HW139005   3.947   2.889   2.304 -2.2110 -0.0282 -1.6274
 9124SOL    HW239006   3.876   2.992   2.235 -1.7585  4.5173  2.8324
 9125SOL     OW39007   4.586   1.489  14.711  0.1484 -0.1539 -0.1951
 9125SOL    HW139008   4.573   1.511  14.619 -2.0036  0.5609  0.2811
 9125SOL    HW239009   4.504   1.523  14.745  0.7556 -0.7343  1.8873
 9126SOL     OW39010   0.049   4.356   1.232 -0.1480  0.0612  0.2126
 9126SOL    HW139011   0.055   4.272   1.187 -2.5103  1.1079 -2.0990
 9126SOL    HW239012   4.702   4.352   1.275  0.4951 -1.6916  1.3042
 9127SOL     OW39013   3.179   0.998   7.769 -0.1399 -0.7117  0.1338
 9127SOL    HW139014   3.146   0.953   7.847  1.3314 -1.2716  0.4262
 9127SOL    HW239015   3.232   0.929   7.729 -0.6698 -0.7118 -0.5629
 9128SOL     OW39016   2.987   1.910   2.468 -0.3705  0.0270 -0.0214
 9128SOL    HW139017   2.905   1.874   2.434 -0.1488  2.0136 -2.7000
 9128SOL    HW239018   3.033   1.915   2.384 -0.6687  2.4054 -0.0522
 9129SOL     OW39019   1.892   3.450  11.938  0.0962  0.1019  0.1563
 9129SOL    HW139020   1.922   3.408  11.857 -0.1850 -2.6480  1.4907
 9129SOL    HW239021   1.829   3.509  11.897 -0.2657 -0.9275 -0.7818
 9130SOL     OW39022   2.369   0.030   1.933 -0.5821  0.4231 -0.7440
 9130SOL    HW139023   2.434   4.699   1.919 -0.1246  0.5458  0.6955
 9130SOL    HW239024   2.304   4.737   1.871 -0.1390 -1.9513 -0.0602
 9131SOL     OW39025   1.264   0.459   9.129  0.0334 -0.1308 -0.6895
 9131SOL    HW139026   1.168   0.467   9.127 -0.2276 -2.8520  1.3890
 9131SOL    HW239027   1.295   0.505   9.207  0.6070  1.0562 -1.6074
 9132SOL     OW39028   2.320   2.119   4.501 -0.6988 -0.3790  0.0263
 9132SOL    HW139029   2.336   2.176   4.576  0.2875 -0.1874 -0.3216
 9132SOL    HW239030   2.309   2.032   4.539  0.3008  0.1208  1.4753
 9133SOL     OW39031   3.843   3.349   5.422 -0.5859 -0.5258  0.2262
 9133SOL    HW139032   3.859   3.285   5.353  1.8026  1.3994 -1.0070
 9133SOL    HW239033   3.776   3.403   5.380 -1.9787 -1.2547  1.4690
 9134SOL     OW39034   2.180   2.959   1.502 -0.6136  0.3549  0.1691
 9134SOL    HW139035   2.143   3.046   1.517 -1.2107  0.2366 -0.5928
 9134SOL    HW239036   2.179   2.914   1.586 -0.7542 -0.2396 -0.1522
 9135SOL     OW39037   3.565   4.006   3.285  0.0663  0.1114 -0.1774
 9135SOL    HW139038   3.646   3.960   3.308 -0.7434 -1.8060 -1.1702
 9135SOL    HW239039   3.600   4.064   3.218 -0.2436 -1.2566 -1.5168
 9136SOL     OW39040   0.658   0.419  16.644  0.0618  0.0963  0.4675
 9136SOL    HW139041   0.714   0.414  16.721  3.6053  0.6614 -2.0516
 9136SOL    HW239042   0.599   0.345  16.648  1.4924 -1.1469 -1.2304
 9137SOL     OW39043   2.166   1.655   4.411 -0.0186 -0.3862  0.2521
 9137SOL    HW139044   2.071   1.652   4.400 -0.2029 -1.2671  2.1888
 9137SOL    HW239045   2.180   1.737   4.458 -0.4395 -1.2911  1.9492
 9138SOL     OW39046   3.749   2.868   7.693  0.8446 -0.1508  0.7897
 9138SOL    HW139047   3.726   2.957   7.665 -1.6596 -0.8434  0.6132
 9138SOL    HW239048   3.733   2.815   7.615 -0.6804 -1.7803  2.2079
 9139SOL     OW39049   0.731   0.863   8.947  0.4854 -0.0688  0.1293
 9139SOL    HW139050   0.717   0.954   8.975  1.1744 -0.7337  2.6269
 9139SOL    HW239051   0.783   0.878   8.868  1.9187 -0.6628  0.9491
 9140SOL     OW39052   3.122   2.466   8.683 -0.2702  0.5556  0.0292
 9140SOL    HW139053   3.081   2.551   8.696 -0.4095  0.3070  1.2446
 9140SOL    HW239054   3.080   2.442   8.601 -1.6469  0.0141  0.8789
 9141SOL     OW39055   2.619   1.448   7.542  0.2292  0.0357  1.0771
 9141SOL    HW139056   2.714   1.450   7.536 -0.0359  0.3795 -2.5842
 9141SOL    HW239057   2.589   1.417   7.457  0.6671 -2.6795  1.8894
 9142SOL     OW39058   2.530   4.726   5.417 -0.0148  0.5556 -0.3551
 9142SOL    HW139059   2.622   0.012   5.416 -0.0810  0.9150  1.1299
 9142SOL    HW239060   2.525   4.642   5.372  0.3901  0.9630 -1.1413
 9143SOL     OW39061   2.992   4.403   7.782 -0.4657  0.3737  0.4364
 9143SOL    HW139062   3.052   4.460   7.733 -0.0569 -0.1336  0.3550
 9143SOL    HW239063   3.054   4.378   7.850 -1.5282 -2.4934  0.3172
 9144SOL     OW39064   1.946   4.237   4.089  0.2653 -0.2673  0.1760
 9144SOL    HW139065   1.939   4.249   3.995 -0.7989 -1.4713  0.0917
 9144SOL    HW239066   1.961   4.329   4.111  0.2035 -0.4220  0.8896
 9145SOL     OW39067   0.363   2.661  12.016  0.4596  0.4392  0.0136
 9145SOL    HW139068   0.301   2.649  11.945 -1.4525  1.8028  1.4585
 9145SOL    HW239069   0.442   2.613  11.991  0.9355  1.3221 -0.1535
 9146SOL     OW39070   0.542   0.169  12.044  0.2964 -0.1919  0.5186
 9146SOL    HW139071   0.486   0.146  11.970 -0.9903 -1.6904  1.9710
 9146SOL    HW239072   0.495   0.121  12.112  1.7583 -0.3804  1.4001
 9147SOL     OW39073   0.566   0.112   9.890 -0.0906  0.6694  0.0466
 9147SOL    HW139074   0.644   0.110   9.835 -0.0770  1.2769  0.0429
 9147SOL    HW239075   0.517   0.071   9.819 -1.8748 -1.1962  2.3510
 9148SOL     OW39076   0.316   0.196   5.755  0.7222 -0.1164 -0.0907
 9148SOL    HW139077   0.291   0.130   5.690 -1.0233  0.6035 -0.1579
 9148SOL    HW239078   0.246   0.173   5.817 -0.0539  0.2708 -0.8181
 9149SOL     OW39079   4.446   2.651  14.324  0.4920 -0.3227 -0.5660
 9149SOL    HW139080   4.394   2.653  14.244  0.2798 -1.9121 -0.4660
 9149SOL    HW239081   4.486   2.564  14.320  1.3241 -0.1195  3.4989
 9150SOL     OW39082   1.447   2.715   6.219 -0.1947 -0.1619  0.5938
 9150SOL    HW139083   1.421   2.688   6.131  0.3313  1.8359 -0.1650
 9150SOL    HW239084   1.369   2.766   6.241 -0.5990 -0.3335 -0.3997
 9151SOL     OW39085   2.524   3.019  14.160  0.1848  0.1030  0.3617
 9151SOL    HW139086   2.492   2.987  14.244  2.9569  0.6332  1.6209
 9151SOL    HW239087   2.442   3.043  14.117  1.2852 -0.9346 -2.3314
 9152SOL     OW39088   1.877   0.030   0.683  0.2281 -0.6670  0.4218
 9152SOL    HW139089   1.820   0.021   0.760 -2.5658  0.0164 -1.5739
 9152SOL    HW239090   1.965   0.015   0.719  0.0994  2.6739  2.0924
 9153SOL     OW39091   4.550   0.892  15.790 -0.5606  0.0467  0.1398
 9153SOL    HW139092   4.575   0.849  15.872  0.7259  0.4024 -0.0521
 9153SOL    HW239093   4.482   0.831  15.762 -2.9037  2.0835  1.4024
 9154SOL     OW39094   2.877   1.636   4.127  0.3136  0.3422 -0.2826
 9154SOL    HW139095   2.931   1.679   4.061  2.7299 -3.3159 -0.7148
 9154SOL    HW239096   2.894   1.697   4.199 -2.1673  0.1904  0.4173
 9155SOL     OW39097   0.013   3.648  16.259  0.3193 -0.0632  0.5377
 9155SOL    HW139098   0.081   3.584  16.238  2.5738  1.9951  1.5161
 9155SOL    HW239099   0.026   3.718  16.195 -2.4621 -0.6687 -0.6475
 9156SOL     OW39100   3.281   2.966   5.079 -0.3373  0.0630 -0.0483
 9156SOL    HW139101   3.273   2.988   4.987  0.8816 -3.7507 -1.0560
 9156SOL    HW239102   3.251   3.048   5.120 -0.5886  0.3077 -0.7290
 9157SOL     OW39103   3.311   3.382   5.254  0.4104 -0.3159 -0.3231
 9157SOL    HW139104   3.260   3.463   5.247 -3.5707 -2.8237 -0.4117
 9157SOL    HW239105   3.238   3.321   5.244 -0.0244  0.3095 -0.9978
 9158SOL     OW39106   3.907   2.114   0.319 -0.2781 -0.3492  0.3373
 9158SOL    HW139107   3.819   2.093   0.351  0.2605 -0.8762  1.4653
 9158SOL    HW239108   3.965   2.134   0.392 -1.1460  1.3948  0.5363
 9159SOL     OW39109   1.471   4.196  10.928 -0.0744 -0.5834 -0.7422
 9159SOL    HW139110   1.566   4.190  10.935 -0.4272 -3.2661  1.4944
 9159SOL    HW239111   1.440   4.115  10.968 -1.9826  0.2505 -0.5513
 9160SOL     OW39112   1.092   3.553   3.459  0.0578 -0.4388  0.0813
 9160SOL    HW139113   1.107   3.511   3.374  0.3775  0.1079 -0.1380
 9160SOL    HW239114   1.075   3.639   3.420 -1.3836  0.4707  2.6937
 9161SOL     OW39115   4.041   3.600   0.535 -0.2314  0.0179 -0.2104
 9161SOL    HW139116   4.075   3.548   0.462  2.2024  0.6723  0.4540
 9161SOL    HW239117   3.972   3.545   0.574 -0.7973  0.4462 -0.6124
 9162SOL     OW39118   3.724   1.532   6.055  0.1563 -0.3139  0.2069
 9162SOL    HW139119   3.656   1.599   6.048  0.9336  0.5375  0.5845
 9162SOL    HW239120   3.805   1.573   6.024  0.0580 -0.0282  0.3262
 9163SOL     OW39121   0.319   0.474   5.760  0.2894 -0.2014  0.1841
 9163SOL    HW139122   0.300   0.460   5.853 -0.1567 -1.3986 -0.0893
 9163SOL    HW239123   0.309   0.384   5.729  0.5997  0.0152 -0.5401
 9164SOL     OW39124   2.020   2.869   7.697  0.3944  0.1592  0.2177
 9164SOL    HW139125   2.058   2.877   7.609  2.5172 -2.5579  0.8996
 9164SOL    HW239126   1.940   2.919   7.680  0.0411 -0.3804  0.3035
 9165SOL     OW39127   1.865   0.700  16.173 -0.1903  0.1868 -0.4942
 9165SOL    HW139128   1.890   0.617  16.133 -0.1283 -0.7476  1.4775
 9165SOL    HW239129   1.924   0.687  16.248  0.2214  2.0964 -0.4739
 9166SOL     OW39130   2.325   3.273  15.175 -0.0336 -1.1089  0.3162
 9166SOL    HW139131   2.276   3.228  15.244 -0.3665  0.0628  0.8397
 9166SOL    HW239132   2.294   3.362  15.191 -0.2184 -0.6213 -2.7529
 9167SOL     OW39133   2.011   3.658   1.500  0.0413  0.1173  0.0971
 9167SOL    HW139134   2.095   3.695   1.472  0.6836 -2.4043 -1.3114
 9167SOL    HW239135   2.004   3.687   1.591 -0.1418 -1.5215  0.6081
 9168SOL     OW39136   3.215   2.119   9.732  0.0477 -0.6718 -0.2868
 9168SOL    HW139137   3.186   2.172   9.806  1.9420 -3.2543  2.3080
 9168SOL    HW239138   3.175   2.033   9.747  0.6918 -0.9796 -0.3218
 9169SOL     OW39139   1.167   1.935   6.581  0.3047 -0.5751  0.0130
 9169SOL    HW139140   1.146   1.997   6.651  4.5374  0.8288 -0.0247
 9169SOL    HW239141   1.195   1.984   6.504 -3.6123  1.6969  0.0015
 9170SOL     OW39142   4.054   3.716   6.596 -0.1639 -0.2671 -0.0993
 9170SOL    HW139143   4.097   3.763   6.667 -0.3270  1.4945 -1.1643
 9170SOL    HW239144   4.129   3.709   6.537 -0.4522  0.1969 -0.5244
 9171SOL     OW39145   1.915   2.690   3.389  0.3367 -0.5862  0.1148
 9171SOL    HW139146   1.921   2.695   3.485 -0.1453  1.4788  0.0431
 9171SOL    HW239147   2.001   2.731   3.378 -1.1120  2.0759 -1.1059
 9172SOL     OW39148   2.079   2.000   6.543 -0.5781 -0.9867  0.1041
 9172SOL    HW139149   2.045   2.070   6.599  0.3408 -0.6973  0.3085
 9172SOL    HW239150   2.136   1.952   6.604 -0.7117 -0.9546  0.2538
 9173SOL     OW39151   1.863   1.960  11.911 -0.7311 -0.6465 -0.5529
 9173SOL    HW139152   1.947   2.000  11.936 -0.3484 -1.8273  0.0152
 9173SOL    HW239153   1.862   1.985  11.819 -3.6044 -0.4457 -0.4689
 9174SOL     OW39154   1.798   4.273   1.623 -0.4640 -0.2507 -0.0558
 9174SOL    HW139155   1.755   4.220   1.690 -2.5957 -0.2921 -1.4587
 9174SOL    HW239156   1.788   4.357   1.670  0.3646  0.6688 -1.5428
 9175SOL     OW39157   0.568   3.461  12.267  0.5058  0.0659  0.3157
 9175SOL    HW139158   0.631   3.493  12.332 -0.9646  0.7665  1.3943
 9175SOL    HW239159   0.594   3.519  12.196  1.9912  1.1845  1.7549
 9176SOL     OW39160   1.958   2.277   3.697 -0.0446  0.0341 -0.0974
 9176SOL    HW139161   1.979   2.354   3.644 -0.5729 -0.2591 -0.7398
 9176SOL    HW239162   2.049   2.256   3.717 -0.0158  0.5220  0.3007
 9177SOL     OW39163   2.276   3.713   2.370 -0.5578 -0.3184 -0.1946
 9177SOL    HW139164   2.249   3.685   2.283 -1.7179 -1.7728  0.6360
 9177SOL    HW239165   2.258   3.639   2.428 -1.6310  1.2264  1.4799
 9178SOL     OW39166   3.377   0.316   3.562  0.2531 -0.5326 -0.6301
 9178SOL    HW139167   3.364   0.284   3.473  0.5791 -3.4362  0.3782
 9178SOL    HW239168   3.452   0.264   3.590  0.8755  1.0382  0.5691
 9179SOL     OW39169   0.507   3.263  16.136  0.1817  0.0742 -0.2058
 9179SOL    HW139170   0.476   3.197  16.075  0.2306  1.9940 -2.3055
 9179SOL    HW239171   0.599   3.267  16.112  0.3441  2.3295  0.7919
 9180SOL     OW39172   1.763   4.567   7.706 -0.2308 -0.4855 -0.5068
 9180SOL    HW139173   1.744   4.504   7.636 -1.7940 -1.2854  0.6542
 9180SOL    HW239174   1.838   4.616   7.673 -1.2479  0.3647 -1.5592
 9181SOL     OW39175   3.821   0.200  15.876 -0.3708 -0.4437  0.2191
 9181SOL    HW139176   3.834   0.141  15.802  0.5460 -0.4052  0.3574
 9181SOL    HW239177   3.786   0.141  15.943  0.2396 -0.9145  0.1272
 9182SOL     OW39178   1.060   1.611  15.151 -0.1861  0.0285 -0.1729
 9182SOL    HW139179   1.050   1.696  15.107 -0.9117 -0.6680 -1.3578
 9182SOL    HW239180   1.056   1.541  15.086  1.1680  1.0222 -1.3349
 9183SOL     OW39181   0.558   2.155   6.479  0.3441  0.2862 -0.6194
 9183SOL    HW139182   0.534   2.063   6.469  2.1450 -0.2153 -0.3290
 9183SOL    HW239183   0.630   2.157   6.416  1.2110  3.0844  0.4291
 9184SOL     OW39184   1.465   4.019   4.299 -0.0450 -0.1548 -0.2147
 9184SOL    HW139185   1.467   4.115   4.302 -0.0507 -0.1224 -1.1676
 9184SOL    HW239186   1.548   3.999   4.256 -1.2484 -2.3780 -1.5331
 9185SOL     OW39187   1.774   4.521   2.872  0.1369 -0.5994 -0.6396
 9185SOL    HW139188   1.815   4.595   2.827  0.9339  0.0291  1.1254
 9185SOL    HW239189   1.689   4.552   2.905  1.6024  2.6090  0.0673
 9186SOL     OW39190   0.626   3.959   0.612  0.2066 -0.0940  0.3946
 9186SOL    HW139191   0.552   4.012   0.582  0.8883 -0.9174 -2.8315
 9186SOL    HW239192   0.640   3.979   0.704 -0.7828  0.1415  0.4854
 9187SOL     OW39193   0.596   2.192   1.464 -0.1244 -0.3554  0.7032
 9187SOL    HW139194   0.610   2.254   1.393 -0.3821 -1.9023 -0.7035
 9187SOL    HW239195   0.663   2.123   1.456 -0.1418 -0.1315 -1.4089
 9188SOL     OW39196   0.644   2.612   7.842 -0.0591  0.6916  0.6161
 9188SOL    HW139197   0.620   2.704   7.852  0.2489  0.8112  0.2404
 9188SOL    HW239198   0.563   2.572   7.810 -0.2871  1.2139  0.5390
 9189SOL     OW39199   3.179   4.024   4.153  0.2272  0.2676  0.0008
 9189SOL    HW139200   3.176   3.932   4.179  1.0199  0.0091 -0.8455
 9189SOL    HW239201   3.168   4.072   4.235  0.8554  0.4017  0.0118
 9190SOL     OW39202   2.147   4.188   4.816 -0.1529 -0.1854 -0.2118
 9190SOL    HW139203   2.101   4.270   4.797 -0.4126 -0.3997 -0.5051
 9190SOL    HW239204   2.192   4.213   4.897  0.2691  1.4719 -0.9524
 9191SOL     OW39205   1.774   0.704  12.971 -0.2200  0.0055  0.1106
 9191SOL    HW139206   1.731   0.632  13.018 -0.2232 -0.7815 -1.0779
 9191SOL    HW239207   1.792   0.758  13.048  1.5917  2.6181 -2.1522
 9192SOL     OW39208   4.628   0.462  15.480 -0.5202  0.6645  0.1570
 9192SOL    HW139209   4.688   0.465  15.555  0.8668 -2.0301 -0.8208
 9192SOL    HW239210   4.695   0.438  15.416 -0.1871  2.6943 -0.2602
 9193SOL     OW39211   0.791   1.908   4.106 -0.3497 -0.0844  0.5194
 9193SOL    HW139212   0.774   1.983   4.049  2.6374 -0.1847 -0.4912
 9193SOL    HW239213   0.702   1.890   4.137 -1.0957  1.3305 -0.7902
 9194SOL     OW39214   2.155   0.348  11.018  0.3524  0.0055 -0.2127
 9194SOL    HW139215   2.190   0.261  11.000 -0.0933 -0.2180  0.0136
 9194SOL    HW239216   2.170   0.353  11.112 -0.5883 -1.9362  0.0299
 9195SOL     OW39217   0.244   2.660   6.113  0.3064 -0.1156 -0.3396
 9195SOL    HW139218   0.279   2.576   6.144 -1.2703 -1.3364 -1.9219
 9195SOL    HW239219   0.159   2.636   6.076 -0.3013  0.3498  0.7324
 9196SOL     OW39220   3.878   0.935  11.109 -0.3766  0.7449  0.2111
 9196SOL    HW139221   3.934   0.917  11.034  2.1321 -1.4695  2.6482
 9196SOL    HW239222   3.932   0.990  11.166  0.8060  1.7533 -1.9070
 9197SOL     OW39223   4.123   4.727   2.259 -0.0135  0.3030 -0.3874
 9197SOL    HW139224   4.067   4.651   2.275 -0.9112  0.9553 -0.4230
 9197SOL    HW239225   4.079   0.057   2.310 -0.6585  0.0821 -0.6398
 9198SOL     OW39226   3.583   0.799   8.760  0.0619 -0.3136  0.2343
 9198SOL    HW139227   3.671   0.831   8.778 -0.5153 -0.2980  2.9611
 9198SOL    HW239228   3.537   0.802   8.844 -0.2885 -1.5528  0.1018
 9199SOL     OW39229   0.740   2.634   0.318 -0.1349 -0.1672 -0.5277
 9199SOL    HW139230   0.666   2.651   0.376  1.3222  1.8186  0.8046
 9199SOL    HW239231   0.742   2.719   0.274  0.4018 -0.4099 -0.9776
 9200SOL     OW39232   2.500   1.013  14.124 -0.4743  0.2537  0.3300
 9200SOL    HW139233   2.513   1.052  14.210  2.9342  0.6013 -0.3601
 9200SOL    HW239234   2.472   0.924  14.147 -1.8284  0.4378 -0.6142
 9201SOL     OW39235   3.154   3.792   3.013  0.1226 -0.1732  0.0326
 9201SOL    HW139236   3.141   3.871   2.960 -1.2178 -0.4681 -0.0875
 9201SOL    HW239237   3.239   3.800   3.055 -0.3295 -0.2475  0.9569
 9202SOL     OW39238   2.683   3.875   7.479 -0.3721  0.0355  0.2661
 9202SOL    HW139239   2.719   3.934   7.413  0.3071  2.1133  2.4692
 9202SOL    HW239240   2.763   3.850   7.526 -0.4185  0.9145  0.8228
 9203SOL     OW39241   3.667   4.404   2.021  0.7542  0.1716 -0.1277
 9203SOL    HW139242   3.580   4.445   2.021  0.4256 -0.5235  0.2767
 9203SOL    HW239243   3.654   4.316   1.986 -1.4325 -0.2887  1.7989
 9204SOL     OW39244   0.829   4.614   8.466  0.2273 -0.5607 -0.0382
 9204SOL    HW139245   0.739   4.601   8.436 -0.2236  0.3826  0.9237
 9204SOL    HW239246   0.848   4.520   8.476  0.1588 -0.6181 -0.4412
 9205SOL     OW39247   0.768   1.082   6.534  0.3451  0.4317  0.0379
 9205SOL    HW139248   0.709   1.112   6.602 -0.5109  1.2689 -1.0791
 9205SOL    HW239249   0.812   1.167   6.523 -0.6738  0.9593  0.0488
 9206SOL     OW39250   3.613   2.704  11.964  0.4518  0.1339 -0.7490
 9206SOL    HW139251   3.642   2.776  12.021 -0.0722  0.6327 -1.1072
 9206SOL    HW239252   3.533   2.748  11.934 -0.0421  0.8485  1.6028
 9207SOL     OW39253   0.888   3.514   5.293 -0.1913  0.4448 -0.5473
 9207SOL    HW139254   0.911   3.422   5.304  0.6582  0.5317 -1.5845
 9207SOL    HW239255   0.832   3.519   5.215 -1.2986  1.2075  0.3003
 9208SOL     OW39256   1.472   2.563   5.630 -1.1194 -0.0638 -0.1858
 9208SOL    HW139257   1.443   2.540   5.542 -0.0645  1.9250 -1.0644
 9208SOL    HW239258   1.391   2.568   5.680 -2.2273 -1.2110 -1.8648
 9209SOL     OW39259   3.219   1.157   7.045  0.4730 -0.3901 -0.1192
 9209SOL    HW139260   3.135   1.127   7.080 -0.6925  1.2579 -1.5219
 9209SOL    HW239261   3.275   1.090   7.085  0.0707  1.2507  3.2038
 9210SOL     OW39262   4.475   4.285  11.647 -0.3726  0.9746 -0.0713
 9210SOL    HW139263   4.410   4.348  11.616  0.8756  0.8015 -3.0228
 9210SOL    HW239264   4.547   4.310  11.589  0.7138  0.0410  0.8668
 9211SOL     OW39265   1.517   2.451   8.415  0.3480  0.2804 -0.2893
 9211SOL    HW139266   1.589   2.388   8.424  0.3218  0.3853  0.6385
 9211SOL    HW239267   1.501   2.471   8.507 -1.7607 -1.3519 -0.3062
 9212SOL     OW39268   1.869   3.476   7.717 -0.6258 -0.2248  0.2956
 9212SOL    HW139269   1.869   3.477   7.621 -1.0090 -1.9177  0.2670
 9212SOL    HW239270   1.964   3.477   7.733 -0.7577  1.6321  0.9318
 9213SOL     OW39271   1.180   0.150   3.997  0.6123  0.0346  0.1389
 9213SOL    HW139272   1.167   0.240   3.967  0.2482  0.0620  0.3695
 9213SOL    HW239273   1.136   0.094   3.933  0.1447  0.7803 -0.1949
 9214SOL     OW39274   1.233   3.098   1.833 -0.2625 -0.0878 -0.3338
 9214SOL    HW139275   1.142   3.100   1.864  0.3495  0.0623  1.4826
 9214SOL    HW239276   1.244   3.006   1.809 -0.0574  0.3824 -2.0541
 9215SOL     OW39277   1.979   3.500   3.844 -0.7128 -0.1180  0.7246
 9215SOL    HW139278   1.908   3.550   3.885  1.3306  0.8802  3.0481
 9215SOL    HW239279   1.979   3.544   3.760  2.7023  0.0774  0.8592
 9216SOL     OW39280   4.221   4.307  17.238 -0.2169 -0.0329  0.4290
 9216SOL    HW139281   4.161   4.251  17.288 -3.0814  3.6884  1.1431
 9216SOL    HW239282   4.235   4.375  17.303 -0.7937  1.2328 -0.7833
 9217SOL     OW39283   4.699   4.661   8.650  0.0697  0.4811 -0.4430
 9217SOL    HW139284   4.667   4.628   8.734 -2.1447  1.0758 -1.0608
 9217SOL    HW239285   0.041   4.608   8.652 -0.1017  0.2416  0.2855
 9218SOL     OW39286   1.435   1.343   5.993  0.1018  0.6963  0.1903
 9218SOL    HW139287   1.427   1.317   6.085  0.2895  1.2741  0.3679
 9218SOL    HW239288   1.389   1.427   5.986 -0.4045  0.3536 -0.6303
 9219SOL     OW39289   3.399   1.525   6.009 -0.4240 -0.2940  0.4776
 9219SOL    HW139290   3.458   1.562   5.943 -0.0151 -2.3306 -0.3034
 9219SOL    HW239291   3.374   1.604   6.057 -0.2349 -1.0682  1.8571
 9220SOL     OW39292   2.005   1.178   4.137 -0.2072 -0.0661 -0.1533
 9220SOL    HW139293   1.922   1.131   4.145 -1.2015  1.6146 -0.6052
 9220SOL    HW239294   2.060   1.140   4.206 -2.7735 -1.7647  0.9796
 9221SOL     OW39295   4.376   3.750  12.351  0.2025  0.2250 -0.0751
 9221SOL    HW139296   4.376   3.823  12.413  0.2075  0.7293 -0.6617
 9221SOL    HW239297   4.286   3.754  12.317  0.5927  0.5012 -1.0741
 9222SOL     OW39298   1.428   2.021   6.893  0.4499  0.4593  0.1463
 9222SOL    HW139299   1.476   2.043   6.813  3.3655  1.7058  2.2813
 9222SOL    HW239300   1.437   2.098   6.948 -2.1110  1.1909 -0.4447
 9223SOL     OW39301   2.479   2.148   1.375  0.6466 -0.3288 -0.4060
 9223SOL    HW139302   2.532   2.087   1.322 -0.2827 -0.1356 -1.5587
 9223SOL    HW239303   2.488   2.213   1.305  1.5049  0.7219  0.6851
 9224SOL     OW39304   0.210   0.088   5.193 -0.3144 -0.2572  0.2256
 9224SOL    HW139305   0.190   0.130   5.277  3.1136  1.7223  0.0456
 9224SOL    HW239306   0.275   0.152   5.167  0.0717 -0.3095  1.0881
 9225SOL     OW39307   4.671   0.584  16.049  0.5133 -0.4583  0.3297
 9225SOL    HW139308   4.686   0.596  16.142  0.6638 -1.0521  0.3804
 9225SOL    HW239309   4.598   0.642  16.025  1.4661  0.2516 -0.9070
 9226SOL     OW39310   0.740   0.075   6.904 -0.3370  0.1830  0.3712
 9226SOL    HW139311   0.773   4.727   6.880 -1.2852  0.3642 -1.6001
 9226SOL    HW239312   0.751   0.059   6.998 -0.0622 -0.3412  0.2497
 9227SOL     OW39313   0.230   4.579  10.856  0.0182 -0.4506  0.1320
 9227SOL    HW139314   0.255   4.502  10.805  0.9742  0.3852 -0.6536
 9227SOL    HW239315   0.298   4.639  10.826  0.2455 -0.1952  1.1507
 9228SOL     OW39316   2.587   2.236  11.798  0.3380  0.3642  0.1636
 9228SOL    HW139317   2.620   2.242  11.888 -2.1437  1.4098  0.9975
 9228SOL    HW239318   2.656   2.276  11.745  0.0894  0.2844 -0.2208
 9229SOL     OW39319   1.596   2.666   8.027  0.2504  0.2952  0.2220
 9229SOL    HW139320   1.614   2.681   7.934 -0.2282  2.4808  0.4928
 9229SOL    HW239321   1.531   2.735   8.044 -0.0290  0.2308 -0.6021
 9230SOL     OW39322   1.049   3.768   4.194 -0.6452  0.0845  0.3547
 9230SOL    HW139323   1.088   3.707   4.257  1.1213 -0.4791 -1.3163
 9230SOL    HW239324   1.021   3.841   4.249 -1.1074 -0.2326  0.5358
 9231SOL     OW39325   3.309   1.131   2.469  0.1081  0.1349 -0.1114
 9231SOL    HW139326   3.367   1.206   2.484  1.9338 -1.2545 -0.1778
 9231SOL    HW239327   3.305   1.138   2.373 -0.6536 -1.3585 -0.1822
 9232SOL     OW39328   4.200   0.184   5.099  0.6460  0.3982 -0.0257
 9232SOL    HW139329   4.200   0.277   5.074 -1.3270 -0.0151 -1.5677
 9232SOL    HW239330   4.143   0.195   5.175  0.5761  0.8349 -0.1373
 9233SOL     OW39331   2.171   1.583   8.313 -0.4526  0.2074  0.1847
 9233SOL    HW139332   2.111   1.634   8.368  0.1777  0.0956  0.9881
 9233SOL    HW239333   2.227   1.541   8.379 -1.1122 -1.5544 -0.3867
 9234SOL     OW39334   4.453   3.556  12.540 -0.2349 -0.1247  0.0916
 9234SOL    HW139335   4.445   3.622  12.609  2.9808  1.6950 -1.2743
 9234SOL    HW239336   4.409   3.603  12.470  0.2421  1.9200  1.1599
 9235SOL     OW39337   1.722   0.399   9.014 -0.4667 -0.1391  0.7955
 9235SOL    HW139338   1.685   0.312   9.024  1.3289 -1.0743 -0.8886
 9235SOL    HW239339   1.646   0.436   8.969  0.6796  1.1934 -0.0319
 9236SOL     OW39340   3.259   3.198   7.250  0.0883  0.0911 -0.2787
 9236SOL    HW139341   3.183   3.228   7.201 -1.0003 -0.3407  1.1535
 9236SOL    HW239342   3.330   3.241   7.202  2.2897 -0.5040  2.4373
 9237SOL     OW39343   1.705   2.326  13.537  0.2351  0.4374 -0.6981
 9237SOL    HW139344   1.751   2.244  13.557 -0.0713  0.5899  0.6070
 9237SOL    HW239345   1.649   2.303  13.463 -0.7075  0.4785  0.0071
 9238SOL     OW39346   3.482   4.115   4.681  0.5779  0.0327  0.1352
 9238SOL    HW139347   3.539   4.152   4.614  0.3110  1.5328  0.7459
 9238SOL    HW239348   3.465   4.025   4.652 -2.4487  0.6106  0.1612
 9239SOL     OW39349   0.858   3.996   2.932  0.2419 -0.2777 -0.4511
 9239SOL    HW139350   0.881   3.984   3.025 -0.4810  0.8170 -0.1378
 9239SOL    HW239351   0.849   4.089   2.914  0.1161 -0.3543 -0.7865
 9240SOL     OW39352   0.129   2.556   1.812 -0.1295 -0.4203  0.2270
 9240SOL    HW139353   0.060   2.543   1.747 -1.0839 -0.4064  1.2477
 9240SOL    HW239354   0.119   2.646   1.840 -0.0307  0.1428 -1.5506
 9241SOL     OW39355   2.360   3.582   9.297 -0.0310  0.2802 -0.6122
 9241SOL    HW139356   2.345   3.598   9.204 -1.8523 -0.1876 -0.3811
 9241SOL    HW239357   2.413   3.502   9.291  0.4525  0.6390 -1.1201
 9242SOL     OW39358   0.208   2.268   4.094  0.6826  0.2640 -0.3002
 9242SOL    HW139359   0.188   2.311   4.010  0.0359  0.4966 -0.0247
 9242SOL    HW239360   0.299   2.239   4.080  0.0338 -1.4698 -0.9387
 9243SOL     OW39361   4.064   1.369  10.074  0.1662  0.3627 -0.2217
 9243SOL    HW139362   3.994   1.315  10.110 -0.5159 -0.1879 -2.3359
 9243SOL    HW239363   4.047   1.448  10.124  1.5857 -0.0233  0.8872
 9244SOL     OW39364   0.461   0.021   8.628 -0.1352 -1.0372 -0.0888
 9244SOL    HW139365   0.484   4.675   8.669  3.3938 -0.0548 -0.0299
 9244SOL    HW239366   0.409   0.051   8.702  2.4662  0.8299  0.9610
 9245SOL     OW39367   2.621   2.731   0.912 -0.2367 -0.5223 -0.0499
 9245SOL    HW139368   2.556   2.666   0.941  0.8502 -1.1044  1.0873
 9245SOL    HW239369   2.633   2.779   0.994  0.1207 -1.7127  0.6038
 9246SOL     OW39370   2.090   4.118  14.329 -0.1447 -0.3198 -0.1391
 9246SOL    HW139371   2.072   4.212  14.319 -0.0189 -0.4905 -1.8125
 9246SOL    HW239372   1.999   4.087  14.323 -0.6320  1.1753 -0.5449
 9247SOL     OW39373   0.166   4.140   3.422  0.1478 -0.7819 -0.3926
 9247SOL    HW139374   0.242   4.105   3.376  0.4131 -0.3057 -0.3219
 9247SOL    HW239375   0.096   4.108   3.364  0.1418  0.9724 -1.3635
 9248SOL     OW39376   3.392   1.948  13.329  0.0039 -0.4943  0.7207
 9248SOL    HW139377   3.356   1.970  13.243 -1.2575  0.0882  1.3967
 9248SOL    HW239378   3.418   1.858  13.310  0.1153  0.2668 -2.8734
 9249SOL     OW39379   0.334   1.211   4.596 -0.2627 -0.9087 -0.4464
 9249SOL    HW139380   0.323   1.304   4.575  0.6693 -0.7970 -0.4490
 9249SOL    HW239381   0.363   1.177   4.511  0.4275 -3.3826  0.7879
 9250SOL     OW39382   3.042   3.417   4.986 -0.1141 -0.6366 -0.1095
 9250SOL    HW139383   3.131   3.390   4.965 -0.7433 -0.4292 -3.0565
 9250SOL    HW239384   3.038   3.396   5.079  2.5932 -3.2222 -0.5969
 9251SOL     OW39385   4.055   3.313   1.734 -0.2766  0.0445  0.0086
 9251SOL    HW139386   4.027   3.235   1.782  1.2153 -0.4141  0.1507
 9251SOL    HW239387   4.151   3.306   1.734 -0.3402 -0.7949 -1.2101
 9252SOL     OW39388   3.278   4.000  10.032  0.1904 -0.0331  0.6356
 9252SOL    HW139389   3.199   3.976  10.079 -0.2541  0.0793 -0.0576
 9252SOL    HW239390   3.341   3.989  10.104  0.3040 -2.2031  0.2026
 9253SOL     OW39391   0.977   4.535   2.494  0.4009  0.7059 -0.3379
 9253SOL    HW139392   0.949   4.516   2.584  0.9629 -1.4431 -0.6369
 9253SOL    HW239393   0.932   4.471   2.440  0.1637 -0.9278  1.7837
 9254SOL     OW39394   2.028   1.028  17.450 -0.2109 -0.3115 -0.0515
 9254SOL    HW139395   1.946   0.980  17.438  0.5708 -1.8611  0.7886
 9254SOL    HW239396   2.021   1.047  17.544 -2.0671 -0.1481 -0.2228
 9255SOL     OW39397   4.372   1.221  13.590  0.9123  0.0059  0.1617
 9255SOL    HW139398   4.367   1.310  13.625  0.7755  0.5257 -1.1890
 9255SOL    HW239399   4.413   1.184  13.669  0.5735 -1.3303 -0.2795
 9256SOL     OW39400   1.054   4.131  11.752  0.5465  0.3907 -0.1035
 9256SOL    HW139401   0.984   4.184  11.790 -0.2446 -0.5841 -0.1916
 9256SOL    HW239402   1.003   4.074  11.694  0.8974  0.2580 -0.2797
 9257SOL     OW39403   3.514   3.838  10.598  0.3895  0.1427 -0.0825
 9257SOL    HW139404   3.425   3.858  10.569  0.6375  1.1783 -0.1214
 9257SOL    HW239405   3.558   3.810  10.518  0.6829  0.6446 -0.0916
 9258SOL     OW39406   2.822   0.421  12.224 -0.5716 -0.2097 -0.4573
 9258SOL    HW139407   2.881   0.487  12.259  0.0546  0.0751 -2.0866
 9258SOL    HW239408   2.738   0.461  12.245  0.5941  2.2921 -0.6374
 9259SOL     OW39409   1.524   4.401  13.061  0.1229  0.6530  0.2756
 9259SOL    HW139410   1.514   4.418  12.967  2.1199 -2.2659 -0.4806
 9259SOL    HW239411   1.483   4.484  13.088 -1.3888  0.0377 -0.1088
 9260SOL     OW39412   0.224   1.375   4.265 -0.3216  0.1048  0.0984
 9260SOL    HW139413   0.299   1.398   4.210 -1.4484  2.3538 -0.5159
 9260SOL    HW239414   0.198   1.287   4.238  1.4569 -0.6597  0.8412
 9261SOL     OW39415   4.277   0.063  12.546  0.0905  0.2395 -0.2554
 9261SOL    HW139416   4.241   0.147  12.573 -1.0427 -0.3423  0.0715
 9261SOL    HW239417   4.357   0.055  12.598 -0.8182 -0.7907  0.9977
 9262SOL     OW39418   1.483   2.565   3.090 -0.4198  0.2222 -0.0168
 9262SOL    HW139419   1.451   2.640   3.139 -0.6167 -0.4819  0.9242
 9262SOL    HW239420   1.561   2.598   3.045 -0.9579  2.3274  0.5950
 9263SOL     OW39421   4.622   0.905   0.561  0.7478 -0.3181 -0.2922
 9263SOL    HW139422   4.541   0.956   0.555  0.6834 -0.6973 -2.6113
 9263SOL    HW239423   4.637   0.915   0.655  1.6470 -0.6676 -0.4001
 9264SOL     OW39424   2.136   0.407   8.608  0.2991  0.0814  0.2368
 9264SOL    HW139425   2.142   0.327   8.556 -0.6599 -1.7369  2.9264
 9264SOL    HW239426   2.109   0.366   8.690  0.3516 -1.8881 -0.7278
 9265SOL     OW39427   3.038   2.628  13.932  0.1382 -0.9264 -0.0167
 9265SOL    HW139428   2.990   2.562  13.880 -0.8393 -1.3763  1.4443
 9265SOL    HW239429   2.998   2.711  13.906  1.0547 -0.5022 -0.0348
 9266SOL     OW39430   1.902   4.274   2.651 -0.5158 -0.4024 -0.3461
 9266SOL    HW139431   1.858   4.273   2.736  0.4338 -1.2468  0.1244
 9266SOL    HW239432   1.994   4.277   2.676 -0.6786 -0.2624  0.2464
 9267SOL     OW39433   2.760   2.768   8.184 -0.1339  0.4413 -0.3097
 9267SOL    HW139434   2.678   2.818   8.189  0.3360  1.1101  0.6697
 9267SOL    HW239435   2.742   2.729   8.098 -1.9584 -0.3805  0.4501
 9268SOL     OW39436   2.395   4.501   7.246 -0.2303  0.1151 -0.0083
 9268SOL    HW139437   2.330   4.505   7.316 -1.7785 -1.0421 -1.3689
 9268SOL    HW239438   2.420   4.591   7.224  2.9603 -0.7846 -0.0759
 9269SOL     OW39439   1.922   3.408   6.651 -0.2823  0.2300  0.2877
 9269SOL    HW139440   1.833   3.443   6.646 -0.6670 -0.4496  2.6692
 9269SOL    HW239441   1.902   3.330   6.702  1.2189 -1.3598 -1.5198
 9270SOL     OW39442   1.820   1.965   6.379  0.2952 -0.2527  0.0011
 9270SOL    HW139443   1.790   2.027   6.444 -1.1880 -1.4871  0.4876
 9270SOL    HW239444   1.912   1.953   6.403  0.5813  1.1841 -0.3909
 9271SOL     OW39445   1.041   3.053  16.470  0.0557  0.1947 -0.1932
 9271SOL    HW139446   0.963   3.000  16.489 -1.1440  1.4748 -1.5281
 9271SOL    HW239447   1.110   2.997  16.506 -1.1313 -1.5078 -0.5316
 9272SOL     OW39448   2.085   3.811   4.973  0.4727 -0.7059  0.3051
 9272SOL    HW139449   2.066   3.745   5.040  0.4233 -2.8692 -1.8511
 9272SOL    HW239450   2.041   3.788   4.891  3.0939 -2.4290 -0.6446
 9273SOL     OW39451   4.466   2.560  17.383 -0.2914  0.2852 -0.2132
 9273SOL    HW139452   4.388   2.606  17.412 -0.1497  0.7163 -0.5146
 9273SOL    HW239453   4.435   2.512  17.306 -0.4507  2.1488 -1.2960
 9274SOL     OW39454   3.562   4.160   8.508 -0.4032  0.2353 -0.6282
 9274SOL    HW139455   3.479   4.205   8.523 -1.2681 -1.3660 -0.5555
 9274SOL    HW239456   3.623   4.212   8.559 -0.2767  0.2290 -0.7720
 9275SOL     OW39457   2.051   2.777   5.213  0.3491  0.4971  0.1086
 9275SOL    HW139458   2.086   2.725   5.140 -0.1578  1.4182 -0.7901
 9275SOL    HW239459   2.090   2.864   5.210  0.9192  0.3080  2.3593
 9276SOL     OW39460   2.059   4.734   2.252 -0.4279  0.1395 -0.4212
 9276SOL    HW139461   2.102   0.081   2.254 -0.2387  0.0996 -2.9341
 9276SOL    HW239462   2.136   4.681   2.232 -2.1598 -2.0116 -1.4734
 9277SOL     OW39463   4.403   2.943   8.594  0.0014  0.1207  0.0099
 9277SOL    HW139464   4.452   2.910   8.669  0.4248  0.2724 -0.1988
 9277SOL    HW239465   4.470   2.961   8.528  1.2991  1.4118  1.7086
 9278SOL     OW39466   3.357   4.066   2.405 -0.1762  0.5258  0.8246
 9278SOL    HW139467   3.326   3.986   2.362  0.3836 -0.5557  2.4191
 9278SOL    HW239468   3.405   4.098   2.329 -0.5738  0.8728  0.7217
 9279SOL     OW39469   0.196   0.169   7.277 -0.3650 -0.2325  0.1848
 9279SOL    HW139470   0.229   0.227   7.208 -0.5219 -0.9279 -0.4708
 9279SOL    HW239471   0.194   0.084   7.234  0.2003  0.8823 -2.0394
 9280SOL     OW39472   0.542   0.087  13.132 -0.1780  0.3575 -0.5680
 9280SOL    HW139473   0.473   0.130  13.183  0.0850  1.1264 -0.8570
 9280SOL    HW239474   0.517   4.734  13.147  0.3402  0.0794 -1.3707
 9281SOL     OW39475   0.807   3.377  10.116  0.3377  0.5260  0.1887
 9281SOL    HW139476   0.769   3.322  10.184 -1.9094 -0.0613 -1.5228
 9281SOL    HW239477   0.732   3.419  10.072  1.5652 -0.7199 -3.1285
 9282SOL     OW39478   3.931   0.675   7.758  0.4051 -0.0615 -0.2352
 9282SOL    HW139479   3.933   0.648   7.850 -1.1952  0.2149 -0.1237
 9282SOL    HW239480   3.991   0.608   7.727 -1.7498 -0.9491 -2.5115
 9283SOL     OW39481   2.399   0.199   3.493 -0.5338 -0.2939  0.3272
 9283SOL    HW139482   2.403   0.293   3.506  0.7450 -0.0795 -1.6715
 9283SOL    HW239483   2.405   0.201   3.397  0.4343  0.7441  0.4169
 9284SOL     OW39484   3.112   3.234   3.113 -0.2460 -0.0926  0.0884
 9284SOL    HW139485   3.197   3.189   3.108 -1.1628 -1.7773 -0.0582
 9284SOL    HW239486   3.069   3.193   3.187 -1.5042 -0.8596 -1.0812
 9285SOL     OW39487   3.038   1.234   5.754 -0.2932  0.4357 -0.7249
 9285SOL    HW139488   3.051   1.172   5.683  0.4536 -1.7467  1.3205
 9285SOL    HW239489   3.094   1.309   5.734  0.2016  0.6591  1.4300
 9286SOL     OW39490   1.204   2.284  16.294  0.1240  0.4784 -0.3589
 9286SOL    HW139491   1.151   2.239  16.228  2.4374 -1.6555 -0.7724
 9286SOL    HW239492   1.272   2.217  16.301  0.6878  0.7553 -3.2940
 9287SOL     OW39493   0.323   0.978   9.145  0.1155 -0.2233 -0.3463
 9287SOL    HW139494   0.366   1.007   9.065  2.7791 -1.7706  0.5365
 9287SOL    HW239495   0.290   1.064   9.170 -0.4526 -1.1080  2.0365
 9288SOL     OW39496   4.104   3.511  13.448  0.2986  0.1522 -0.5928
 9288SOL    HW139497   4.198   3.492  13.447 -0.1826 -2.3087 -0.7000
 9288SOL    HW239498   4.077   3.505  13.539  1.4790  3.7936 -0.0341
 9289SOL     OW39499   3.389   2.061  11.927  0.3223  0.2067  0.0765
 9289SOL    HW139500   3.436   2.000  11.871  0.4125 -0.3375  0.7420
 9289SOL    HW239501   3.466   2.103  11.968  1.5134 -1.6522 -0.2777
 9290SOL     OW39502   0.916   3.998  13.051 -0.0599  0.2829 -0.0125
 9290SOL    HW139503   0.881   3.971  12.966 -1.7565 -0.9558  1.0680
 9290SOL    HW239504   0.906   3.921  13.108 -0.8907  0.5491  0.2041
 9291SOL     OW39505   2.819   1.953   5.028  0.2679  0.0306 -0.4078
 9291SOL    HW139506   2.833   2.012   4.954 -1.3576 -0.1566 -0.8518
 9291SOL    HW239507   2.728   1.928   5.014  0.9889 -2.3245 -0.9492
 9292SOL     OW39508   3.566   2.005   5.264  0.0590  0.4993  0.1020
 9292SOL    HW139509   3.484   1.993   5.311  0.4356 -2.1316  0.0751
 9292SOL    HW239510   3.619   2.031   5.340  1.0344  2.9867 -1.4310
 9293SOL     OW39511   4.595   1.132  13.411 -0.2823  0.3251  0.4610
 9293SOL    HW139512   4.609   1.194  13.340  0.5005 -0.1324  0.2013
 9293SOL    HW239513   4.586   1.188  13.488  3.5714 -1.0921  1.9477
 9294SOL     OW39514   2.740   2.385   6.612  0.0947 -0.2202 -0.4677
 9294SOL    HW139515   2.670   2.336   6.654 -0.4400 -1.2385 -2.5610
 9294SOL    HW239516   2.701   2.392   6.525  0.1287 -0.2437 -0.4851
 9295SOL     OW39517   3.271   2.960  16.537 -0.3744 -0.5544 -0.2788
 9295SOL    HW139518   3.186   2.969  16.494  0.0747 -1.1850 -1.2955
 9295SOL    HW239519   3.319   2.928  16.460  0.5637 -2.7300  1.2279
 9296SOL     OW39520   3.806   3.450   1.431 -0.0547 -0.1505 -0.1077
 9296SOL    HW139521   3.814   3.478   1.340  1.2652  0.2115  0.1185
 9296SOL    HW239522   3.739   3.381   1.433 -0.0960 -0.0347  3.1807
 9297SOL     OW39523   2.121   3.172  15.388  0.7395 -0.7600  0.0658
 9297SOL    HW139524   2.115   3.093  15.441  0.9429 -0.6622  0.2352
 9297SOL    HW239525   2.120   3.246  15.449  1.1374 -0.2102 -0.5961
 9298SOL     OW39526   0.581   4.574   5.676 -0.1309 -0.2197 -0.2887
 9298SOL    HW139527   0.515   4.642   5.680 -0.2570 -0.3888  0.5005
 9298SOL    HW239528   0.577   4.553   5.769 -0.3028 -1.8795 -0.6684
 9299SOL     OW39529   3.785   4.554   6.043  0.2828 -0.4982  0.2476
 9299SOL    HW139530   3.786   4.643   6.079  0.8713 -0.8102  1.0046
 9299SOL    HW239531   3.695   4.524   6.056 -0.2957  1.6744  1.1612
 9300SOL     OW39532   2.626   3.437   8.538 -0.2914 -0.0042  0.3324
 9300SOL    HW139533   2.608   3.404   8.450  0.2686 -0.0024  0.2197
 9300SOL    HW239534   2.596   3.360   8.586  0.2255 -1.0572 -1.0077
 9301SOL     OW39535   3.707   2.507  17.086  0.5121  0.1944  0.0794
 9301SOL    HW139536   3.712   2.419  17.050  1.3279  1.3952 -2.7055
 9301SOL    HW239537   3.655   2.495  17.165  1.5356  2.4219  1.1033
 9302SOL     OW39538   3.794   3.195  16.963  0.5724  0.1683  0.0864
 9302SOL    HW139539   3.707   3.215  16.927  0.5053  0.6042  0.4931
 9302SOL    HW239540   3.853   3.244  16.906  2.7512 -2.1812  0.3134
 9303SOL     OW39541   0.473   3.262  17.489 -0.3010 -0.2886 -0.1412
 9303SOL    HW139542   0.465   3.222  17.576 -3.2167 -1.7519 -1.0659
 9303SOL    HW239543   0.474   3.192  17.424  0.1108 -2.2437  1.9719
 9304SOL     OW39544   2.772   3.345   7.299 -0.4204 -0.2706 -0.1747
 9304SOL    HW139545   2.792   3.296   7.219 -0.8667 -2.2122  0.8834
 9304SOL    HW239546   2.676   3.349   7.301 -0.4108  0.4953 -1.4148
 9305SOL     OW39547   0.725   0.321   5.161  0.5465  0.4135  0.8668
 9305SOL    HW139548   0.697   0.407   5.131 -1.3121 -0.7872 -0.8169
 9305SOL    HW239549   0.805   0.351   5.205  1.4148 -0.5041 -0.0934
 9306SOL     OW39550   1.414   2.775   2.250  0.1571  0.1999 -0.1946
 9306SOL    HW139551   1.368   2.780   2.166 -0.8004  0.0516  0.3228
 9306SOL    HW239552   1.424   2.681   2.264 -1.5207 -0.0550 -0.7147
 9307SOL     OW39553   2.063   0.646   4.072 -0.1584 -0.4842 -0.4002
 9307SOL    HW139554   1.996   0.682   4.130 -0.1653 -1.6614  0.3256
 9307SOL    HW239555   2.018   0.646   3.988 -1.0702  1.8883  0.0628
 9308SOL     OW39556   2.402   1.646   4.968 -0.0359 -0.3099 -0.1988
 9308SOL    HW139557   2.373   1.638   5.059  0.0890 -0.7315 -0.1937
 9308SOL    HW239558   2.323   1.644   4.914  1.4065 -0.2141 -2.2783
 9309SOL     OW39559   1.524   0.221   3.729  0.3199  0.1089  0.1486
 9309SOL    HW139560   1.594   0.230   3.793  0.8521 -1.7578 -0.1580
 9309SOL    HW239561   1.484   0.307   3.721  1.6283  0.6921 -0.1069
 9310SOL     OW39562   1.176   1.597   5.047 -0.7748 -0.2911  0.4314
 9310SOL    HW139563   1.169   1.680   4.999  0.9836 -1.0830 -1.1767
 9310SOL    HW239564   1.216   1.632   5.127  1.0406 -3.2841  0.8055
 9311SOL     OW39565   2.885   3.367   2.460  0.2249  0.1254  0.6637
 9311SOL    HW139566   2.918   3.296   2.515  2.0854  2.1181  2.1192
 9311SOL    HW239567   2.938   3.373   2.381 -0.7667 -1.9464 -0.1467
 9312SOL     OW39568   3.392   1.170  10.824 -0.5619 -0.3251  0.0359
 9312SOL    HW139569   3.312   1.223  10.820 -0.4954 -0.1207  1.4914
 9312SOL    HW239570   3.379   1.102  10.759  1.4825 -2.2145  1.5905
 9313SOL     OW39571   3.060   1.884   9.775 -0.5119  0.4482 -0.0171
 9313SOL    HW139572   2.988   1.941   9.750 -2.6128 -2.2958 -0.1782
 9313SOL    HW239573   3.012   1.825   9.833 -0.8059  0.2049 -0.5183
 9314SOL     OW39574   0.278   2.051   7.851  0.1193  0.0058 -0.4778
 9314SOL    HW139575   0.293   2.105   7.773 -0.3543 -1.7972 -1.8302
 9314SOL    HW239576   0.231   1.975   7.818  1.6297 -0.4102 -1.6879
 9315SOL     OW39577   3.630   2.828  16.671 -0.7934 -0.9124  0.1318
 9315SOL    HW139578   3.713   2.799  16.633  0.1580  0.2589  1.3098
 9315SOL    HW239579   3.636   2.805  16.764 -1.2530 -3.2379 -0.4170
 9316SOL     OW39580   2.569   4.426   6.753  0.6190  0.0631 -0.0245
 9316SOL    HW139581   2.565   4.459   6.663 -0.5568  0.9624  0.3490
 9316SOL    HW239582   2.489   4.373   6.752  2.4115 -2.6660  1.5861
 9317SOL     OW39583   1.514   0.266  10.808 -0.0693  0.2291 -0.6624
 9317SOL    HW139584   1.420   0.282  10.817 -0.1658 -0.8395  0.2734
 9317SOL    HW239585   1.554   0.347  10.840 -1.0567  0.9419 -1.2466
 9318SOL     OW39586   3.209   1.278   6.235 -0.3522  0.7871 -0.1480
 9318SOL    HW139587   3.262   1.272   6.156  1.0146  2.3253  0.6299
 9318SOL    HW239588   3.200   1.373   6.243  1.6963  1.0113 -0.5096
 9319SOL     OW39589   3.294   1.533   3.102 -0.4447  0.4760  0.4330
 9319SOL    HW139590   3.209   1.509   3.140 -0.4197  1.5896  1.2073
 9319SOL    HW239591   3.285   1.488   3.018  0.1748  0.7016  0.2480
 9320SOL     OW39592   4.010   1.312   3.100 -0.0773 -0.2128 -0.0425
 9320SOL    HW139593   3.987   1.221   3.122  2.1720 -1.1387 -1.5252
 9320SOL    HW239594   3.991   1.352   3.185  0.6065  2.5363 -1.1808
 9321SOL     OW39595   2.402   2.724   6.398  0.1867  0.5758 -0.4771
 9321SOL    HW139596   2.390   2.731   6.303 -1.0888 -2.7814 -0.5729
 9321SOL    HW239597   2.496   2.733   6.408  0.1868  1.4845 -1.2162
 9322SOL     OW39598   0.905   0.940   8.406  0.3060 -0.8088 -0.2367
 9322SOL    HW139599   0.945   0.889   8.335  1.0737 -0.5671  0.0166
 9322SOL    HW239600   0.971   1.010   8.411 -1.9994  1.2104  2.0822
 9323SOL     OW39601   3.869   0.925   7.870  0.0108 -0.0032  0.7900
 9323SOL    HW139602   3.863   0.829   7.874 -0.5090  0.1318  3.1706
 9323SOL    HW239603   3.797   0.951   7.814  0.5243 -0.4508 -0.0735
 9324SOL     OW39604   0.466   1.678   9.807 -0.1083  0.4606 -0.3578
 9324SOL    HW139605   0.555   1.660   9.837  0.2368  0.8805 -1.1255
 9324SOL    HW239606   0.476   1.672   9.712  2.2745  0.1852 -0.0978
 9325SOL     OW39607   1.676   3.412   9.105 -0.4945 -0.0092  0.7836
 9325SOL    HW139608   1.691   3.344   9.171  0.3802 -1.0294 -0.4806
 9325SOL    HW239609   1.591   3.383   9.072  0.6406 -0.7493 -1.4427
 9326SOL     OW39610   3.597   0.787  13.461  0.1509  0.5409 -0.4140
 9326SOL    HW139611   3.543   0.812  13.536 -2.1921 -1.4145 -1.4231
 9326SOL    HW239612   3.680   0.826  13.485 -0.6688  1.8737  0.2478
 9327SOL     OW39613   2.487   2.851   8.168  0.0088 -0.1952  0.4529
 9327SOL    HW139614   2.465   2.769   8.124 -0.9593  0.5488 -0.4431
 9327SOL    HW239615   2.471   2.919   8.102  2.3431  0.2032  0.3029
 9328SOL     OW39616   1.664   3.062   3.437  0.0677  0.3362 -0.5929
 9328SOL    HW139617   1.577   3.033   3.410  0.5728 -2.1904  0.4597
 9328SOL    HW239618   1.726   3.053   3.364  0.9990  1.3306  0.0643
 9329SOL     OW39619   1.452   2.891   2.508  0.1405 -0.3809 -0.0220
 9329SOL    HW139620   1.452   2.831   2.434  0.1133  0.6737 -0.8710
 9329SOL    HW239621   1.493   2.837   2.575 -2.3010  1.0821  2.6623
 9330SOL     OW39622   0.959   3.372   7.262 -0.3649  0.3823  0.3683
 9330SOL    HW139623   0.897   3.359   7.333  0.2290 -0.4513  0.7276
 9330SOL    HW239624   1.032   3.417   7.305  0.1248  0.5353 -0.6215
 9331SOL     OW39625   4.462   4.490   5.965 -0.1423 -0.0829  0.3478
 9331SOL    HW139626   4.424   4.486   5.877  2.3232  2.9370 -0.8645
 9331SOL    HW239627   4.387   4.462   6.017  0.3118 -1.9152  0.0446
 9332SOL     OW39628   2.341   3.686   8.074 -0.2755  0.4192  0.0765
 9332SOL    HW139629   2.435   3.669   8.082 -0.8676 -3.3755 -0.9202
 9332SOL    HW239630   2.336   3.754   8.007 -0.4067  2.0722  1.7836
 9333SOL     OW39631   0.879   4.135  10.060 -0.0298  0.2012 -0.0433
 9333SOL    HW139632   0.846   4.079  10.131 -0.6329 -0.6687 -1.0080
 9333SOL    HW239633   0.971   4.111  10.067 -0.6523 -1.5425  2.1358
 9334SOL     OW39634   3.575   4.196  13.433  0.1252  0.1486  0.2949
 9334SOL    HW139635   3.625   4.250  13.372 -1.6024  0.5323 -0.7745
 9334SOL    HW239636   3.589   4.256  13.507 -0.0533 -1.2077  1.4242
 9335SOL     OW39637   0.238   0.400  14.937 -0.2860 -0.2962  0.2550
 9335SOL    HW139638   0.291   0.440  14.869 -0.9189 -0.5548 -0.3979
 9335SOL    HW239639   0.256   0.308  14.920 -1.6202 -0.6289  0.6020
 9336SOL     OW39640   2.523   3.829   0.311  0.0712 -0.9065  0.3897
 9336SOL    HW139641   2.596   3.862   0.260 -1.4299  0.8576 -0.6133
 9336SOL    HW239642   2.472   3.797   0.236 -0.0637  0.9261 -0.3121
 9337SOL     OW39643   0.962   1.515  10.834  0.1676  0.1523  0.0830
 9337SOL    HW139644   1.004   1.596  10.805  3.3307 -1.3798  0.3683
 9337SOL    HW239645   0.948   1.463  10.756 -2.6903 -0.7103  1.1673
 9338SOL     OW39646   3.557   3.172   2.176  0.2789 -0.3134 -0.1498
 9338SOL    HW139647   3.608   3.091   2.184  2.4245  1.2934  2.2159
 9338SOL    HW239648   3.581   3.196   2.086 -0.9551  0.8401 -0.1703
 9339SOL     OW39649   3.666   0.723  15.049  0.5940 -0.0569 -0.0822
 9339SOL    HW139650   3.702   0.771  15.123  1.7970 -0.3773 -0.4585
 9339SOL    HW239651   3.621   0.655  15.098 -0.1076  1.0202  0.7505
 9340SOL     OW39652   3.960   2.507   9.608 -0.4213  0.2733 -0.2943
 9340SOL    HW139653   4.022   2.434   9.617  0.5169  1.2275  0.9255
 9340SOL    HW239654   3.900   2.488   9.680 -0.2624  1.3463  0.1105
 9341SOL     OW39655   3.431   1.825   7.307 -0.1356  0.0407 -0.0319
 9341SOL    HW139656   3.446   1.919   7.297 -1.9003  0.4427  1.0937
 9341SOL    HW239657   3.521   1.805   7.334 -0.1400  0.0935  0.0240
 9342SOL     OW39658   1.311   2.483   3.491 -0.5408 -0.1365  0.7710
 9342SOL    HW139659   1.371   2.543   3.537  0.5612  0.4768 -1.4716
 9342SOL    HW239660   1.299   2.525   3.406  0.7739  0.1143  0.7103
 9343SOL     OW39661   1.304   2.935  16.527 -0.0641 -0.3753  0.2040
 9343SOL    HW139662   1.335   2.847  16.508 -0.0979 -0.0425 -1.3378
 9343SOL    HW239663   1.388   2.980  16.532  0.4913 -1.4782  0.5807
 9344SOL     OW39664   1.547   1.230   3.993 -0.2777 -0.0589 -0.3069
 9344SOL    HW139665   1.594   1.243   4.075 -0.6275 -1.9534  0.1819
 9344SOL    HW239666   1.535   1.322   3.968 -0.4513  0.0250  0.0818
 9345SOL     OW39667   3.101   0.084   3.184  0.0328 -0.2112  0.1942
 9345SOL    HW139668   3.036   0.145   3.150  1.3330  0.0263 -1.8548
 9345SOL    HW239669   3.113   0.031   3.105 -0.5069  0.4256 -0.3179
 9346SOL     OW39670   4.489   2.155   2.224 -0.0091 -0.0850  0.2345
 9346SOL    HW139671   4.441   2.227   2.267  2.1533 -0.2280  2.8926
 9346SOL    HW239672   4.456   2.080   2.274  0.4506 -0.7997 -0.5320
 9347SOL     OW39673   4.477   2.294  17.082  0.0316  0.0374 -0.2084
 9347SOL    HW139674   4.448   2.361  17.020 -0.5504  0.1421  0.1761
 9347SOL    HW239675   4.547   2.336  17.132  0.5226 -0.1784 -0.7109
 9348SOL     OW39676   0.688   3.787   7.979 -0.7572  0.2374 -0.2515
 9348SOL    HW139677   0.617   3.803   8.040 -1.1649  4.1759 -1.7862
 9348SOL    HW239678   0.741   3.866   7.983 -0.0435 -0.3346  1.6878
 9349SOL     OW39679   0.375   3.423   8.490  0.0035 -0.4335 -0.0316
 9349SOL    HW139680   0.413   3.337   8.505  1.8455  0.1270 -1.5369
 9349SOL    HW239681   0.311   3.431   8.561 -0.5815  1.5972 -0.7748
 9350SOL     OW39682   0.157   1.365  11.797  0.1078 -0.3101 -0.4401
 9350SOL    HW139683   0.193   1.281  11.770  1.7569  0.1490  0.3208
 9350SOL    HW239684   0.235   1.419  11.783  0.1059 -0.4527 -0.9650
 9351SOL     OW39685   0.532   3.231   2.994 -0.2218 -0.3497  0.3485
 9351SOL    HW139686   0.598   3.249   3.060 -0.6309 -1.7679  1.1453
 9351SOL    HW239687   0.575   3.171   2.933  1.0168  0.9516 -0.0830
 9352SOL     OW39688   0.169   4.220   3.687 -0.1418 -0.0634 -0.3308
 9352SOL    HW139689   0.106   4.291   3.680 -0.7330 -0.5475  0.0810
 9352SOL    HW239690   0.174   4.199   3.593 -4.1250 -0.6842 -0.4108
 9353SOL     OW39691   0.257   2.301   7.230 -0.1147  0.0617 -0.0760
 9353SOL    HW139692   0.327   2.352   7.269  1.3275 -0.6512 -1.7397
 9353SOL    HW239693   0.183   2.361   7.241 -1.1200 -1.2616  0.4775
 9354SOL     OW39694   4.381   3.108   1.902  0.4802  0.2385  0.2847
 9354SOL    HW139695   4.455   3.048   1.914  0.4354  0.3418  1.0987
 9354SOL    HW239696   4.343   3.115   1.989 -0.7877 -0.3899 -0.2209
 9355SOL     OW39697   2.030   4.331   1.468  0.3103  0.3253  0.3533
 9355SOL    HW139698   1.973   4.313   1.543  0.8740  1.3822  1.0226
 9355SOL    HW239699   2.115   4.302   1.501  0.0756 -1.6356 -0.7584
 9356SOL     OW39700   0.162   4.397  16.003 -0.0882 -0.1232 -0.5615
 9356SOL    HW139701   0.074   4.409  15.966  0.7597  0.4315 -2.4078
 9356SOL    HW239702   0.215   4.462  15.956 -1.9826  3.0705  1.6841
 9357SOL     OW39703   0.052   0.316   2.995  0.5447 -0.1225  0.5923
 9357SOL    HW139704   0.102   0.293   2.917  1.6048 -1.1217  1.5540
 9357SOL    HW239705   0.044   0.411   2.988  1.7327 -0.0461  0.2390
 9358SOL     OW39706   2.068   2.787   7.417 -0.1466 -0.0979 -0.2402
 9358SOL    HW139707   2.021   2.703   7.417 -1.4440  0.6469  0.4583
 9358SOL    HW239708   2.157   2.756   7.399 -1.3386 -2.3271 -2.3875
 9359SOL     OW39709   3.412   1.103  14.690  0.1588  0.3425  0.4106
 9359SOL    HW139710   3.411   1.116  14.785 -1.8851  2.8435  0.0415
 9359SOL    HW239711   3.320   1.112  14.667  0.0775 -1.8268 -0.0902
 9360SOL     OW39712   3.348   2.015  17.297  0.8068  0.1811  0.5005
 9360SOL    HW139713   3.426   1.969  17.327  1.2309  1.2455  0.9999
 9360SOL    HW239714   3.381   2.069  17.225  0.1291 -0.1246 -0.0422
 9361SOL     OW39715   2.898   3.840   4.336  0.2029 -0.1354 -0.5126
 9361SOL    HW139716   2.906   3.929   4.303  0.4123 -0.0679 -0.2793
 9361SOL    HW239717   2.913   3.844   4.430 -2.2912 -0.2154 -0.1168
 9362SOL     OW39718   2.797   0.672   1.352 -0.1257  0.0906  0.0284
 9362SOL    HW139719   2.725   0.717   1.307 -1.5118 -0.2379  1.9202
 9362SOL    HW239720   2.762   0.583   1.347  0.6943 -0.2658  0.6630
 9363SOL     OW39721   4.589   1.825   4.868 -0.0800 -0.3979 -0.1418
 9363SOL    HW139722   4.496   1.809   4.882 -0.1267 -0.7335 -0.8778
 9363SOL    HW239723   4.623   1.739   4.846  0.1056 -0.1865 -0.6903
 9364SOL     OW39724   2.903   4.264   8.788  0.2581  0.2200 -0.1799
 9364SOL    HW139725   2.912   4.244   8.881  0.1710  3.2926  0.4691
 9364SOL    HW239726   2.866   4.351   8.800 -0.1387 -0.0593  0.6127
 9365SOL     OW39727   4.211   0.662  15.234 -0.9519  0.3893 -0.0400
 9365SOL    HW139728   4.125   0.629  15.260 -1.3268  1.1554 -0.3198
 9365SOL    HW239729   4.266   0.583  15.233 -0.7533  0.5048  3.2832
 9366SOL     OW39730   2.616   1.373   6.281 -0.0255 -0.4576 -0.0956
 9366SOL    HW139731   2.645   1.421   6.359 -3.0955 -1.8908  1.9746
 9366SOL    HW239732   2.540   1.328   6.319  0.4777  0.2498  1.7606
 9367SOL     OW39733   4.019   4.211  15.494 -0.0459 -0.2093 -0.0778
 9367SOL    HW139734   4.103   4.248  15.467  1.2068 -1.6156  1.9478
 9367SOL    HW239735   3.995   4.273  15.562  0.0827  0.7449 -0.9040
 9368SOL     OW39736   3.303   2.107   2.104  0.0627  0.2677 -0.2903
 9368SOL    HW139737   3.342   2.182   2.148  3.1472 -1.4083 -0.1639
 9368SOL    HW239738   3.212   2.135   2.095  0.2397  0.4518 -1.6127
 9369SOL     OW39739   1.031   0.778  11.569 -0.0964 -0.5862 -0.0003
 9369SOL    HW139740   1.004   0.857  11.616  0.3615 -0.6316  0.3380
 9369SOL    HW239741   1.092   0.819  11.508 -1.2147  0.6846 -0.2722
 9370SOL     OW39742   4.444   2.898   2.292 -0.4248 -0.1082 -0.0765
 9370SOL    HW139743   4.413   2.940   2.373  1.7341 -1.4897  1.4509
 9370SOL    HW239744   4.400   2.962   2.237 -0.2742 -1.7125 -2.0348
 9371SOL     OW39745   1.440   3.051   3.272 -0.0842 -0.0064 -0.1331
 9371SOL    HW139746   1.369   2.998   3.238 -0.6383  1.3321 -1.0598
 9371SOL    HW239747   1.448   3.126   3.213 -1.6679  0.8073  0.6944
 9372SOL     OW39748   0.755   3.558   0.212  0.3257 -0.0498  0.1718
 9372SOL    HW139749   0.799   3.557   0.127  2.2588  2.3374  1.1432
 9372SOL    HW239750   0.804   3.486   0.253  2.6703 -0.0148 -2.6095
 9373SOL     OW39751   0.724   1.904  10.844  0.0616 -0.7384 -0.3444
 9373SOL    HW139752   0.778   1.888  10.921  0.5649 -1.0282 -0.7574
 9373SOL    HW239753   0.700   1.813  10.826 -0.1009 -0.4787 -1.4509
 9374SOL     OW39754   0.385   4.684   3.936 -0.4223 -0.4644 -0.6454
 9374SOL    HW139755   0.376   4.699   4.031 -1.3879  2.6412 -1.2082
 9374SOL    HW239756   0.431   4.603   3.917 -2.1649 -1.5978  0.0050
 9375SOL     OW39757   1.094   1.325   8.795 -0.0548  0.2428  0.0390
 9375SOL    HW139758   1.119   1.264   8.864 -0.8848  2.4171  2.2439
 9375SOL    HW239759   1.001   1.303   8.786 -0.7958  3.2940  0.3180
 9376SOL     OW39760   3.892   3.236  14.490 -0.5416  0.5022 -0.5130
 9376SOL    HW139761   3.810   3.218  14.536 -0.5596  0.4032 -0.5847
 9376SOL    HW239762   3.897   3.145  14.461 -0.6076  0.2344  0.3147
 9377SOL     OW39763   0.008   1.123   0.424  0.5618  0.0069 -0.7864
 9377SOL    HW139764   4.703   1.038   0.409  1.0230 -0.3887  0.1464
 9377SOL    HW239765   0.096   1.119   0.387  0.7386 -0.0416 -0.3573
 9378SOL     OW39766   2.473   3.144   4.360 -0.3883  0.2977  0.3150
 9378SOL    HW139767   2.512   3.080   4.420 -0.8004  1.2721  1.6105
 9378SOL    HW239768   2.536   3.150   4.287  0.3606  0.2470  0.9521
 9379SOL     OW39769   3.357   3.541   2.210 -0.4256  0.1200  0.3561
 9379SOL    HW139770   3.359   3.555   2.115  1.4443  0.9147  0.4926
 9379SOL    HW239771   3.451   3.533   2.230  0.3560  2.0089 -2.4493
 9380SOL     OW39772   0.097   2.541   7.614 -0.4181  0.2433 -0.1937
 9380SOL    HW139773   0.061   2.584   7.692  1.0526  0.9510  0.0985
 9380SOL    HW239774   0.178   2.592   7.619 -0.5463  0.1647  2.6626
 9381SOL     OW39775   1.445   4.205  12.241 -0.0089  0.0125 -0.2225
 9381SOL    HW139776   1.357   4.241  12.237 -0.5120 -1.3786 -2.0198
 9381SOL    HW239777   1.454   4.155  12.322  0.7226 -0.3900 -0.5422
 9382SOL     OW39778   1.265   0.452   8.707  0.6051  0.0502  0.0563
 9382SOL    HW139779   1.274   0.357   8.701 -0.3612 -0.0852  0.8585
 9382SOL    HW239780   1.311   0.464   8.791 -0.3438  0.5504  0.5075
 9383SOL     OW39781   3.539   0.147  12.708 -0.2583 -0.1242  0.1559
 9383SOL    HW139782   3.516   0.144  12.615  1.1262  1.4434 -0.2411
 9383SOL    HW239783   3.602   0.219  12.700  1.8427 -1.8742  0.8371
 9384SOL     OW39784   2.028   1.412  11.513  0.4794 -0.2170  0.2601
 9384SOL    HW139785   2.117   1.377  11.526 -0.4601 -2.4590  0.5955
 9384SOL    HW239786   2.042   1.503  11.539  0.5843 -0.6920  1.8739
 9385SOL     OW39787   4.348   1.811  17.447 -0.5711 -0.0729 -0.2411
 9385SOL    HW139788   4.349   1.834  17.540  1.8496  0.7035 -0.4682
 9385SOL    HW239789   4.313   1.722  17.456 -0.0539 -0.3683 -1.2044
 9386SOL     OW39790   2.335   2.681   7.450 -0.5199  0.0785  0.2274
 9386SOL    HW139791   2.312   2.588   7.451 -2.0383  0.4696  1.3841
 9386SOL    HW239792   2.318   2.705   7.541 -0.8848  0.0037  0.1806
 9387SOL     OW39793   4.316   0.924  13.310 -0.8313 -0.5632 -0.3800
 9387SOL    HW139794   4.233   0.971  13.299 -0.7832 -1.0476 -2.7987
 9387SOL    HW239795   4.338   0.939  13.402 -1.5135  0.7313 -0.4353
 9388SOL     OW39796   3.268   3.706   0.777 -0.0294 -0.5875  0.5615
 9388SOL    HW139797   3.354   3.748   0.781 -1.0276  1.1412  4.0580
 9388SOL    HW239798   3.209   3.771   0.739  0.7299 -0.5876 -0.6327
 9389SOL     OW39799   1.974   3.423   1.709 -0.0254 -0.0916 -0.1682
 9389SOL    HW139800   2.045   3.404   1.647 -1.5162  1.5230 -2.3915
 9389SOL    HW239801   2.012   3.502   1.747 -1.2846  0.0772  0.7179
 9390SOL     OW39802   4.070   3.494   2.755  0.3854 -0.4407  0.3535
 9390SOL    HW139803   4.034   3.491   2.667 -0.0995  0.4984  0.5234
 9390SOL    HW239804   4.069   3.587   2.775 -1.4211  0.0347 -1.9296
 9391SOL     OW39805   2.612   4.437  16.226  0.1605  0.3340 -0.0415
 9391SOL    HW139806   2.688   4.424  16.170 -0.2390  0.9963 -0.7354
 9391SOL    HW239807   2.605   4.532  16.217  0.9824  0.4076  0.0812
 9392SOL     OW39808   2.164   2.941   9.927 -0.5707  0.3758 -0.3124
 9392SOL    HW139809   2.142   3.031   9.903 -0.5172 -0.0606 -1.9381
 9392SOL    HW239810   2.200   2.922   9.841  1.0117 -1.2604  0.7087
 9393SOL     OW39811   4.694   3.042   8.057 -0.8054  0.3574 -0.0540
 9393SOL    HW139812   4.652   3.012   7.977 -0.9952 -0.0600  0.2027
 9393SOL    HW239813   4.620   3.050   8.117 -1.8235  0.1390 -1.2902
 9394SOL     OW39814   3.085   3.722  11.044 -0.0229  0.0648 -0.5634
 9394SOL    HW139815   3.163   3.698  11.094 -0.4019 -0.7956 -0.3857
 9394SOL    HW239816   3.101   3.707  10.950 -1.0597  2.4004 -1.1154
 9395SOL     OW39817   3.184   2.415   3.793 -0.7120 -0.2380 -0.0761
 9395SOL    HW139818   3.105   2.382   3.751 -0.9718 -0.0442  0.2594
 9395SOL    HW239819   3.237   2.336   3.789 -0.6452 -0.1821 -0.3082
 9396SOL     OW39820   3.608   3.335   2.685 -0.5101 -0.6180  0.9764
 9396SOL    HW139821   3.553   3.400   2.641 -0.7709 -0.7477  1.1055
 9396SOL    HW239822   3.605   3.274   2.611  0.3231 -0.2276  0.6201
 9397SOL     OW39823   1.622   0.869   8.811  0.1585  0.1406 -0.6882
 9397SOL    HW139824   1.658   0.787   8.845  0.4651  0.7855  0.5399
 9397SOL    HW239825   1.632   0.926   8.887 -1.3107 -1.0886  0.4171
 9398SOL     OW39826   0.718   0.512   8.386  0.1667 -0.1752 -0.2156
 9398SOL    HW139827   0.683   0.458   8.457  0.5018 -1.4764 -1.0402
 9398SOL    HW239828   0.797   0.459   8.374  0.0053 -0.9105  1.9031
 9399SOL     OW39829   1.600   3.278   2.462  0.2491 -0.0285 -0.2218
 9399SOL    HW139830   1.649   3.348   2.418 -0.7094  1.6691  1.4078
 9399SOL    HW239831   1.659   3.203   2.455 -0.8780 -0.7379 -2.2039
 9400SOL     OW39832   2.174   1.349   6.356  0.2277 -0.3186  0.8227
 9400SOL    HW139833   2.113   1.284   6.321  1.4863 -1.3430  0.5582
 9400SOL    HW239834   2.254   1.303   6.331  0.3811  0.1565  0.4232
 9401SOL     OW39835   1.187   4.373  13.137  0.3581  0.1916  0.2754
 9401SOL    HW139836   1.220   4.460  13.117  0.8739 -0.2559 -0.7759
 9401SOL    HW239837   1.155   4.349  13.050  0.5016  0.3792  0.1704
 9402SOL     OW39838   1.567   0.075  16.008 -0.0123 -0.5228  0.8391
 9402SOL    HW139839   1.626   0.150  16.013 -0.2926 -0.3420  1.5603
 9402SOL    HW239840   1.627   0.012  15.969 -0.7901  0.3025 -1.6682
 9403SOL     OW39841   1.684   1.280   4.781 -0.1405 -0.0626 -0.8630
 9403SOL    HW139842   1.759   1.224   4.797 -0.7183  0.0606  2.3006
 9403SOL    HW239843   1.615   1.215   4.794 -0.3670  0.7428  1.8406
 9404SOL     OW39844   1.569   4.009  11.201  0.7086 -0.2818  0.0642
 9404SOL    HW139845   1.608   4.046  11.122  2.1984 -0.9596  0.4956
 9404SOL    HW239846   1.612   4.048  11.277  0.2355  4.3172 -2.0016
 9405SOL     OW39847   2.091   3.197   9.898  0.9317  0.4272 -0.1456
 9405SOL    HW139848   2.008   3.237   9.923  0.5127  0.4522 -1.5870
 9405SOL    HW239849   2.143   3.277   9.895 -0.5968  1.3871 -0.8635
 9406SOL     OW39850   2.517   4.711   7.492  0.7797 -0.1007  0.8347
 9406SOL    HW139851   2.428   4.677   7.505  1.2750 -0.9914  1.9255
 9406SOL    HW239852   2.506   0.052   7.544  0.8778 -0.1754  0.9696
 9407SOL     OW39853   2.738   2.650   5.071 -0.1888  0.0955  0.2920
 9407SOL    HW139854   2.660   2.700   5.095  0.1799 -0.4340  2.6074
 9407SOL    HW239855   2.806   2.683   5.131  0.7541 -2.3218  0.5751
 9408SOL     OW39856   4.255   1.519  12.768 -0.5802 -0.0957  0.1685
 9408SOL    HW139857   4.298   1.567  12.697 -1.2215 -0.1927 -0.2893
 9408SOL    HW239858   4.321   1.526  12.836  1.3187  2.1287 -1.8901
 9409SOL     OW39859   0.133   0.213  11.926  0.3758  0.5423 -0.0811
 9409SOL    HW139860   0.197   0.142  11.927 -2.3149 -1.9517 -2.6174
 9409SOL    HW239861   0.113   0.213  12.020  1.0019  0.0225  0.0570
 9410SOL     OW39862   2.442   2.234   0.978  0.3319 -0.0061  0.3386
 9410SOL    HW139863   2.408   2.161   1.030 -0.6133  1.2140  1.4242
 9410SOL    HW239864   2.413   2.201   0.893 -1.4138 -0.0197  0.9440
 9411SOL     OW39865   1.048   2.540   3.157 -0.5809 -0.2348  0.0359
 9411SOL    HW139866   1.102   2.462   3.171 -1.8746 -1.2377 -0.6438
 9411SOL    HW239867   1.079   2.557   3.068  1.1017  0.7714  0.7957
 9412SOL     OW39868   3.125   3.936  11.384 -0.0777  0.0694  0.1383
 9412SOL    HW139869   3.111   3.929  11.478  1.5421  0.5740  0.4164
 9412SOL    HW239870   3.174   3.856  11.364  0.1919 -0.1150  1.5773
 9413SOL     OW39871   4.511   0.122  11.344 -0.4068  0.1575  0.1482
 9413SOL    HW139872   4.515   0.064  11.420 -0.8872  1.1950  0.9622
 9413SOL    HW239873   4.523   0.070  11.264 -1.0929  0.3435 -0.0803
 9414SOL     OW39874   0.070   0.115   6.004  0.1991 -0.2456 -0.0199
 9414SOL    HW139875   0.066   0.077   6.091  0.3301  2.1283  1.0110
 9414SOL    HW239876   0.042   0.038   5.953 -1.8214  0.5426 -0.1306
 9415SOL     OW39877   2.289   2.686   5.379  0.0234 -0.2715  0.2342
 9415SOL    HW139878   2.205   2.701   5.337  0.6570 -0.2393 -1.0088
 9415SOL    HW239879   2.325   2.634   5.307  0.9471  0.1691  0.3843
 9416SOL     OW39880   4.559   1.312   3.751 -0.0035 -0.1193  0.2809
 9416SOL    HW139881   4.473   1.339   3.720 -0.9817 -2.0039  1.3271
 9416SOL    HW239882   4.611   1.329   3.673 -0.3419 -0.1953  0.0429
 9417SOL     OW39883   3.166   3.963   5.698  0.1247  0.0114 -0.0662
 9417SOL    HW139884   3.221   3.912   5.638 -0.5237 -0.8318  0.0635
 9417SOL    HW239885   3.220   4.040   5.717  2.5628 -2.1681  1.7821
 9418SOL     OW39886   4.162   0.981   3.242  0.1044  0.1141 -0.3594
 9418SOL    HW139887   4.120   0.945   3.320 -1.9389  0.7388 -1.1715
 9418SOL    HW239888   4.092   0.994   3.178  0.4799 -1.8577 -1.1545
 9419SOL     OW39889   1.582   4.054   7.310  0.0951 -0.3826  0.6090
 9419SOL    HW139890   1.671   4.091   7.315  0.0508 -0.2867  0.6773
 9419SOL    HW239891   1.535   4.110   7.249  0.9485  0.7476  0.9855
 9420SOL     OW39892   1.719   0.517  10.051  0.0880  0.2753 -0.4413
 9420SOL    HW139893   1.772   0.497  10.129 -0.4348  0.2933 -0.0868
 9420SOL    HW239894   1.744   0.607  10.032 -0.0449  0.5316  0.6069
 9421SOL     OW39895   4.500   0.256   8.815  0.4528 -0.0701 -0.2231
 9421SOL    HW139896   4.466   0.181   8.766  2.2719 -0.3624 -1.0548
 9421SOL    HW239897   4.484   0.220   8.902  1.0501  2.1295  0.7943
 9422SOL     OW39898   2.778   2.467   8.383  0.4877  0.7233  0.3496
 9422SOL    HW139899   2.873   2.464   8.368  0.0428 -2.2704 -1.8168
 9422SOL    HW239900   2.759   2.379   8.351  0.7715  1.0649 -0.7776
 9423SOL     OW39901   4.117   4.735   7.303 -0.5479  0.2424  0.5724
 9423SOL    HW139902   4.207   0.018   7.330 -0.4355  0.1977  0.2264
 9423SOL    HW239903   4.066   0.059   7.354 -0.1237  2.8210 -2.1901
 9424SOL     OW39904   1.912   4.030   1.433  0.1381  0.0718  0.3308
 9424SOL    HW139905   1.924   4.115   1.475 -2.9229 -0.6183  2.4985
 9424SOL    HW239906   1.983   4.031   1.367  0.2355 -0.0893  0.4343
 9425SOL     OW39907   2.997   1.014   5.923  0.2407  0.1214 -0.3443
 9425SOL    HW139908   3.056   1.026   5.997 -0.3078 -3.6159  0.6650
 9425SOL    HW239909   2.997   1.100   5.881 -3.2926 -0.3993 -1.4338
 9426SOL     OW39910   0.519   1.905   6.258  0.2254  0.1148 -0.0905
 9426SOL    HW139911   0.592   1.861   6.301 -0.1073 -1.3825 -1.0446
 9426SOL    HW239912   0.564   1.934   6.178 -0.2950  0.8385 -0.1188
 9427SOL     OW39913   0.054   0.880  10.626  0.1282 -0.9373  0.3189
 9427SOL    HW139914   0.029   0.848  10.539  0.4509 -1.4110  0.4057
 9427SOL    HW239915   0.074   0.972  10.609 -1.4794 -0.3037  1.8340
 9428SOL     OW39916   3.640   1.469   0.437  0.2718  0.3860  0.2789
 9428SOL    HW139917   3.579   1.403   0.404  1.3437 -0.9605  1.0013
 9428SOL    HW239918   3.577   1.508   0.498 -1.5244 -0.3154 -1.1117
 9429SOL     OW39919   3.557   2.492   7.430 -0.1410 -0.4087 -0.3640
 9429SOL    HW139920   3.599   2.465   7.512 -2.0079 -1.5469  0.2039
 9429SOL    HW239921   3.572   2.587   7.423  0.9783 -0.4932  0.7364
 9430SOL     OW39922   0.891   0.172   1.985  0.2100  0.2001 -0.2710
 9430SOL    HW139923   0.985   0.182   1.997  0.2007  0.2327 -0.2255
 9430SOL    HW239924   0.890   0.085   1.944 -0.7665  0.6612 -1.2394
 9431SOL     OW39925   0.270   4.736   7.786 -0.1722  0.4295  0.1482
 9431SOL    HW139926   0.287   0.034   7.699  1.6220 -0.6186  0.0614
 9431SOL    HW239927   0.252   0.074   7.841  1.9834  0.3332  0.9657
 9432SOL     OW39928   1.937   1.367   1.240  0.3622 -0.7294 -0.9526
 9432SOL    HW139929   2.004   1.350   1.174 -1.1587 -1.4544 -2.3046
 9432SOL    HW239930   1.936   1.462   1.244  2.9012 -0.7675  0.7878
 9433SOL     OW39931   3.845   1.578   6.304  0.4137 -0.1184  0.0382
 9433SOL    HW139932   3.797   1.522   6.365  1.7994 -2.2523 -0.8238
 9433SOL    HW239933   3.775   1.588   6.240 -0.7803  0.5727  1.4677
 9434SOL     OW39934   0.993   2.479   3.626 -0.5229 -0.0925 -0.4953
 9434SOL    HW139935   0.954   2.405   3.579 -0.9905 -2.2819  3.3428
 9434SOL    HW239936   0.915   2.534   3.634  0.2253  0.7489  0.8527
 9435SOL     OW39937   2.686   3.375   0.207 -0.4147 -0.3900  0.1751
 9435SOL    HW139938   2.654   3.447   0.152  3.7309  0.8112 -0.6909
 9435SOL    HW239939   2.737   3.325   0.143  0.7053  1.1924 -0.1692
 9436SOL     OW39940   1.680   2.526   9.462  0.2109  0.2364  0.3160
 9436SOL    HW139941   1.682   2.433   9.484  2.5688  0.5759  1.5428
 9436SOL    HW239942   1.597   2.548   9.505 -0.7298  1.1901 -1.9615
 9437SOL     OW39943   4.165   2.649  14.873 -0.2478  0.0712 -0.1566
 9437SOL    HW139944   4.150   2.599  14.794 -2.5160 -2.8119  2.1161
 9437SOL    HW239945   4.073   2.671  14.885  0.2684  1.6177  1.0604
 9438SOL     OW39946   4.324   1.267   2.956  0.4694  0.4813 -0.6584
 9438SOL    HW139947   4.308   1.301   2.868 -0.4792  0.1590 -0.6073
 9438SOL    HW239948   4.255   1.316   3.002  0.8899  0.4603 -0.0036
 9439SOL     OW39949   3.121   3.401   2.308  0.4525 -0.5371 -0.6363
 9439SOL    HW139950   3.171   3.480   2.286  4.3838 -2.5141  1.0528
 9439SOL    HW239951   3.185   3.334   2.333  0.8289  0.0630  0.0134
 9440SOL     OW39952   3.529   3.622   0.968 -0.4025 -0.8764 -0.4223
 9440SOL    HW139953   3.467   3.626   0.895  0.0536  1.2795 -0.6952
 9440SOL    HW239954   3.504   3.708   1.003 -1.4772 -1.8312  1.1726
 9441SOL     OW39955   0.681   4.086   5.599  0.0334  0.2270  0.1973
 9441SOL    HW139956   0.696   4.179   5.583  0.6863  0.0028 -0.4850
 9441SOL    HW239957   0.655   4.056   5.512  0.2058  3.4830 -0.9680
 9442SOL     OW39958   1.400   1.211  14.486  0.0967 -0.7650  0.2594
 9442SOL    HW139959   1.423   1.211  14.393 -0.2585 -1.0806  0.1684
 9442SOL    HW239960   1.367   1.121  14.496 -0.1257 -0.8409 -1.1507
 9443SOL     OW39961   4.731   2.263   3.783  0.0600  0.4246 -0.4515
 9443SOL    HW139962   0.077   2.219   3.788  1.9120  3.8617 -0.7789
 9443SOL    HW239963   4.672   2.195   3.815 -0.9167  1.0038 -0.9951
 9444SOL     OW39964   0.644   1.068  13.932 -0.1108 -0.3327 -0.2030
 9444SOL    HW139965   0.718   1.070  13.871 -0.8708  1.8756 -1.0456
 9444SOL    HW239966   0.670   1.136  13.994 -0.0046 -0.0772 -0.5283
 9445SOL     OW39967   2.072   4.651   7.922  0.5261 -0.1459  0.3181
 9445SOL    HW139968   1.999   4.598   7.955 -1.1486  1.6263 -0.5555
 9445SOL    HW239969   2.094   4.601   7.843  0.4613  2.2461 -1.2115
 9446SOL     OW39970   1.933   3.648  12.697  0.4632  0.1119  0.0775
 9446SOL    HW139971   1.895   3.681  12.616 -1.5310  0.0231  0.9683
 9446SOL    HW239972   1.857   3.607  12.738 -1.2837  4.4480  1.0716
 9447SOL     OW39973   1.786   0.382   4.849 -0.3364  0.5522 -0.3076
 9447SOL    HW139974   1.777   0.329   4.928 -0.7052  0.8269 -0.1673
 9447SOL    HW239975   1.818   0.465   4.885 -0.8803 -0.4634  2.4884
 9448SOL     OW39976   0.413   0.652   4.646 -0.6812  0.3382  0.0162
 9448SOL    HW139977   0.385   0.702   4.569  0.1444  0.2933 -0.3119
 9448SOL    HW239978   0.436   0.566   4.612  2.2355  0.1016  2.6579
 9449SOL     OW39979   2.561   3.352   5.347 -0.1868 -0.4708 -0.1129
 9449SOL    HW139980   2.492   3.414   5.325  0.8478  0.0739 -1.8199
 9449SOL    HW239981   2.597   3.397   5.424 -2.6692  0.8372  0.2631
 9450SOL     OW39982   1.762   0.744  13.448 -0.7796  0.2868  0.7109
 9450SOL    HW139983   1.736   0.803  13.378 -0.1805 -0.6354 -0.2788
 9450SOL    HW239984   1.846   0.716  13.413 -1.3358 -0.3438 -0.1037
 9451SOL     OW39985   1.093   3.088  17.171 -0.0772 -0.1124  0.5994
 9451SOL    HW139986   1.082   3.180  17.197 -1.9835 -0.0641 -0.4162
 9451SOL    HW239987   1.005   3.053  17.186 -0.6066  1.0707  0.2269
 9452SOL     OW39988   1.153   2.294   1.037 -0.2761  0.0845 -0.6157
 9452SOL    HW139989   1.100   2.372   1.051 -0.0724 -0.0154  0.6970
 9452SOL    HW239990   1.168   2.312   0.944 -0.0442 -2.2248 -1.0456
 9453SOL     OW39991   0.848   0.369  15.100 -0.0329 -0.1478 -0.8821
 9453SOL    HW139992   0.895   0.292  15.067 -0.9772 -0.4199 -1.6031
 9453SOL    HW239993   0.759   0.344  15.126  0.6324  1.0798  2.5234
 9454SOL     OW39994   3.484   1.527   6.882 -0.3032  0.2064  0.2318
 9454SOL    HW139995   3.454   1.453   6.935 -0.0962  0.8624  1.2399
 9454SOL    HW239996   3.461   1.608   6.926  0.8635  1.3159 -1.2288
 9455SOL     OW39997   3.205   4.674   4.459  0.1346 -0.0117  0.0149
 9455SOL    HW139998   3.190   0.015   4.511  1.0588  0.5788 -0.6247
 9455SOL    HW239999   3.128   4.620   4.477 -1.5816  1.3497 -3.2169
 9456SOL     OW40000   4.730   3.100   2.904  0.3668  0.3449 -0.6441
 9456SOL    HW140001   0.056   3.128   2.969 -0.6081  1.1040 -0.0002
 9456SOL    HW240002   4.685   3.181   2.878  1.6345  1.2635  0.0545
 9457SOL     OW40003   1.357   4.026   3.616 -0.0955 -0.1274 -0.2174
 9457SOL    HW140004   1.406   3.969   3.675  2.2549  1.9200 -0.1879
 9457SOL    HW240005   1.427   4.064   3.562  0.6900 -1.7314 -0.3401
 9458SOL     OW40006   1.281   0.952  17.467 -0.2497  0.7267 -0.8770
 9458SOL    HW140007   1.325   1.004  17.534  0.3718 -1.2825  0.2633
 9458SOL    HW240008   1.241   1.024  17.417 -1.0838  1.4371  0.7923
 9459SOL     OW40009   3.248   2.384  12.583 -0.0978  0.0614  0.2085
 9459SOL    HW140010   3.320   2.402  12.644  0.0654 -0.0106  0.0384
 9459SOL    HW240011   3.172   2.389  12.641 -0.3740 -0.4109 -0.1130
 9460SOL     OW40012   0.008   4.076   6.410 -0.2075  0.1196 -0.4168
 9460SOL    HW140013   4.702   4.143   6.462  1.8494  2.6712 -1.9389
 9460SOL    HW240014   4.668   4.033   6.375 -0.6714  1.2861 -0.8269
 9461SOL     OW40015   0.304   1.966   9.526  0.3151  0.9575  0.3116
 9461SOL    HW140016   0.340   1.878   9.538  1.5357  1.2844 -0.8530
 9461SOL    HW240017   0.215   1.939   9.506  1.2053 -0.4969 -1.6943
 9462SOL     OW40018   4.474   4.692   8.511 -0.1913  0.0324  0.4439
 9462SOL    HW140019   4.434   0.002   8.583 -1.1525 -1.8700  1.1922
 9462SOL    HW240020   4.552   4.653   8.549 -0.6390  0.2085  1.5391
 9463SOL     OW40021   3.575   1.769   8.495 -0.1801  0.1736  0.3107
 9463SOL    HW140022   3.643   1.812   8.442  0.3729 -1.0530  0.0428
 9463SOL    HW240023   3.572   1.678   8.466  3.1688  0.4641 -0.9118
 9464SOL     OW40024   2.231   0.714   7.940 -0.4195  0.3397  0.1805
 9464SOL    HW140025   2.183   0.795   7.956  0.3565  0.8850 -0.2395
 9464SOL    HW240026   2.253   0.688   8.029 -1.4018 -0.2906  0.2505
 9465SOL     OW40027   2.574   2.927   7.610  0.6227 -0.0961 -0.0685
 9465SOL    HW140028   2.566   3.002   7.552  1.0345 -0.5031 -0.6526
 9465SOL    HW240029   2.553   2.852   7.555 -1.7157  0.5126 -0.0007
 9466SOL     OW40030   0.704   2.472   9.033 -0.0637 -0.2409  0.1493
 9466SOL    HW140031   0.670   2.460   9.122  1.6439 -0.8487  0.7272
 9466SOL    HW240032   0.633   2.513   8.985 -0.0145 -1.2608 -0.8013
 9467SOL     OW40033   3.093   2.285   1.295 -0.8336  0.4046  0.2020
 9467SOL    HW140034   3.125   2.223   1.360 -1.3990 -0.1289 -0.0331
 9467SOL    HW240035   3.017   2.324   1.336  0.3080  2.2057  0.6192
 9468SOL     OW40036   2.115   4.492  14.767  0.4912 -0.3290  0.0383
 9468SOL    HW140037   2.050   4.562  14.768  0.0442 -0.7748  3.8482
 9468SOL    HW240038   2.158   4.504  14.683  0.2818 -1.2832 -0.2060
 9469SOL     OW40039   3.987   2.962   8.834  0.0300  0.0306  0.2674
 9469SOL    HW140040   4.053   2.994   8.773 -0.8047 -2.1760 -1.7461
 9469SOL    HW240041   3.928   3.037   8.841  1.9217  1.4269  1.5752
 9470SOL     OW40042   0.067   2.790   9.621  0.1295 -0.5460 -0.1550
 9470SOL    HW140043   0.076   2.800   9.716  0.0393  2.3607 -0.4556
 9470SOL    HW240044   4.718   2.752   9.612 -1.5579  2.9982  1.5213
 9471SOL     OW40045   0.195   2.568  10.622  0.1385  0.3224  0.5852
 9471SOL    HW140046   0.150   2.509  10.681  0.6544  0.7719  1.4411
 9471SOL    HW240047   0.267   2.514  10.589 -0.3929 -0.3300  0.5057
 9472SOL     OW40048   0.112   4.115   2.994  0.2456 -0.0947  0.2292
 9472SOL    HW140049   0.091   4.098   3.086 -2.6064 -0.7772 -0.5364
 9472SOL    HW240050   0.041   4.072   2.946  0.0324  2.6397 -1.9489
 9473SOL     OW40051   4.049   0.182   6.510 -0.1901  0.0035  0.4004
 9473SOL    HW140052   4.121   0.242   6.527  0.5552 -1.0246  0.8196
 9473SOL    HW240053   4.083   0.093   6.508 -2.1594 -0.7145 -2.5149
 9474SOL     OW40054   1.367   3.990   8.028 -0.6495  0.8039 -0.1658
 9474SOL    HW140055   1.398   3.901   8.046  1.8572  1.5351 -0.8363
 9474SOL    HW240056   1.288   3.989   8.082 -0.3342 -1.6946  0.2827
 9475SOL     OW40057   0.150   2.464   3.924 -0.3846  0.3568 -0.1282
 9475SOL    HW140058   0.065   2.440   3.886 -0.2951 -0.5896  0.2600
 9475SOL    HW240059   0.159   2.559   3.925  1.2982  0.1951 -0.1133
 9476SOL     OW40060   4.576   3.144   4.030 -0.1419 -0.3099 -0.0320
 9476SOL    HW140061   4.492   3.115   3.994 -0.0907 -0.0308 -0.3768
 9476SOL    HW240062   4.590   3.065   4.082  1.9929 -1.4238 -2.2583
 9477SOL     OW40063   3.739   1.715   7.683  0.4401 -0.1246 -0.4497
 9477SOL    HW140064   3.787   1.777   7.628  1.8956 -0.1524  0.7834
 9477SOL    HW240065   3.669   1.778   7.702  1.8638  1.1423  0.5749
 9478SOL     OW40066   1.240   0.968   3.755 -0.1398  0.6953 -0.3300
 9478SOL    HW140067   1.320   0.921   3.732 -0.8063  0.6442 -2.4908
 9478SOL    HW240068   1.250   0.978   3.850 -2.0118 -0.1352 -0.0303
 9479SOL     OW40069   2.962   3.034   7.669  0.5626 -0.5309  0.3726
 9479SOL    HW140070   2.881   3.063   7.626  1.2396 -1.4202 -1.5018
 9479SOL    HW240071   3.032   3.068   7.614 -0.3017  1.1664  0.3236
 9480SOL     OW40072   0.138   2.019  12.348 -0.5950 -0.5867 -0.0109
 9480SOL    HW140073   0.198   2.003  12.276  0.8524  2.5581  0.4459
 9480SOL    HW240074   0.067   1.964  12.318  0.6102 -1.6628 -0.8725
 9481SOL     OW40075   1.663   2.381   7.773 -0.3753 -0.1315  0.2718
 9481SOL    HW140076   1.652   2.457   7.716  1.4415  0.1419  0.2967
 9481SOL    HW240077   1.738   2.331   7.740  1.5731  1.9866  1.4939
 9482SOL     OW40078   3.492   2.882   7.060 -0.1434 -0.1870 -0.1392
 9482SOL    HW140079   3.424   2.914   7.002  0.4050 -0.2614 -0.8187
 9482SOL    HW240080   3.562   2.945   7.045 -0.1141 -0.3931 -0.8442
 9483SOL     OW40081   2.114   3.724   4.247  0.1951 -0.0246 -0.5320
 9483SOL    HW140082   2.149   3.773   4.172  0.5601 -0.4977 -0.6694
 9483SOL    HW240083   2.030   3.769   4.240  1.5987  2.2379 -3.0021
 9484SOL     OW40084   2.453   2.368  14.662 -0.1712 -0.1861 -0.2476
 9484SOL    HW140085   2.540   2.362  14.702 -1.2466 -1.0681  1.9176
 9484SOL    HW240086   2.465   2.439  14.599 -0.8049  0.0833 -0.0527
 9485SOL     OW40087   1.401   3.123   3.661 -0.7350 -0.5614 -0.4513
 9485SOL    HW140088   1.446   3.208   3.658 -2.3516  0.2548 -1.4437
 9485SOL    HW240089   1.328   3.139   3.603 -2.3448 -0.9984  1.4560
 9486SOL     OW40090   0.907   4.733  13.001 -0.6118  0.0534  0.2290
 9486SOL    HW140091   0.996   4.722  12.968 -0.2569 -1.6528  1.7611
 9486SOL    HW240092   0.911   4.683  13.083  0.6250  0.7509  0.6000
 9487SOL     OW40093   2.797   4.382  13.242  0.0733 -0.0105 -0.4328
 9487SOL    HW140094   2.783   4.315  13.309  2.0627  1.0321  1.0247
 9487SOL    HW240095   2.772   4.461  13.290  0.8477 -0.7975  1.2504
 9488SOL     OW40096   4.381   1.740  14.221 -0.0837  0.2377 -0.2918
 9488SOL    HW140097   4.296   1.695  14.225  0.0652 -0.1016 -0.8472
 9488SOL    HW240098   4.402   1.706  14.134 -1.8058 -0.6280 -0.3764
 9489SOL     OW40099   1.226   1.783   7.883  0.6147  0.0534 -0.2358
 9489SOL    HW140100   1.222   1.841   7.959 -0.6147  1.7506 -1.6023
 9489SOL    HW240101   1.304   1.818   7.840  1.1447  2.8429  2.9631
 9490SOL     OW40102   1.077   0.980   3.201 -0.2457 -0.2688 -0.6358
 9490SOL    HW140103   1.086   1.058   3.256  0.7856 -1.5437  0.9993
 9490SOL    HW240104   0.982   0.974   3.188 -0.4513  0.6117  0.4030
 9491SOL     OW40105   4.237   0.373   3.803 -0.2232  0.1454 -0.0096
 9491SOL    HW140106   4.304   0.307   3.786 -0.4373  0.0182 -0.3596
 9491SOL    HW240107   4.160   0.326   3.771  0.5249  0.1905 -1.8571
 9492SOL     OW40108   3.356   1.773   9.938  0.4901  0.1892 -0.3187
 9492SOL    HW140109   3.351   1.780  10.034  0.6149  0.5335 -0.3404
 9492SOL    HW240110   3.267   1.737   9.929  0.5670 -0.0520 -0.1049
 9493SOL     OW40111   0.883   3.189   2.628  0.0298 -0.0572 -0.3665
 9493SOL    HW140112   0.926   3.157   2.549  0.6558 -0.8959  0.3123
 9493SOL    HW240113   0.881   3.283   2.613 -1.1965 -0.1634 -0.8407
 9494SOL     OW40114   4.176   2.903  17.202 -0.2136 -0.6130 -0.2690
 9494SOL    HW140115   4.243   2.865  17.146  2.5774  1.1551  1.8683
 9494SOL    HW240116   4.136   2.823  17.234 -3.1873  0.0503 -2.2788
 9495SOL     OW40117   2.049   1.760   3.084  0.5328  0.1604  0.2201
 9495SOL    HW140118   1.998   1.751   3.165  0.6675 -1.6122  0.1133
 9495SOL    HW240119   2.134   1.791   3.116  0.8447 -0.0858 -0.3756
 9496SOL     OW40120   3.325   0.277   6.891 -0.3549  0.2827  0.2457
 9496SOL    HW140121   3.287   0.322   6.815  3.5352  0.5577 -1.5500
 9496SOL    HW240122   3.300   0.186   6.876 -1.0473  0.4582  0.3290
 9497SOL     OW40123   0.398   0.810  12.697 -0.1875  0.6253  0.2305
 9497SOL    HW140124   0.444   0.893  12.711  2.2607 -0.6852 -0.0251
 9497SOL    HW240125   0.305   0.831  12.686 -0.3463  0.0911  0.5845
 9498SOL     OW40126   0.685   3.981   5.353  0.3313 -0.0903 -0.6141
 9498SOL    HW140127   0.630   4.040   5.302  0.3996 -1.3451 -2.1472
 9498SOL    HW240128   0.749   3.954   5.288  0.8269  0.1187 -0.2174
 9499SOL     OW40129   3.238   1.105  16.038 -0.1475 -0.3026 -0.5225
 9499SOL    HW140130   3.146   1.126  16.053  0.4438  3.1284 -1.7953
 9499SOL    HW240131   3.267   1.173  15.977  1.7953  0.8679  1.6745
 9500SOL     OW40132   0.279   1.134   8.348 -0.6604 -0.3838  0.1098
 9500SOL    HW140133   0.273   1.041   8.372 -1.2276 -0.4072 -0.1369
 9500SOL    HW240134   0.194   1.175   8.359 -0.2098  1.0208 -1.5071
 9501SOL     OW40135   1.288   0.434   4.324  0.3918 -0.4662 -0.3618
 9501SOL    HW140136   1.282   0.451   4.230 -0.4894  1.7266  0.0778
 9501SOL    HW240137   1.284   0.339   4.318  1.8910 -0.5902  0.6215
 9502SOL     OW40138   1.112   0.757  17.441 -0.0129 -0.1724  1.0439
 9502SOL    HW140139   1.059   0.831  17.412 -1.3614 -1.0180  1.3800
 9502SOL    HW240140   1.187   0.815  17.457 -2.2031  2.8826  0.2785
 9503SOL     OW40141   3.252   0.835  11.527  0.0996 -0.1526  0.7428
 9503SOL    HW140142   3.285   0.890  11.599 -2.9654 -0.6719  2.5094
 9503SOL    HW240143   3.303   0.866  11.453 -0.9855  0.3285  0.2042
 9504SOL     OW40144   4.062   3.548  13.191  0.1389 -0.2659  0.2938
 9504SOL    HW140145   4.080   3.525  13.282 -0.1026  0.0077  0.4110
 9504SOL    HW240146   3.972   3.515  13.180 -0.9008  2.5287  0.3352
 9505SOL     OW40147   3.455   0.324   8.832  0.7184 -0.1688 -0.0121
 9505SOL    HW140148   3.393   0.254   8.815 -0.1994  0.6779 -0.1213
 9505SOL    HW240149   3.505   0.283   8.904  0.9375 -3.7458 -2.1886
 9506SOL     OW40150   4.504   1.262   9.493 -0.4153  0.0803 -0.1076
 9506SOL    HW140151   4.513   1.264   9.589  0.7191 -1.5130 -0.1880
 9506SOL    HW240152   4.463   1.176   9.480  2.0954 -1.3743  1.5126
 9507SOL     OW40153   3.462   1.317   2.764  0.2404  0.0763 -0.4532
 9507SOL    HW140154   3.403   1.381   2.803 -1.1868 -0.6794 -1.3772
 9507SOL    HW240155   3.461   1.328   2.668 -0.6636  2.2988 -0.1909
 9508SOL     OW40156   0.717   3.106   6.406 -0.1498  0.2838 -0.1898
 9508SOL    HW140157   0.676   3.126   6.490  2.0648  0.0809  0.9352
 9508SOL    HW240158   0.690   3.182   6.355 -0.8121 -0.7973 -1.4585
 9509SOL     OW40159   0.925   1.724   7.739  0.2267 -0.1270  0.4842
 9509SOL    HW140160   0.835   1.731   7.707  0.2950 -1.0170  0.1022
 9509SOL    HW240161   0.981   1.751   7.667 -1.7757  1.6900 -0.3709
 9510SOL     OW40162   1.899   2.859   2.604  0.2761 -0.1067  0.3035
 9510SOL    HW140163   1.822   2.803   2.601  2.5180 -3.1921  0.1970
 9510SOL    HW240164   1.974   2.807   2.573 -0.4907 -0.4485 -0.9416
 9511SOL     OW40165   3.425   0.189   5.046 -0.0712 -0.0356 -0.0451
 9511SOL    HW140166   3.484   0.257   5.080 -0.1883  1.2838 -2.4652
 9511SOL    HW240167   3.439   0.121   5.112 -0.1056 -1.0886 -1.1332
 9512SOL     OW40168   2.607   0.417   3.208 -0.2868 -0.1960 -0.2301
 9512SOL    HW140169   2.683   0.472   3.223  0.0074 -0.5011 -0.5970
 9512SOL    HW240170   2.561   0.483   3.157  0.6207 -1.0457 -2.1641
 9513SOL     OW40171   1.329   0.465   7.460 -0.0995  0.3846  0.3891
 9513SOL    HW140172   1.263   0.452   7.391  0.3678  0.9929 -0.1708
 9513SOL    HW240173   1.298   0.551   7.487 -0.5348  0.7042 -1.1025
 9514SOL     OW40174   3.089   2.650   7.133 -0.4375  0.5515  0.0515
 9514SOL    HW140175   3.088   2.668   7.039 -1.3701  3.3896  0.5963
 9514SOL    HW240176   3.176   2.613   7.150 -0.8537  0.5059  2.1862
 9515SOL     OW40177   0.799   1.055   1.944 -0.1516 -0.2140  0.2602
 9515SOL    HW140178   0.842   1.002   1.877 -2.5855 -1.9143  0.0216
 9515SOL    HW240179   0.729   1.087   1.887  1.1000  0.3065 -0.9784
 9516SOL     OW40180   2.585   3.917   1.595  0.7158  0.1442  0.0575
 9516SOL    HW140181   2.492   3.930   1.580  0.0088 -0.9365  3.4988
 9516SOL    HW240182   2.596   3.822   1.595  2.5174  0.3485 -2.2357
 9517SOL     OW40183   3.140   2.807   9.050 -0.2612  0.4601 -0.0367
 9517SOL    HW140184   3.166   2.806   8.958  2.3089 -1.1442  0.7078
 9517SOL    HW240185   3.164   2.715   9.063 -0.5672  0.1304 -1.8100
 9518SOL     OW40186   1.989   3.684  13.013 -0.3868  0.1460  0.5773
 9518SOL    HW140187   1.918   3.742  12.985 -0.7220 -1.2913 -1.5482
 9518SOL    HW240188   1.967   3.612  12.955  0.6127  0.3153 -0.0067
 9519SOL     OW40189   0.953   3.283   9.371 -0.3781  0.2884  0.6020
 9519SOL    HW140190   1.038   3.312   9.338 -1.0519  0.7631 -0.6899
 9519SOL    HW240191   0.902   3.359   9.345  0.4274  0.9788  1.0388
 9520SOL     OW40192   0.774   2.621   3.681 -0.1528  0.4756 -0.4458
 9520SOL    HW140193   0.719   2.609   3.758  0.9755 -1.9926 -0.0332
 9520SOL    HW240194   0.702   2.619   3.619  0.2848  1.5392 -0.9970
 9521SOL     OW40195   1.379   0.840   7.306  0.3138 -0.3424  0.0585
 9521SOL    HW140196   1.346   0.804   7.388 -0.4990  0.8762  0.2682
 9521SOL    HW240197   1.460   0.884   7.333 -1.1496  0.2574  3.5423
 9522SOL     OW40198   2.843   0.077   8.080  0.4368  0.4520 -0.0599
 9522SOL    HW140199   2.856   0.163   8.119 -1.4132  0.7191 -0.0052
 9522SOL    HW240200   2.803   0.020   8.147  2.3775 -1.6719 -0.7067
 9523SOL     OW40201   2.780   1.528   2.172  0.3050 -0.1158  0.0257
 9523SOL    HW140202   2.689   1.552   2.157  0.0575 -0.6726  0.6325
 9523SOL    HW240203   2.764   1.437   2.197 -1.3668  0.3810  0.7172
 9524SOL     OW40204   2.749   3.637   5.904  0.3973 -0.0065 -0.3437
 9524SOL    HW140205   2.704   3.610   5.824 -0.4980 -1.6108  0.7023
 9524SOL    HW240206   2.791   3.722   5.889 -0.6649  0.6359  0.3477
 9525SOL     OW40207   3.514   2.490  11.002  0.7392 -0.3056 -0.2529
 9525SOL    HW140208   3.441   2.445  10.959 -1.1914  1.8720  0.7379
 9525SOL    HW240209   3.524   2.452  11.090  0.4402  1.1675  0.4126
 9526SOL     OW40210   0.070   3.541  13.572  0.4376 -0.3673  0.2710
 9526SOL    HW140211   0.002   3.577  13.629 -0.6668  1.1667 -2.0160
 9526SOL    HW240212   0.073   3.449  13.600  3.7651 -0.6458 -1.1217
 9527SOL     OW40213   1.009   2.120   3.354  0.4009  0.6190 -0.2980
 9527SOL    HW140214   1.028   2.036   3.396  0.2865  0.2694 -0.9429
 9527SOL    HW240215   1.098   2.135   3.322 -0.1122  0.4072 -1.8061
 9528SOL     OW40216   3.990   2.986  17.674 -0.2963  0.4061 -0.1062
 9528SOL    HW140217   4.035   2.916  17.722 -2.1358 -0.8212 -0.1687
 9528SOL    HW240218   4.042   2.986  17.594 -0.9656  1.7079 -0.5403
 9529SOL     OW40219   0.786   2.977   6.812 -0.3394  0.0572 -0.3169
 9529SOL    HW140220   0.749   2.889   6.814  0.2767 -0.1809  0.7606
 9529SOL    HW240221   0.836   2.977   6.894 -1.3071 -1.9254  0.2819
 9530SOL     OW40222   0.158   3.603   7.048 -0.1202  0.6837  0.0749
 9530SOL    HW140223   0.144   3.638   7.136 -0.5945  1.1675 -0.1948
 9530SOL    HW240224   0.113   3.519   7.050  1.9246 -0.4158 -0.0698
 9531SOL     OW40225   0.787   2.490   3.204 -1.0552  0.4169 -0.6487
 9531SOL    HW140226   0.762   2.574   3.242  0.2219 -0.3766  2.0033
 9531SOL    HW240227   0.879   2.511   3.189 -1.2159  1.2324 -0.5073
 9532SOL     OW40228   3.769   1.430   0.192 -0.7668  0.0957 -0.0601
 9532SOL    HW140229   3.828   1.359   0.167  1.2767  1.6803  0.1532
 9532SOL    HW240230   3.759   1.415   0.286 -0.0548 -2.1894 -0.3496
 9533SOL     OW40231   2.634   1.487   4.445 -0.2145 -0.1742 -0.2519
 9533SOL    HW140232   2.549   1.479   4.400  0.6389 -2.0522 -1.5038
 9533SOL    HW240233   2.701   1.472   4.379 -0.2389  3.0507 -1.0053
 9534SOL     OW40234   0.869   3.169   8.783  0.4020  0.0566  0.1862
 9534SOL    HW140235   0.854   3.252   8.739 -1.5693 -0.8378 -0.8457
 9534SOL    HW240236   0.917   3.190   8.863  0.3770 -2.1661  0.7934
 9535SOL     OW40237   0.243   4.151   7.522  0.3613 -0.8828  0.0440
 9535SOL    HW140238   0.243   4.206   7.600  3.0755  1.5929 -1.6985
 9535SOL    HW240239   0.150   4.153   7.502  0.0131 -0.4683  1.6981
 9536SOL     OW40240   1.758   1.022   4.467  0.1534 -0.1152  0.0085
 9536SOL    HW140241   1.736   0.968   4.543 -0.7150 -0.5530 -0.5571
 9536SOL    HW240242   1.715   0.970   4.399 -0.7596  1.5498 -0.6871
 9537SOL     OW40243   1.925   3.045  17.604 -0.5953 -0.3362  0.3723
 9537SOL    HW140244   1.869   2.978  17.643 -0.5458 -0.8356 -0.3973
 9537SOL    HW240245   1.916   3.119  17.663 -0.0971 -0.9460  1.2096
 9538SOL     OW40246   4.380   2.952  16.670 -0.0953 -0.1805 -0.0564
 9538SOL    HW140247   4.383   2.925  16.578  1.6738 -0.4891  0.0888
 9538SOL    HW240248   4.464   2.923  16.705  0.2281  0.6294 -0.1595
 9539SOL     OW40249   4.188   2.843  16.835 -0.8450 -0.2273  0.2294
 9539SOL    HW140250   4.244   2.806  16.903  1.4724  1.7197 -0.6306
 9539SOL    HW240251   4.255   2.894  16.790 -0.4542  1.0956  2.3313
 9540SOL     OW40252   2.637   2.615   3.658  0.1179  0.7242 -0.0646
 9540SOL    HW140253   2.613   2.568   3.738  1.1953 -0.2757 -0.3428
 9540SOL    HW240254   2.593   2.700   3.664  2.0720  1.7633 -0.7311
 9541SOL     OW40255   1.942   4.473   4.977  1.1037 -0.2290  0.3855
 9541SOL    HW140256   1.904   4.400   4.928 -0.3076 -0.5800  1.9811
 9541SOL    HW240257   1.874   4.488   5.044  0.2465  0.4907 -0.6464
 9542SOL     OW40258   0.051   4.521   3.686  0.2643  0.3489 -0.0294
 9542SOL    HW140259   0.068   4.539   3.594 -2.5560  1.3362 -0.3477
 9542SOL    HW240260   4.716   4.460   3.675 -0.9823  1.8837 -0.2353
 9543SOL     OW40261   2.501   1.130   5.428 -0.1277  0.6269 -0.0432
 9543SOL    HW140262   2.507   1.051   5.482 -1.7876  1.5966  1.5363
 9543SOL    HW240263   2.562   1.180   5.482 -1.8753  1.6001  0.9885
 9544SOL     OW40264   1.882   0.695   8.650  0.1249  0.1696 -0.2782
 9544SOL    HW140265   1.963   0.676   8.603  0.1232  1.9863 -1.0012
 9544SOL    HW240266   1.819   0.672   8.582  2.2291 -0.5076 -2.0136
 9545SOL     OW40267   2.029   0.887   3.745 -0.0615  0.0418 -0.1276
 9545SOL    HW140268   2.041   0.928   3.659  2.2198 -1.9930 -0.7597
 9545SOL    HW240269   2.011   0.969   3.792 -2.2361 -0.4199 -0.1660
 9546SOL     OW40270   1.011   2.777   1.908 -0.1593 -0.3246  0.2817
 9546SOL    HW140271   0.998   2.857   1.856  1.8383  0.1355  0.4813
 9546SOL    HW240272   1.034   2.714   1.840  0.2781 -0.5551  0.6427
 9547SOL     OW40273   3.587   2.630   2.940 -0.5840  0.3835 -0.4807
 9547SOL    HW140274   3.560   2.643   2.849 -0.2842  0.5674 -0.5438
 9547SOL    HW240275   3.635   2.548   2.929  0.1984  0.8875 -0.8113
 9548SOL     OW40276   4.103   1.060   4.969 -0.0129 -0.9981 -0.2886
 9548SOL    HW140277   4.018   1.096   4.995  1.4940  1.9111  0.5738
 9548SOL    HW240278   4.156   1.101   5.037  0.0819 -0.5760 -0.6121
 9549SOL     OW40279   1.211   4.691   7.850 -0.4223  0.7470  0.4111
 9549SOL    HW140280   1.191   4.662   7.761 -1.4312 -0.1313  0.9254
 9549SOL    HW240281   1.287   4.635   7.863 -0.3588  0.9360  0.8537
 9550SOL     OW40282   2.372   2.612   0.450  0.5872  0.1168  0.0454
 9550SOL    HW140283   2.449   2.657   0.416  0.0148  0.4111 -0.8676
 9550SOL    HW240284   2.374   2.647   0.539  1.0286  1.7351 -0.5959
 9551SOL     OW40285   0.023   1.102   6.667 -0.1823  0.1450  0.3989
 9551SOL    HW140286   0.065   1.022   6.699 -0.3916 -1.0612 -2.4010
 9551SOL    HW240287   0.078   1.127   6.593 -1.3068 -1.5211 -1.0023
 9552SOL     OW40288   2.220   1.290   7.832 -0.4036  0.2094  0.3031
 9552SOL    HW140289   2.293   1.267   7.775 -0.2102  0.6034  0.3914
 9552SOL    HW240290   2.261   1.355   7.889  1.1559 -0.0764 -0.5092
 9553SOL     OW40291   3.415   0.230   2.556 -0.4830 -0.1947  0.1710
 9553SOL    HW140292   3.454   0.277   2.629  0.2521  1.8981 -1.5633
 9553SOL    HW240293   3.330   0.274   2.547 -0.2877 -0.2922 -2.1766
 9554SOL     OW40294   0.383   1.100   4.055 -0.7183 -0.4550 -0.2770
 9554SOL    HW140295   0.307   1.134   4.008 -2.6639 -0.5013  2.8430
 9554SOL    HW240296   0.407   1.019   4.011 -0.8172 -1.1017  0.8872
 9555SOL     OW40297   0.571   3.588   5.651 -0.0995 -0.0575  0.1066
 9555SOL    HW140298   0.578   3.639   5.570 -1.4622 -2.1139 -1.3043
 9555SOL    HW240299   0.502   3.646   5.683  1.4219  1.3609  0.8468
 9556SOL     OW40300   0.602   3.060  16.384  0.3517 -0.2181 -0.1372
 9556SOL    HW140301   0.523   3.008  16.368  0.7703 -0.3854 -1.6477
 9556SOL    HW240302   0.618   3.097  16.298  1.2744 -0.5990 -0.1369
 9557SOL     OW40303   1.877   1.754   4.705 -0.5519 -0.0240 -0.4473
 9557SOL    HW140304   1.886   1.729   4.797 -1.0583 -0.5304 -0.5356
 9557SOL    HW240305   1.813   1.686   4.680 -1.2850  0.1957  0.8112
 9558SOL     OW40306   4.501   4.420   8.179 -0.1766 -0.3157  0.3118
 9558SOL    HW140307   4.413   4.383   8.187  0.0363 -0.2779  3.0282
 9558SOL    HW240308   4.541   4.387   8.260 -1.4331  0.0139  1.0821
 9559SOL     OW40309   1.475   1.307   7.971 -0.1273  0.3101  0.0460
 9559SOL    HW140310   1.381   1.291   7.973  0.2767 -2.0732 -0.2967
 9559SOL    HW240311   1.483   1.324   8.065  1.7730  1.8299 -0.3909
 9560SOL     OW40312   0.462   1.792   3.828  0.4462 -0.0062  0.7877
 9560SOL    HW140313   0.496   1.773   3.915  0.2351 -0.0925  0.8513
 9560SOL    HW240314   0.368   1.799   3.845 -0.1037 -2.3077 -1.3459
 9561SOL     OW40315   2.264   0.596   9.911 -0.9921  0.0739  0.1984
 9561SOL    HW140316   2.219   0.522   9.871  0.0168 -1.0267  1.1210
 9561SOL    HW240317   2.255   0.561  10.000 -1.1684 -0.5820 -0.0765
 9562SOL     OW40318   4.369   1.193  10.333 -0.2576 -0.4101  0.0352
 9562SOL    HW140319   4.418   1.112  10.347 -1.5533 -1.0222  1.1045
 9562SOL    HW240320   4.422   1.238  10.268 -0.2996 -1.4639 -0.7372
 9563SOL     OW40321   4.344   2.563  10.448  0.3716 -0.1391 -0.1166
 9563SOL    HW140322   4.277   2.551  10.515 -0.8573 -0.3547 -1.3746
 9563SOL    HW240323   4.347   2.476  10.407  0.9469 -0.2489  0.1572
 9564SOL     OW40324   1.468   3.183   2.055  0.1388 -0.4817  0.1532
 9564SOL    HW140325   1.431   3.123   1.990  3.0403 -1.6447 -0.3796
 9564SOL    HW240326   1.388   3.217   2.097 -1.4146 -1.2605 -2.2057
 9565SOL     OW40327   3.345   0.726   6.648 -0.1292  0.4128  0.2054
 9565SOL    HW140328   3.377   0.655   6.592  1.1105  2.7161 -1.9791
 9565SOL    HW240329   3.350   0.693   6.738 -1.0836  1.5436  0.6801
 9566SOL     OW40330   0.766   4.612  11.320 -0.7861 -0.7453 -0.1176
 9566SOL    HW140331   0.723   4.589  11.237  1.5316  1.7805 -2.0285
 9566SOL    HW240332   0.848   4.570  11.292  0.6770  1.1984  1.3024
 9567SOL     OW40333   1.085   3.039  15.144  0.3445 -0.1799  0.3825
 9567SOL    HW140334   1.088   3.090  15.063  0.2874  0.1086  0.5654
 9567SOL    HW240335   1.061   3.100  15.213 -0.9035 -0.6136  0.3252
 9568SOL     OW40336   2.707   1.287  14.816 -0.1036 -0.8069  0.6865
 9568SOL    HW140337   2.749   1.308  14.900 -0.7063 -0.7348  0.9691
 9568SOL    HW240338   2.651   1.218  14.851 -1.2958 -0.7087 -1.0526
 9569SOL     OW40339   3.083   2.063  13.161 -0.6113 -0.9406 -0.2496
 9569SOL    HW140340   3.165   2.017  13.179 -0.4700 -0.6538 -0.1619
 9569SOL    HW240341   3.073   2.114  13.241 -0.8805 -0.7604 -0.4003
 9570SOL     OW40342   0.234   4.551   8.744 -0.1979  0.3295  0.1397
 9570SOL    HW140343   0.188   4.558   8.828 -0.3682 -1.5488  0.2169
 9570SOL    HW240344   0.325   4.553   8.776  0.7101  0.6935 -2.4574
 9571SOL     OW40345   1.577   0.366   5.741 -0.0374 -0.2486 -0.3436
 9571SOL    HW140346   1.661   0.336   5.705  0.6078  1.3031 -0.1532
 9571SOL    HW240347   1.590   0.457   5.767 -0.4424  0.8685 -3.9925
   4.73821   4.73821  17.75092
