Membrane in water
40347
    1TMC1    C1    1   3.528   2.203  11.276 -0.2739  0.5313 -0.1248
    1TMC1    C2    2   3.392   2.189  11.292 -0.0573  0.1682 -0.6373
    1TMC1    C3    3   3.302   2.258  11.221 -0.4587 -0.0848  0.4291
    1TMC1    C4    4   3.577   2.289  11.179 -0.2285  0.1597 -0.1678
    1TMC1    C5    5   3.483   2.348  11.098 -0.1923 -0.4997 -0.0463
    1TMC1    C6    6   3.350   2.334  11.118 -0.0594 -0.4776  0.5870
    1TMC1     C    7   3.620   2.127  11.363 -0.1289  0.5642  0.5116
    1TMC1     O    8   3.580   2.060  11.454 -0.0945 -0.4565  0.0717
    1TMC1     H    9   3.373   2.141  11.387 -1.7859  2.0994  0.0081
    1TMC1    H1   10   3.682   2.317  11.174  0.0510 -1.1062 -1.2801
    1TMC1    H2   11   3.282   2.394  11.059 -0.0423 -1.4607 -0.4261
    1TMC1    C7   12   3.523   2.449  11.000  0.0503 -0.2852  0.9429
    1TMC1    C8   13   3.156   2.269  11.257  0.4438  0.1167  0.3515
    1TMC1    O1   14   3.627   2.511  10.992  0.4567  0.4174  0.0939
    1TMC1    O2   15   3.091   2.360  11.208  0.3076 -0.0782 -0.9083
    1TMC1    O3   16   3.444   2.408  10.894  0.3185  0.2117  0.2030
    1TMC1    H3   17   3.366   2.355  10.919 -2.6551  3.7769 -1.4759
    1TMC1    O5   18   3.140   2.205  11.375 -0.3319  0.5079 -0.0363
    1TMC1    H5   19   3.184   2.119  11.395 -1.5479 -0.7020 -2.5145
    2MPD2     C   20   4.060   1.936  11.514  0.5118  0.3114 -0.3157
    2MPD2    C1   21   3.950   1.973  11.588  0.8774  0.4379 -0.3827
    2MPD2    C2   22   3.851   2.045  11.531 -0.0167  0.2329 -1.0520
    2MPD2    C3   23   3.856   2.082  11.396  0.7379 -0.7332  0.8812
    2MPD2    C4   24   3.968   2.064  11.323  0.0113  0.1850  0.4464
    2MPD2    C5   25   4.066   1.986  11.382 -0.0920  0.3717  0.4843
    2MPD2     H   26   3.762   2.069  11.588  0.3889 -0.9278  0.0553
    2MPD2    H1   27   3.970   2.087  11.217 -0.2239 -2.2740 -0.0963
    2MPD2    H2   28   4.126   1.859  11.552 -0.4439  0.6357  1.9491
    2MPD2    H3   29   4.144   1.947  11.317  1.6489 -0.6672  3.2234
    2MPD2     N   30   3.754   2.154  11.329  0.0763 -0.0242  0.3428
    2MPD2    H5   31   3.783   2.201  11.244 -0.1682  0.6000  0.6074
    2MPD2    N1   32   3.927   1.925  11.718  0.5529  0.4841  0.4506
    2MPD2    H7   33   3.833   1.938  11.754  0.6289  3.3883 -0.3872
    3TMC1    C1   34   3.678   3.415  10.690  0.7554 -0.7375  0.5071
    3TMC1    C2   35   3.676   3.284  10.696  0.1159 -0.0396  0.8875
    3TMC1    C3   36   3.703   3.210  10.580 -0.1107 -0.5601  0.3709
    3TMC1    C4   37   3.682   3.483  10.571  0.3767 -0.0741 -0.8222
    3TMC1    C5   38   3.682   3.403  10.458 -0.4128  0.2796 -0.0956
    3TMC1    C6   39   3.716   3.273  10.464  0.9448 -0.5116 -0.0766
    3TMC1     C   40   3.650   3.488  10.811 -0.4578 -0.2433 -0.4993
    3TMC1     O   41   3.685   3.605  10.804 -0.0755  0.2954  0.1526
    3TMC1     H   42   3.690   3.232  10.790  1.1035  0.4044  0.9919
    3TMC1    H1   43   3.664   3.590  10.572  0.8124 -0.0337  1.4654
    3TMC1    H2   44   3.718   3.208  10.378  0.7248  3.0611 -2.7692
    3TMC1    C7   45   3.681   3.464  10.322 -0.6087  0.8449  0.5398
    3TMC1    C8   46   3.751   3.072  10.580  0.1051  0.4974  0.0343
    3TMC1    O1   47   3.697   3.396  10.218  0.0306  0.0558 -0.1998
    3TMC1    O2   48   3.811   3.019  10.489 -0.5532 -0.4105  0.1263
    3TMC1    O3   49   3.572   3.547  10.333  0.2843  0.6701 -0.1564
    3TMC1    H3   50   3.552   3.584  10.422  0.4521 -2.7317  1.2836
    3TMC1    O5   51   3.677   3.013  10.679  0.1154 -0.4478  0.2537
    3TMC1    H5   52   3.627   3.073  10.738  0.2468  0.3250 -0.4300
    4MPD2     C   53   3.464   3.534  11.294 -0.1135  0.0749  0.6982
    4MPD2    C1   54   3.393   3.439  11.227 -0.0303  0.2736 -0.5683
    4MPD2    C2   55   3.437   3.396  11.105 -0.4318  0.4785 -0.0306
    4MPD2    C3   56   3.536   3.460  11.034  0.2621 -0.4727  0.3145
    4MPD2    C4   57   3.597   3.563  11.097 -0.4299 -0.0538 -0.4656
    4MPD2    C5   58   3.551   3.609  11.222  0.1101 -0.3205 -0.5564
    4MPD2     H   59   3.390   3.309  11.059 -0.1580  0.7315 -0.7939
    4MPD2    H1   60   3.676   3.620  11.049 -1.8556  0.7436 -1.8849
    4MPD2    H2   61   3.442   3.566  11.395  1.4440  3.5561 -0.0730
    4MPD2    H3   62   3.608   3.691  11.263 -1.5469  1.4359 -1.7983
    4MPD2     N   63   3.580   3.414  10.907  0.6586  0.2001 -0.0851
    4MPD2    H5   64   3.549   3.322  10.879  0.0892  0.6422 -0.9159
    4MPD2    N1   65   3.285   3.373  11.283  0.2767  0.6659 -0.6557
    4MPD2    H7   66   3.220   3.329  11.219  1.8081  0.2680 -1.9321
    5TCq1    O1   67   2.889   3.358  10.351  0.0974  0.5267  0.2282
    5TCq1    C1   68   3.000   3.371  10.428  0.1400 -0.5747 -0.3007
    5TCq1    O2   69   3.102   3.310  10.404 -0.2800 -0.3137  0.7953
    5TCq1    C2   70   3.008   3.504  10.479  0.0045  0.2915 -0.5621
    5TCq1    C3   71   2.897   3.587  10.483  0.0900  0.6407 -0.5129
    5TCq1    C4   72   2.897   3.692  10.571  0.2839  0.5430  0.2513
    5TCq1    C5   73   2.990   3.714  10.663 -0.0448 -0.1639  0.6118
    5TCq1    C6   74   3.101   3.631  10.656  0.7164  0.1407  0.6998
    5TCq1    C7   75   3.113   3.535  10.564 -0.0887  0.4155  0.2797
    5TCq1    C8   76   3.218   3.671  10.728 -0.4778  0.2514  0.3800
    5TCq1    O4   77   3.308   3.591  10.737  0.7745 -0.1333 -0.4945
    5TCq1    C9   78   2.774   3.764  10.583  0.0490  0.4430  0.0487
    5TCq1    O5   79   2.746   3.830  10.690  0.2872 -0.3381 -0.4980
    5TCq1    O6   80   2.700   3.766  10.484 -0.4960 -0.3529  0.2102
    5TCq1    H1   81   2.802   3.387  10.385  2.0137  3.6531  2.3982
    5TCq1    H2   82   2.805   3.565  10.431 -0.8448  1.5438  0.7748
    5TCq1    H3   83   2.988   3.802  10.728  2.7107  0.6482 -0.4054
    5TCq1    H4   84   3.200   3.469  10.563  0.0706  0.6648 -1.3949
    6MPD2     C   85   3.255   3.944  10.967 -0.7515  0.7346 -0.1566
    6MPD2    C1   86   3.304   3.843  10.885 -0.7185  0.5021 -0.5598
    6MPD2    C2   87   3.439   3.806  10.891  0.6519  0.4447  0.5331
    6MPD2    C3   88   3.529   3.885  10.965 -0.9065  0.4617  0.0865
    6MPD2    C4   89   3.472   3.981  11.047 -0.9590 -0.2750  0.7877
    6MPD2    C5   90   3.340   4.006  11.051 -0.5229 -0.6387  0.5806
    6MPD2     H   91   3.485   3.737  10.821 -3.6151  0.4702 -2.3277
    6MPD2    H1   92   3.535   4.040  11.113  0.3436 -2.6114  1.6250
    6MPD2    H2   93   3.151   3.975  10.975 -0.1965  2.7004 -0.3622
    6MPD2    H3   94   3.311   4.089  11.114 -0.0392  0.1597 -0.2533
    6MPD2     N   95   3.667   3.872  10.945  0.3043 -0.3310  0.3871
    6MPD2    H5   96   3.696   3.795  10.886  1.4484  0.1351  0.3511
    6MPD2    N1   97   3.206   3.788  10.797 -0.4717 -0.0202 -0.3868
    6MPD2    H7   98   3.122   3.843  10.790 -0.4913  0.0011  0.0243
    7TCq1    O1   99   1.480   4.338  13.689 -0.2779 -0.1147 -0.3825
    7TCq1    C1  100   1.544   4.239  13.622  0.2242 -0.5018 -0.5764
    7TCq1    O2  101   1.546   4.124  13.669 -0.1403  0.0870  0.7662
    7TCq1    C2  102   1.488   4.264  13.489  0.1601  0.0761  0.3664
    7TCq1    C3  103   1.501   4.387  13.432  0.0670 -0.4089  0.2253
    7TCq1    C4  104   1.402   4.409  13.333 -0.1810  0.1071  0.0109
    7TCq1    C5  105   1.307   4.321  13.302  0.2966  0.3718 -0.3977
    7TCq1    C6  106   1.304   4.201  13.361  0.2656 -0.6035  0.0314
    7TCq1    C7  107   1.399   4.163  13.447 -0.4290 -0.1661 -0.3605
    7TCq1    C8  108   1.209   4.099  13.324  0.2728  0.0675 -0.3335
    7TCq1    O4  109   1.239   3.989  13.370  0.4242 -0.2468  0.6596
    7TCq1    C9  110   1.404   4.539  13.270  0.1039 -0.0125  0.7418
    7TCq1    O5  111   1.319   4.554  13.177 -0.4115 -0.3660 -0.0403
    7TCq1    O6  112   1.491   4.621  13.305  0.3144 -0.1204 -0.4305
    7TCq1    H1  113   1.495   4.418  13.635  0.6795 -0.0871 -0.0748
    7TCq1    H2  114   1.581   4.458  13.453  0.1637 -0.4279 -0.0836
    7TCq1    H3  115   1.234   4.343  13.225  0.5729  0.0787 -0.7402
    7TCq1    H4  116   1.384   4.081  13.516  0.7470 -0.6758 -0.7025
    8MPD2     C  117   0.867   3.890  13.012  0.5704  0.2228 -0.0768
    8MPD2    C1  118   0.924   3.841  13.121 -0.2508  0.1832  0.4719
    8MPD2    C2  119   1.015   3.916  13.189 -0.7008  1.2793 -0.5626
    8MPD2    C3  120   1.045   4.044  13.143 -0.1326  0.2431 -0.3107
    8MPD2    C4  121   0.986   4.098  13.033  0.0037  0.4743  0.4869
    8MPD2    C5  122   0.897   4.019  12.971 -0.1280 -0.1197 -0.2373
    8MPD2     H  123   1.068   3.874  13.273 -1.4377 -1.6189 -1.5386
    8MPD2    H1  124   1.007   4.199  12.999  2.3485 -0.7121 -1.5563
    8MPD2    H2  125   0.793   3.842  12.950 -1.3875  1.6789  1.1252
    8MPD2    H3  126   0.845   4.054  12.883 -0.4004 -0.8105 -0.3536
    8MPD2     N  127   1.135   4.131  13.213  0.6071  0.5188 -0.0204
    8MPD2    H5  128   1.143   4.226  13.177 -1.0437  0.7564  0.2264
    8MPD2    N1  129   0.884   3.714  13.172 -0.3067  0.0215  0.7594
    8MPD2    H7  130   0.823   3.660  13.110  0.1129  0.8269 -0.3460
    9TMC1    C1  131   2.985   3.087  12.177  0.2235  0.9696 -0.3238
    9TMC1    C2  132   2.958   3.213  12.129 -0.4483  0.1359  0.4012
    9TMC1    C3  133   2.913   3.317  12.210  0.3005 -0.4379  1.0613
    9TMC1    C4  134   2.987   3.077  12.317 -0.8271  0.7901  0.4743
    9TMC1    C5  135   2.955   3.187  12.398  0.2701  1.1930 -0.5154
    9TMC1    C6  136   2.902   3.305  12.351  0.7612  0.4178  0.1281
    9TMC1     C  137   3.007   2.979  12.090 -0.0068 -0.4765  0.4471
    9TMC1     O  138   3.055   3.009  11.980  0.7139 -0.4306  0.1790
    9TMC1     H  139   2.938   3.218  12.023 -3.3099 -1.5307  0.8574
    9TMC1    H1  140   3.024   2.990  12.372 -1.0935  0.3778  0.0005
    9TMC1    H2  141   2.869   3.385  12.417 -0.8876 -0.2020  0.0654
    9TMC1    C7  142   2.941   3.171  12.541 -0.6308 -0.6979  0.0161
    9TMC1    C8  143   2.869   3.440  12.154 -0.6477 -0.3647 -0.2529
    9TMC1    O1  144   2.834   3.198  12.593  0.2412  0.1317 -0.4018
    9TMC1    O2  145   2.810   3.525  12.222 -0.0429 -0.1560 -0.5535
    9TMC1    O3  146   3.040   3.105  12.599 -0.1389  0.6975 -0.6762
    9TMC1    H3  147   3.119   3.101  12.542 -1.3185 -0.8355 -2.1901
    9TMC1    O5  148   2.971   3.468  12.075  0.6444  0.4422 -0.2623
    9TMC1    H5  149   3.032   3.396  12.049 -0.8190 -1.0522  0.4484
   10MPD2     C  150   3.033   2.699  11.977 -0.1555  0.1661  0.6864
   10MPD2    C1  151   3.000   2.733  12.108 -0.4497  0.0540 -0.0212
   10MPD2    C2  152   2.974   2.629  12.197 -0.6756 -0.5498 -0.1836
   10MPD2    C3  153   2.983   2.497  12.160  0.0610 -0.2543  0.7066
   10MPD2    C4  154   3.013   2.466  12.027  0.0334  0.5257  0.0267
   10MPD2    C5  155   3.046   2.565  11.940 -0.1694  0.0269  0.5670
   10MPD2     H  156   2.940   2.663  12.294 -3.0172 -4.1122  0.2108
   10MPD2    H1  157   3.013   2.362  11.996 -1.1363 -0.0767  2.0454
   10MPD2    H2  158   3.068   2.780  11.913  0.6812 -0.6302  0.1360
   10MPD2    H3  159   3.078   2.535  11.841  0.8388  2.7645  0.0590
   10MPD2     N  160   2.971   2.396  12.258  0.3421 -0.1059  0.2292
   10MPD2    H5  161   2.998   2.303  12.227 -2.0548 -0.5636 -0.4544
   10MPD2    N1  162   2.985   2.861  12.159  0.8626 -0.1724  0.6259
   10MPD2    H7  163   2.940   2.877  12.249  1.2644  1.4467  0.5405
   11TCq1    O1  164   3.872   3.430  13.623  1.1714 -0.4215  0.6498
   11TCq1    C1  165   3.976   3.339  13.617  0.5461  0.2018  0.0870
   11TCq1    O2  166   4.072   3.358  13.541  0.0073 -0.7247  0.2542
   11TCq1    C2  167   3.980   3.260  13.736 -0.1796 -0.6698 -0.1773
   11TCq1    C3  168   4.099   3.207  13.776  0.4344 -0.0956  0.2820
   11TCq1    C4  169   4.105   3.106  13.867 -0.1382  0.2216 -0.0173
   11TCq1    C5  170   3.988   3.036  13.894  0.2651 -0.4200 -0.5473
   11TCq1    C6  171   3.871   3.088  13.845  0.7174 -1.0412 -0.0172
   11TCq1    C7  172   3.865   3.200  13.768 -0.2083 -0.0489 -0.4264
   11TCq1    C8  173   3.752   3.010  13.844 -0.0072  0.0891  0.4202
   11TCq1    O4  174   3.646   3.071  13.822  0.1686  0.0163 -0.1372
   11TCq1    C9  175   4.231   3.084  13.929  0.7212  0.2068  0.1429
   11TCq1    O5  176   4.235   2.994  14.020  0.2439 -0.0821  0.5275
   11TCq1    O6  177   4.334   3.156  13.906  0.2089 -0.0395  0.0596
   11TCq1    H1  178   3.821   3.419  13.705 -0.5097 -3.8875 -0.8723
   11TCq1    H2  179   4.190   3.260  13.754 -0.5341  0.5391 -2.1917
   11TCq1    H3  180   3.998   2.956  13.966 -3.6143  1.9441  2.6216
   11TCq1    H4  181   3.769   3.222  13.723  0.7564  1.9973 -1.5056
   12MPD2     C  182   3.543   2.801  13.855 -0.3634  0.0003  0.2737
   12MPD2    C1  183   3.676   2.775  13.871  0.7764 -0.3306  0.5248
   12MPD2    C2  184   3.725   2.646  13.867 -1.1563 -0.2632 -0.6342
   12MPD2    C3  185   3.633   2.543  13.853 -0.7105 -0.3427  0.5286
   12MPD2    C4  186   3.503   2.568  13.837 -0.0600 -0.0430  0.0614
   12MPD2    C5  187   3.453   2.695  13.836 -0.6860  0.0753 -0.5664
   12MPD2     H  188   3.831   2.626  13.878 -1.4632 -1.4700  0.0909
   12MPD2    H1  189   3.427   2.493  13.816 -0.1996 -0.1285  0.8917
   12MPD2    H2  190   3.506   2.902  13.862  1.7060  0.8353 -0.9193
   12MPD2    H3  191   3.348   2.712  13.820 -0.9068  1.2245  2.0168
   12MPD2     N  192   3.664   2.407  13.866 -0.4993  0.2145  0.4870
   12MPD2    H5  193   3.590   2.338  13.879  0.1217 -0.9466 -2.1029
   12MPD2    N1  194   3.772   2.873  13.873 -0.1540 -0.2932  0.0268
   12MPD2    H7  195   3.872   2.858  13.885 -0.0704  0.8315  0.6873
   13TCq1    O1  196   3.741   2.132  10.501 -0.7731 -0.3661 -0.4985
   13TCq1    C1  197   3.675   2.183  10.605  0.1987  0.4247  0.0030
   13TCq1    O2  198   3.722   2.224  10.712 -0.2781  0.5113  0.5842
   13TCq1    C2  199   3.530   2.155  10.592 -0.0708  0.2377  0.2540
   13TCq1    C3  200   3.475   2.150  10.474  0.4118  0.7047  0.6255
   13TCq1    C4  201   3.341   2.158  10.447  0.1288  0.1047  0.2572
   13TCq1    C5  202   3.258   2.156  10.550  0.0799  0.9641 -0.9534
   13TCq1    C6  203   3.316   2.155  10.679 -1.3051 -0.2030 -0.0977
   13TCq1    C7  204   3.451   2.163  10.705  0.1940  0.4264  0.6704
   13TCq1    C8  205   3.228   2.142  10.793  0.7100  0.2845 -0.1987
   13TCq1    O4  206   3.269   2.171  10.904  0.1672  0.2569 -0.0271
   13TCq1    C9  207   3.300   2.186  10.311  0.7103 -0.6562  0.2387
   13TCq1    O5  208   3.176   2.191  10.286 -0.0054  0.1393  0.2728
   13TCq1    O6  209   3.391   2.186  10.226  0.3412  0.4259  0.3511
   13TCq1    H1  210   3.687   2.075  10.442  0.9168 -1.3300 -1.0958
   13TCq1    H2  211   3.533   2.166  10.384  0.1250  1.7322  0.6293
   13TCq1    H3  212   3.158   2.186  10.522 -1.3408 -0.3396  2.7499
   13TCq1    H4  213   3.497   2.177  10.802 -0.1086 -2.4015  1.2385
   14MPD2     C  214   2.938   1.931  10.811 -0.3437 -0.0488 -0.1612
   14MPD2    C1  215   3.019   2.037  10.847 -0.5690  0.6257  0.3674
   14MPD2    C2  216   2.982   2.109  10.956  0.6081 -0.2936 -0.6587
   14MPD2    C3  217   2.879   2.073  11.041 -0.3423 -0.3576  0.1156
   14MPD2    C4  218   2.801   1.966  11.006  0.5522  0.0251  0.3203
   14MPD2    C5  219   2.826   1.898  10.887  0.3131  0.0599 -0.2556
   14MPD2     H  220   3.044   2.197  10.974  1.1220 -0.4726 -1.5400
   14MPD2    H1  221   2.706   1.938  11.052 -0.6143  0.5975 -1.7279
   14MPD2    H2  222   2.966   1.875  10.723  1.1614  0.0216  0.2585
   14MPD2    H3  223   2.766   1.819  10.841 -2.8037  1.7823  0.8326
   14MPD2     N  224   2.857   2.151  11.159  0.3737  0.6290 -0.6317
   14MPD2    H5  225   2.929   2.220  11.183 -0.3960  1.0419  0.5176
   14MPD2    N1  226   3.119   2.072  10.761  0.1490 -0.2281 -0.0129
   14MPD2    H7  227   3.107   2.046  10.663  0.0699 -1.4484  0.3332
   15TCq1    O1  228   0.802   2.562   2.131  0.2988 -0.4478 -0.0574
   15TCq1    C1  229   0.835   2.561   1.995  0.4939 -0.1923 -0.3235
   15TCq1    O2  230   0.949   2.570   1.949 -0.5259  0.7033  0.5150
   15TCq1    C2  231   0.713   2.522   1.919 -0.7227  0.2170  0.2451
   15TCq1    C3  232   0.596   2.579   1.960  0.3229 -0.0289  0.2676
   15TCq1    C4  233   0.482   2.556   1.882  0.3610 -0.1454 -0.0603
   15TCq1    C5  234   0.483   2.483   1.772 -0.8239  0.0776  0.8348
   15TCq1    C6  235   0.606   2.425   1.731  0.2714 -0.1296 -0.4009
   15TCq1    C7  236   0.721   2.444   1.803  0.0378  0.0581  0.0211
   15TCq1    C8  237   0.607   2.311   1.640 -0.6958 -0.0852  0.1551
   15TCq1    O4  238   0.717   2.285   1.592 -0.2484  0.0002  0.0719
   15TCq1    C9  239   0.354   2.619   1.916 -0.2057  0.9828  0.0382
   15TCq1    O5  240   0.256   2.555   1.874 -0.6424  0.1080 -0.4313
   15TCq1    O6  241   0.353   2.724   1.982  0.6624 -0.0551  0.2577
   15TCq1    H1  242   0.704   2.562   2.126  0.2326 -0.5333  1.0932
   15TCq1    H2  243   0.580   2.646   2.044 -2.2301 -1.1170  0.6361
   15TCq1    H3  244   0.398   2.490   1.706  1.3352  0.4806 -1.9044
   15TCq1    H4  245   0.813   2.397   1.772 -0.8936 -0.8878 -1.3223
   16MPD2     C  246   0.324   2.117   1.508  0.2306  0.4700 -0.0857
   16MPD2    C1  247   0.456   2.147   1.542 -0.1313 -0.3754 -0.6495
   16MPD2    C2  248   0.553   2.061   1.500 -0.3610  0.3576  0.3439
   16MPD2    C3  249   0.526   1.951   1.427  0.0962 -0.1147 -0.0187
   16MPD2    C4  250   0.395   1.925   1.383  0.4305 -0.5637 -0.3086
   16MPD2    C5  251   0.298   2.013   1.425 -0.1886 -0.2538 -0.0854
   16MPD2     H  252   0.654   2.082   1.534 -0.5504 -1.1278  1.8016
   16MPD2    H1  253   0.371   1.844   1.316  1.3795  0.0386 -1.3750
   16MPD2    H2  254   0.239   2.178   1.538 -2.0479 -3.0963  0.6499
   16MPD2    H3  255   0.195   2.000   1.392  0.9627 -4.5008 -1.9857
   16MPD2     N  256   0.626   1.862   1.397  0.0576 -0.1785  0.1311
   16MPD2    H5  257   0.716   1.892   1.433 -0.3012  2.2104 -0.9744
   16MPD2    N1  258   0.484   2.266   1.609 -0.0052 -0.0851  0.2347
   16MPD2    H7  259   0.402   2.308   1.650 -0.7010 -1.7473  0.5298
   17TMC1    C1  260   3.114   0.989  11.557 -0.2852  0.0497  0.3112
   17TMC1    C2  261   3.139   1.096  11.642 -0.0623  0.3111  0.3340
   17TMC1    C3  262   3.124   1.069  11.774 -0.5786 -0.0394 -0.9999
   17TMC1    C4  263   3.084   0.861  11.606  0.3965  0.3258 -0.0172
   17TMC1    C5  264   3.062   0.854  11.737 -0.0940 -0.0039 -0.1851
   17TMC1    C6  265   3.088   0.947  11.825 -0.8078 -0.7509  0.3662
   17TMC1     C  266   3.123   1.005  11.417 -0.1820 -0.1139 -0.5851
   17TMC1     O  267   3.108   0.905  11.351 -0.0419  0.0250  0.0125
   17TMC1     H  268   3.137   1.194  11.595  0.2053  0.0879 -0.1325
   17TMC1    H1  269   3.069   0.779  11.537 -2.9620  0.1432  0.9045
   17TMC1    H2  270   3.072   0.923  11.929 -2.6899  1.8273  0.6544
   17TMC1    C7  271   3.030   0.728  11.798  0.8377  0.3500 -0.0666
   17TMC1    C8  272   3.096   1.194  11.847  0.3787  0.3037 -0.0025
   17TMC1    O1  273   3.087   0.681  11.896 -0.5370  0.5023  0.0602
   17TMC1    O2  274   3.050   1.289  11.785  0.3402  0.4717  0.2582
   17TMC1    O3  275   2.897   0.692  11.774  0.3274 -0.2252 -0.1301
   17TMC1    H3  276   2.863   0.743  11.697  0.3268 -0.4127 -0.2554
   17TMC1    O5  277   3.055   1.168  11.975  0.3496 -0.1490 -0.0227
   17TMC1    H5  278   3.120   1.108  12.019 -0.3971 -1.6695 -0.9991
   18MPD2     C  279   3.197   1.065  11.136  0.1311 -0.4313  0.1982
   18MPD2    C1  280   3.254   1.129  11.244  0.1792  0.2440 -0.5386
   18MPD2    C2  281   3.348   1.223  11.217 -0.3609 -0.1615  0.0848
   18MPD2    C3  282   3.383   1.256  11.088  0.3801 -0.1021  0.0283
   18MPD2    C4  283   3.337   1.183  10.986  0.2232 -0.0137 -0.2920
   18MPD2    C5  284   3.238   1.085  11.007  0.9026 -0.6055 -0.3307
   18MPD2     H  285   3.399   1.284  11.291  0.6702 -0.5610 -0.2925
   18MPD2    H1  286   3.363   1.208  10.884 -0.5171  3.1887  0.3080
   18MPD2    H2  287   3.117   0.994  11.149 -0.2020  0.0021  0.5254
   18MPD2    H3  288   3.209   1.026  10.921  1.8232 -0.1400 -0.9570
   18MPD2     N  289   3.478   1.363  11.058  0.4182  0.2473  0.1031
   18MPD2    H5  290   3.501   1.373  10.960  0.1302 -0.1024 -0.0026
   18MPD2    N1  291   3.213   1.103  11.380  0.5598  0.1911  0.0464
   18MPD2    H7  292   3.263   1.148  11.456  0.4070 -0.5748  0.6060
   19TMC2    C1  293   0.837   1.946  13.294 -0.5747 -0.5255 -0.5870
   19TMC2    C2  294   0.808   1.924  13.160 -0.6871  0.0844  0.4375
   19TMC2    C3  295   0.690   1.953  13.118 -0.3217  0.3963  0.1347
   19TMC2    C4  296   0.752   2.018  13.372  0.5295 -0.1335  0.2081
   19TMC2    C5  297   0.643   2.078  13.313 -0.1028 -0.1453  0.0660
   19TMC2    C6  298   0.610   2.037  13.188 -0.5599 -0.5360 -0.4391
   19TMC2     C  299   0.936   1.865  13.353  0.5240 -1.0621  0.0634
   19TMC2     O  300   1.030   1.820  13.295  0.4215 -0.1224  0.6336
   19TMC2     H  301   0.870   1.849  13.111 -0.7158  0.5801 -0.3517
   19TMC2    H1  302   0.785   2.059  13.466 -1.1575  0.0306  0.7206
   19TMC2    H2  303   0.523   2.091  13.153 -1.4115 -0.4984  1.7312
   19TMC2    C7  304   0.552   2.140  13.391  0.1288 -0.2362 -0.3207
   19TMC2    C8  305   0.670   1.941  12.980  0.1954  0.1386 -1.1059
   19TMC2    O1  306   0.552   2.112  13.510 -0.2838  0.2268 -0.4062
   19TMC2    O2  307   0.600   2.017  12.916 -0.5170  0.2665  0.0858
   19TMC2    O5  308   0.714   1.818  12.936  0.2068  0.1852 -0.0129
   19TMC2    H5  309   0.711   1.764  13.017  1.6305 -0.8854 -0.6838
   20MPD2     C  310   1.126   1.725  13.547  0.4301 -0.2911  0.6899
   20MPD2    C1  311   1.013   1.794  13.579  0.0370  0.6041 -0.1618
   20MPD2    C2  312   0.977   1.805  13.716  0.9477 -0.4160  0.1159
   20MPD2    C3  313   1.045   1.746  13.821  0.3363  0.7579 -0.4589
   20MPD2    C4  314   1.164   1.676  13.780 -0.2039 -0.3179 -0.4343
   20MPD2    C5  315   1.197   1.669  13.649 -0.0196 -0.6347 -0.0037
   20MPD2     H  316   0.883   1.854  13.741  0.9615 -0.4729  0.2816
   20MPD2    H1  317   1.232   1.619  13.842  0.8367 -1.7316 -2.9082
   20MPD2    H2  318   1.170   1.722  13.448 -0.6177  0.8499  0.1758
   20MPD2    H3  319   1.283   1.609  13.620 -0.1640 -0.5125 -0.6784
   20MPD2     N  320   1.004   1.765  13.954 -0.4771 -0.2069  0.0644
   20MPD2    H5  321   1.077   1.730  14.016 -0.3869 -1.8597 -0.9773
   20MPD2    N1  322   0.921   1.856  13.489  0.1111 -0.1416 -0.5996
   20MPD2    H7  323   0.843   1.909  13.528 -1.4943 -1.7855 -1.5604
   21TMC2    C1  324   2.787   2.307  14.056 -0.0548 -0.6668 -0.2253
   21TMC2    C2  325   2.819   2.177  14.032  0.2093  0.4020  0.1041
   21TMC2    C3  326   2.743   2.080  14.103 -0.4186  0.0801  0.9814
   21TMC2    C4  327   2.703   2.332  14.164 -1.0260  1.2260  0.5865
   21TMC2    C5  328   2.648   2.230  14.239  0.6220 -0.2639 -0.6067
   21TMC2    C6  329   2.653   2.103  14.197 -0.5173  0.4722  0.3721
   21TMC2     C  330   2.901   2.398  14.041  0.2800  0.4098  0.0793
   21TMC2     O  331   3.003   2.338  14.010 -0.1907 -0.2830  0.1419
   21TMC2     H  332   2.891   2.148  13.957  2.6944  1.1312  2.2018
   21TMC2    H1  333   2.686   2.434  14.196 -0.8012  1.6818 -0.7172
   21TMC2    H2  334   2.583   2.028  14.233 -0.1979 -0.0590 -0.1209
   21TMC2    C7  335   2.585   2.255  14.368  0.1627 -0.2408 -0.1036
   21TMC2    C8  336   2.755   1.944  14.061  0.1734 -0.4848  0.4628
   21TMC2    O1  337   2.633   2.191  14.458 -0.2301  0.7321  0.5200
   21TMC2    O2  338   2.805   1.912  13.959  0.3998  0.1250  0.0409
   21TMC2    O5  339   2.788   1.884  14.177  0.6449  0.4136 -0.1684
   21TMC2    H5  340   2.779   1.943  14.255  0.8895  1.1609 -0.7101
   22MPD2     C  341   3.194   2.803  14.106  0.4485  0.7357 -0.0779
   22MPD2    C1  342   3.224   2.670  14.107  0.8452 -0.3249 -0.3023
   22MPD2    C2  343   3.125   2.578  14.094 -0.0806 -0.5209  0.4277
   22MPD2    C3  344   2.991   2.618  14.073 -0.4766 -0.4232  0.1824
   22MPD2    C4  345   2.967   2.751  14.080 -0.6682 -0.0437  0.1901
   22MPD2    C5  346   3.067   2.845  14.104  0.0279 -0.1241  0.1160
   22MPD2     H  347   3.153   2.473  14.100 -0.5148 -0.6839 -0.4395
   22MPD2    H1  348   2.866   2.789  14.081 -0.3642  0.6995  1.5794
   22MPD2    H2  349   3.264   2.884  14.126 -0.5132  1.0127  2.1237
   22MPD2    H3  350   3.030   2.946  14.116  1.9889  0.7397 -1.1606
   22MPD2     N  351   2.883   2.536  14.064  0.7849 -0.4206 -0.5266
   22MPD2    H5  352   2.790   2.577  14.057  1.0260 -0.2627 -3.1439
   22MPD2    N1  353   3.352   2.623  14.145 -0.2714 -0.1591 -0.0881
   22MPD2    H7  354   3.353   2.522  14.160 -0.3958  0.3097  3.0625
   23TMC2    C1  355   4.114   3.696  14.483  0.2784  0.6757 -0.9130
   23TMC2    C2  356   4.101   3.712  14.619 -0.2320  0.3710 -0.5023
   23TMC2    C3  357   3.977   3.746  14.663 -0.3865 -0.0530 -0.5643
   23TMC2    C4  358   4.005   3.706  14.398  0.3306  0.0281 -0.8303
   23TMC2    C5  359   3.877   3.728  14.449  0.4726  0.6424  0.0583
   23TMC2    C6  360   3.866   3.754  14.584 -0.4151  0.2815 -0.7243
   23TMC2     C  361   4.229   3.623  14.431  0.2358 -0.7569  0.1042
   23TMC2     O  362   4.255   3.617  14.311  0.6764 -0.3921  0.3482
   23TMC2     H  363   4.186   3.706  14.686  0.2869 -0.5214 -1.2290
   23TMC2    H1  364   4.016   3.685  14.293 -1.5331 -0.8470 -0.8630
   23TMC2    H2  365   3.774   3.777  14.636 -0.2704 -2.5791  0.8117
   23TMC2    C7  366   3.770   3.751  14.360 -0.3315  0.1675  0.2425
   23TMC2    C8  367   3.961   3.733  14.800  0.7141  0.3672  0.1504
   23TMC2    O1  368   3.805   3.758  14.244  0.1992 -0.2479 -0.4693
   23TMC2    O2  369   4.008   3.638  14.861 -0.1477 -0.7364  0.7299
   23TMC2    O5  370   3.877   3.836  14.849  0.0334 -0.1548  0.0936
   23TMC2    H5  371   3.866   3.915  14.791 -1.4719 -0.5616 -0.1774
   24MPD2     C  372   4.577   3.253  14.496 -0.7316  0.4864 -0.0375
   24MPD2    C1  373   4.542   3.301  14.623  0.1089 -0.1867 -0.8993
   24MPD2    C2  374   4.455   3.407  14.625 -0.1033  0.4073  0.3124
   24MPD2    C3  375   4.394   3.464  14.510 -0.0188 -0.1324  0.0879
   24MPD2    C4  376   4.453   3.421  14.387 -0.1716 -0.3826 -0.1387
   24MPD2    C5  377   4.544   3.324  14.384 -0.3383  0.9896 -0.0125
   24MPD2     H  378   4.427   3.453  14.718 -0.0829 -0.6051  0.8214
   24MPD2    H1  379   4.430   3.469  14.292 -1.1309 -1.9054 -0.6873
   24MPD2    H2  380   4.652   3.177  14.482 -0.6272  0.3145  1.4739
   24MPD2    H3  381   4.579   3.301  14.284  0.0959 -0.1476  0.3979
   24MPD2     N  382   4.283   3.551  14.531  0.5018 -0.2536  0.3908
   24MPD2    H5  383   4.245   3.539  14.624 -2.1661  1.1888 -0.5024
   24MPD2    N1  384   4.595   3.247  14.746  0.5878 -0.2755 -0.2516
   24MPD2    H7  385   4.589   3.309  14.827  0.4786 -3.5426  2.2462
   25TMC2    C1  386   3.750   0.816  11.779 -0.5148  0.5995  0.7003
   25TMC2    C2  387   3.872   0.862  11.727 -0.1568  0.2205 -0.3733
   25TMC2    C3  388   3.931   0.979  11.778 -0.2665 -0.6482  0.1036
   25TMC2    C4  389   3.701   0.871  11.896  0.0331  0.2313  0.1481
   25TMC2    C5  390   3.756   0.994  11.933 -0.3130  0.2368  0.2278
   25TMC2    C6  391   3.866   1.049  11.875  0.4577  0.2075 -0.2179
   25TMC2     C  392   3.725   0.672  11.747  0.0047  0.1511  0.2987
   25TMC2     O  393   3.822   0.605  11.724 -0.3430 -0.0498 -0.0871
   25TMC2     H  394   3.920   0.816  11.642  3.0186  2.5840  0.1598
   25TMC2    H1  395   3.603   0.849  11.935 -0.6392  2.1150 -0.4738
   25TMC2    H2  396   3.903   1.145  11.909  0.5570  1.1921 -3.1289
   25TMC2    C7  397   3.698   1.067  12.044 -0.1894 -0.2694  0.2976
   25TMC2    C8  398   4.041   1.053  11.716 -0.2777  0.5358 -0.7314
   25TMC2    O1  399   3.583   1.039  12.061 -0.2582  0.0730 -0.8710
   25TMC2    O2  400   4.051   1.173  11.733 -0.1060  0.0832  0.2916
   25TMC2    O5  401   4.104   0.977  11.623  0.4410  0.0095  0.0491
   25TMC2    H5  402   4.101   0.880  11.633  2.5227 -0.1211 -0.4598
   26MPD2     C  403   3.464   0.224  11.730 -0.6368  0.4780  0.2364
   26MPD2    C1  404   3.375   0.327  11.692  0.3848  0.7096  0.0494
   26MPD2    C2  405   3.413   0.463  11.704 -0.5913  1.1403  0.4708
   26MPD2    C3  406   3.540   0.496  11.743  0.4465 -0.0330 -0.1243
   26MPD2    C4  407   3.628   0.397  11.772  0.2408  0.6616 -0.4554
   26MPD2    C5  408   3.587   0.266  11.778  0.1384 -0.3223 -0.3751
   26MPD2     H  409   3.345   0.545  11.683  0.7629  1.2458 -3.4164
   26MPD2    H1  410   3.721   0.417  11.824 -0.0903 -0.1819  0.4689
   26MPD2    H2  411   3.437   0.120  11.747  1.1978 -0.0359  0.0083
   26MPD2    H3  412   3.661   0.197  11.817 -1.2969 -1.0141  1.0937
   26MPD2     N  413   3.591   0.632  11.760  0.0436  0.5921 -0.5909
   26MPD2    H5  414   3.517   0.701  11.764 -0.8401 -0.1740 -3.6082
   26MPD2    N1  415   3.240   0.292  11.644 -0.1956  0.3721  0.2649
   26MPD2    H7  416   3.210   0.195  11.636  2.0787 -0.1931 -1.7159
   27TMC2    C1  417   2.184   3.283  11.991 -0.5186 -0.8164  0.2769
   27TMC2    C2  418   2.155   3.278  11.853  0.8754  0.2567  0.1317
   27TMC2    C3  419   2.087   3.377  11.793 -0.5240  0.0714 -0.2766
   27TMC2    C4  420   2.153   3.391  12.061  0.6849 -0.0722  0.1731
   27TMC2    C5  421   2.089   3.493  11.995  0.5125  0.5416 -0.0136
   27TMC2    C6  422   2.053   3.485  11.866 -0.1900  0.0921 -0.4544
   27TMC2     C  423   2.148   3.159  12.063 -0.2897  0.6002  0.3934
   27TMC2     O  424   2.195   3.049  12.031  0.1314  0.3314  0.6062
   27TMC2     H  425   2.188   3.186  11.806 -0.2710  0.0255 -0.2244
   27TMC2    H1  426   2.173   3.405  12.166  0.9077  0.5444  0.0497
   27TMC2    H2  427   2.007   3.566  11.811 -1.3439 -0.6066 -0.5033
   27TMC2    C7  428   2.054   3.613  12.070 -0.3465 -0.3215 -0.5118
   27TMC2    C8  429   2.118   3.419  11.656  0.7057  0.3414  0.4956
   27TMC2    O1  430   1.999   3.701  12.006  0.0415 -0.1820 -0.0224
   27TMC2    O2  431   2.150   3.533  11.636 -0.2582  0.4716 -0.1492
   27TMC2    O5  432   2.160   3.314  11.586 -0.1603 -0.3521  0.1349
   27TMC2    H5  433   2.121   3.229  11.613 -0.9251  0.6671  2.2459
   28MPD2     C  434   1.797   2.931  12.363 -0.5102  0.1572  0.3269
   28MPD2    C1  435   1.767   3.068  12.352  0.7651 -0.2644 -1.2592
   28MPD2    C2  436   1.853   3.148  12.270  0.7327 -0.9177 -0.3541
   28MPD2    C3  437   1.962   3.089  12.208  0.0634 -0.1217  0.0121
   28MPD2    C4  438   1.990   2.953  12.224 -0.3202  0.4034  0.2372
   28MPD2    C5  439   1.909   2.877  12.303 -0.7915 -0.1580 -0.4506
   28MPD2     H  440   1.831   3.253  12.262  2.2565 -0.7479 -2.2398
   28MPD2    H1  441   2.075   2.904  12.178  1.0374  2.4149  0.6221
   28MPD2    H2  442   1.733   2.871  12.426  0.6660 -0.0557  1.3037
   28MPD2    H3  443   1.927   2.771  12.313 -0.9926 -0.2734 -1.3065
   28MPD2     N  444   2.040   3.183  12.141  0.0293 -0.2430 -0.7901
   28MPD2    H5  445   2.013   3.280  12.151 -0.1257 -0.3375 -0.3022
   28MPD2    N1  446   1.653   3.120  12.407  0.1264  0.0974 -0.1242
   28MPD2    H7  447   1.596   3.057  12.462  0.6435 -0.1583  0.1230
   29TMC2    C1  448   1.429   0.648  14.437 -0.4905  0.6794  0.7945
   29TMC2    C2  449   1.375   0.648  14.561  0.3596  0.0346 -0.3515
   29TMC2    C3  450   1.361   0.771  14.617 -0.1575  0.1979  0.3142
   29TMC2    C4  451   1.463   0.755  14.367  0.0316 -0.4134  0.2665
   29TMC2    C5  452   1.463   0.871  14.435 -0.3493  0.3889  0.7505
   29TMC2    C6  453   1.420   0.879  14.563  0.4179 -0.1093  0.2106
   29TMC2     C  454   1.434   0.517  14.374  0.3862 -0.7925  0.2129
   29TMC2     O  455   1.454   0.420  14.445 -0.8161 -0.5695 -0.2808
   29TMC2     H  456   1.333   0.559  14.607  0.0077  0.8686  0.9278
   29TMC2    H1  457   1.514   0.743  14.272  0.7361  2.2358  0.3258
   29TMC2    H2  458   1.405   0.971  14.619 -0.6668 -0.3494  0.3153
   29TMC2    C7  459   1.494   0.988  14.369  0.9553 -0.0561  0.1014
   29TMC2    C8  460   1.323   0.773  14.757 -0.3766 -0.3430 -0.4548
   29TMC2    O1  461   1.476   0.986  14.248 -0.6882  0.6984 -0.2849
   29TMC2    O2  462   1.210   0.787  14.794 -0.3701  0.2790 -0.1336
   29TMC2    O5  463   1.439   0.824  14.819 -0.5009 -0.0914 -0.3681
   29TMC2    H5  464   1.519   0.792  14.772 -0.0914 -0.2916  0.4567
   30MPD2     C  465   1.428   0.200  13.964 -0.8629 -0.1541  0.2719
   30MPD2    C1  466   1.499   0.189  14.085 -0.1331 -0.2027 -0.1438
   30MPD2    C2  467   1.486   0.290  14.180  0.3755  0.6619 -0.3988
   30MPD2    C3  468   1.411   0.403  14.149 -0.3556 -0.5546 -0.7908
   30MPD2    C4  469   1.355   0.414  14.025  0.2172  0.1599 -0.3834
   30MPD2    C5  470   1.357   0.311  13.935 -0.3868  0.0662 -0.5390
   30MPD2     H  471   1.557   0.282  14.261 -0.6600 -1.6467  0.2690
   30MPD2    H1  472   1.305   0.507  13.998 -1.0700 -0.4554 -0.1375
   30MPD2    H2  473   1.420   0.121  13.890  1.7101  0.9124 -1.1588
   30MPD2    H3  474   1.318   0.323  13.835  1.1417  0.0587 -1.1388
   30MPD2     N  475   1.411   0.515  14.237  0.1534  0.6190 -0.1111
   30MPD2    H5  476   1.386   0.599  14.187  0.7613 -0.5598 -2.4244
   30MPD2    N1  477   1.582   0.080  14.100 -0.4253  0.2079 -0.0228
   30MPD2    H7  478   1.628   0.086  14.190  0.6015 -0.1372 -0.5225
   31TMC2    C1  479   3.547   4.579  14.983 -0.4469  0.9203 -0.5023
   31TMC2    C2  480   3.455   4.514  14.910 -0.0942 -0.2710 -0.0262
   31TMC2    C3  481   3.395   4.405  14.964 -0.6151 -0.2140  0.5981
   31TMC2    C4  482   3.582   4.542  15.112 -0.1583 -0.1469  0.7757
   31TMC2    C5  483   3.525   4.425  15.156  0.0639  0.4946 -0.8306
   31TMC2    C6  484   3.431   4.361  15.085  0.2687  0.0854 -0.0810
   31TMC2     C  485   3.610   4.692  14.917  0.9232 -0.8039 -0.3169
   31TMC2     O  486   3.583   4.719  14.804  0.5189  0.1955  0.1575
   31TMC2     H  487   3.435   4.540  14.807 -0.0581  1.1712  0.3317
   31TMC2    H1  488   3.669   4.580  15.165 -1.1348  2.0818  0.7856
   31TMC2    H2  489   3.395   4.269  15.128 -0.2765  0.8565  1.1141
   31TMC2    C7  490   3.536   4.382  15.292  0.3552  0.3793  0.5299
   31TMC2    C8  491   3.271   4.357  14.901  0.7402 -0.0111 -0.1154
   31TMC2    O1  492   3.644   4.395  15.347 -0.1369 -0.1406 -0.0020
   31TMC2    O2  493   3.241   4.404  14.790 -0.4196  0.1360 -0.0354
   31TMC2    O5  494   3.180   4.352  15.001  0.0920  0.0702 -0.4827
   31TMC2    H5  495   3.215   4.364  15.092 -2.8479 -0.8838  0.7668
   32MPD2     C  496   3.982   0.298  14.873 -0.4440 -0.2610 -0.4749
   32MPD2    C1  497   3.903   0.242  14.775 -0.3631  0.3798  0.5842
   32MPD2    C2  498   3.824   0.138  14.811  0.7372 -0.3179  0.4209
   32MPD2    C3  499   3.800   0.110  14.945 -0.3091 -0.8010  0.7835
   32MPD2    C4  500   3.876   0.171  15.044  0.0969 -0.3016 -0.2356
   32MPD2    C5  501   3.976   0.260  15.008  0.1476  0.1544  0.3807
   32MPD2     H  502   3.776   0.076  14.736  1.9452 -0.0733 -0.5567
   32MPD2    H1  503   3.856   0.152  15.149 -0.6769  0.1198 -0.3031
   32MPD2    H2  504   4.049   0.381  14.853 -1.5321  1.0076  1.2029
   32MPD2    H3  505   4.037   0.312  15.081 -1.2071 -1.5361  2.7296
   32MPD2     N  506   3.708   0.015  14.993 -0.1331 -0.4127 -0.2991
   32MPD2    H5  507   3.730   4.723  15.087 -0.5753 -0.0292 -0.0745
   32MPD2    N1  508   3.936   0.270  14.643 -0.2297 -0.1343  0.0160
   32MPD2    H7  509   4.012   0.333  14.621 -2.0487  1.4327 -1.7272
   33TMC2    C1  510   3.599   1.868  10.142 -0.1279 -0.2696 -0.4454
   33TMC2    C2  511   3.542   1.775  10.056  0.3274  0.1784  0.0518
   33TMC2    C3  512   3.569   1.785   9.926 -0.2854 -0.5081 -1.0826
   33TMC2    C4  513   3.692   1.958  10.099  0.8113  0.0897 -0.2054
   33TMC2    C5  514   3.720   1.962   9.964  0.3970 -0.4787 -0.3332
   33TMC2    C6  515   3.653   1.878   9.878  0.2632  0.0690 -0.3470
   33TMC2     C  516   3.552   1.886  10.276  0.0597  0.5060  0.1699
   33TMC2     O  517   3.630   1.945  10.352  0.1179  0.0728  0.0488
   33TMC2     H  518   3.486   1.693  10.098 -2.0349 -0.4431 -4.3647
   33TMC2    H1  519   3.722   2.040  10.163 -2.8490 -0.2428  1.9544
   33TMC2    H2  520   3.703   1.870   9.783  1.8749  0.9653  0.4299
   33TMC2    C7  521   3.763   2.096   9.918 -0.1208 -0.0385  0.2423
   33TMC2    C8  522   3.535   1.669   9.840 -0.3861  0.6999  0.5314
   33TMC2    O1  523   3.834   2.168   9.989 -0.3868  0.7514 -0.4000
   33TMC2    O2  524   3.501   1.556   9.886 -0.6311 -0.3380 -0.5671
   33TMC2    O5  525   3.522   1.711   9.714  0.3150 -0.1358 -0.1995
   33TMC2    H5  526   3.541   1.806   9.701 -0.7405  0.0925 -0.0659
   34MPD2     C  527   3.245   1.744  10.667  0.0677 -1.2436  0.2129
   34MPD2    C1  528   3.381   1.767  10.664  0.2855  0.2710 -0.1784
   34MPD2    C2  529   3.443   1.800  10.541 -0.2405 -0.1030  0.4982
   34MPD2    C3  530   3.371   1.809  10.425  0.3930 -0.2109 -0.1794
   34MPD2    C4  531   3.235   1.780  10.433  0.1139 -0.1248  0.3593
   34MPD2    C5  532   3.173   1.752  10.549  0.1195  0.6655  0.1169
   34MPD2     H  533   3.550   1.818  10.542 -0.5879  2.1945 -2.1472
   34MPD2    H1  534   3.178   1.756  10.344 -0.1626 -0.4262  0.6207
   34MPD2    H2  535   3.188   1.706  10.752  0.9889 -0.9661  0.9492
   34MPD2    H3  536   3.068   1.724  10.550 -0.0997  1.4812 -2.6966
   34MPD2     N  537   3.426   1.834  10.299  0.4875 -0.2122  0.0065
   34MPD2    H5  538   3.361   1.815  10.224  1.0237 -0.5625 -0.3643
   34MPD2    N1  539   3.450   1.761  10.793 -0.2629 -0.7184 -0.2733
   34MPD2    H7  540   3.392   1.734  10.872  2.1803 -2.2523  1.0010
   35TMC2    C1  541   0.906   3.640  11.207  0.5074 -0.2248  0.0314
   35TMC2    C2  542   0.853   3.667  11.088 -0.3593  0.6732 -0.0195
   35TMC2    C3  543   0.720   3.681  11.087  0.2638  0.5126  0.5124
   35TMC2    C4  544   0.833   3.623  11.323  0.4837  0.5347 -0.7133
   35TMC2    C5  545   0.697   3.618  11.310 -0.2184  0.3972  0.6287
   35TMC2    C6  546   0.634   3.658  11.196  0.3399 -0.4061  0.0854
   35TMC2     C  547   1.058   3.650  11.215 -0.2915 -0.0415  0.3579
   35TMC2     O  548   1.115   3.668  11.109  0.0365 -0.1660  0.3009
   35TMC2     H  549   0.912   3.659  10.998 -0.6371  1.1091 -0.2405
   35TMC2    H1  550   0.877   3.617  11.422  0.7634 -2.9014 -1.0507
   35TMC2    H2  551   0.526   3.666  11.192  0.3320  0.3218  1.7790
   35TMC2    C7  552   0.616   3.590  11.427 -0.0177  0.3961  0.3330
   35TMC2    C8  553   0.665   3.745  10.969 -0.8769 -0.2716  0.0987
   35TMC2    O1  554   0.496   3.619  11.435 -0.2373 -0.4504  0.1150
   35TMC2    O2  555   0.545   3.746  10.932  0.4608  0.1729  0.7868
   35TMC2    O5  556   0.767   3.821  10.919  0.1321 -0.1274 -0.0852
   35TMC2    H5  557   0.859   3.824  10.954 -0.9845  0.0520  2.8004
   36MPD2     C  558   1.498   3.599  11.451 -0.6500  0.3942 -0.2751
   36MPD2    C1  559   1.398   3.604  11.549 -0.4560 -0.7028 -0.8054
   36MPD2    C2  560   1.265   3.604  11.507 -0.2721  0.1830 -0.0416
   36MPD2    C3  561   1.243   3.611  11.372  0.2130 -0.3281 -0.4373
   36MPD2    C4  562   1.344   3.613  11.273 -0.4588  0.0801 -0.4326
   36MPD2    C5  563   1.468   3.608  11.317  0.5468 -0.1291  0.1740
   36MPD2     H  564   1.186   3.601  11.582  0.0340  0.6915  0.2955
   36MPD2    H1  565   1.329   3.615  11.166 -1.8880  0.6244 -0.2312
   36MPD2    H2  566   1.603   3.591  11.473 -1.2150  0.3795  2.4649
   36MPD2    H3  567   1.554   3.603  11.251  2.1329 -0.9621  2.2530
   36MPD2     N  568   1.111   3.613  11.338  0.5112  0.0841 -0.0618
   36MPD2    H5  569   1.040   3.604  11.410  0.7558  2.3566  0.4631
   36MPD2    N1  570   1.432   3.606  11.685  0.2449  0.7221  0.6389
   36MPD2    H7  571   1.527   3.581  11.708 -0.6137 -3.1321 -0.0159
   37TMC2    C1  572   2.496   3.912  11.732 -0.5430 -0.1574 -0.4965
   37TMC2    C2  573   2.428   3.963  11.624 -0.2442 -0.1796 -0.0288
   37TMC2    C3  574   2.485   3.962  11.498 -0.1389  1.0875 -0.8844
   37TMC2    C4  575   2.623   3.864  11.717 -0.5654 -0.8397  0.6596
   37TMC2    C5  576   2.685   3.867  11.590  0.4762 -0.3985  0.7484
   37TMC2    C6  577   2.609   3.903  11.483 -0.0649  0.3543  0.2915
   37TMC2     C  578   2.445   3.945  11.866 -0.0064 -0.3641 -0.5983
   37TMC2     O  579   2.339   4.002  11.874  0.4098 -0.1178  0.5122
   37TMC2     H  580   2.332   4.012  11.639 -0.1773  0.0756 -0.4480
   37TMC2    H1  581   2.680   3.823  11.799  0.8659 -1.3694 -0.5983
   37TMC2    H2  582   2.655   3.929  11.389 -1.0038  1.8674  0.2615
   37TMC2    C7  583   2.833   3.861  11.592 -0.0329 -0.4312  0.0199
   37TMC2    C8  584   2.442   4.050  11.389  0.5492  0.0204 -0.0472
   37TMC2    O1  585   2.881   3.847  11.704 -0.8651 -0.3100 -0.3255
   37TMC2    O2  586   2.514   4.126  11.324 -0.3794  1.0604 -0.2953
   37TMC2    O5  587   2.307   4.054  11.408  0.0435  0.7568 -0.2142
   37TMC2    H5  588   2.267   3.988  11.469  0.6343  0.5979  0.0010
   38MPD2     C  589   2.467   3.884  12.377  0.7422 -0.0273  0.4076
   38MPD2    C1  590   2.570   3.813  12.320 -0.8548  0.2050 -0.2535
   38MPD2    C2  591   2.580   3.816  12.182  0.2938  0.3123 -0.4265
   38MPD2    C3  592   2.489   3.887  12.104  0.0379 -0.7954 -0.5118
   38MPD2    C4  593   2.382   3.957  12.161 -0.5635 -0.5263 -0.3747
   38MPD2    C5  594   2.372   3.954  12.298  0.0784  0.2337 -0.7036
   38MPD2     H  595   2.665   3.767  12.135  0.7461  0.9032 -0.2292
   38MPD2    H1  596   2.311   4.021  12.109  0.6726 -0.4467 -1.9629
   38MPD2    H2  597   2.470   3.901  12.484  0.5377 -0.9014  0.5560
   38MPD2    H3  598   2.296   4.020  12.337  0.9073  0.4181  0.6228
   38MPD2     N  599   2.518   3.880  11.963  0.3883  0.4589  0.2727
   38MPD2    H5  600   2.591   3.815  11.934  0.6005  0.5091  0.7016
   38MPD2    N1  601   2.667   3.737  12.396  0.1927  0.3185  0.4046
   38MPD2    H7  602   2.731   3.685  12.336  2.8632  2.0745  1.7567
   39TMC2    C1  603   0.430   1.776   1.730  0.0185 -0.8532  0.2940
   39TMC2    C2  604   0.297   1.813   1.716  0.3230 -0.9004 -0.1131
   39TMC2    C3  605   0.259   1.928   1.778  0.1001  0.3583  0.1474
   39TMC2    C4  606   0.525   1.848   1.803 -0.0848  0.3784 -0.4446
   39TMC2    C5  607   0.478   1.955   1.869  0.3242  0.4723  0.3645
   39TMC2    C6  608   0.349   2.002   1.853 -0.6776 -0.2702  0.1052
   39TMC2     C  609   0.460   1.648   1.683 -0.3920  0.0653  0.4566
   39TMC2     O  610   0.363   1.579   1.648 -0.4161 -0.1266  0.7706
   39TMC2     H  611   0.225   1.759   1.655 -2.0273  2.2098 -0.1228
   39TMC2    H1  612   0.622   1.815   1.838 -0.3362 -1.1341 -1.1469
   39TMC2    H2  613   0.323   2.103   1.881 -1.6801 -0.9253  1.5216
   39TMC2    C7  614   0.568   2.060   1.921  0.2444  0.3613  0.2210
   39TMC2    C8  615   0.124   1.975   1.760  0.3343 -0.0233 -0.4939
   39TMC2    O1  616   0.516   2.147   1.992 -0.1709  0.1168 -0.1245
   39TMC2    O2  617   0.067   1.945   1.657 -0.5484 -0.1915 -0.3433
   39TMC2    O5  618   0.061   1.979   1.880  0.1906 -0.7850 -0.3980
   39TMC2    H5  619   0.125   1.957   1.951  0.8995  0.7876 -0.5416
   40MPD2     C  620   0.782   1.483   1.651  0.0131  0.0157  0.8242
   40MPD2    C1  621   0.645   1.488   1.666  0.6951  0.3682 -0.2517
   40MPD2    C2  622   0.573   1.375   1.636  0.1891  0.3286 -0.5906
   40MPD2    C3  623   0.632   1.257   1.602  0.9665  0.1571 -0.7750
   40MPD2    C4  624   0.767   1.249   1.597  0.0493  0.1710  0.3437
   40MPD2    C5  625   0.840   1.360   1.630 -0.4282 -0.2502 -1.1819
   40MPD2     H  626   0.467   1.385   1.656  0.2116 -0.9122  0.1637
   40MPD2    H1  627   0.812   1.151   1.589  2.0428  0.9341  2.0049
   40MPD2    H2  628   0.837   1.575   1.667  0.7964 -0.3599  0.2844
   40MPD2    H3  629   0.948   1.351   1.638 -0.6147 -1.4715 -0.0637
   40MPD2     N  630   0.558   1.133   1.598  0.3705  0.0243 -0.2118
   40MPD2    H5  631   0.602   1.046   1.568 -0.8293 -1.5658  2.7025
   40MPD2    N1  632   0.588   1.609   1.712  0.8395 -1.0566 -0.1243
   40MPD2    H7  633   0.657   1.678   1.740 -2.5054  1.5759  1.6145
   41TMC2    C1  634   4.407   3.835  13.996  0.5692  0.2323  0.0341
   41TMC2    C2  635   4.465   3.720  14.038 -0.1962 -0.1508 -0.2182
   41TMC2    C3  636   4.551   3.656  13.952 -0.6248 -0.4464 -0.6328
   41TMC2    C4  637   4.455   3.891  13.879 -0.0367 -0.4842 -0.2198
   41TMC2    C5  638   4.539   3.823  13.793 -0.2194  0.1639  0.0557
   41TMC2    C6  639   4.585   3.701  13.824  0.3386 -0.2845 -0.4810
   41TMC2     C  640   4.334   3.913  14.090 -0.0753 -0.2899 -0.1912
   41TMC2     O  641   4.240   3.971  14.036  0.4209 -0.0109  0.3950
   41TMC2     H  642   4.439   3.678  14.135  0.1965 -1.1044 -0.5278
   41TMC2    H1  643   4.420   3.989  13.849 -1.5110 -0.0023  3.1514
   41TMC2    H2  644   4.655   3.645  13.763 -0.6639 -1.6326 -0.3961
   41TMC2    C7  645   4.612   3.901  13.694 -0.3297 -0.5253 -0.1958
   41TMC2    C8  646   4.619   3.541  14.007  0.3293 -0.2685  0.5838
   41TMC2    O1  647   4.615   4.023  13.700  0.4639 -0.3781 -0.0120
   41TMC2    O2  648   4.572   3.438  14.054 -0.1431  0.1996 -0.2135
   41TMC2    O5  649   0.002   3.556  13.959 -0.1340  0.0280  0.5660
   41TMC2    H5  650   0.024   3.651  13.949  0.9171 -0.2068  0.6852
   42MPD2     C  651   4.178   3.970  14.320  0.2647 -0.6082  0.9659
   42MPD2    C1  652   4.309   3.953  14.324  0.5782  0.2404 -0.0289
   42MPD2    C2  653   4.377   3.991  14.440 -0.0095  0.2213  0.7719
   42MPD2    C3  654   4.316   4.045  14.552  0.0499  0.8654  0.2581
   42MPD2    C4  655   4.177   4.046  14.553  0.0192  0.2583 -0.1534
   42MPD2    C5  656   4.118   4.028  14.430 -0.5475  0.1349 -0.7077
   42MPD2     H  657   4.484   3.975  14.442  0.0569  0.6545  0.6441
   42MPD2    H1  658   4.118   4.088  14.633  1.1428  1.4320  0.0539
   42MPD2    H2  659   4.122   3.945  14.231  0.7466 -1.5538  0.9189
   42MPD2    H3  660   4.012   4.050  14.427  0.0624  3.2445  0.8635
   42MPD2     N  661   4.397   4.076  14.668  0.0043 -0.3684  0.0824
   42MPD2    H5  662   4.498   4.074  14.662  0.1464  1.3511  1.8272
   42MPD2    N1  663   4.383   3.907  14.219  0.4925  0.1474 -0.5666
   42MPD2    H7  664   4.482   3.887  14.227 -0.1164 -1.3676  3.4653
   43TMC2    C1  665   1.184   2.021   0.811  0.1613  0.2451 -0.2370
   43TMC2    C2  666   1.054   2.069   0.800  0.2243 -1.3296 -0.0983
   43TMC2    C3  667   1.022   2.186   0.863  0.1917 -0.6946  0.3646
   43TMC2    C4  668   1.276   2.094   0.876  0.1480 -0.3593  0.4302
   43TMC2    C5  669   1.239   2.212   0.937  0.1662  1.0853  0.1288
   43TMC2    C6  670   1.109   2.264   0.936 -0.2156 -0.7068  0.1194
   43TMC2     C  671   1.223   1.884   0.768  0.3071  0.6009 -0.1489
   43TMC2     O  672   1.310   1.826   0.829 -0.0220 -0.0450  0.4923
   43TMC2     H  673   0.974   2.004   0.766 -0.8666 -0.9670  1.7616
   43TMC2    H1  674   1.377   2.054   0.873  0.0151 -0.7073  0.5928
   43TMC2    H2  675   1.085   2.355   0.989  1.5218 -0.2512  0.1442
   43TMC2    C7  676   1.350   2.300   0.978  0.3085 -0.3759 -0.0078
   43TMC2    C8  677   0.894   2.238   0.847  0.4202  0.2088  0.2735
   43TMC2    O1  678   1.459   2.272   0.930 -0.6752  0.0732  0.2240
   43TMC2    O2  679   0.850   2.320   0.923  0.3782  0.2817  0.0673
   43TMC2    O5  680   0.825   2.186   0.737 -0.1262 -0.6534 -0.2514
   43TMC2    H5  681   0.881   2.128   0.681 -0.3940 -1.7754  0.6395
   44MPD2     C  682   1.188   1.498   0.417  0.1105  0.5594  0.2988
   44MPD2    C1  683   1.294   1.546   0.497 -0.2611  0.1427 -0.1244
   44MPD2    C2  684   1.282   1.662   0.582  0.1446 -0.3310  0.0685
   44MPD2    C3  685   1.161   1.712   0.594 -0.0424  0.2250  0.3298
   44MPD2    C4  686   1.053   1.666   0.525 -0.7458 -0.1638  0.1540
   44MPD2    C5  687   1.071   1.570   0.431  0.0010 -0.0013 -0.1637
   44MPD2     H  688   1.363   1.706   0.638  0.7782 -1.0856 -0.2546
   44MPD2    H1  689   0.958   1.716   0.541 -0.6123 -0.5022  2.0248
   44MPD2    H2  690   1.197   1.420   0.343  0.8101  1.1840 -0.2778
   44MPD2    H3  691   0.985   1.527   0.380  0.8385 -2.2389  0.2796
   44MPD2     N  692   1.138   1.833   0.666 -0.3595 -0.0319  0.3625
   44MPD2    H5  693   1.069   1.896   0.627  0.2123 -0.5827 -1.5275
   44MPD2    N1  694   1.423   1.485   0.506 -0.2352  0.4448 -0.4881
   44MPD2    H7  695   1.495   1.531   0.562  0.4078 -3.2015  1.6412
   45TMC2    C1  696   2.102   4.151   9.766  0.0094 -0.4448 -0.6650
   45TMC2    C2  697   2.030   4.192   9.659 -0.0374  0.4991 -0.9785
   45TMC2    C3  698   1.992   4.324   9.653 -0.0787 -0.0607  0.2121
   45TMC2    C4  699   2.141   4.240   9.867 -0.0954 -0.8447 -0.5708
   45TMC2    C5  700   2.106   4.376   9.860 -0.3111 -0.0618  0.1770
   45TMC2    C6  701   2.031   4.415   9.750 -0.2213  0.0605 -0.1119
   45TMC2     C  702   2.151   4.015   9.783  0.5991 -0.7790  0.0131
   45TMC2     O  703   2.222   3.998   9.883 -0.3109  0.2840 -0.1789
   45TMC2     H  704   1.993   4.125   9.583  1.7617  1.0101 -2.2777
   45TMC2    H1  705   2.228   4.227   9.930  2.1534 -0.7453 -3.6377
   45TMC2    H2  706   1.982   4.511   9.747 -2.1398 -0.7864  4.3010
   45TMC2    C7  707   2.170   4.464   9.953 -1.0478 -0.3132 -0.0914
   45TMC2    C8  708   1.865   4.340   9.594 -0.3003  0.5011  0.1330
   45TMC2    O1  709   2.209   4.414  10.057  0.1523  0.1863  0.4955
   45TMC2    O2  710   1.798   4.248   9.544  0.9248  0.3873  0.2903
   45TMC2    O5  711   1.874   4.467   9.536 -0.7814  0.3000  0.2339
   45TMC2    H5  712   1.949   4.516   9.576  1.3078 -0.1604 -3.1517
   46MPD2     C  713   2.229   3.747   9.749  0.1918  0.8928  0.1233
   46MPD2    C1  714   2.108   3.790   9.712  0.1840  0.1827  0.1867
   46MPD2    C2  715   2.003   3.700   9.686  0.2944  0.3705  0.1172
   46MPD2    C3  716   2.031   3.568   9.696 -0.2873  0.0677 -0.4922
   46MPD2    C4  717   2.158   3.526   9.731 -0.3904  0.4629  0.0645
   46MPD2    C5  718   2.262   3.613   9.741 -0.8306 -0.7248 -0.1623
   46MPD2     H  719   1.903   3.738   9.667 -0.3631 -1.3346  0.2436
   46MPD2    H1  720   2.183   3.421   9.727 -0.9483  0.2734  1.7789
   46MPD2    H2  721   2.316   3.811   9.759  0.7407  0.0958  0.4478
   46MPD2    H3  722   2.353   3.573   9.783 -0.0255  0.7649 -0.5012
   46MPD2     N  723   1.921   3.473   9.678 -0.5240  0.2179  0.1755
   46MPD2    H5  724   1.831   3.517   9.664 -2.8136 -4.8320 -0.9718
   46MPD2    N1  725   2.078   3.923   9.713  0.0140 -0.5552 -0.5769
   46MPD2    H7  726   1.997   3.947   9.656  0.5076 -0.6448 -1.3178
   47TMC2    C1  727   3.757   4.628   9.330 -0.0267  0.2456 -0.4261
   47TMC2    C2  728   3.636   4.689   9.324 -0.7002  0.4505 -0.0355
   47TMC2    C3  729   3.586   0.012   9.440  0.0352  0.6810 -0.0562
   47TMC2    C4  730   3.850   4.650   9.433 -0.1563 -0.7149 -0.1294
   47TMC2    C5  731   3.801   4.719   9.544 -0.3633 -0.4397  0.0641
   47TMC2    C6  732   3.667   0.022   9.549  0.1186  0.5104 -0.4957
   47TMC2     C  733   3.784   4.530   9.227  0.5176  0.4845 -0.1675
   47TMC2     O  734   3.723   4.528   9.123 -0.3600 -0.2554 -0.1635
   47TMC2     H  735   3.559   4.661   9.253  1.8310 -0.6984 -2.3332
   47TMC2    H1  736   3.947   4.602   9.443 -0.1598 -0.0710  3.0143
   47TMC2    H2  737   3.634   0.078   9.636  0.1164 -2.7789  1.6269
   47TMC2    C7  738   3.877   4.691   9.667  0.2616 -0.4425 -0.2659
   47TMC2    C8  739   3.458   0.069   9.444  0.2008  0.1078  0.3829
   47TMC2    O1  740   3.998   4.715   9.671 -0.9328 -0.6480  0.2013
   47TMC2    O2  741   3.401   0.093   9.550 -0.4199 -0.0666 -0.2487
   47TMC2    O5  742   3.459   0.154   9.341 -0.1228  0.3531 -0.0917
   47TMC2    H5  743   3.537   0.161   9.282  2.1379 -0.8621  2.7308
   48MPD2     C  744   3.952   4.372   9.035  0.1784  0.2229 -0.3306
   48MPD2    C1  745   3.962   4.367   9.173 -0.9757  0.1911  0.9315
   48MPD2    C2  746   4.047   4.268   9.220  0.0199  0.4882  0.4747
   48MPD2    C3  747   4.110   4.177   9.142  0.2039  0.0378 -0.0652
   48MPD2    C4  748   4.095   4.189   9.005  0.0481 -0.6344 -1.0915
   48MPD2    C5  749   4.022   4.290   8.957  0.4806  0.0971  0.3223
   48MPD2     H  750   4.054   4.248   9.326  0.4849 -2.5598 -0.1111
   48MPD2    H1  751   4.138   4.126   8.928  0.8012 -0.4664 -0.8120
   48MPD2    H2  752   3.898   4.451   8.983  1.4512  1.2656 -0.0606
   48MPD2    H3  753   4.009   4.314   8.852  0.0258 -4.9001 -0.8097
   48MPD2     N  754   4.183   4.077   9.202  0.2270  1.2824  0.0204
   48MPD2    H5  755   4.198   4.084   9.302  0.8084 -0.7540  0.0700
   48MPD2    N1  756   3.887   4.447   9.269  0.2749  0.3176 -0.5312
   48MPD2    H7  757   3.921   4.458   9.364 -0.0226  0.7999 -0.4765
   49TMC2    C1  758   2.855   1.499  10.239 -0.4808 -0.0066 -0.0856
   49TMC2    C2  759   2.917   1.542  10.120  0.5574  1.3515 -0.0639
   49TMC2    C3  760   2.841   1.586  10.017  0.4684  0.2442  0.4937
   49TMC2    C4  761   2.718   1.502  10.248  0.0507 -0.8302  0.1604
   49TMC2    C5  762   2.645   1.532  10.136 -0.8367  0.4863 -0.9333
   49TMC2    C6  763   2.698   1.582  10.015  0.5366  0.3048  0.1882
   49TMC2     C  764   2.944   1.453  10.351  0.1180 -0.4356  0.4741
   49TMC2     O  765   3.062   1.435  10.324  0.3657 -0.4593 -0.5131
   49TMC2     H  766   3.022   1.525  10.104  0.2940 -1.4921  1.2174
   49TMC2    H1  767   2.670   1.479  10.342  0.1357  1.0617  0.6659
   49TMC2    H2  768   2.637   1.603   9.928 -1.1563  0.1834  1.3436
   49TMC2    C7  769   2.517   1.479  10.115 -0.0539 -0.2853 -0.3295
   49TMC2    C8  770   2.918   1.662   9.922 -0.2223 -0.3040  0.0827
   49TMC2    O1  771   2.451   1.511  10.017  0.3761  0.3691 -0.0676
   49TMC2    O2  772   3.037   1.687   9.941  0.5279  0.0458  0.6366
   49TMC2    O5  773   2.856   1.668   9.803 -0.8037 -0.7768 -0.3188
   49TMC2    H5  774   2.773   1.616   9.797 -0.7692 -0.5963 -2.1662
   50MPD2     C  775   3.066   1.365  10.598 -0.6934  0.8736  0.0070
   50MPD2    C1  776   2.944   1.434  10.588 -0.3138  0.6027 -0.4995
   50MPD2    C2  777   2.875   1.464  10.705  0.0907 -0.6379  0.4243
   50MPD2    C3  778   2.933   1.445  10.828  0.0315  0.2721 -0.8156
   50MPD2    C4  779   3.059   1.389  10.840  0.7282 -0.5510  0.3477
   50MPD2    C5  780   3.118   1.342  10.721 -0.3156 -0.1061 -0.1313
   50MPD2     H  781   2.774   1.501  10.698 -0.4086 -2.1658 -0.4618
   50MPD2    H1  782   3.112   1.363  10.931  1.7327  0.9817  0.1950
   50MPD2    H2  783   3.120   1.316  10.518 -1.4461 -2.4979  1.5966
   50MPD2    H3  784   3.213   1.289  10.725 -0.0930  0.3737  0.7690
   50MPD2     N  785   2.871   1.485  10.946  0.3887  0.3248 -0.2660
   50MPD2    H5  786   2.919   1.459  11.031 -2.0387  1.9723  1.5836
   50MPD2    N1  787   2.873   1.446  10.466 -0.0324  0.1363 -0.0703
   50MPD2    H7  788   2.775   1.470  10.470  0.1936  0.6753  2.4219
   51TMC2    C1  789   2.879   0.367   0.727 -0.2315 -0.4042  0.7418
   51TMC2    C2  790   2.799   0.399   0.632  1.0142  0.2626  0.4842
   51TMC2    C3  791   2.841   0.461   0.516 -0.1867  0.8327 -0.4755
   51TMC2    C4  792   3.011   0.390   0.719 -0.9651  0.3233  0.6341
   51TMC2    C5  793   3.058   0.457   0.610  0.6942  0.3885  0.2763
   51TMC2    C6  794   2.975   0.491   0.502 -0.6952 -0.1965  0.0139
   51TMC2     C  795   2.825   0.326   0.858  0.6455  0.3130 -0.3355
   51TMC2     O  796   2.896   0.259   0.933  0.4320  0.2073 -0.1694
   51TMC2     H  797   2.692   0.400   0.649  0.9425  1.1626 -0.0112
   51TMC2    H1  798   3.085   0.371   0.795 -1.2058 -2.5517  0.1398
   51TMC2    H2  799   3.017   0.535   0.412 -0.5347 -1.5614 -0.5917
   51TMC2    C7  800   3.194   0.417   0.579  0.4631 -0.5334 -0.1937
   51TMC2    C8  801   2.748   0.535   0.425  0.1914  0.1331 -0.9431
   51TMC2    O1  802   3.218   0.308   0.621  0.7247 -0.5867  0.3449
   51TMC2    O2  803   2.779   0.641   0.367 -0.1528  0.2378 -0.5274
   51TMC2    O5  804   2.631   0.473   0.428  0.1988 -0.3284 -0.1058
   51TMC2    H5  805   2.640   0.377   0.446 -1.5900 -0.5284 -0.3518
   52MPD2     C  806   2.465   0.347   1.221  0.4275 -0.0255  0.2939
   52MPD2    C1  807   2.572   0.264   1.210  0.1521 -0.3702  0.1481
   52MPD2    C2  808   2.655   0.274   1.096 -0.0178 -0.1374  0.0419
   52MPD2    C3  809   2.631   0.372   1.000 -0.0490 -0.1811  0.4457
   52MPD2    C4  810   2.516   0.448   1.009 -1.2503  0.1584  0.0145
   52MPD2    C5  811   2.431   0.431   1.115  0.2449 -0.0123 -0.5476
   52MPD2     H  812   2.740   0.211   1.074  0.8219  1.1538 -0.3652
   52MPD2    H1  813   2.483   0.512   0.928 -6.4943 -0.9538  1.2894
   52MPD2    H2  814   2.383   0.342   1.291 -0.4444 -0.8810 -0.8062
   52MPD2    H3  815   2.330   0.469   1.118  0.2423 -0.2177  1.6951
   52MPD2     N  816   2.715   0.402   0.890  0.3237 -0.2737 -1.2453
   52MPD2    H5  817   2.692   0.481   0.831  0.0582 -0.4512 -1.3757
   52MPD2    N1  818   2.586   0.162   1.305  0.0181  0.1050  0.0938
   52MPD2    H7  819   2.664   0.098   1.291 -0.9207 -0.9110 -0.5643
   53TMC2    C1  820   3.508   3.946  11.785  0.3979 -0.1062 -0.0432
   53TMC2    C2  821   3.643   3.947  11.806 -0.2195 -0.2605 -0.4857
   53TMC2    C3  822   3.695   3.957  11.936  0.0267  0.6020 -0.0297
   53TMC2    C4  823   3.426   3.964  11.894 -0.1373  0.3185  0.3003
   53TMC2    C5  824   3.486   3.966  12.015  0.4287 -0.0615  0.2406
   53TMC2    C6  825   3.618   3.968  12.043 -0.0673  0.0324  0.5223
   53TMC2     C  826   3.463   3.925  11.643  0.0672 -0.2097 -0.2970
   53TMC2     O  827   3.552   3.902  11.564 -0.0273 -0.0675 -0.2658
   53TMC2     H  828   3.714   3.939  11.725  0.4529 -0.0545  0.0781
   53TMC2    H1  829   3.318   3.969  11.882 -0.2691 -0.6842  1.0662
   53TMC2    H2  830   3.662   3.981  12.141  2.2124 -0.4716 -0.4367
   53TMC2    C7  831   3.389   3.983  12.123  0.0071 -0.0068  0.7322
   53TMC2    C8  832   3.836   3.949  11.954  0.6718  1.2132 -0.4593
   53TMC2    O1  833   3.277   4.021  12.094 -0.0251 -0.0608 -0.1136
   53TMC2    O2  834   3.915   3.987  11.870 -0.1383  0.4158 -0.1508
   53TMC2    O5  835   3.865   3.859  12.054 -0.1846  0.1716 -0.3052
   53TMC2    H5  836   3.797   3.819  12.113 -1.7435  1.1703 -1.4173
   54MPD2     C  837   3.294   3.849  11.401 -0.4456  0.6572 -0.7204
   54MPD2    C1  838   3.249   3.891  11.516  0.0171 -0.2508  0.0764
   54MPD2    C2  839   3.114   3.887  11.542 -0.0767  0.3199 -0.6527
   54MPD2    C3  840   3.026   3.844  11.447 -0.8160  0.0662 -0.1748
   54MPD2    C4  841   3.078   3.799  11.322 -0.1614  0.6311  0.7347
   54MPD2    C5  842   3.213   3.805  11.302  0.0833 -0.1965 -0.1384
   54MPD2     H  843   3.078   3.934  11.632  0.1923  0.9660 -0.8803
   54MPD2    H1  844   3.016   3.768  11.238  1.8438 -0.4403 -0.3617
   54MPD2    H2  845   3.400   3.848  11.377 -0.7773 -1.6055 -2.1291
   54MPD2    H3  846   3.244   3.748  11.215  0.8452  0.8098 -0.5278
   54MPD2     N  847   2.888   3.847  11.467  0.3221  0.3346 -0.3248
   54MPD2    H5  848   2.831   3.822  11.386 -1.3236  1.1005  0.6050
   54MPD2    N1  849   3.327   3.928  11.626 -0.0695  0.1540 -0.3116
   54MPD2    H7  850   3.281   3.949  11.714  0.6885 -1.4646  0.4821
   55TMC2    C1  851   4.078   0.861   0.152  0.4808 -0.1473 -0.2038
   55TMC2    C2  852   4.207   0.865   0.103 -0.3845 -0.8267 -0.6237
   55TMC2    C3  853   4.293   0.771   0.149 -0.2269  0.3517  0.1023
   55TMC2    C4  854   4.048   0.763   0.249  0.0519  0.3901 -0.2622
   55TMC2    C5  855   4.135   0.668   0.290  0.0990 -0.5912 -0.1110
   55TMC2    C6  856   4.265   0.673   0.244  0.8616  0.5807 -0.1957
   55TMC2     C  857   3.979   0.965   0.117 -0.0163 -0.4355  0.2837
   55TMC2     O  858   3.898   0.992   0.202 -0.3109  0.2499 -0.0908
   55TMC2     H  859   4.243   0.935   0.028 -1.3550  1.3432  0.9343
   55TMC2    H1  860   3.947   0.762   0.289  0.6705  0.5665  1.2951
   55TMC2    H2  861   4.336   0.591   0.255 -2.3047 -1.8864  1.6622
   55TMC2    C7  862   4.106   0.584   0.401 -0.5883 -0.2023  0.3161
   55TMC2    C8  863   4.411   0.748   0.076 -0.4727 -0.2659  0.1820
   55TMC2    O1  864   4.181   0.488   0.423  0.2783 -0.1117  0.0921
   55TMC2    O2  865   4.510   0.695   0.130  0.0594  0.3660 -0.1865
   55TMC2    O5  866   4.368   0.720  17.697  0.3065 -0.4424  0.3982
   55TMC2    H5  867   4.293   0.769  17.657  0.2448  0.2263  1.3206
   56MPD2     C  868   4.014   1.175  17.568  0.1449 -0.9595 -0.1172
   56MPD2    C1  869   3.963   1.145  17.691 -0.2389 -0.5077  0.4073
   56MPD2    C2  870   3.881   1.234   0.010  0.1618  1.1320 -0.0360
   56MPD2    C3  871   3.843   1.350  17.699 -0.4956 -0.6010  0.4243
   56MPD2    C4  872   3.894   1.386  17.575  0.4993 -0.1929  0.7007
   56MPD2    C5  873   3.979   1.298  17.512 -0.7204  0.4839  0.1959
   56MPD2     H  874   3.841   1.203   0.106  2.0081  0.0166  0.3868
   56MPD2    H1  875   3.865   1.473  17.517 -0.7700 -0.3461  1.1010
   56MPD2    H2  876   4.077   1.104  17.517 -1.7792 -1.9728 -1.0988
   56MPD2    H3  877   4.020   1.325  17.415  0.5988 -1.6961  0.1356
   56MPD2     N  878   3.747   1.435   0.021  0.6684  0.4269 -0.5448
   56MPD2    H5  879   3.713   1.404   0.112  1.2520  0.2038 -0.4033
   56MPD2    N1  880   4.005   1.023  17.741  0.4788 -0.0101 -0.5827
   56MPD2    H7  881   4.060   0.970  17.674  2.5281  1.6517 -0.1877
   57TMC2    C1  882   3.134   2.199  13.680  0.8805 -0.1962  0.1377
   57TMC2    C2  883   3.075   2.116  13.586  0.8358 -0.6469 -0.4276
   57TMC2    C3  884   3.157   2.041  13.507 -0.6961  0.1349  0.2829
   57TMC2    C4  885   3.271   2.214  13.691 -0.7736  0.2408  0.4047
   57TMC2    C5  886   3.348   2.134  13.609 -0.1457 -0.3358  0.0722
   57TMC2    C6  887   3.296   2.054  13.513  0.0945 -0.3484 -1.2019
   57TMC2     C  888   3.060   2.321  13.697  0.1233  0.2333 -0.0354
   57TMC2     O  889   2.936   2.316  13.693 -0.1100  0.0301  0.0266
   57TMC2     H  890   2.966   2.118  13.578  0.7908  0.1710  0.4082
   57TMC2    H1  891   3.293   2.284  13.770 -0.8334  1.1628 -0.3992
   57TMC2    H2  892   3.359   2.000  13.443 -0.9985 -0.7534 -1.8612
   57TMC2    C7  893   3.480   2.195  13.597 -0.1275  0.3716 -0.4220
   57TMC2    C8  894   3.109   1.927  13.426 -0.5382  0.6818 -0.0652
   57TMC2    O1  895   3.486   2.309  13.638  0.7220  0.3790  0.8063
   57TMC2    O2  896   3.170   1.885  13.331 -0.2418  0.1554  0.1267
   57TMC2    O5  897   2.980   1.903  13.449  0.1516  0.4541  0.1673
   57TMC2    H5  898   2.941   1.937  13.532 -1.6409 -2.7912  0.6715
   58MPD2     C  899   3.098   2.822  13.620 -0.5504  0.1243 -0.3858
   58MPD2    C1  900   2.996   2.749  13.676 -0.8491 -0.3951  0.2811
   58MPD2    C2  901   3.004   2.611  13.685  0.4360 -0.2457 -0.0988
   58MPD2    C3  902   3.119   2.551  13.637  0.4496  0.6369  0.3453
   58MPD2    C4  903   3.219   2.629  13.590 -0.2061 -0.5690  0.4288
   58MPD2    C5  904   3.215   2.763  13.581 -0.2175 -0.3565 -0.4644
   58MPD2     H  905   2.930   2.548  13.732 -1.4313  1.7556 -0.3703
   58MPD2    H1  906   3.315   2.595  13.550 -1.6788 -0.8898 -2.8704
   58MPD2    H2  907   3.096   2.929  13.600  0.7817  0.4134  1.0033
   58MPD2    H3  908   3.300   2.811  13.533 -0.7169  0.6674 -0.3296
   58MPD2     N  909   3.142   2.414  13.648 -0.8740 -0.5771  0.2245
   58MPD2    H5  910   3.235   2.382  13.623 -0.3110  2.1515 -1.1733
   58MPD2    N1  911   2.874   2.817  13.709  0.1165  0.7413 -0.4131
   58MPD2    H7  912   2.791   2.758  13.704 -0.4276  1.2076  2.9640
   59TMC2    C1  913   1.162   2.611  12.508 -0.2975  0.3449  0.5322
   59TMC2    C2  914   1.075   2.524  12.449 -0.7690 -0.6948 -0.1811
   59TMC2    C3  915   1.085   2.510  12.314 -0.2259  0.6199 -0.7232
   59TMC2    C4  916   1.261   2.676  12.441  0.2725  0.3145  0.0104
   59TMC2    C5  917   1.278   2.634  12.312 -0.3996 -0.4162 -0.2025
   59TMC2    C6  918   1.196   2.552  12.244  0.4110 -0.4830 -0.3725
   59TMC2     C  919   1.116   2.677  12.634  0.4104 -0.3600 -0.6458
   59TMC2     O  920   0.997   2.711  12.638  0.1291  0.0446  0.0696
   59TMC2     H  921   0.995   2.481  12.508 -1.6530 -1.2333 -1.7826
   59TMC2    H1  922   1.330   2.742  12.493 -2.2747  2.7322  0.3580
   59TMC2    H2  923   1.218   2.539  12.138  0.8017 -0.6184 -0.2727
   59TMC2    C7  924   1.379   2.694  12.227  0.2931 -0.3677 -0.2160
   59TMC2    C8  925   1.004   2.405  12.250  0.9764 -0.4576 -0.1633
   59TMC2    O1  926   1.430   2.616  12.149  0.0289 -0.3762  0.0055
   59TMC2    O2  927   0.952   2.317  12.316  0.2634 -0.1626  0.6752
   59TMC2    O5  928   1.019   2.405  12.116 -0.0933  0.1522  0.0543
   59TMC2    H5  929   1.009   2.493  12.072 -2.0543 -1.1404 -2.0858
   60MPD2     C  930   1.044   2.658  12.923 -0.4325 -0.5443 -0.4222
   60MPD2    C1  931   1.172   2.667  12.877 -0.1438 -0.7150 -0.3642
   60MPD2    C2  932   1.272   2.668  12.969  0.5844 -0.7345  0.0231
   60MPD2    C3  933   1.254   2.685  13.102  0.2508  0.6562 -0.1944
   60MPD2    C4  934   1.128   2.682  13.146  0.3590  0.1028 -0.1799
   60MPD2    C5  935   1.019   2.656  13.061 -0.3156  0.1906  0.4305
   60MPD2     H  936   1.376   2.681  12.941  0.7645  0.2913  1.1771
   60MPD2    H1  937   1.095   2.711  13.245  0.8449  1.0270 -0.2844
   60MPD2    H2  938   0.960   2.632  12.859 -0.4228 -0.2177 -0.5670
   60MPD2    H3  939   0.918   2.644  13.097 -0.9386 -1.2727 -1.7654
   60MPD2     N  940   1.363   2.684  13.193 -0.2640 -0.3113  0.8038
   60MPD2    H5  941   1.457   2.698  13.158 -1.3393 -0.0065 -1.9174
   60MPD2    N1  942   1.204   2.662  12.743  0.4742  0.3403  0.4027
   60MPD2    H7  943   1.300   2.637  12.723  0.6678 -0.3599  2.2430
   61TMC2    C1  944   0.446   4.001  15.581 -0.0682  0.2369 -0.7652
   61TMC2    C2  945   0.366   3.977  15.687  0.2726 -0.0090  0.4029
   61TMC2    C3  946   0.281   4.071  15.732 -0.0105  0.8826  0.6319
   61TMC2    C4  947   0.440   4.119  15.510 -0.4207  0.2431  0.1810
   61TMC2    C5  948   0.349   4.210  15.556 -0.0885  0.1045  0.6039
   61TMC2    C6  949   0.279   4.196  15.669  0.1795 -0.0324  0.1972
   61TMC2     C  950   0.543   3.899  15.544 -0.3590  0.7603  0.9388
   61TMC2     O  951   0.587   3.834  15.635  0.3094 -0.5197  0.4896
   61TMC2     H  952   0.378   3.878  15.730 -2.5524 -1.6076 -2.4501
   61TMC2    H1  953   0.520   4.135  15.438  0.0365  0.5122  0.7559
   61TMC2    H2  954   0.204   4.265  15.707 -1.8481 -3.6232  2.6882
   61TMC2    C7  955   0.356   4.342  15.496 -0.1292  0.7326 -0.0064
   61TMC2    C8  956   0.223   4.060  15.865 -0.2696  0.7880  0.1388
   61TMC2    O1  957   0.419   4.347  15.392  0.7844 -0.3830  0.5146
   61TMC2    O2  958   0.213   4.157  15.941 -0.1759  0.1390  0.0910
   61TMC2    O5  959   0.150   3.952  15.887  0.0291  0.2755 -0.0429
   61TMC2    H5  960   0.159   3.884  15.818 -1.7989  1.1087 -1.0974
   62MPD2     C  961   0.669   3.662  15.407 -1.0545 -0.5202  0.4012
   62MPD2    C1  962   0.612   3.773  15.340  0.4981  0.6941 -0.1155
   62MPD2    C2  963   0.609   3.763  15.203  0.2430 -0.5206  0.2005
   62MPD2    C3  964   0.671   3.661  15.130 -0.8334  0.1814 -0.2109
   62MPD2    C4  965   0.741   3.562  15.201 -0.0705 -0.1318 -0.7277
   62MPD2    C5  966   0.730   3.560  15.335  0.4170 -0.0133 -0.7145
   62MPD2     H  967   0.552   3.837  15.148  4.1295  1.3656 -1.2972
   62MPD2    H1  968   0.797   3.481  15.157 -0.4544 -0.7582 -0.0565
   62MPD2    H2  969   0.680   3.656  15.515 -2.2566 -1.7362  0.4603
   62MPD2    H3  970   0.783   3.485  15.392 -3.0316 -1.1433  1.0226
   62MPD2     N  971   0.674   3.676  14.988  0.8559  0.3155  0.0261
   62MPD2    H5  972   0.630   3.758  14.948 -0.7120  0.9024  2.9792
   62MPD2    N1  973   0.555   3.885  15.405 -0.4456 -0.6394  0.3079
   62MPD2    H7  974   0.496   3.942  15.344 -0.8274 -2.7955 -1.3187
   63TMC2    C1  975   4.631   3.940  10.891  0.3657  0.0615  0.8396
   63TMC2    C2  976   4.650   3.965  11.024  0.4930  0.3974 -0.1057
   63TMC2    C3  977   0.008   4.058  11.057 -0.2667 -0.6532  0.3579
   63TMC2    C4  978   4.702   3.996  10.794  0.2625  0.7743 -0.2437
   63TMC2    C5  979   0.048   4.093  10.830 -0.5700  0.4328  0.8547
   63TMC2    C6  980   0.067   4.132  10.964  0.4568 -0.5862  0.3598
   63TMC2     C  981   4.553   3.821  10.854  0.4463  0.3786  0.2937
   63TMC2     O  982   4.502   3.816  10.742 -0.0611 -0.2419  0.3852
   63TMC2     H  983   4.571   3.923  11.085  0.0045 -1.4883 -2.0352
   63TMC2    H1  984   4.676   3.976  10.691  2.6281  0.8746 -0.8584
   63TMC2    H2  985   0.109   4.227  10.994 -1.4434  0.3420  0.0746
   63TMC2    C7  986   0.104   4.168  10.720  0.1576 -0.0630  0.3087
   63TMC2    C8  987   0.018   4.104  11.195 -0.0573 -0.0829  0.2896
   63TMC2    O1  988   0.053   4.152  10.611  0.2801  0.0429  0.1264
   63TMC2    O2  989   0.045   4.217  11.229 -0.1402 -0.0979 -0.2927
   63TMC2    O5  990   4.719   4.007  11.276  0.7379  0.0682 -0.1361
   63TMC2    H5  991   4.710   3.917  11.238 -0.4113 -0.9126  2.4776
   64MPD2     C  992   4.437   3.330  10.938 -0.1670 -0.4430  0.0097
   64MPD2    C1  993   4.529   3.370  11.027 -0.1420 -0.4147 -0.5690
   64MPD2    C2  994   4.575   3.499  11.033 -0.4185  0.0473 -0.4826
   64MPD2    C3  995   4.526   3.594  10.944 -0.9465  0.2916  0.5007
   64MPD2    C4  996   4.428   3.555  10.856  0.2489 -0.2761 -0.2001
   64MPD2    C5  997   4.398   3.426  10.854 -0.4264 -0.3257  0.9115
   64MPD2     H  998   4.647   3.529  11.109  0.3454 -0.6646 -0.9225
   64MPD2    H1  999   4.383   3.625  10.786 -0.7327  1.2385  1.9534
   64MPD2    H2 1000   4.390   3.232  10.926 -2.5752  0.8507 -1.1140
   64MPD2    H3 1001   4.325   3.396  10.780 -0.7517  1.9789  0.3018
   64MPD2     N 1002   4.580   3.720  10.947 -0.1512  0.0961 -0.1454
   64MPD2    H5 1003   4.646   3.736  11.022 -0.0402 -0.5030 -0.1184
   64MPD2    N1 1004   4.580   3.289  11.129  0.0394  0.0313 -0.0770
   64MPD2    H7 1005   4.636   3.335  11.199 -1.0557 -0.6951  1.2890
   65TMC2    C1 1006   1.038   3.677  15.505 -0.0526  0.6099  0.4967
   65TMC2    C2 1007   1.065   3.635  15.377  0.1381  0.0316 -0.2141
   65TMC2    C3 1008   1.045   3.717  15.267  0.1738 -0.1315 -0.0401
   65TMC2    C4 1009   0.998   3.803  15.530 -0.0063  0.6088 -0.3220
   65TMC2    C5 1010   0.993   3.883  15.421  0.4968 -0.7178 -0.2672
   65TMC2    C6 1011   0.999   3.846  15.289 -0.0737 -0.5806  0.1147
   65TMC2     C 1012   1.068   3.598  15.619 -0.3011  1.0209  0.4018
   65TMC2     O 1013   1.065   3.654  15.729 -0.3599  0.4095  0.3286
   65TMC2     H 1014   1.102   3.537  15.349  1.4881  0.4841 -0.0099
   65TMC2    H1 1015   0.996   3.840  15.632 -0.5367 -1.9398  0.5865
   65TMC2    H2 1016   0.988   3.910  15.202  0.0770 -1.0518 -0.2514
   65TMC2    C7 1017   0.948   4.021  15.438  0.4396  0.1315  0.5693
   65TMC2    C8 1018   1.063   3.671  15.134 -0.1104 -0.1923  0.1754
   65TMC2    O1 1019   0.993   4.095  15.353  0.2120  0.2698  0.5601
   65TMC2    O2 1020   1.029   3.734  15.036  0.3048 -0.5532 -0.4347
   65TMC2    O5 1021   1.160   3.583  15.126 -0.1540  0.5338  0.1232
   65TMC2    H5 1022   1.221   3.582  15.204 -0.7196 -0.5570  0.5544
   66MPD2     C 1023   1.235   3.426  15.794  0.3364  0.0481 -0.7325
   66MPD2    C1 1024   1.162   3.380  15.680 -0.0063  0.2868 -0.0869
   66MPD2    C2 1025   1.179   3.247  15.647 -0.0528  0.4751 -0.1854
   66MPD2    C3 1026   1.242   3.156  15.732 -0.5694 -0.4406 -0.1619
   66MPD2    C4 1027   1.292   3.198  15.847 -0.4511 -0.3726 -0.2763
   66MPD2    C5 1028   1.291   3.331  15.874 -0.2265 -0.1071  0.2548
   66MPD2     H 1029   1.135   3.216  15.553  0.7113 -1.9398  0.2535
   66MPD2    H1 1030   1.339   3.141  15.926 -0.8797  0.8942  0.8883
   66MPD2    H2 1031   1.249   3.529  15.825  4.3776 -1.2079  1.6175
   66MPD2    H3 1032   1.351   3.368  15.957  1.4793 -0.7577 -0.6748
   66MPD2     N 1033   1.220   3.017  15.713  0.0946 -0.2124 -0.1864
   66MPD2    H5 1034   1.227   2.963  15.799  0.8294  0.4114  0.1456
   66MPD2    N1 1035   1.107   3.470  15.590  0.4547  0.2034  0.0026
   66MPD2    H7 1036   1.068   3.437  15.502  1.0748  0.1099 -0.2392
   67TMC2    C1 1037   1.340   2.667  14.388  0.5872 -0.7729  0.3998
   67TMC2    C2 1038   1.283   2.782  14.426  0.2060  0.0644  0.3123
   67TMC2    C3 1039   1.332   2.843  14.537  0.2048 -0.6353  0.6021
   67TMC2    C4 1040   1.445   2.613  14.461 -0.2551 -0.2893 -1.1241
   67TMC2    C5 1041   1.476   2.669  14.584  0.1718 -0.5656 -1.0245
   67TMC2    C6 1042   1.421   2.789  14.622 -0.0149  0.4625 -0.3518
   67TMC2     C 1043   1.318   2.610  14.259 -0.3904  0.6428 -0.0998
   67TMC2     O 1044   1.390   2.514  14.227 -0.4423  0.1883  0.3550
   67TMC2     H 1045   1.228   2.843  14.356 -1.2710  0.3827  1.7451
   67TMC2    H1 1046   1.495   2.524  14.424  1.3562  0.0099  0.3771
   67TMC2    H2 1047   1.444   2.835  14.717 -0.2422  0.8099 -0.4664
   67TMC2    C7 1048   1.594   2.617  14.653 -0.3391 -0.7498  0.9519
   67TMC2    C8 1049   1.292   2.984  14.553 -1.0121 -0.4723 -0.6386
   67TMC2    O1 1050   1.665   2.547  14.581 -0.5509  0.1190  0.2155
   67TMC2    O2 1051   1.212   3.040  14.477  0.0424  0.0044  0.2732
   67TMC2    O5 1052   1.369   3.058  14.640 -0.2657  0.2798 -1.1634
   67TMC2    H5 1053   1.460   3.024  14.654 -0.5853  0.4090  1.1877
   68MPD2     C 1054   1.251   2.589  13.966  0.1450  0.3367  0.5801
   68MPD2    C1 1055   1.186   2.661  14.055  0.2317 -0.2456  0.1406
   68MPD2    C2 1056   1.072   2.724  14.020  0.6087  0.5907 -0.1772
   68MPD2    C3 1057   1.020   2.721  13.891  0.4758 -0.0532 -1.0554
   68MPD2    C4 1058   1.096   2.651  13.805  0.1355 -0.8414 -0.5167
   68MPD2    C5 1059   1.212   2.592  13.836 -0.2844  0.1449  0.1809
   68MPD2     H 1060   1.024   2.782  14.097  0.2764  0.8546 -0.5819
   68MPD2    H1 1061   1.081   2.634  13.699 -0.2155  0.4467 -0.6742
   68MPD2    H2 1062   1.338   2.527  13.986 -0.9111 -1.5351 -0.5710
   68MPD2    H3 1063   1.260   2.538  13.755 -0.4483 -1.0155  0.8432
   68MPD2     N 1064   0.891   2.773  13.855 -0.1705 -0.2965 -0.1967
   68MPD2    H5 1065   0.859   2.758  13.760 -2.4442  0.7628  0.3891
   68MPD2    N1 1066   1.215   2.675  14.189  0.1594 -0.7917  0.5132
   68MPD2    H7 1067   1.154   2.733  14.246  1.4777 -1.1233  2.2808
   69TMC2    C1 1068   3.297   4.263  12.552  0.1893 -0.7231  0.1994
   69TMC2    C2 1069   3.166   4.316  12.542 -0.3190 -0.1526 -0.2824
   69TMC2    C3 1070   3.132   4.371  12.420  0.1473  0.3164  0.9323
   69TMC2    C4 1071   3.388   4.287  12.454  0.2391 -0.4899  0.5598
   69TMC2    C5 1072   3.349   4.363  12.344 -0.3472 -0.0664  0.0397
   69TMC2    C6 1073   3.224   4.407  12.323  0.7522 -0.0628 -0.1181
   69TMC2     C 1074   3.343   4.184  12.662  0.4946  0.2159 -0.8731
   69TMC2     O 1075   3.262   4.139  12.741 -0.3451  0.0763  0.0544
   69TMC2     H 1076   3.091   4.298  12.618 -0.5073  4.0006  0.5373
   69TMC2    H1 1077   3.485   4.242  12.434  1.6985  2.8163  0.0537
   69TMC2    H2 1078   3.212   4.481  12.245  1.7627  1.0327  0.7620
   69TMC2    C7 1079   3.438   4.354  12.232 -0.0089 -0.3686  0.4435
   69TMC2    C8 1080   2.989   4.393  12.402 -0.2792 -0.1351 -0.1253
   69TMC2    O1 1081   3.558   4.357  12.269  0.0293  0.2736 -0.1337
   69TMC2    O2 1082   2.906   4.401  12.494 -0.4671  0.0766 -0.0550
   69TMC2    O5 1083   2.960   4.413  12.274  0.3604  0.2314 -0.3882
   69TMC2    H5 1084   3.023   4.370  12.213  1.4430 -0.1543  0.9923
   70MPD2     C 1085   3.702   4.154  12.760 -0.9550 -0.1103 -1.3232
   70MPD2    C1 1086   3.564   4.130  12.761  0.0647  0.0281  0.0196
   70MPD2    C2 1087   3.525   4.014  12.826  0.0555  0.1866 -0.6926
   70MPD2    C3 1088   3.617   3.935  12.900  0.3257 -0.0550  0.1895
   70MPD2    C4 1089   3.752   3.966  12.903  0.4690 -0.3116 -0.0113
   70MPD2    C5 1090   3.792   4.082  12.838 -0.0658 -0.0213 -0.5764
   70MPD2     H 1091   3.420   3.988  12.822  0.0580 -0.0862  1.0631
   70MPD2    H1 1092   3.824   3.903  12.953  0.2778 -0.1685  0.4434
   70MPD2    H2 1093   3.729   4.241  12.701 -1.3258  1.7961  1.3141
   70MPD2    H3 1094   3.897   4.109  12.835  0.0926 -0.6601 -0.7313
   70MPD2     N 1095   3.575   3.812  12.962 -0.0267  0.5094  0.4096
   70MPD2    H5 1096   3.641   3.737  12.978  0.4082  1.2797  2.1928
   70MPD2    N1 1097   3.482   4.200  12.673  0.5129 -0.9088  0.1565
   70MPD2    H7 1098   3.519   4.266  12.604 -0.9356 -1.6993 -1.3639
   71TMC2    C1 1099   0.522   0.800   1.903  0.1750  0.4369  0.6183
   71TMC2    C2 1100   0.600   0.902   1.966  0.2095 -0.7159 -0.5815
   71TMC2    C3 1101   0.540   0.966   2.071  0.1741  0.1510  0.1319
   71TMC2    C4 1102   0.413   0.736   1.964  0.1291 -0.4528  0.0386
   71TMC2    C5 1103   0.365   0.802   2.075 -0.3378 -0.4447  0.5229
   71TMC2    C6 1104   0.427   0.912   2.128 -1.3267  0.1949 -0.1282
   71TMC2     C 1105   0.575   0.736   1.784 -1.0033  0.3369 -0.0093
   71TMC2     O 1106   0.630   0.805   1.704  0.0166 -0.0688 -0.2648
   71TMC2     H 1107   0.681   0.948   1.910  0.6977 -0.2387  0.5029
   71TMC2    H1 1108   0.361   0.657   1.911  0.3409  0.5839 -1.7317
   71TMC2    H2 1109   0.367   0.970   2.198 -1.0360  1.2295 -0.7470
   71TMC2    C7 1110   0.222   0.785   2.115 -0.4473  0.8337  0.0020
   71TMC2    C8 1111   0.618   1.053   2.151 -0.2331 -0.4271 -0.7441
   71TMC2    O1 1112   0.156   0.878   2.164 -0.0509  0.3478 -0.1230
   71TMC2    O2 1113   0.558   1.135   2.219 -0.5261  0.0096  0.4371
   71TMC2    O5 1114   0.733   0.987   2.181 -0.3508 -0.2300  0.5905
   71TMC2    H5 1115   0.770   0.947   2.100  1.6357 -1.1886  1.9763
   72MPD2     C 1116   0.635   0.327   1.488 -0.4711 -0.4081  0.4976
   72MPD2    C1 1117   0.653   0.463   1.458 -0.3585 -0.7610 -0.6246
   72MPD2    C2 1118   0.633   0.553   1.561  0.1103  0.0936 -0.2780
   72MPD2    C3 1119   0.590   0.512   1.685 -0.2711  0.0043  0.5432
   72MPD2    C4 1120   0.573   0.380   1.710 -0.0718  0.4723 -0.9145
   72MPD2    C5 1121   0.591   0.289   1.612  0.1326 -0.5770  0.9726
   72MPD2     H 1122   0.652   0.657   1.540  0.4050  0.1322  0.1828
   72MPD2    H1 1123   0.546   0.338   1.806 -0.6413  0.3790 -1.1143
   72MPD2    H2 1124   0.654   0.243   1.422  1.5144  0.1875  0.3151
   72MPD2    H3 1125   0.566   0.186   1.635  0.7870 -0.8081  0.6335
   72MPD2     N 1126   0.569   0.603   1.791 -0.0206  0.2361  0.4629
   72MPD2    H5 1127   0.537   0.569   1.881 -0.2289  3.2370  1.5520
   72MPD2    N1 1128   0.715   0.510   1.345 -0.5913 -0.3725  0.1693
   72MPD2    H7 1129   0.768   0.597   1.345 -0.3246 -0.5398 -0.3835
   73TMC2    C1 1130   0.449   1.570  13.949 -0.3601  0.1055 -0.0916
   73TMC2    C2 1131   0.432   1.696  14.001  0.4431  0.0086 -0.4495
   73TMC2    C3 1132   0.512   1.727  14.115 -0.7585  0.5711  0.3817
   73TMC2    C4 1133   0.535   1.485  14.004 -0.1613  0.7772  1.1060
   73TMC2    C5 1134   0.600   1.515  14.120  0.5292  0.6194  0.2595
   73TMC2    C6 1135   0.595   1.640  14.177 -0.2054  0.8489 -0.0916
   73TMC2     C 1136   0.484   1.550  13.806  0.5507 -0.1214  0.6803
   73TMC2     O 1137   0.569   1.465  13.786  0.0720  0.0580  0.0472
   73TMC2     H 1138   0.368   1.769  13.953 -0.1082 -0.4860 -0.4614
   73TMC2    H1 1139   0.518   1.382  13.977  0.3857  1.1286 -0.6036
   73TMC2    H2 1140   0.647   1.664  14.269 -3.3707  0.0360  1.8947
   73TMC2    C7 1141   0.738   1.465  14.116 -0.4912  0.7213  0.2713
   73TMC2    C8 1142   0.487   1.847  14.194  0.1834  1.0923  0.0464
   73TMC2    O1 1143   0.806   1.499  14.209  0.7805 -0.1255  0.1521
   73TMC2    O2 1144   0.494   1.856  14.318 -0.3217  0.0762 -0.2844
   73TMC2    O5 1145   0.451   1.951  14.114 -0.3818 -0.1653 -0.5011
   73TMC2    H5 1146   0.439   1.929  14.019  0.8938 -3.7030  0.1409
   74MPD2     C 1147   0.503   1.716  13.323  0.0982 -0.0212 -0.0976
   74MPD2    C1 1148   0.568   1.611  13.386 -0.2414  0.0707 -0.0530
   74MPD2    C2 1149   0.537   1.585  13.517 -0.4220 -0.9941  0.7193
   74MPD2    C3 1150   0.448   1.658  13.594  0.3240 -0.5717  0.3844
   74MPD2    C4 1151   0.376   1.762  13.526 -0.4819  0.7579  0.2191
   74MPD2    C5 1152   0.414   1.787  13.399 -0.3731 -0.5008  0.5682
   74MPD2     H 1153   0.599   1.505  13.558  0.6142 -1.9577 -2.6886
   74MPD2    H1 1154   0.305   1.828  13.575 -0.7114 -1.0447  2.3360
   74MPD2    H2 1155   0.521   1.739  13.218  1.5355  0.7421  0.3225
   74MPD2    H3 1156   0.369   1.874  13.353  0.0673 -0.8322 -0.4907
   74MPD2     N 1157   0.425   1.650  13.731  0.0510  0.2365  0.0735
   74MPD2    H5 1158   0.355   1.703  13.781 -2.2025  0.0732 -2.8752
   74MPD2    N1 1159   0.671   1.530  13.325 -0.0931 -0.2552 -0.6319
   74MPD2    H7 1160   0.711   1.463  13.390 -0.4777 -1.6063 -1.8067
   75TMC2    C1 1161   0.687   2.883  13.876  0.4213  0.5890 -0.0751
   75TMC2    C2 1162   0.595   2.936  13.962  0.0518  0.0922  0.1276
   75TMC2    C3 1163   0.510   3.031  13.920  0.1977  0.6131  0.4602
   75TMC2    C4 1164   0.698   2.938  13.755 -0.5941 -0.1432 -0.4638
   75TMC2    C5 1165   0.612   3.037  13.712  0.2973  0.2993 -0.1004
   75TMC2    C6 1166   0.509   3.079  13.792 -0.0097  0.2717  0.4454
   75TMC2     C 1167   0.802   2.824  13.938  1.1246 -0.2992  0.1177
   75TMC2     O 1168   0.796   2.820  14.063  0.5031  0.4035  0.3918
   75TMC2     H 1169   0.583   2.884  14.056 -1.3071 -0.7862 -0.5379
   75TMC2    H1 1170   0.777   2.915  13.684  0.9067  1.2815  0.7460
   75TMC2    H2 1171   0.460   3.174  13.776  2.7272  1.4921 -0.6282
   75TMC2    C7 1172   0.619   3.073  13.564 -0.7546 -0.3698 -0.1178
   75TMC2    C8 1173   0.396   3.055  14.005 -0.3061  0.0150  0.6186
   75TMC2    O1 1174   0.657   2.981  13.495 -0.8484 -0.0492  0.2225
   75TMC2    O2 1175   0.382   3.004  14.115  0.1504  0.1235  0.1276
   75TMC2    O5 1176   0.296   3.107  13.933  0.5750 -0.2695 -0.6079
   75TMC2    H5 1177   0.295   3.100  13.835 -0.4117 -2.0607 -0.4671
   76TMC2    C1 1178   0.008   3.585  11.795  0.7970  0.5347  0.9423
   76TMC2    C2 1179   0.016   3.512  11.685  0.0366  0.5707 -0.1492
   76TMC2    C3 1180   4.731   3.376  11.703  0.6256  0.1930 -0.2582
   76TMC2    C4 1181   4.715   3.533  11.919  0.0915 -0.0188  0.2741
   76TMC2    C5 1182   4.711   3.396  11.934  1.5386 -1.0283 -0.2782
   76TMC2    C6 1183   4.710   3.318  11.825  0.1651  0.2924 -0.1768
   76TMC2     C 1184   4.706   3.723  11.776 -0.1240  0.2497  0.2979
   76TMC2     O 1185   4.636   3.744  11.675 -0.1137 -0.1921 -0.5155
   76TMC2     H 1186   0.038   3.539  11.583  0.8796 -0.9523 -0.3587
   76TMC2    H1 1187   4.701   3.607  11.997 -2.8442 -0.7234  0.4294
   76TMC2    H2 1188   4.726   3.211  11.835 -1.4851  0.1074  0.5933
   76TMC2    C7 1189   4.689   3.333  12.063 -0.3393  0.1363 -0.1265
   76TMC2    C8 1190   0.003   3.297  11.587 -0.0160  0.0325  0.0579
   76TMC2    O1 1191   4.676   3.211  12.065 -0.4446  0.0798  0.0197
   76TMC2    O2 1192   0.049   3.342  11.479 -0.3832 -0.6053 -0.1744
   76TMC2    O5 1193   4.655   3.194  11.599  0.0206 -0.2021  0.2870
   76TMC2    H5 1194   4.614   3.185  11.688  0.9962 -0.6717  0.6944
   77MPD2     C 1195   4.602   4.162  12.040 -0.2818  0.1180  0.6085
   77MPD2    C1 1196   4.533   4.104  11.932 -0.7082 -0.2397 -0.0075
   77MPD2    C2 1197   4.584   3.991  11.869 -0.1878  0.6834 -0.0477
   77MPD2    C3 1198   4.701   3.929  11.918  0.0553  0.3801 -0.2288
   77MPD2    C4 1199   0.027   3.994  12.023  0.0652 -0.1174 -0.3446
   77MPD2    C5 1200   4.720   4.110  12.086 -0.7313  0.5378 -0.8927
   77MPD2     H 1201   4.529   3.940  11.790 -0.0374  1.0490 -0.3867
   77MPD2    H1 1202   0.122   3.953  12.054  0.3128 -0.3791 -1.4704
   77MPD2    H2 1203   4.572   4.257  12.082 -1.9312 -0.3941  0.5721
   77MPD2    H3 1204   0.042   4.164  12.159  0.9409 -1.3653 -0.8513
   77MPD2     N 1205   0.019   3.805  11.873  0.0751 -0.4625  0.0021
   77MPD2    H5 1206   0.108   3.772  11.910  0.3179 -0.3821 -0.5061
   77MPD2    N1 1207   4.407   4.144  11.884 -0.3104  0.3813 -0.0648
   77MPD2    H7 1208   4.380   4.105  11.794 -2.1093 -0.9487  1.0442
   78TMC2    C1 1209   0.857   3.657   1.020  0.7959  0.2488 -0.4594
   78TMC2    C2 1210   0.785   3.758   0.965  0.6599 -0.9282 -0.3803
   78TMC2    C3 1211   0.831   3.885   0.999 -0.1245 -0.5313  0.1259
   78TMC2    C4 1212   0.967   3.677   1.091  0.0095  0.4174  0.2816
   78TMC2    C5 1213   1.005   3.809   1.121  0.1053 -0.9272 -0.4038
   78TMC2    C6 1214   0.939   3.918   1.071  0.3777 -0.3626  0.4072
   78TMC2     C 1215   0.835   3.527   0.954  0.0213  0.3280  0.2103
   78TMC2     O 1216   0.771   3.520   0.850  0.4204 -0.5168  0.0524
   78TMC2     H 1217   0.712   3.742   0.886 -0.2505 -1.1451  0.4964
   78TMC2    H1 1218   1.037   3.599   1.119 -1.1373  0.1753  2.5078
   78TMC2    H2 1219   0.962   4.020   1.100 -0.8213  0.6597 -2.3213
   78TMC2    C7 1220   1.103   3.836   1.224 -0.0270 -0.1128  0.0265
   78TMC2    C8 1221   0.733   3.997   1.022 -0.0360 -0.1149 -0.1766
   78TMC2    O1 1222   1.162   3.944   1.234 -0.1492 -0.5665 -0.1614
   78TMC2    O2 1223   0.767   4.113   1.048 -0.0922  0.3018 -0.7264
   78TMC2    O5 1224   0.610   3.944   1.016  0.2560  0.4890 -0.3771
   78TMC2    H5 1225   0.605   3.846   1.013  1.1042  0.4703 -1.4079
   79MPD1     C 1226   1.001   3.041   0.867 -0.3799  0.2357  0.0125
   79MPD1    C1 1227   0.908   3.117   0.790 -0.1285  0.4312  0.0640
   79MPD1    C2 1228   0.883   3.244   0.831  0.3621  0.1066  0.0418
   79MPD1    C3 1229   0.937   3.293   0.955  0.3950 -0.0279 -0.2446
   79MPD1    C4 1230   1.017   3.213   1.027 -0.4914  0.1501 -0.3982
   79MPD1    C5 1231   1.047   3.088   0.984 -0.3005  0.4415  0.0382
   79MPD1     H 1232   0.827   3.301   0.757 -0.4660  0.6637  1.0927
   79MPD1    H1 1233   1.070   3.252   1.114  0.8556  1.0595 -1.6347
   79MPD1    H2 1234   1.041   2.942   0.851 -1.7665 -0.4762  0.9925
   79MPD1    H3 1235   1.122   3.039   1.045  1.1204  0.8574 -1.3700
   79MPD1     N 1236   0.914   3.430   1.008  0.4808 -0.1537  0.2413
   79MPD1    H5 1237   0.968   3.453   1.091 -0.3757  3.1078 -0.1090
   79MPD1    N1 1238   0.869   3.079   0.659 -0.0295  0.2943  0.3829
   79MPD1    H6 1239   0.870   2.977   0.652 -2.3616  0.4499 -2.2964
   79MPD1    H7 1240   0.781   3.123   0.634 -0.8714 -1.2056  0.6657
   80TMC2    C1 1241   3.717   3.273  12.128 -0.3303 -0.2496  0.0415
   80TMC2    C2 1242   3.802   3.276  12.026  0.3776 -0.6026 -0.5183
   80TMC2    C3 1243   3.844   3.161  11.973 -0.1377  0.7266  0.4248
   80TMC2    C4 1244   3.681   3.157  12.193  0.6033  0.8691  0.5218
   80TMC2    C5 1245   3.733   3.041  12.141 -0.1004  0.2819  0.1304
   80TMC2    C6 1246   3.811   3.038  12.023  0.5549  0.1338 -0.5739
   80TMC2     C 1247   3.626   3.386  12.125 -0.1007 -0.2062  1.0690
   80TMC2     O 1248   3.660   3.486  12.056 -0.0815 -0.0451 -0.1424
   80TMC2     H 1249   3.836   3.367  11.979 -0.4806  0.5466  1.0678
   80TMC2    H1 1250   3.614   3.164  12.278  2.3962 -0.0528  2.0181
   80TMC2    H2 1251   3.826   2.947  11.967  2.2237 -0.1008  0.2587
   80TMC2    C7 1252   3.648   2.927  12.154 -0.3423  1.2490 -0.4175
   80TMC2    C8 1253   3.956   3.170  11.875 -0.2935 -1.0064  0.1788
   80TMC2    O1 1254   3.635   2.867  12.048  0.3405 -0.2208 -0.0319
   80TMC2    O2 1255   3.991   3.269  11.817 -0.5528  0.2983  0.4869
   80TMC2    O5 1256   4.042   3.065  11.902  0.8596  0.0169 -0.4226
   80TMC2    H5 1257   3.996   3.009  11.967  0.6206  1.2365  0.4713
   81MPD2     C 1258   3.390   3.556  12.080  0.1216  0.2712  0.3440
   81MPD2    C1 1259   3.406   3.480  12.191  0.0537  0.1967  0.8332
   81MPD2    C2 1260   3.303   3.482  12.285 -0.2872  0.2689 -0.0174
   81MPD2    C3 1261   3.198   3.574  12.275  0.0703  0.3627  0.2451
   81MPD2    C4 1262   3.188   3.650  12.159  0.4056  0.4523  0.2973
   81MPD2    C5 1263   3.285   3.638  12.064 -0.0464  0.0176 -0.5566
   81MPD2     H 1264   3.327   3.427  12.375 -1.6369 -1.7774 -0.8946
   81MPD2    H1 1265   3.125   3.738  12.159 -0.1911  0.0284 -0.2184
   81MPD2    H2 1266   3.465   3.561  12.001  1.6081 -0.6875  1.6983
   81MPD2    H3 1267   3.291   3.703  11.977  1.6278  0.3839 -0.1744
   81MPD2     N 1268   3.106   3.605  12.377  0.2242 -0.3241  0.7347
   81MPD2    H5 1269   3.028   3.664  12.352 -0.2941 -0.6778  1.5297
   81MPD2    N1 1270   3.509   3.379  12.196  0.0798  1.2623  0.2444
   81MPD2    H7 1271   3.511   3.318  12.277  2.6052  0.8581 -0.1191
   82TMC2    C1 1272   1.636   2.936  11.410 -0.8043 -0.6986 -0.2299
   82TMC2    C2 1273   1.756   2.993  11.389  0.6620 -0.4844 -0.1028
   82TMC2    C3 1274   1.859   2.945  11.465 -0.4670 -0.6084  0.1531
   82TMC2    C4 1275   1.604   2.853  11.509  0.3147 -0.4248  0.5308
   82TMC2    C5 1276   1.707   2.817  11.588  0.2625  0.0315 -0.0332
   82TMC2    C6 1277   1.840   2.851  11.563  0.1106  0.3207  0.2524
   82TMC2     C 1278   1.539   2.937  11.293  0.0330  0.3634 -0.3243
   82TMC2     O 1279   1.421   2.952  11.325 -0.2550 -0.1286 -0.0850
   82TMC2     H 1280   1.764   3.077  11.320 -1.8112  0.2946  0.5991
   82TMC2    H1 1281   1.502   2.823  11.531  0.5042 -0.8790  0.8042
   82TMC2    H2 1282   1.919   2.829  11.633  0.3756 -0.6829 -0.3687
   82TMC2    C7 1283   1.686   2.721  11.692  0.0009  0.3688 -0.2388
   82TMC2    C8 1284   1.973   3.031  11.473 -0.6348  0.7082  0.3651
   82TMC2    O1 1285   1.578   2.671  11.713  0.4265  0.4679 -0.2975
   82TMC2    O2 1286   2.043   3.050  11.573 -0.3834 -0.2479  0.0007
   82TMC2    O5 1287   2.001   3.077  11.355  0.2074 -0.0068 -0.3455
   82TMC2    H5 1288   1.949   3.044  11.278  0.2679  0.8292 -0.7498
   83MPD2     C 1289   1.433   2.790  10.801 -0.1511  0.0213  0.1181
   83MPD2    C1 1290   1.363   2.878  10.894  0.0749 -0.6717 -0.6270
   83MPD2    C2 1291   1.419   2.912  11.016 -0.3371 -0.6216  0.5354
   83MPD2    C3 1292   1.535   2.851  11.061 -0.1852  0.9866  0.2303
   83MPD2    C4 1293   1.598   2.758  10.973  0.4952  0.1338 -0.1727
   83MPD2    C5 1294   1.552   2.740  10.843 -0.1967  0.3851  0.0004
   83MPD2     H 1295   1.369   2.980  11.084  0.5700  1.7725 -1.1914
   83MPD2    H1 1296   1.692   2.708  10.993  0.0787 -0.1403  1.1139
   83MPD2    H2 1297   1.381   2.763  10.709  0.0312  0.3926 -0.0956
   83MPD2    H3 1298   1.608   2.659  10.797  1.4602  0.5284  1.7213
   83MPD2     N 1299   1.601   2.885  11.183  0.5410 -0.2620  0.3960
   83MPD2    H5 1300   1.695   2.848  11.198  0.4966 -0.1206  1.0360
   83MPD2    N1 1301   1.238   2.917  10.847  0.2577 -0.6933 -0.3731
   83MPD2    H7 1302   1.204   2.892  10.754  1.0286  0.9598 -1.0974
   84TMC2    C1 1303   2.601   1.659  11.272 -0.7135  0.2554 -0.0351
   84TMC2    C2 1304   2.696   1.737  11.319  0.1917 -0.0132  0.5809
   84TMC2    C3 1305   2.823   1.726  11.260 -0.0942 -0.6218 -1.0793
   84TMC2    C4 1306   2.613   1.579  11.166 -0.8639 -0.3982 -1.2219
   84TMC2    C5 1307   2.733   1.576  11.106  0.7924  0.4157  0.1226
   84TMC2    C6 1308   2.844   1.648  11.149 -0.1694 -0.1727 -0.4655
   84TMC2     C 1309   2.474   1.655  11.344  0.1073  0.2119 -0.0020
   84TMC2     O 1310   2.396   1.559  11.330  0.4123  0.2312 -0.1000
   84TMC2     H 1311   2.686   1.803  11.404  0.0315  0.5472  0.1239
   84TMC2    H1 1312   2.532   1.514  11.133 -0.3763 -1.5050 -0.2359
   84TMC2    H2 1313   2.936   1.667  11.095  1.2431 -1.3201  1.5351
   84TMC2    C7 1314   2.746   1.524  10.969  0.7675 -0.3342  0.1349
   84TMC2    C8 1315   2.930   1.811  11.310 -0.4493  0.1365  0.5940
   84TMC2    O1 1316   2.652   1.518  10.893  0.1447  0.2708 -0.2434
   84TMC2    O2 1317   3.033   1.834  11.252 -0.2344  0.3099  0.3389
   84TMC2    O5 1318   2.924   1.794  11.444 -0.8111  0.6580 -0.3431
   84TMC2    H5 1319   2.862   1.729  11.484  0.1025  1.1990  1.9912
   85TMC2    C1 1320   3.556   4.712  16.288 -0.3986  0.1322 -0.0851
   85TMC2    C2 1321   3.644   0.046  16.363  0.5830 -0.2675 -0.2311
   85TMC2    C3 1322   3.699   0.153  16.296  0.6802  0.4839  0.6361
   85TMC2    C4 1323   3.517   0.007  16.158  0.1837 -0.0569 -0.4957
   85TMC2    C5 1324   3.580   0.106  16.099  0.4185  0.1442 -0.9274
   85TMC2    C6 1325   3.668   0.185  16.165 -0.8120 -0.8411  0.1614
   85TMC2     C 1326   3.496   4.603  16.363  0.4726  0.0388 -0.4486
   85TMC2     O 1327   3.482   4.612  16.483 -0.4018 -0.3428 -0.1312
   85TMC2     H 1328   3.667   0.018  16.465  0.9620 -0.5721 -0.3988
   85TMC2    H1 1329   3.445   4.685  16.104  0.6112 -0.3447 -0.7547
   85TMC2    H2 1330   3.731   0.252  16.108 -0.3050 -2.4682 -1.1866
   85TMC2    C7 1331   3.546   0.126  15.959 -0.4266  0.1180  0.3545
   85TMC2    C8 1332   3.833   0.195  16.340  0.5636 -0.2038  0.2021
   85TMC2    O1 1333   3.475   0.049  15.896 -0.2938 -0.4645 -0.4178
   85TMC2    O2 1334   3.897   0.127  16.424  0.0702  0.7136  0.2805
   85TMC2    O5 1335   3.827   0.330  16.313 -0.0526 -0.0231  0.4037
   85TMC2    H5 1336   3.748   0.360  16.264 -0.8649  0.1092  1.8048
   86MPD2     C 1337   3.386   4.115  16.453  0.2055 -0.0828  0.4063
   86MPD2    C1 1338   3.349   4.137  16.329  0.3762  0.1632  0.3358
   86MPD2    C2 1339   3.376   4.257  16.268  0.2425 -0.0893  0.3361
   86MPD2    C3 1340   3.448   4.358  16.337 -0.3457 -0.2007  0.6486
   86MPD2    C4 1341   3.478   4.333  16.468  0.1552 -0.3724 -0.1712
   86MPD2    C5 1342   3.447   4.212  16.526 -0.4825 -0.9776  0.1250
   86MPD2     H 1343   3.343   4.266  16.165  0.7251  0.2277  0.2125
   86MPD2    H1 1344   3.526   4.400  16.538  2.1420 -1.6615 -0.3019
   86MPD2    H2 1345   3.381   4.021  16.508  2.5337 -0.3352  0.1859
   86MPD2    H3 1346   3.468   4.205  16.632  0.5820  0.3551  0.0132
   86MPD2     N 1347   3.487   4.487  16.286  0.5696  0.0402 -0.4104
   86MPD2    H5 1348   3.491   4.496  16.185  0.5573 -1.4342 -0.5438
   86MPD2    N1 1349   3.269   4.044  16.256  0.4463 -0.1750  1.0240
   86MPD2    H7 1350   3.227   4.077  16.170  2.1513 -1.9467 -0.4736
   87TMC2    C1 1351   0.454   2.869   0.692 -0.5119  0.5998  0.6495
   87TMC2    C2 1352   0.506   2.960   0.783  0.7108 -0.2797 -0.0495
   87TMC2    C3 1353   0.409   3.039   0.829 -0.1145  0.7989 -0.2124
   87TMC2    C4 1354   0.328   2.847   0.654  0.2352 -0.3068  0.4668
   87TMC2    C5 1355   0.239   2.927   0.719 -0.3063 -0.1316  0.0020
   87TMC2    C6 1356   0.278   3.026   0.802 -0.1026 -0.0217  0.4839
   87TMC2     C 1357   0.552   2.770   0.648 -0.6422 -0.0975 -0.4293
   87TMC2     O 1358   0.672   2.797   0.664  0.1637 -0.0399 -0.0316
   87TMC2     H 1359   0.609   2.978   0.812  0.5048  2.2848 -0.8535
   87TMC2    H1 1360   0.296   2.792   0.567 -1.3667  0.3588  0.6379
   87TMC2    H2 1361   0.206   3.080   0.862  0.5058 -0.8389  1.9529
   87TMC2    C7 1362   0.107   2.936   0.663  0.2051 -1.2951 -0.2425
   87TMC2    C8 1363   0.454   3.153   0.906  0.6865  0.2862  0.4522
   87TMC2    O1 1364   0.052   3.043   0.685 -0.1486 -0.5749 -0.1767
   87TMC2    O2 1365   0.537   3.146   0.991 -0.4814  0.3374  0.4131
   87TMC2    O5 1366   0.356   3.247   0.902  0.7629  0.2985 -0.0407
   87TMC2    H5 1367   0.320   3.242   0.811  0.0954  0.1175  0.2279
   88MPD2     C 1368   4.694   2.727   0.394 -0.1086 -0.3625  0.5155
   88MPD2    C1 1369   4.715   2.843   0.467  0.8393  0.4653  0.5726
   88MPD2    C2 1370   4.659   2.964   0.427 -0.2200  0.4818  0.1027
   88MPD2    C3 1371   4.571   2.954   0.319 -0.1239  0.3121  0.1314
   88MPD2    C4 1372   4.555   2.838   0.242 -0.2374 -0.5084 -0.2208
   88MPD2    C5 1373   4.617   2.721   0.280  0.0191  0.4525 -0.4212
   88MPD2     H 1374   4.661   3.061   0.474  1.3431  0.2375  0.5240
   88MPD2    H1 1375   4.511   2.825   0.143  1.6703 -2.0256 -0.8628
   88MPD2    H2 1376   4.730   2.629   0.422 -2.1463 -1.9126 -2.2648
   88MPD2    H3 1377   4.607   2.624   0.233  0.1956 -0.7297  1.9510
   88MPD2     N 1378   4.519   3.079   0.269  0.0054 -0.3475 -0.3538
   88MPD2    H5 1379   4.444   3.076   0.200  1.7444 -0.9987 -2.2076
   88MPD2    N1 1380   0.073   2.833   0.573  0.3394 -0.1352 -0.2139
   88MPD2    H7 1381   0.123   2.745   0.578  0.4361 -0.0229  0.8925
   89TMC2    C1 1382   1.353   2.279   1.744 -0.2897 -0.3372 -0.4014
   89TMC2    C2 1383   1.436   2.383   1.740  0.1705 -0.3416  0.1188
   89TMC2    C3 1384   1.502   2.413   1.619  0.1565 -1.0632  0.2868
   89TMC2    C4 1385   1.314   2.214   1.628  0.3188 -0.0968  0.0608
   89TMC2    C5 1386   1.381   2.252   1.515 -0.0426  0.3533  0.0571
   89TMC2    C6 1387   1.469   2.357   1.498  0.5001 -0.8565 -0.1041
   89TMC2     C 1388   1.273   2.267   1.863 -0.2957  0.1527 -0.4463
   89TMC2     O 1389   1.310   2.318   1.967 -0.5741 -0.3117 -0.3708
   89TMC2     H 1390   1.470   2.437   1.827 -1.5376 -1.2681  1.3516
   89TMC2    H1 1391   1.288   2.111   1.647  1.6242 -0.2819  0.8405
   89TMC2    H2 1392   1.501   2.384   1.398 -0.1241 -0.5025 -0.2115
   89TMC2    C7 1393   1.383   2.143   1.415  0.6773  0.6537 -0.0559
   89TMC2    C8 1394   1.597   2.523   1.624 -0.0680  0.2793  0.0123
   89TMC2    O1 1395   1.289   2.068   1.416 -0.3561 -0.1564 -0.6125
   89TMC2    O2 1396   1.616   2.590   1.723  0.0699  0.3953 -0.5164
   89TMC2    O5 1397   1.699   2.484   1.543  0.3247 -0.0501  0.4878
   89TMC2    H5 1398   1.687   2.405   1.486  0.3522  0.2388  0.0831
   90MPD2     C 1399   0.800   2.178   2.046  0.3811 -0.1267  0.4507
   90MPD2    C1 1400   0.801   2.128   1.918  0.7971  0.2150 -0.6272
   90MPD2    C2 1401   0.914   2.146   1.836  0.0028 -0.0151 -0.6167
   90MPD2    C3 1402   1.023   2.218   1.886 -0.2492 -0.1201  0.0617
   90MPD2    C4 1403   1.019   2.267   2.018  0.4335  0.2013  0.0474
   90MPD2    C5 1404   0.909   2.242   2.093  0.4342  0.0631  0.8466
   90MPD2     H 1405   0.913   2.111   1.733  0.1613 -3.4332  0.5734
   90MPD2    H1 1406   1.098   2.326   2.064  0.3150  0.3533  0.0553
   90MPD2    H2 1407   0.717   2.153   2.112 -0.9557 -0.8628 -1.5334
   90MPD2    H3 1408   0.906   2.269   2.198  0.9922 -0.5836  1.0283
   90MPD2     N 1409   1.144   2.229   1.815 -0.3277  0.1285 -0.2196
   90MPD2    H5 1410   1.140   2.181   1.725 -2.3922 -0.9328  0.4367
   90MPD2    N1 1411   0.696   2.057   1.873 -0.4103 -0.1849 -0.6395
   90MPD2    H7 1412   0.711   2.004   1.787 -1.0656 -4.0504  1.6511
   91TMC2    C1 1413   3.296   0.232  16.540  0.1073  0.3231 -0.6024
   91TMC2    C2 1414   3.323   0.247  16.412 -0.0610 -0.2472  0.3027
   91TMC2    C3 1415   3.219   0.234  16.328  0.3433 -0.3566 -0.4377
   91TMC2    C4 1416   3.182   0.164  16.583  0.4692 -0.1987  0.2224
   91TMC2    C5 1417   3.089   0.127  16.488  0.1282  0.4621 -0.4457
   91TMC2    C6 1418   3.104   0.168  16.359  0.0796  0.6387 -0.7767
   91TMC2     C 1419   3.412   0.240  16.635 -0.4582 -0.7803 -0.0949
   91TMC2     O 1420   3.407   0.171  16.736 -0.0141 -0.1252 -0.0141
   91TMC2     H 1421   3.425   0.260  16.380  0.1430 -0.1163  1.0152
   91TMC2    H1 1422   3.163   0.151  16.689  1.0421  1.8374  0.5678
   91TMC2    H2 1423   3.030   0.135  16.287  1.6365 -2.3746 -0.9939
   91TMC2    C7 1424   2.954   0.097  16.536 -0.1154 -0.1347 -0.3434
   91TMC2    C8 1425   3.239   0.258  16.193 -0.2962  0.6685 -0.5681
   91TMC2    O1 1426   2.940   0.071  16.653 -0.0372  0.3124 -0.3388
   91TMC2    O2 1427   3.349   0.276  16.145  0.2954  0.0138  0.0026
   91TMC2    O5 1428   3.132   0.332  16.153  0.2594  0.0249  0.2316
   91TMC2    H5 1429   3.055   0.314  16.212  0.9217 -2.0956  0.4473
   92MPD2     C 1430   3.687   0.295  16.760 -0.5999  0.4550  0.4651
   92MPD2    C1 1431   3.637   0.361  16.648 -0.4965 -0.4048  0.2002
   92MPD2    C2 1432   3.726   0.451  16.586 -0.3709 -0.3509  0.0226
   92MPD2    C3 1433   3.861   0.461  16.617 -0.1370 -0.4040  0.4960
   92MPD2    C4 1434   3.910   0.390  16.725  0.2776 -0.2242  0.2597
   92MPD2    C5 1435   3.824   0.300  16.788  0.0834 -0.1894  0.1244
   92MPD2     H 1436   3.691   0.508  16.501  0.9612  0.3034 -0.1046
   92MPD2    H1 1437   4.013   0.376  16.754 -0.6580 -1.0463  3.2032
   92MPD2    H2 1438   3.620   0.227  16.811 -1.2675  1.3363  0.7579
   92MPD2    H3 1439   3.852   0.234  16.869 -1.9294 -0.0716  0.9215
   92MPD2     N 1440   3.936   0.543  16.531 -0.0245  0.1108 -0.0263
   92MPD2    H5 1441   3.875   0.595  16.468  0.8558  0.8693 -0.2679
   92MPD2    N1 1442   3.509   0.330  16.596  0.0470 -0.4723  0.2936
   92MPD2    H7 1443   3.476   0.387  16.519 -0.0548 -1.6072 -0.4896
   93TMC2    C1 1444   0.703   1.067  13.948  0.8211  0.1236 -0.5607
   93TMC2    C2 1445   0.651   1.055  14.075 -0.1666 -0.2875  0.4737
   93TMC2    C3 1446   0.738   1.040  14.179 -0.6748  0.1340 -0.5166
   93TMC2    C4 1447   0.837   1.040  13.923  0.5627  0.6664  0.6488
   93TMC2    C5 1448   0.925   1.028  14.031  0.8431  0.5932  0.2101
   93TMC2    C6 1449   0.875   1.029  14.160  0.1368 -0.0918 -0.5529
   93TMC2     C 1450   0.615   1.108  13.832  0.2902 -0.0742 -0.1839
   93TMC2     O 1451   0.666   1.132  13.725  0.3201 -0.8085  0.6190
   93TMC2     H 1452   0.545   1.070  14.090 -0.4058 -1.1769 -0.3361
   93TMC2    H1 1453   0.863   1.062  13.820  1.6299  3.3989  1.4966
   93TMC2    H2 1454   0.942   1.016  14.245 -0.9697 -0.7808  0.2155
   93TMC2    C7 1455   1.068   1.010  14.017 -0.4183  0.1992 -0.2914
   93TMC2    C8 1456   0.691   1.047  14.317  0.0567  0.7252 -1.0287
   93TMC2    O1 1457   1.127   0.960  14.112 -0.0964 -0.0190  0.1623
   93TMC2    O2 1458   0.754   1.102  14.405  0.4351  0.3401  0.1622
   93TMC2    O5 1459   0.569   0.993  14.321 -0.1779  0.3959 -0.3705
   93TMC2    H5 1460   0.549   0.946  14.237 -0.0172  0.7662 -0.6201
   94MPD2     C 1461   0.387   1.222  13.659 -0.5029 -0.6571  0.0902
   94MPD2    C1 1462   0.376   1.155  13.782  0.0959 -0.4178  0.3960
   94MPD2    C2 1463   0.251   1.153  13.835  0.4155 -0.9221  0.4804
   94MPD2    C3 1464   0.147   1.221  13.774 -0.7396 -0.1190 -0.0180
   94MPD2    C4 1465   0.163   1.291  13.664  0.4804  0.7049  0.1698
   94MPD2    C5 1466   0.285   1.292  13.607  0.7942  0.8190 -0.3764
   94MPD2     H 1467   0.238   1.095  13.926  1.7757 -0.7414  0.7871
   94MPD2    H1 1468   0.088   1.349  13.611 -0.8729 -0.7232  0.5271
   94MPD2    H2 1469   0.473   1.213  13.594 -2.2035  0.5429 -2.3439
   94MPD2    H3 1470   0.300   1.339  13.510  1.7164 -1.6956 -1.4699
   94MPD2     N 1471   0.018   1.218  13.823  0.3102 -0.0747 -0.6634
   94MPD2    H5 1472   4.683   1.263  13.768  1.3209 -0.3206 -2.2049
   94MPD2    N1 1473   0.478   1.103  13.861 -0.1779  0.1291 -0.0392
   94MPD2    H7 1474   0.446   1.082  13.955  1.2030  3.6049  1.2132
   95TMC2    C1 1475   0.379   2.715  16.258  0.9631 -0.5321  0.7314
   95TMC2    C2 1476   0.423   2.820  16.336 -0.2587 -0.6296  0.3760
   95TMC2    C3 1477   0.354   2.836  16.453 -0.4901  0.5216  0.2462
   95TMC2    C4 1478   0.265   2.647  16.284  0.0467  0.3523  0.2793
   95TMC2    C5 1479   0.197   2.681  16.394  0.8062 -0.2540  0.9894
   95TMC2    C6 1480   0.245   2.765  16.487  0.1930 -0.0776  0.3517
   95TMC2     C 1481   0.456   2.690  16.140  0.2655  0.1957 -0.1512
   95TMC2     O 1482   0.553   2.760  16.129  0.8423  0.0603 -0.3761
   95TMC2     H 1483   0.499   2.885  16.294  0.0881 -1.0972  0.2799
   95TMC2    H1 1484   0.217   2.582  16.213  0.5298 -0.7847  0.9880
   95TMC2    H2 1485   0.196   2.771  16.583 -1.4974 -0.3916 -0.5019
   95TMC2    C7 1486   0.078   2.608  16.429 -0.3383 -0.3958 -0.3235
   95TMC2    C8 1487   0.385   2.949  16.528  0.3559  0.7773  0.4203
   95TMC2    O1 1488   0.065   2.500  16.375  0.3634 -0.0962 -0.0437
   95TMC2    O2 1489   0.312   2.995  16.609  0.4066  0.0576 -0.2007
   95TMC2    O5 1490   0.522   2.966  16.534 -0.0087  0.4166  0.0184
   95TMC2    H5 1491   0.580   2.899  16.492 -1.7767 -0.1194 -1.5754
   96MPD2     C 1492   0.531   2.472  15.668 -0.0516  0.0825  0.1684
   96MPD2    C1 1493   0.608   2.562  15.743  0.0924 -0.1711  0.5499
   96MPD2    C2 1494   0.577   2.603  15.872 -0.1499  0.3068  0.0425
   96MPD2    C3 1495   0.468   2.547  15.936  0.0233 -0.0784  0.2671
   96MPD2    C4 1496   0.391   2.466  15.861  0.7743  0.7580  0.5048
   96MPD2    C5 1497   0.420   2.420  15.731  0.7209 -0.3929 -0.3109
   96MPD2     H 1498   0.640   2.669  15.930 -0.5457  2.4695 -1.9748
   96MPD2    H1 1499   0.303   2.428  15.911  1.5395 -2.1890 -0.3638
   96MPD2    H2 1500   0.549   2.441  15.566 -0.9044  1.3089 -0.3478
   96MPD2    H3 1501   0.353   2.356  15.674  0.8977 -0.3021 -0.6202
   96MPD2     N 1502   0.418   2.585  16.066 -0.2805 -0.7469  0.3207
   96MPD2    H5 1503   0.330   2.542  16.094 -1.7324  2.4711  0.6030
   96MPD2    N1 1504   0.734   2.596  15.680  0.3113  0.1513 -0.3799
   96MPD2    H7 1505   0.755   2.548  15.592  0.2554  0.6125 -0.6459
   97TMC2    C1 1506   2.262   0.082   1.005  0.2642  0.3642  0.1796
   97TMC2    C2 1507   2.302   4.696   0.952  0.5011 -0.4977  0.0203
   97TMC2    C3 1508   2.350   4.704   0.824  0.2149 -0.2645 -0.6485
   97TMC2    C4 1509   2.266   0.199   0.934  0.7676  0.1601 -0.6797
   97TMC2    C5 1510   2.303   0.193   0.800  0.2622 -0.0875 -0.0427
   97TMC2    C6 1511   2.333   0.075   0.743  0.2734 -0.8961  0.1165
   97TMC2     C 1512   2.213   0.087   1.141 -0.4006 -0.1649 -0.1298
   97TMC2     O 1513   2.210   0.191   1.199 -0.3790 -0.1979 -0.2838
   97TMC2     H 1514   2.301   4.607   1.013 -1.2406  0.4656  1.4202
   97TMC2    H1 1515   2.235   0.288   0.987  1.6395  0.0509  0.0120
   97TMC2    H2 1516   2.376   0.067   0.644  0.7633  0.3718  0.2256
   97TMC2    C7 1517   2.347   0.318   0.740 -0.0783  0.0392 -0.6714
   97TMC2    C8 1518   2.391   4.580   0.758 -0.4118 -0.3349  0.0579
   97TMC2    O1 1519   2.426   0.325   0.649  0.3031 -0.0529  0.0397
   97TMC2    O2 1520   2.353   4.550   0.645 -0.1225  0.1052 -0.3882
   97TMC2    O5 1521   2.441   4.490   0.846  0.2529 -0.0517 -0.4604
   97TMC2    H5 1522   2.488   4.543   0.914 -0.0314  1.5930 -1.5356
   98MPD2     C 1523   1.995   4.605   1.549  0.2969  0.7060 -0.0935
   98MPD2    C1 1524   2.057   4.727   1.539 -0.0980  0.1669 -0.6120
   98MPD2    C2 1525   2.122   0.028   1.422 -0.4011 -0.1280  0.1373
   98MPD2    C3 1526   2.103   4.686   1.311 -0.3187 -0.2107 -0.5862
   98MPD2    C4 1527   2.017   4.586   1.314 -0.8010  0.0583 -0.0665
   98MPD2    C5 1528   1.960   4.544   1.427 -0.1377 -0.1808 -0.5180
   98MPD2     H 1529   2.184   0.117   1.415 -1.2205  0.1641 -3.4232
   98MPD2    H1 1530   1.990   4.531   1.224 -2.7528 -0.2863  0.7442
   98MPD2    H2 1531   1.940   4.567   1.634  2.6205 -1.9266  0.2117
   98MPD2    H3 1532   1.915   4.446   1.435 -0.2617 -0.1165 -0.4302
   98MPD2     N 1533   2.164   4.707   1.189  0.4294 -0.5926 -0.1691
   98MPD2    H5 1534   2.142   4.640   1.116 -1.4414 -0.6771  0.4627
   98MPD2    N1 1535   2.067   0.070   1.660  0.4355 -0.1538 -0.3066
   98MPD2    H7 1536   2.052   0.029   1.752 -1.0234  2.0735  0.4339
   99TMC2    C1 1537   1.294   2.840   1.631 -0.2533 -0.1702  0.1468
   99TMC2    C2 1538   1.361   2.868   1.749 -0.0697 -0.4216 -0.0046
   99TMC2    C3 1539   1.283   2.904   1.855  0.0678 -0.4947  0.2522
   99TMC2    C4 1540   1.156   2.853   1.620  0.7663  0.2962  0.0891
   99TMC2    C5 1541   1.087   2.893   1.732  0.1341  0.6538 -0.3839
   99TMC2    C6 1542   1.153   2.926   1.848 -0.1996  0.4116  0.7898
   99TMC2     C 1543   1.384   2.794   1.521  0.4887  0.3957  0.6762
   99TMC2     O 1544   1.497   2.849   1.526  0.1381 -0.4428  0.3752
   99TMC2     H 1545   1.466   2.845   1.764  0.5442  3.5884  1.9382
   99TMC2    H1 1546   1.114   2.862   1.520  1.9799 -1.2199 -0.5525
   99TMC2    H2 1547   1.102   2.981   1.927  1.2824  2.7123  0.1719
   99TMC2    C7 1548   0.944   2.893   1.728  0.6120  0.2780 -0.5316
   99TMC2    C8 1549   1.361   2.954   1.968 -0.0083  0.3279 -0.3006
   99TMC2    O1 1550   0.877   2.951   1.817 -0.5535  0.4126 -0.5908
   99TMC2    O2 1551   1.474   2.996   1.953 -0.1098 -0.3844 -1.0992
   99TMC2    O5 1552   1.307   2.906   2.077  0.1307 -0.5073 -0.0732
   99TMC2    H5 1553   1.225   2.858   2.052  0.1409 -0.5355 -0.0523
  100MPD2     C 1554   1.518   2.678   1.293 -0.3394  0.2517  0.5918
  100MPD2    C1 1555   1.397   2.644   1.332 -0.5974  0.1783  0.5259
  100MPD2    C2 1556   1.334   2.545   1.257  0.6168 -0.5823  0.0915
  100MPD2    C3 1557   1.394   2.483   1.149  0.5335  0.3799  0.1106
  100MPD2    C4 1558   1.519   2.514   1.115 -0.1171  0.8143 -0.0253
  100MPD2    C5 1559   1.580   2.608   1.190 -0.2695 -0.7228 -0.3738
  100MPD2     H 1560   1.233   2.525   1.290  0.4656 -0.9250 -0.5752
  100MPD2    H1 1561   1.572   2.464   1.034  0.3919 -0.6513  1.2148
  100MPD2    H2 1562   1.579   2.759   1.332 -0.9532  0.9453  0.1149
  100MPD2    H3 1563   1.676   2.647   1.159 -0.0144 -0.5142  0.7045
  100MPD2     N 1564   1.319   2.383   1.082  0.1238  0.0873 -0.2077
  100MPD2    H5 1565   1.224   2.369   1.115  0.9013 -1.6710  1.2803
  100MPD2    N1 1566   1.326   2.703   1.436 -0.2165  0.3011  0.4265
  100MPD2    H7 1567   1.230   2.671   1.448  1.4674 -4.1237  2.3863
  101TMC2    C1 1568   2.214   3.391  13.507 -0.0977  0.6666  0.2186
  101TMC2    C2 1569   2.216   3.431  13.642 -0.1617  0.3842 -0.0067
  101TMC2    C3 1570   2.285   3.549  13.656  0.8865  0.3216 -0.1391
  101TMC2    C4 1571   2.273   3.460  13.399  0.0828  0.4640 -0.1318
  101TMC2    C5 1572   2.333   3.577  13.427 -0.1297 -0.2511 -0.0255
  101TMC2    C6 1573   2.339   3.617  13.554 -0.3399  0.5451 -0.4794
  101TMC2     C 1574   2.155   3.255  13.477  0.3441 -0.0887 -0.0147
  101TMC2     O 1575   2.065   3.209  13.550 -0.6153  0.2445  0.1575
  101TMC2     H 1576   2.178   3.370  13.723 -2.1548  2.2105  0.4394
  101TMC2    H1 1577   2.278   3.427  13.296  1.1783  0.4331 -0.0641
  101TMC2    H2 1578   2.389   3.711  13.574 -0.8891  0.6429  0.4357
  101TMC2    C7 1579   2.364   3.668  13.313  0.8126  0.2841  0.8666
  101TMC2    C8 1580   2.283   3.615  13.783 -0.4064 -0.6085  0.3430
  101TMC2    O1 1581   2.397   3.621  13.206  0.4830  0.3234 -0.3963
  101TMC2    O2 1582   2.199   3.606  13.872 -0.6116 -0.4202  0.4347
  101TMC2    O5 1583   2.407   3.661  13.807  0.1494  0.1265  0.3698
  101TMC2    H5 1584   2.463   3.614  13.742 -1.1059 -0.4695 -0.2896
  102MPD2     C 1585   2.259   2.983  13.239  0.8022 -0.5277 -0.1217
  102MPD2    C1 1586   2.179   3.046  13.330 -0.2105 -0.0225 -0.3280
  102MPD2    C2 1587   2.055   2.994  13.364  0.0548 -0.5495 -0.1378
  102MPD2    C3 1588   2.016   2.880  13.299  0.1020  0.5337  0.8393
  102MPD2    C4 1589   2.100   2.806  13.213 -0.0697 -0.4643 -0.2045
  102MPD2    C5 1590   2.214   2.866  13.183 -0.0382  0.4502 -0.6312
  102MPD2     H 1591   1.976   3.038  13.423  0.8217  0.9857 -0.2357
  102MPD2    H1 1592   2.084   2.713  13.160 -3.2721 -1.7019  2.9338
  102MPD2    H2 1593   2.345   3.030  13.194  2.2701 -4.3710 -1.3127
  102MPD2    H3 1594   2.274   2.812  13.110 -1.1201 -0.3709 -0.9097
  102MPD2     N 1595   1.899   2.828  13.349 -0.3176  0.3552  0.5035
  102MPD2    H5 1596   1.844   2.882  13.415 -0.0017 -1.9658  2.6386
  102MPD2    N1 1597   2.214   3.179  13.373  0.4406 -0.1265  0.5411
  102MPD2    H7 1598   2.298   3.215  13.330  1.4333  0.7083  3.1544
  103TMC2    C1 1599   0.278   3.523  12.778 -0.7468 -0.1550 -0.2788
  103TMC2    C2 1600   0.406   3.528  12.791  0.2684 -0.4240  0.8450
  103TMC2    C3 1601   0.452   3.589  12.908  0.7015 -0.0772  0.4263
  103TMC2    C4 1602   0.186   3.553  12.875 -0.4066  0.0278 -0.1308
  103TMC2    C5 1603   0.236   3.597  12.995  0.1910  0.0475 -0.4624
  103TMC2    C6 1604   0.368   3.619  13.014  0.1947  0.4007  0.6322
  103TMC2     C 1605   0.217   3.502  12.643  0.0155  0.1536  0.1864
  103TMC2     O 1606   0.288   3.540  12.548 -0.5234 -0.3362  0.6825
  103TMC2     H 1607   0.474   3.496  12.713  1.1673 -0.8350  1.8008
  103TMC2    H1 1608   0.084   3.523  12.855 -0.2000  0.3850 -1.7643
  103TMC2    H2 1609   0.407   3.666  13.103  0.0995 -2.0577  1.9860
  103TMC2    C7 1610   0.156   3.692  13.050 -0.4175  0.3820 -0.5528
  103TMC2    C8 1611   0.587   3.645  12.917  0.0117 -0.3078 -0.3132
  103TMC2    O1 1612   0.105   3.773  12.973 -0.2697 -0.0979  0.0113
  103TMC2    O2 1613   0.620   3.693  13.028  0.1140 -0.2274 -0.3252
  103TMC2    O5 1614   0.621   3.698  12.796  0.7507  0.4118 -0.5833
  103TMC2    H5 1615   0.575   3.650  12.724  1.3812  0.3484 -0.9443
  104MPD2     C 1616   4.659   3.303  12.563  0.5672 -0.1055 -0.0793
  104MPD2    C1 1617   0.018   3.396  12.537 -0.3240 -0.0156  0.8129
  104MPD2    C2 1618   0.042   3.442  12.407 -0.4374 -0.3037  0.2876
  104MPD2    C3 1619   4.701   3.387  12.301  0.2948  0.1745 -0.3255
  104MPD2    C4 1620   4.613   3.284  12.337 -0.2750 -0.3401 -0.2243
  104MPD2    C5 1621   4.592   3.248  12.467  0.1879  0.1769 -0.0584
  104MPD2     H 1622   0.125   3.508  12.385  0.0795 -1.1831 -0.4353
  104MPD2    H1 1623   4.550   3.238  12.262 -0.8539  2.1893 -1.2621
  104MPD2    H2 1624   4.662   3.247  12.655  4.3665  0.6622  0.2786
  104MPD2    H3 1625   4.545   3.151  12.482  2.0998 -0.7329  0.1308
  104MPD2     N 1626   4.723   3.416  12.169 -0.5951 -0.1560 -0.3266
  104MPD2    H5 1627   0.038   3.501  12.151 -0.3930 -0.0783  0.6593
  104MPD2    N1 1628   0.102   3.428  12.649  0.2498  0.4470  0.1777
  104MPD2    H7 1629   0.089   3.379  12.737 -0.1920 -0.9197 -0.6509
  105TMC2    C1 1630   1.226   2.394   0.071  1.0146  0.3983 -0.6695
  105TMC2    C2 1631   1.197   2.514   0.018 -0.6538  0.1100 -1.2781
  105TMC2    C3 1632   1.117   2.608   0.072  0.3244  0.4643 -0.0429
  105TMC2    C4 1633   1.159   2.356   0.182  0.0387  0.5068  0.2648
  105TMC2    C5 1634   1.062   2.443   0.228 -0.9790  0.0361  0.2957
  105TMC2    C6 1635   1.045   2.574   0.180  0.1484 -0.2852 -0.0107
  105TMC2     C 1636   1.342   2.321   0.035 -0.7638  0.0255  0.3912
  105TMC2     O 1637   1.357   2.198   0.063  0.5254  0.3350  0.1704
  105TMC2     H 1638   1.242   2.535  17.670  0.0963 -1.0256 -1.1713
  105TMC2    H1 1639   1.177   2.265   0.239  0.1425 -0.3361 -1.0988
  105TMC2    H2 1640   0.955   2.631   0.200 -0.7487 -1.8797  0.4583
  105TMC2    C7 1641   0.966   2.384   0.325  0.5772  0.1278  0.3231
  105TMC2    C8 1642   1.093   2.743   0.017  0.7071 -0.1301  0.0833
  105TMC2    O1 1643   0.975   2.264   0.354  0.1638 -0.4309  0.3493
  105TMC2    O2 1644   0.989   2.799   0.024 -0.3062  0.0313 -0.1298
  105TMC2    O5 1645   1.184   2.764  17.671  0.0486 -0.0126 -0.7473
  105TMC2    H5 1646   1.274   2.741  17.703 -0.5189 -0.9905  0.1603
  106MPD2     C 1647   1.757   2.301  17.486  0.2533  0.6096  0.4434
  106MPD2    C1 1648   1.720   2.429  17.501  0.0647 -0.2597 -0.3192
  106MPD2    C2 1649   1.615   2.464  17.584  0.7288 -0.3015  0.6579
  106MPD2    C3 1650   1.547   2.364  17.652  0.0772  0.6805 -0.5592
  106MPD2    C4 1651   1.586   2.230  17.634 -0.0316 -0.0326  0.3633
  106MPD2    C5 1652   1.696   2.197  17.555  0.1949 -0.1279 -0.4245
  106MPD2     H 1653   1.587   2.569  17.590  0.4187 -0.5396  3.3347
  106MPD2    H1 1654   1.531   2.147  17.676  1.0691 -1.9053 -1.8599
  106MPD2    H2 1655   1.843   2.272  17.427 -0.8587 -0.9498 -0.4115
  106MPD2    H3 1656   1.717   2.095  17.524  1.2655  0.2528 -0.9242
  106MPD2     N 1657   1.435   2.406  17.725 -0.0695  0.1239 -0.8136
  106MPD2    H5 1658   1.412   2.504  17.720  1.4119  0.4705 -0.9160
  106MPD2    N1 1659   1.789   2.521  17.419  0.3453 -0.3705 -0.0181
  106MPD2    H7 1660   1.858   2.491  17.352 -0.4784  2.4962 -2.1575
  107TMC2    C1 1661   2.286   2.410  12.073  0.7469 -0.6641  0.2157
  107TMC2    C2 1662   2.364   2.493  11.999  0.5915 -0.2055 -0.3016
  107TMC2    C3 1663   2.391   2.461  11.865  0.1203 -0.5556 -0.4012
  107TMC2    C4 1664   2.245   2.296  12.017  0.1073  0.2658 -0.0343
  107TMC2    C5 1665   2.282   2.262  11.894 -0.7634 -0.0456 -1.1511
  107TMC2    C6 1666   2.357   2.339  11.817 -0.1110  0.0998 -0.1589
  107TMC2     C 1667   2.232   2.456  12.205  0.3666 -0.0364 -0.1064
  107TMC2     O 1668   2.210   2.364  12.283 -0.1892 -0.3965  0.0313
  107TMC2     H 1669   2.401   2.588  12.035  0.0917  0.7228 -2.2379
  107TMC2    H1 1670   2.197   2.228  12.087  0.1499 -1.9118 -2.1320
  107TMC2    H2 1671   2.389   2.316  11.716  2.9603 -0.2009  0.8596
  107TMC2    C7 1672   2.245   2.130  11.851 -0.0740  0.2551  0.1156
  107TMC2    C8 1673   2.454   2.556  11.774  0.6037 -0.8968 -0.0793
  107TMC2    O1 1674   2.162   2.079  11.922  0.0860  0.6654 -0.1207
  107TMC2    O2 1675   2.522   2.533  11.677 -0.0693 -0.0229 -0.5610
  107TMC2    O5 1676   2.363   2.658  11.782  0.0713  0.0026  0.1057
  107TMC2    H5 1677   2.292   2.635  11.845  0.0940  2.0683  0.8744
  108MPD2     C 1678   2.244   2.774  12.366  0.2127 -0.9014 -0.2474
  108MPD2    C1 1679   2.221   2.646  12.359 -0.3816  0.8763 -0.4078
  108MPD2    C2 1680   2.163   2.582  12.468 -0.1959 -0.3632 -0.8499
  108MPD2    C3 1681   2.128   2.653  12.583 -0.2558 -0.1465 -0.3275
  108MPD2    C4 1682   2.137   2.794  12.577 -0.7607  0.1104 -0.6788
  108MPD2    C5 1683   2.198   2.854  12.471 -0.1631  0.5548  0.2222
  108MPD2     H 1684   2.161   2.473  12.464 -0.1180 -0.4605  1.5334
  108MPD2    H1 1685   2.112   2.859  12.660 -1.6332  0.1933 -1.0156
  108MPD2    H2 1686   2.290   2.829  12.285 -2.2457 -1.4931 -2.0374
  108MPD2    H3 1687   2.207   2.962  12.476  0.1403  0.6177 -1.6547
  108MPD2     N 1688   2.068   2.581  12.693  0.4487  0.1897  0.1666
  108MPD2    H5 1689   2.006   2.622  12.762  1.6280 -1.2802  2.1081
  108MPD2    N1 1690   2.243   2.590  12.233  0.0987 -0.1051  0.0877
  108MPD2    H7 1691   2.258   2.655  12.157 -2.2397 -0.3496 -0.5725
  109TMC2    C1 1692   1.913   4.287   2.663  0.1822 -0.0888  0.4769
  109TMC2    C2 1693   1.918   4.303   2.802  0.1357  0.1925 -0.0947
  109TMC2    C3 1694   2.017   4.399   2.842  0.2505  0.5505 -0.5377
  109TMC2    C4 1695   1.987   4.366   2.577  0.6010  0.0973  0.2397
  109TMC2    C5 1696   2.079   4.453   2.629  0.2051 -0.3251  0.2280
  109TMC2    C6 1697   2.092   4.472   2.764  0.1694  0.4136  0.4649
  109TMC2     C 1698   1.814   4.191   2.611  0.3845  0.3152 -0.0207
  109TMC2     O 1699   1.777   4.106   2.693 -0.1643  0.1141 -0.0694
  109TMC2     H 1700   1.874   4.231   2.870  1.4102 -0.7596 -0.2721
  109TMC2    H1 1701   1.971   4.357   2.470  3.8889  0.2672 -0.2948
  109TMC2    H2 1702   2.149   4.556   2.805 -0.1169  0.8474 -0.0248
  109TMC2    C7 1703   2.124   4.555   2.538 -0.5925  0.1808 -0.1886
  109TMC2    C8 1704   2.057   4.411   2.984  0.1944 -0.0946 -0.8853
  109TMC2    O1 1705   2.054   4.565   2.441  0.1595  0.0600  0.1740
  109TMC2    O2 1706   2.167   4.445   3.018 -0.5128 -0.3723 -0.5937
  109TMC2    O5 1707   1.947   4.405   3.065  0.1268  0.0740 -0.5726
  109TMC2    H5 1708   1.862   4.397   3.016 -0.2387  1.6194 -0.1844
  110MPD2     C 1709   1.606   3.913   2.243  0.2180  0.4581 -0.3922
  110MPD2    C1 1710   1.680   4.009   2.183  0.1552 -0.2651 -0.5350
  110MPD2    C2 1711   1.734   4.112   2.264  0.4489 -0.0010 -0.5670
  110MPD2    C3 1712   1.715   4.103   2.403  0.4079 -0.1963  0.0323
  110MPD2    C4 1713   1.648   3.996   2.460 -1.0123  0.3726  0.1154
  110MPD2    C5 1714   1.591   3.904   2.375  0.2309  0.2140 -0.1476
  110MPD2     H 1715   1.783   4.198   2.220  1.6078 -0.6226 -0.4627
  110MPD2    H1 1716   1.635   3.981   2.567 -0.6834  0.3345  0.1492
  110MPD2    H2 1717   1.571   3.830   2.182 -1.4142  0.0962  1.0613
  110MPD2    H3 1718   1.534   3.828   2.426  1.7529  1.1217  2.9235
  110MPD2     N 1719   1.790   4.196   2.479  0.0349 -1.2443  0.6129
  110MPD2    H5 1720   1.834   4.269   2.425 -1.7948 -0.3428  0.3312
  110MPD2    N1 1721   1.697   3.998   2.040  0.3002  0.4935 -0.1622
  110MPD2    H7 1722   1.635   3.930   1.995 -0.8666 -0.0887  2.3448
  111TMC2    C1 1723   1.944   4.499  11.986  0.4727 -0.9845  0.5563
  111TMC2    C2 1724   1.870   4.597  12.051  0.6761  0.5374  0.4023
  111TMC2    C3 1725   1.928   4.658  12.161 -0.6844  0.4959  0.4466
  111TMC2    C4 1726   2.077   4.469  12.009 -0.1336  0.4582 -0.0236
  111TMC2    C5 1727   2.134   4.539  12.113  0.1048 -0.6195 -0.4574
  111TMC2    C6 1728   2.060   4.620  12.194 -1.5075 -0.3798  0.4769
  111TMC2     C 1729   1.900   4.440  11.861 -0.4482  0.8428 -0.5383
  111TMC2     O 1730   1.987   4.406  11.783 -0.6553 -0.1362 -0.2719
  111TMC2     H 1731   1.768   4.619  12.022  0.6496  1.3440  1.0917
  111TMC2    H1 1732   2.137   4.407  11.944 -1.0105  0.0410 -0.4310
  111TMC2    H2 1733   2.103   4.656  12.286  0.4536  0.2081 -0.6813
  111TMC2    C7 1734   2.255   4.486  12.164  0.0225  0.1233  0.4611
  111TMC2    C8 1735   1.867   0.020  12.247 -0.6694  0.6164  0.1043
  111TMC2    O1 1736   2.245   4.457  12.282  0.0009 -0.3937  0.5493
  111TMC2    O2 1737   1.892   0.038  12.364  0.1349  0.9371 -0.0868
  111TMC2    O5 1738   1.816   0.118  12.168  0.0871  0.5141 -0.0869
  111TMC2    H5 1739   1.851   0.115  12.077 -1.0150 -0.9656 -0.4621
  112MPD2     C 1740   1.548   4.301  11.513  0.5019  0.1915 -0.2623
  112MPD2    C1 1741   1.687   4.311  11.505  0.8322  0.3757 -0.4008
  112MPD2    C2 1742   1.754   4.352  11.622 -0.0348 -0.1313  0.2728
  112MPD2    C3 1743   1.693   4.380  11.742  0.7893  0.1789  0.2034
  112MPD2    C4 1744   1.556   4.358  11.750  1.1341  0.1670  0.0263
  112MPD2    C5 1745   1.486   4.327  11.637 -0.4428  0.4172 -0.3643
  112MPD2     H 1746   1.861   4.370  11.618 -0.2641  0.9443 -1.0004
  112MPD2    H1 1747   1.504   4.364  11.845 -1.1517  0.0547 -1.2133
  112MPD2    H2 1748   1.483   4.264  11.435 -0.8878 -0.5559  1.2400
  112MPD2    H3 1749   1.379   4.313  11.651 -0.3168  0.2644  0.4578
  112MPD2     N 1750   1.764   4.433  11.853 -0.0978  0.0613  0.3613
  112MPD2    H5 1751   1.705   4.472  11.926 -1.6133  0.7240 -1.1910
  112MPD2    N1 1752   1.766   4.285  11.392 -0.8873 -0.4365 -0.2298
  112MPD2    H7 1753   1.867   4.286  11.405 -0.9357  0.0003  0.1119
  113TMC2    C1 1754   4.186   1.542   0.657  0.3381  0.6763 -0.3023
  113TMC2    C2 1755   4.090   1.534   0.554 -0.0319 -0.5326  0.4267
  113TMC2    C3 1756   4.036   1.408   0.529 -0.6282 -0.1372 -0.0892
  113TMC2    C4 1757   4.233   1.428   0.725 -0.4518 -0.2022 -0.5823
  113TMC2    C5 1758   4.160   1.313   0.695 -0.3664  0.0866  0.0175
  113TMC2    C6 1759   4.060   1.302   0.603  0.1779  0.0225 -0.2773
  113TMC2     C 1760   4.258   1.669   0.667 -0.2837 -0.5639  0.1160
  113TMC2     O 1761   4.183   1.765   0.652 -0.4613 -0.0722 -0.0760
  113TMC2     H 1762   4.047   1.626   0.517  2.5759  0.1993 -0.8209
  113TMC2    H1 1763   4.300   1.430   0.810  0.4177 -2.3191 -1.2276
  113TMC2    H2 1764   4.007   1.208   0.590  0.4107 -0.4576  2.3475
  113TMC2    C7 1765   4.199   1.192   0.765  0.0359  0.2761  0.2470
  113TMC2    C8 1766   3.934   1.396   0.434 -0.2887  0.1937 -0.3045
  113TMC2    O1 1767   4.125   1.093   0.751 -0.1870 -0.0153 -0.3477
  113TMC2    O2 1768   3.863   1.295   0.433 -0.0003 -0.1451  0.3398
  113TMC2    O5 1769   3.947   1.475   0.322 -0.0794 -0.5053 -0.1326
  113TMC2    H5 1770   4.024   1.535   0.322 -0.2943 -0.2303 -0.7725
  114MPD2     C 1771   4.702   1.935   0.673  0.3227  0.2804 -0.2160
  114MPD2    C1 1772   4.572   1.978   0.673  0.2812 -0.2045  0.5952
  114MPD2    C2 1773   4.468   1.889   0.662 -0.3857 -0.2561  0.0772
  114MPD2    C3 1774   4.494   1.754   0.661  0.0286 -0.0113  0.3467
  114MPD2    C4 1775   4.620   1.711   0.652  0.4103 -0.0545  0.5742
  114MPD2    C5 1776   4.718   1.802   0.661 -0.2515 -0.1716  0.9548
  114MPD2     H 1777   4.365   1.924   0.666  0.7739  2.8596  2.9544
  114MPD2    H1 1778   4.644   1.607   0.667 -0.0156 -0.5862 -2.4460
  114MPD2    H2 1779   0.055   1.993   0.659 -1.0409  2.4385 -0.0777
  114MPD2    H3 1780   0.083   1.768   0.660  0.3672  1.6865  0.6023
  114MPD2     N 1781   4.392   1.655   0.680 -0.4385  0.2568 -0.1452
  114MPD2    H5 1782   4.430   1.563   0.697  0.2030  0.6796  0.7324
  114MPD2    N1 1783   4.544   2.112   0.695 -0.2252  0.3425 -0.5101
  114MPD2    H7 1784   4.452   2.147   0.670 -0.2722  0.8428  0.3850
  115TMC2    C1 1785   0.653   4.574   0.266  0.0630  0.9495  0.3177
  115TMC2    C2 1786   0.659   4.536   0.396 -0.1695 -0.5040 -0.1563
  115TMC2    C3 1787   0.700   4.641   0.483 -0.0541  0.4583 -0.4523
  115TMC2    C4 1788   0.699   4.694   0.225  0.1664 -0.3111 -0.1643
  115TMC2    C5 1789   0.735   0.051   0.308  0.4292 -0.5229 -1.6023
  115TMC2    C6 1790   0.735   0.029   0.448 -0.2444 -0.1293  0.1275
  115TMC2     C 1791   0.621   4.475   0.169 -0.1400 -0.0553 -0.2410
  115TMC2     O 1792   0.634   4.507   0.050 -0.0050 -0.1623  0.1002
  115TMC2     H 1793   0.638   4.440   0.441 -0.3056  0.0955  1.0625
  115TMC2    H1 1794   0.685   4.722   0.122  1.1487  0.1122 -0.1885
  115TMC2    H2 1795   0.746   0.102   0.527 -0.6790 -2.1631  2.0781
  115TMC2    C7 1796   0.702   0.189   0.257  0.1266  0.1036  0.3636
  115TMC2    C8 1797   0.692   4.612   0.628 -0.3258  0.2006  1.0890
  115TMC2    O1 1798   0.642   0.268   0.328 -0.4193  0.3130  0.1460
  115TMC2    O2 1799   0.765   4.667   0.711  0.7296 -0.0810 -0.2265
  115TMC2    O5 1800   0.562   4.585   0.661 -0.3658  0.0931  0.0669
  115TMC2    H5 1801   0.511   4.548   0.585 -0.0719 -0.3305  0.0755
  116MPD2     C 1802   0.323   4.092   0.012  0.1147  0.1929  0.2771
  116MPD2    C1 1803   0.442   4.136  17.713  0.1457  0.4622  0.2650
  116MPD2    C2 1804   0.505   4.241   0.029 -0.4261  0.0296  0.6852
  116MPD2    C3 1805   0.456   4.293   0.145  0.1072  0.9127  0.2240
  116MPD2    C4 1806   0.335   4.243   0.191  0.3514 -0.2005 -0.3109
  116MPD2    C5 1807   0.272   4.144   0.125  0.1498  0.0759  0.2831
  116MPD2     H 1808   0.602   4.276  17.744 -0.4603 -0.1021  0.4538
  116MPD2    H1 1809   0.301   4.282   0.286 -0.2088  1.9318 -1.3801
  116MPD2    H2 1810   0.273   4.004  17.722 -0.4626  1.2178 -1.3256
  116MPD2    H3 1811   0.178   4.101   0.160 -0.4178 -0.1786 -1.5354
  116MPD2     N 1812   0.515   4.399   0.212  0.3609 -0.1567 -0.2806
  116MPD2    H5 1813   0.490   4.413   0.310  0.6010 -0.4462 -0.1784
  116MPD2    N1 1814   0.499   4.066  17.604  0.2574  0.3590 -0.0958
  116MPD2    H7 1815   0.426   4.017  17.554 -0.4837 -0.5203  1.8527
  117TMC2    C1 1816   4.736   2.110  14.052 -0.0735  0.3837  0.6606
  117TMC2    C2 1817   4.695   2.223  14.117  0.2512  0.0246 -0.3766
  117TMC2    C3 1818   4.732   2.347  14.065  0.4510 -0.3230  0.2063
  117TMC2    C4 1819   0.072   2.119  13.935  0.2412  0.4079 -0.4572
  117TMC2    C5 1820   0.110   2.242  13.891  0.2680 -0.4385  0.5949
  117TMC2    C6 1821   0.076   2.358  13.953  0.6222 -0.0351  0.6238
  117TMC2     C 1822   4.659   1.988  14.074  0.2987 -0.2501 -0.2483
  117TMC2     O 1823   4.710   1.886  14.036 -0.1951  0.1603 -0.0346
  117TMC2     H 1824   4.635   2.212  14.207 -0.3862  0.5887 -0.7368
  117TMC2    H1 1825   0.066   2.031  13.872  2.1817  0.6413 -0.9703
  117TMC2    H2 1826   0.116   2.455  13.926  0.0276 -0.6708 -2.4721
  117TMC2    C7 1827   0.203   2.243  13.779 -0.1895  0.4121  0.6476
  117TMC2    C8 1828   4.677   2.461  14.138  0.3754 -0.2847  0.3674
  117TMC2    O1 1829   0.258   2.136  13.762  0.0259 -0.1133 -0.5157
  117TMC2    O2 1830   4.635   2.463  14.252 -0.5772  0.0618  0.1500
  117TMC2    O5 1831   4.650   2.542  14.033  0.4322 -0.0564  0.2381
  117TMC2    H5 1832   4.703   2.528  13.952  3.3123 -0.2995  2.1567
  118MPD2     C 1833   0.210   2.484  13.504  0.1245  0.6329 -0.1509
  118MPD2    C1 1834   0.235   2.370  13.573  0.3084 -0.0614  0.2752
  118MPD2    C2 1835   0.314   2.278  13.510 -0.2719  0.1774  0.3394
  118MPD2    C3 1836   0.372   2.307  13.390  0.1730  0.8223  0.3086
  118MPD2    C4 1837   0.338   2.419  13.314 -0.4881  0.0656  0.1733
  118MPD2    C5 1838   0.251   2.506  13.378  0.4522  0.8013  0.9273
  118MPD2     H 1839   0.323   2.179  13.552  0.8956 -1.1273 -2.9597
  118MPD2    H1 1840   0.364   2.431  13.209 -0.6126 -0.7019  0.0524
  118MPD2    H2 1841   0.149   2.561  13.551 -0.8291  1.3404 -2.5217
  118MPD2    H3 1842   0.222   2.598  13.327  0.4965  1.2174  1.6522
  118MPD2     N 1843   0.467   2.226  13.332  0.0206  0.6853  0.3665
  118MPD2    H5 1844   0.506   2.255  13.242 -0.3725 -0.2995 -0.1118
  118MPD2    N1 1845   0.167   2.346  13.700 -0.3276 -0.1264  0.7478
  118MPD2    H7 1846   0.111   2.421  13.738  1.2875  0.8976  1.0899
  119TMC2    C1 1847   2.867   2.533  13.371 -0.1622 -0.0570  0.0555
  119TMC2    C2 1848   2.980   2.468  13.333  0.0877 -1.2023  0.0287
  119TMC2    C3 1849   2.964   2.342  13.303 -0.4454 -0.9536  0.6852
  119TMC2    C4 1850   2.750   2.468  13.387 -0.2036 -0.1656  0.2650
  119TMC2    C5 1851   2.749   2.328  13.369 -0.0764 -1.0045 -0.9129
  119TMC2    C6 1852   2.857   2.268  13.320 -0.3571 -0.3598  0.7178
  119TMC2     C 1853   2.861   2.680  13.384  0.0029  0.0781  0.0144
  119TMC2     O 1854   2.754   2.720  13.429 -0.1081  0.4051 -0.1262
  119TMC2     H 1855   3.080   2.509  13.324 -0.7470  0.8680  0.1566
  119TMC2    H1 1856   2.658   2.519  13.411 -0.2498 -0.9849  1.8473
  119TMC2    H2 1857   2.858   2.160  13.303  0.2963 -0.0173 -1.4769
  119TMC2    C7 1858   2.629   2.255  13.362  0.0250 -0.5261 -0.2358
  119TMC2    C8 1859   3.087   2.284  13.259 -0.5604 -0.6959  0.1420
  119TMC2    O1 1860   2.641   2.157  13.293  0.1673  0.3760  0.4364
  119TMC2    O2 1861   3.189   2.285  13.330  0.2043  0.4813  0.2052
  119TMC2    O5 1862   3.037   2.182  13.186 -0.1224  0.1973 -0.2809
  119TMC2    H5 1863   2.950   2.202  13.145 -0.3452 -0.1905  0.0037
  120MPD2     C 1864   2.923   3.174  13.236  0.1358 -0.1595 -0.2303
  120MPD2    C1 1865   2.823   3.112  13.301  0.6488 -0.6751 -0.1466
  120MPD2    C2 1866   2.830   2.977  13.331  0.0161 -0.1422  0.0527
  120MPD2    C3 1867   2.938   2.900  13.290 -0.4120 -1.0463  0.0663
  120MPD2    C4 1868   3.033   2.963  13.208  0.4819 -0.1748 -0.3416
  120MPD2    C5 1869   3.024   3.096  13.180  0.1335  0.0398  0.1824
  120MPD2     H 1870   2.744   2.936  13.383  0.0060 -0.4613 -0.2129
  120MPD2    H1 1871   3.125   2.914  13.180  1.1322  0.3922  0.8125
  120MPD2    H2 1872   2.914   3.279  13.214 -0.2316 -0.2852 -0.6663
  120MPD2    H3 1873   3.103   3.137  13.119 -1.0216  1.0848 -0.6323
  120MPD2     N 1874   2.956   2.762  13.324  0.9165 -0.3986 -0.2208
  120MPD2    H5 1875   3.035   2.712  13.283  0.3647 -0.5538 -1.1026
  120MPD2    N1 1876   2.710   3.195  13.330 -0.3004 -0.2695 -0.1356
  120MPD2    H7 1877   2.710   3.287  13.286  0.0636  1.3187  3.1624
  121TMC2    C1 1878   4.132   4.245  13.856  0.4079  0.0228  0.3475
  121TMC2    C2 1879   4.222   4.307  13.938  0.2458 -0.6841 -0.1257
  121TMC2    C3 1880   4.202   4.301  14.074  0.0328 -0.0882 -0.2364
  121TMC2    C4 1881   4.013   4.197  13.894  0.3990  0.1287 -0.3767
  121TMC2    C5 1882   4.000   4.192  14.030 -0.5476 -0.1440 -0.1316
  121TMC2    C6 1883   4.088   4.247  14.121 -0.1836 -0.2242 -0.1462
  121TMC2     C 1884   4.186   4.192  13.731  0.2244 -0.2044  0.1935
  121TMC2     O 1885   4.164   4.070  13.714  0.4822  0.2789 -0.3968
  121TMC2     H 1886   4.308   4.353  13.891 -2.1227  1.8339 -2.0591
  121TMC2    H1 1887   3.951   4.146  13.820  0.6565  2.7056 -2.3628
  121TMC2    H2 1888   4.075   4.232  14.228 -2.3109  0.4596 -0.3082
  121TMC2    C7 1889   3.866   4.187  14.080 -0.1356  0.0256  0.0918
  121TMC2    C8 1890   4.300   4.340  14.173  0.3950 -0.3934 -0.6170
  121TMC2    O1 1891   3.847   4.175  14.202 -0.3514 -0.4134 -0.2679
  121TMC2    O2 1892   4.266   4.367  14.284 -0.1690  0.2446  0.0113
  121TMC2    O5 1893   4.422   4.323  14.139  0.2051  0.4763  0.5037
  121TMC2    H5 1894   4.432   4.272  14.056 -0.2031 -1.1106  1.4531
  122MPD2     C 1895   4.322   4.156  13.466  0.9655  0.1272  0.2292
  122MPD2    C1 1896   4.289   4.278  13.519  0.4859 -0.3418  0.2346
  122MPD2    C2 1897   4.304   4.392  13.442 -0.1710  0.2554  0.5984
  122MPD2    C3 1898   4.356   4.384  13.314  0.2492 -0.4866 -0.6874
  122MPD2    C4 1899   4.412   4.265  13.278  0.3939  0.2613 -0.3815
  122MPD2    C5 1900   4.395   4.154  13.348 -0.0782 -0.8642  0.2968
  122MPD2     H 1901   4.289   4.488  13.489  1.5372  0.6031  0.4109
  122MPD2    H1 1902   4.457   4.254  13.180  1.3589 -0.3209  0.1218
  122MPD2    H2 1903   4.319   4.059  13.514 -1.2378 -0.9857 -2.1431
  122MPD2    H3 1904   4.436   4.063  13.307  2.0885  1.3816 -2.5509
  122MPD2     N 1905   4.367   4.487  13.221 -0.0606 -0.3703  0.4991
  122MPD2    H5 1906   4.435   4.462  13.151 -1.9893  2.1630 -2.2721
  122MPD2    N1 1907   4.229   4.294  13.645 -0.4373  0.1325 -0.9529
  122MPD2    H7 1908   4.196   4.386  13.672  1.3469  0.6175 -0.4128
  123TMC2    C1 1909   3.394   2.695  10.529 -0.2028 -0.5790 -0.5774
  123TMC2    C2 1910   3.525   2.732  10.540 -0.6467  0.3064  0.0431
  123TMC2    C3 1911   3.602   2.697  10.435 -0.1232  0.0760  0.5028
  123TMC2    C4 1912   3.339   2.633  10.419  0.0019  0.5307  0.7962
  123TMC2    C5 1913   3.416   2.609  10.318  0.4430 -0.3659  0.3684
  123TMC2    C6 1914   3.546   2.649  10.316 -0.1893 -0.5582  0.0264
  123TMC2     C 1915   3.323   2.675  10.654  0.5946 -0.5292  0.6482
  123TMC2     O 1916   3.373   2.729  10.752  0.1480  0.2876  0.1623
  123TMC2     H 1917   3.570   2.777  10.627  1.7014 -1.6902 -0.1496
  123TMC2    H1 1918   3.231   2.639  10.412  0.0642  2.1192  1.2701
  123TMC2    H2 1919   3.618   2.614  10.242  1.5423 -0.0362  1.4532
  123TMC2    C7 1920   3.354   2.550  10.200  0.0301  0.3571  0.1162
  123TMC2    C8 1921   3.745   2.723  10.444  0.0495  0.4453  0.4318
  123TMC2    O1 1922   3.258   2.477  10.228 -0.5640 -0.6780  0.3877
  123TMC2    O2 1923   3.808   2.747  10.342  0.5751  0.1715 -0.4250
  123TMC2    O5 1924   3.784   2.667  10.557  0.1524  0.7455  1.1025
  123TMC2    H5 1925   3.700   2.633  10.595 -1.3857  0.7368 -2.2905
  124MPD2     C 1926   2.936   2.494  10.938 -0.2993 -0.3697 -0.3778
  124MPD2    C1 1927   2.934   2.436  10.817  0.1979 -0.0206  0.2235
  124MPD2    C2 1928   3.030   2.473  10.725  0.0629 -0.0613  0.6676
  124MPD2    C3 1929   3.140   2.546  10.758 -0.1726  0.0713  0.2272
  124MPD2    C4 1930   3.149   2.603  10.887  0.3564 -0.4816  0.4485
  124MPD2    C5 1931   3.044   2.576  10.973  0.6652  0.1985  0.0222
  124MPD2     H 1932   3.027   2.442  10.621 -1.5761  0.4009  0.5830
  124MPD2    H1 1933   3.225   2.672  10.921 -0.3638 -0.3802  1.8483
  124MPD2    H2 1934   2.861   2.467  11.011 -2.1559  4.6835 -0.3882
  124MPD2    H3 1935   3.045   2.616  11.073 -1.7326 -0.2773  0.2395
  124MPD2     N 1936   3.226   2.575  10.649 -0.1637  0.1262  0.6397
  124MPD2    H5 1937   3.212   2.529  10.560  0.4395  1.0415  0.0731
  124MPD2    N1 1938   2.831   2.346  10.791  0.3436  0.7629 -0.2078
  124MPD2    H7 1939   2.748   2.359  10.849 -0.1062 -1.4783 -0.3368
  125TMC2    C1 1940   3.295   4.332  10.315 -0.0193  0.6792 -0.1918
  125TMC2    C2 1941   3.251   4.414  10.417 -0.3000 -0.8359 -0.2793
  125TMC2    C3 1942   3.339   4.485  10.481  0.4982  0.1948 -0.3027
  125TMC2    C4 1943   3.419   4.325  10.275  0.1854 -0.4092 -0.5121
  125TMC2    C5 1944   3.511   4.399  10.347 -0.8984  0.2831  0.1016
  125TMC2    C6 1945   3.475   4.472  10.452  0.8357  0.5310  0.3674
  125TMC2     C 1946   3.194   4.272  10.232 -0.2994  0.1146 -0.1195
  125TMC2     O 1947   3.080   4.324  10.219 -0.7944  0.1540  0.1799
  125TMC2     H 1948   3.144   4.425  10.432 -0.0472  1.4614 -0.1636
  125TMC2    H1 1949   3.452   4.295  10.176  0.3516 -0.2588 -0.5024
  125TMC2    H2 1950   3.557   4.535  10.485  0.7670  0.6244  0.3619
  125TMC2    C7 1951   3.649   4.420  10.303 -0.7895 -0.1186  0.2736
  125TMC2    C8 1952   3.316   4.504  10.624 -0.3598 -0.1025 -1.0340
  125TMC2    O1 1953   3.743   4.372  10.362 -0.0197  0.0535  0.1997
  125TMC2    O2 1954   3.380   4.444  10.709 -0.2589  0.5529  0.5543
  125TMC2    O5 1955   3.192   4.558  10.642 -0.4878  0.1262 -0.2913
  125TMC2    H5 1956   3.159   4.625  10.579 -1.1513  0.3147  0.2572
  126MPD1     C 1957   3.095   3.937   9.875  0.1237  0.2897 -0.0490
  126MPD1    C1 1958   3.199   3.884   9.949 -0.5560 -0.0461 -0.1454
  126MPD1    C2 1959   3.254   3.971  10.044  0.4937  0.1735  0.3156
  126MPD1    C3 1960   3.190   4.088  10.082 -0.4353 -0.3418  0.1076
  126MPD1    C4 1961   3.072   4.127  10.024 -0.3713  0.1931  0.1601
  126MPD1    C5 1962   3.031   4.052   9.917  0.1410  0.1526  0.8097
  126MPD1     H 1963   3.339   3.939  10.103 -0.5069  0.0233  1.6828
  126MPD1    H1 1964   3.012   4.216  10.032  1.1086  1.2386 -0.3934
  126MPD1    H2 1965   3.061   3.887   9.785  0.7288  0.4470 -0.3675
  126MPD1    H3 1966   2.948   4.080   9.853  0.5973 -0.7513 -0.1793
  126MPD1     N 1967   3.252   4.164  10.179  0.3311  0.3922  0.4318
  126MPD1    H5 1968   3.336   4.133  10.227 -0.9968 -0.0318  2.4711
  126MPD1    N1 1969   3.268   3.769   9.906  0.0302 -0.2024 -0.2808
  126MPD1    H6 1970   3.318   3.724   9.983  0.9640  0.9805 -0.2129
  126MPD1    H7 1971   3.204   3.701   9.865 -0.2191 -0.6858  0.9077
  127TMC2    C1 1972   4.049   3.044   9.843  0.1854 -0.9020 -0.0965
  127TMC2    C2 1973   4.101   3.024   9.962  0.0749  0.1863  0.3347
  127TMC2    C3 1974   4.055   2.914  10.028 -0.6539 -0.2592  0.5264
  127TMC2    C4 1975   3.962   2.962   9.778 -0.1720 -0.8372  0.2539
  127TMC2    C5 1976   3.937   2.841   9.837 -0.3059  0.2910  0.5564
  127TMC2    C6 1977   3.976   2.817   9.968 -0.0398  0.2600  0.0161
  127TMC2     C 1978   4.138   3.126   9.755  0.1247  0.7244 -0.2476
  127TMC2     O 1979   4.186   3.227   9.802 -0.4851 -0.0926  0.0918
  127TMC2     H 1980   4.186   3.084   9.993  0.7257  0.1892 -1.4193
  127TMC2    H1 1981   3.910   2.990   9.687 -0.0390 -1.6410 -0.0649
  127TMC2    H2 1982   3.956   2.724  10.020 -0.6531  1.1053  1.3134
  127TMC2    C7 1983   3.878   2.741   9.753  0.2421  0.3245  0.1107
  127TMC2    C8 1984   4.110   2.873  10.155 -0.2402  0.1391 -0.1190
  127TMC2    O1 1985   3.870   2.774   9.631  0.2240 -0.3413 -0.1923
  127TMC2    O2 1986   4.146   2.758  10.171 -0.2480  0.0517 -0.3278
  127TMC2    O5 1987   4.177   2.984  10.195  0.1270 -0.6988 -0.3129
  127TMC2    H5 1988   4.114   3.059  10.188  1.4833  0.5459  0.7540
  128MPD2     C 1989   4.228   3.046   9.402  0.0946  0.2042 -0.2511
  128MPD2    C1 1990   4.221   3.124   9.519  0.0863  0.6911 -0.1651
  128MPD2    C2 1991   4.262   3.256   9.523 -0.4389 -0.6679  0.2784
  128MPD2    C3 1992   4.319   3.314   9.415  0.0550  0.1627  0.4871
  128MPD2    C4 1993   4.338   3.242   9.302 -0.4761  0.1915  0.2555
  128MPD2    C5 1994   4.293   3.105   9.295  0.8996 -0.3989  0.0758
  128MPD2     H 1995   4.238   3.322   9.605  0.5819 -0.6377  0.5601
  128MPD2    H1 1996   4.395   3.275   9.216  1.1707 -2.8482  0.1792
  128MPD2    H2 1997   4.191   2.944   9.397 -1.0517  0.5218  1.6965
  128MPD2    H3 1998   4.303   3.046   9.204 -0.2413 -0.2827 -0.1300
  128MPD2     N 1999   4.339   3.455   9.415  0.0673  0.1510 -0.1257
  128MPD2    H5 2000   4.323   3.498   9.506  2.4381  0.9076 -0.0757
  128MPD2    N1 2001   4.154   3.065   9.630  0.0857  0.5442  0.2307
  128MPD2    H7 2002   4.125   2.969   9.616  1.1543  0.0680  1.2771
  129TMC2    C1 2003   2.075   3.986   2.254  0.1332  0.3059  0.4115
  129TMC2    C2 2004   2.042   3.938   2.379  0.1715 -0.5987 -0.5926
  129TMC2    C3 2005   1.972   3.822   2.385  0.1342  0.0564 -0.2063
  129TMC2    C4 2006   2.040   3.923   2.139  0.1272 -0.2695 -0.3809
  129TMC2    C5 2007   1.966   3.809   2.147  0.3883  0.2614  0.0392
  129TMC2    C6 2008   1.929   3.755   2.270  0.5628 -0.1725 -0.5932
  129TMC2     C 2009   2.114   4.124   2.254 -0.6544 -0.7342  0.6557
  129TMC2     O 2010   2.121   4.183   2.358  0.0112 -0.0560 -0.3969
  129TMC2     H 2011   2.088   3.973   2.471 -1.5278 -1.7555  0.6913
  129TMC2    H1 2012   2.047   3.978   2.046  1.0232 -1.0370 -0.7689
  129TMC2    H2 2013   1.867   3.666   2.269  2.0548 -1.2269  0.5318
  129TMC2    C7 2014   1.928   3.743   2.025 -0.0738  0.1891  0.6931
  129TMC2    C8 2015   1.948   3.754   2.512  0.6256 -0.4095 -0.3321
  129TMC2    O1 2016   1.832   3.668   2.025 -0.7088  0.1510 -0.2860
  129TMC2    O2 2017   1.940   3.813   2.619 -0.1609  0.1420  0.7157
  129TMC2    O5 2018   1.993   3.625   2.498 -0.1309 -0.0453 -0.1147
  129TMC2    H5 2019   2.039   3.612   2.412 -1.8635  0.8266 -1.1730
  130MPD2     C 2020   2.218   4.395   2.202 -0.0566 -0.2546 -0.2428
  130MPD2    C1 2021   2.202   4.302   2.104  0.5676 -0.1428 -0.1872
  130MPD2    C2 2022   2.239   4.336   1.973 -0.1263 -0.1571  0.7823
  130MPD2    C3 2023   2.282   4.464   1.952  0.7845  0.8319  0.4222
  130MPD2    C4 2024   2.269   4.557   2.050 -0.2272  0.0176  0.0814
  130MPD2    C5 2025   2.242   4.529   2.180 -0.0309  0.1728 -0.5024
  130MPD2     H 2026   2.235   4.257   1.899 -1.7642  0.2068  0.4828
  130MPD2    H1 2027   2.297   4.661   2.041  0.2645 -0.1596 -0.4318
  130MPD2    H2 2028   2.217   4.387   2.310 -0.6661 -0.5958 -0.2703
  130MPD2    H3 2029   2.248   4.610   2.252 -0.7943  0.3775 -0.6650
  130MPD2     N 2030   2.321   4.488   1.814 -0.0289  0.2608 -0.0731
  130MPD2    H5 2031   2.334   4.408   1.754  3.1478 -0.4773  1.6006
  130MPD2    N1 2032   2.155   4.167   2.131 -0.3386  0.1801 -0.0993
  130MPD2    H7 2033   2.154   4.099   2.056  1.0009  1.3173 -1.1559
  131TMC2    C1 2034   2.980   2.592   9.854  0.1062 -0.7721 -0.3901
  131TMC2    C2 2035   2.959   2.606   9.718  0.2898 -0.1532  0.6524
  131TMC2    C3 2036   3.025   2.708   9.656 -0.3680 -0.2485 -0.3482
  131TMC2    C4 2037   3.064   2.670   9.928  0.4412  0.3617 -0.0684
  131TMC2    C5 2038   3.126   2.773   9.864  0.4853  0.0455 -0.1290
  131TMC2    C6 2039   3.104   2.801   9.725  0.5116 -0.4571  0.8739
  131TMC2     C 2040   2.901   2.499   9.927 -0.0608 -0.1114  0.1765
  131TMC2     O 2041   2.953   2.466  10.036  0.2722  0.6729  0.3446
  131TMC2     H 2042   2.907   2.534   9.657  0.7581 -0.4764  0.6325
  131TMC2    H1 2043   3.070   2.671  10.036 -0.2238 -0.7172 -0.0194
  131TMC2    H2 2044   3.156   2.884   9.679 -1.7812  0.2985 -0.3655
  131TMC2    C7 2045   3.206   2.858   9.944  0.5202 -0.5387 -0.1960
  131TMC2    C8 2046   2.990   2.732   9.518  0.3396  0.7996 -0.1283
  131TMC2    O1 2047   3.280   2.802  10.023  0.5035 -0.4207  0.1351
  131TMC2    O2 2048   2.943   2.643   9.445 -0.1981  0.6315  0.1537
  131TMC2    O5 2049   2.936   2.856   9.528  0.7329 -0.3940  0.1674
  131TMC2    H5 2050   2.988   2.906   9.593  1.2398  1.9108 -2.0290
  132MPD2     C 2051   2.595   2.301   9.854  0.5372  0.2491 -0.3273
  132MPD2    C1 2052   2.695   2.355   9.931 -0.6113  0.0266  0.2792
  132MPD2    C2 2053   2.693   2.334  10.066  0.2227  0.1924 -0.2683
  132MPD2    C3 2054   2.601   2.251  10.120  0.4408  0.4185  0.2601
  132MPD2    C4 2055   2.500   2.191  10.043  0.1382  0.3591  0.5467
  132MPD2    C5 2056   2.504   2.218   9.914 -0.1266  0.2482 -0.1179
  132MPD2     H 2057   2.760   2.385  10.134  0.5649  0.3955 -0.7618
  132MPD2    H1 2058   2.438   2.107  10.069  0.0599  0.2666  0.0514
  132MPD2    H2 2059   2.598   2.300   9.745 -1.0945 -0.7858 -0.3649
  132MPD2    H3 2060   2.433   2.164   9.853  2.6854 -2.8033 -0.6935
  132MPD2     N 2061   2.614   2.226  10.262  0.2097 -0.2973  0.1660
  132MPD2    H5 2062   2.695   2.262  10.312  0.2282  0.0264 -0.0897
  132MPD2    N1 2063   2.793   2.440   9.867 -0.1607 -0.2651 -0.4168
  132MPD2    H7 2064   2.763   2.465   9.774  4.9494  2.2341 -1.3957
  133TMC2    C1 2065   1.850   2.216   9.552 -0.1579 -0.6256 -0.0421
  133TMC2    C2 2066   1.861   2.084   9.542 -0.1398 -0.1396  0.1355
  133TMC2    C3 2067   1.944   2.034   9.449 -0.0442  0.9402  0.1882
  133TMC2    C4 2068   1.920   2.304   9.477 -0.0262  0.3881  0.4283
  133TMC2    C5 2069   2.014   2.247   9.402  0.2797  0.2005 -0.2165
  133TMC2    C6 2070   2.026   2.116   9.382  0.3200  0.2888  0.5065
  133TMC2     C 2071   1.764   2.268   9.664  0.4617 -0.7019  0.0468
  133TMC2     O 2072   1.748   2.202   9.763 -0.3424  0.4113  0.1323
  133TMC2     H 2073   1.800   2.019   9.604  1.3055 -1.7164 -0.0999
  133TMC2    H1 2074   1.929   2.408   9.506  1.3827  0.6421 -0.9140
  133TMC2    H2 2075   2.100   2.071   9.316 -1.6119 -0.0412 -1.4343
  133TMC2    C7 2076   2.109   2.330   9.330 -1.0753  0.1796  0.2678
  133TMC2    C8 2077   1.962   1.891   9.426 -0.0878  0.0366  0.4754
  133TMC2    O1 2078   2.221   2.292   9.306 -0.3524  0.0788 -0.4596
  133TMC2    O2 2079   2.073   1.847   9.408  0.2892  0.1132 -0.1710
  133TMC2    O5 2080   1.840   1.841   9.412 -0.3889 -0.6184  0.3519
  133TMC2    H5 2081   1.767   1.906   9.415 -0.6092 -0.7917 -1.1280
  134MPD2     C 2082   1.613   2.449   9.842 -0.0209  0.0382 -0.1903
  134MPD2    C1 2083   1.667   2.490   9.720 -0.9593  0.1224 -0.5582
  134MPD2    C2 2084   1.673   2.626   9.684 -0.1278 -0.2351 -0.0180
  134MPD2    C3 2085   1.624   2.719   9.772  0.1622 -0.6837 -0.0405
  134MPD2    C4 2086   1.568   2.674   9.892 -0.1853 -0.5112 -1.4120
  134MPD2    C5 2087   1.564   2.541   9.923  0.4393 -0.0306  0.3013
  134MPD2     H 2088   1.723   2.651   9.591  0.5559 -1.3828  0.0352
  134MPD2    H1 2089   1.523   2.747   9.958  2.6675  0.2938 -0.3975
  134MPD2    H2 2090   1.601   2.343   9.863 -0.3253  0.0332 -0.3906
  134MPD2    H3 2091   1.504   2.499  10.003  0.3223  2.2530  1.4020
  134MPD2     N 2092   1.623   2.858   9.752 -0.1419  0.5536 -0.1670
  134MPD2    H5 2093   1.573   2.911   9.823 -1.1742  0.2383 -0.6677
  134MPD2    N1 2094   1.736   2.398   9.638 -0.2467 -0.1532 -0.4058
  134MPD2    H7 2095   1.764   2.433   9.547 -2.4201 -2.3294 -1.9262
  135TMC2    C1 2096   4.095   0.252   9.845  0.1171 -0.2895  0.1724
  135TMC2    C2 2097   4.209   0.175   9.854 -0.0295 -0.2960 -0.1851
  135TMC2    C3 2098   4.238   0.131   9.977 -0.2419  0.1774 -0.6097
  135TMC2    C4 2099   4.024   0.293   9.954  0.0543  0.1021 -0.0405
  135TMC2    C5 2100   4.052   0.228  10.069  0.8829 -0.4429  0.0918
  135TMC2    C6 2101   4.159   0.144  10.085 -0.0389 -0.0851  0.1333
  135TMC2     C 2102   4.060   0.314   9.720  0.4417  0.1383  0.1869
  135TMC2     O 2103   3.992   0.412   9.718  0.7462  0.8586 -0.5092
  135TMC2     H 2104   4.267   0.150   9.766  4.3714  1.5010  2.2167
  135TMC2    H1 2105   3.940   0.361   9.942 -0.6975 -0.8883 -0.3991
  135TMC2    H2 2106   4.201   0.130  10.184  0.0721  1.9546  0.3800
  135TMC2    C7 2107   3.946   0.218  10.171  0.5587 -0.0740  0.4944
  135TMC2    C8 2108   4.352   0.045   9.983  0.4695  0.3264  0.6497
  135TMC2    O1 2109   3.864   0.305  10.154 -0.1030 -0.3615  0.4179
  135TMC2    O2 2110   4.426   0.045   9.886  0.1256  1.3090 -0.3247
  135TMC2    O5 2111   4.315   4.673  10.057  0.8001  0.1998 -0.3975
  135TMC2    H5 2112   4.251   4.692  10.129 -1.1976  0.0724 -2.1244
  136MPD2     C 2113   4.007   0.363   9.424 -1.3579  0.1611  0.1185
  136MPD2    C1 2114   4.063   0.248   9.475  0.3741 -0.2638  0.3436
  136MPD2    C2 2115   4.082   0.142   9.398 -0.0787 -0.2607 -0.1356
  136MPD2    C3 2116   4.055   0.148   9.262  0.2812  0.4126  0.0631
  136MPD2    C4 2117   3.998   0.260   9.207 -0.5824 -0.5674 -0.4140
  136MPD2    C5 2118   3.978   0.360   9.297  0.4046  0.1096 -0.7387
  136MPD2     H 2119   4.145   0.067   9.443  0.8494  0.5960  0.0102
  136MPD2    H1 2120   3.982   0.270   9.101 -1.7158 -1.5826 -0.3395
  136MPD2    H2 2121   3.979   0.450   9.482  0.3268 -1.0726  2.7628
  136MPD2    H3 2122   3.941   0.456   9.265  0.1805  0.4362  0.5027
  136MPD2     N 2123   4.088   0.044   9.171 -0.4058 -0.5619  0.2840
  136MPD2    H5 2124   4.072   0.072   9.075 -2.6893  0.2499  0.9067
  136MPD2    N1 2125   4.100   0.238   9.611 -0.2030 -0.4605 -0.1928
  136MPD2    H7 2126   4.133   0.147   9.641 -2.2838 -0.9673  0.6117
  137TMC2    C1 2127   2.745   4.313   9.398  0.6943  0.4728 -0.0075
  137TMC2    C2 2128   2.696   4.402   9.309 -0.3389 -0.3159 -1.0392
  137TMC2    C3 2129   2.562   4.434   9.311 -0.3073 -0.2568 -0.6532
  137TMC2    C4 2130   2.671   4.266   9.504  1.1839  0.4024 -0.3545
  137TMC2    C5 2131   2.528   4.295   9.498  0.4961  0.2472 -0.8113
  137TMC2    C6 2132   2.477   4.386   9.407  0.0322  0.6329  0.0978
  137TMC2     C 2133   2.879   4.266   9.395  0.1544 -0.4486 -0.4686
  137TMC2     O 2134   2.926   4.220   9.501  0.0125 -0.0141  0.0605
  137TMC2     H 2135   2.741   4.436   9.217  1.7349  0.2844  0.2056
  137TMC2    H1 2136   2.714   4.183   9.559 -1.4656 -0.4305  0.4536
  137TMC2    H2 2137   2.372   4.411   9.418 -0.7001 -1.7569 -1.6695
  137TMC2    C7 2138   2.463   4.282   9.621  0.0116 -0.4685  0.2298
  137TMC2    C8 2139   2.511   4.541   9.233  0.2593  0.5121  0.1067
  137TMC2    O1 2140   2.398   4.383   9.661  0.5769  0.0378 -0.5103
  137TMC2    O2 2141   2.569   4.633   9.179 -0.3898  0.3635 -0.6708
  137TMC2    O5 2142   2.391   4.499   9.200  0.3000  0.3311 -0.1610
  137TMC2    H5 2143   2.352   4.419   9.242  1.4923 -0.7865 -1.1755
  138MPD2     C 2144   3.136   4.242   9.139 -0.3152 -0.3112 -0.3028
  138MPD2    C1 2145   3.085   4.257   9.268  0.2204 -1.1598  0.2494
  138MPD2    C2 2146   3.181   4.259   9.375  0.7801  0.4469 -0.3647
  138MPD2    C3 2147   3.318   4.247   9.351  0.5026 -0.2498 -0.8452
  138MPD2    C4 2148   3.352   4.202   9.223 -0.0099 -1.0449 -0.0467
  138MPD2    C5 2149   3.266   4.203   9.124 -0.2531 -0.7507 -1.1120
  138MPD2     H 2150   3.159   4.288   9.477  2.0294 -4.3563  1.2874
  138MPD2    H1 2151   3.453   4.172   9.197  0.4683 -0.1550  0.7859
  138MPD2    H2 2152   3.078   4.269   9.052  0.4228  4.6404  0.7370
  138MPD2    H3 2153   3.301   4.185   9.024 -2.2525  2.6056 -2.4081
  138MPD2     N 2154   3.408   4.264   9.455  0.2841  0.3863 -0.8346
  138MPD2    H5 2155   3.377   4.282   9.550  1.3218 -2.2014 -0.0088
  138MPD2    N1 2156   2.947   4.276   9.280  0.5940  0.1731  0.4334
  138MPD2    H7 2157   2.893   4.294   9.196 -0.8854 -1.9497  0.9233
  139TMC2    C1 2158   4.431   2.719  13.560 -1.1238  0.4055  0.5585
  139TMC2    C2 2159   4.520   2.822  13.585 -0.3841  0.4925  0.4625
  139TMC2    C3 2160   4.467   2.945  13.586 -1.0941  0.2393  0.0366
  139TMC2    C4 2161   4.300   2.745  13.537 -0.0888  0.5536  0.2436
  139TMC2    C5 2162   4.254   2.874  13.556 -0.5051  0.2234  0.6741
  139TMC2    C6 2163   4.335   2.980  13.573 -0.4802 -0.5365 -0.0726
  139TMC2     C 2164   4.485   2.588  13.563  0.0452  0.5166 -0.2229
  139TMC2     O 2165   4.604   2.567  13.536 -0.3104  0.5383  0.1357
  139TMC2     H 2166   4.628   2.809  13.585 -0.1398  2.5667  2.8568
  139TMC2    H1 2167   4.238   2.664  13.499 -0.3660  0.6154  0.5682
  139TMC2    H2 2168   4.303   3.083  13.558  2.0982  0.0759 -1.3163
  139TMC2    C7 2169   4.110   2.900  13.538  0.3971  0.0021  0.7503
  139TMC2    C8 2170   4.564   3.049  13.575 -0.3515 -1.6197  0.1135
  139TMC2    O1 2171   4.069   3.010  13.513 -0.2017 -0.1631 -0.3630
  139TMC2    O2 2172   4.576   3.120  13.476  0.5689 -0.0989  0.0906
  139TMC2    O5 2173   4.602   3.072  13.704 -0.2228 -0.4209  0.0112
  139TMC2    H5 2174   4.574   2.997  13.761  0.3247  1.2966  2.5236
  140MPD2     C 2175   4.333   2.310  13.749 -0.4740 -0.1435  0.2736
  140MPD2    C1 2176   4.414   2.367  13.657 -0.4389  0.3109  0.1871
  140MPD2    C2 2177   4.515   2.287  13.612 -0.1887  0.9887  0.0989
  140MPD2    C3 2178   4.541   2.157  13.650  0.4158 -0.0439  0.1282
  140MPD2    C4 2179   4.458   2.108  13.747  0.1720 -0.0705 -0.3025
  140MPD2    C5 2180   4.351   2.182  13.798 -0.4583 -0.4429 -0.7691
  140MPD2     H 2181   4.594   2.330  13.553 -1.0000 -0.3909 -1.9616
  140MPD2    H1 2182   4.468   2.005  13.779 -0.2951  0.4195  1.4397
  140MPD2    H2 2183   4.251   2.368  13.790  1.3651 -0.7185  4.7769
  140MPD2    H3 2184   4.286   2.144  13.875 -0.6386 -2.3269 -1.8441
  140MPD2     N 2185   4.650   2.093  13.586 -0.2011 -0.0775 -0.4718
  140MPD2    H5 2186   4.688   2.132  13.500  2.7747  0.1256  0.9493
  140MPD2    N1 2187   4.393   2.501  13.617  0.3073  0.6705  0.3682
  140MPD2    H7 2188   4.312   2.551  13.652 -0.4755 -0.3043 -0.0114
  141TMC2    C1 2189   4.446   4.200  14.860 -0.9733  0.0661 -0.0895
  141TMC2    C2 2190   4.404   4.254  14.979  0.4035  0.2382  0.4003
  141TMC2    C3 2191   4.498   4.320  15.056 -0.2952  0.0878 -0.1132
  141TMC2    C4 2192   4.571   4.228  14.807  0.2470 -1.0170  0.5526
  141TMC2    C5 2193   4.657   4.297  14.882 -0.3433 -0.3572 -0.6845
  141TMC2    C6 2194   4.625   4.351  15.004  0.6598 -0.1741  0.1342
  141TMC2     C 2195   4.346   4.137  14.775  0.1409  0.6587  0.3121
  141TMC2     O 2196   4.235   4.124  14.817 -0.0297 -0.4851  0.2049
  141TMC2     H 2197   4.315   4.216  15.028  1.0913 -1.0204  0.6842
  141TMC2    H1 2198   4.587   4.210  14.701  2.9819  0.5589  0.7053
  141TMC2    H2 2199   4.699   4.399  15.065  1.3773  1.0350 -1.6838
  141TMC2    C7 2200   0.037   4.360  14.819 -0.1006 -0.2724 -0.0764
  141TMC2    C8 2201   4.452   4.394  15.176 -0.6394  0.6116 -0.0635
  141TMC2    O1 2202   0.060   4.477  14.852  0.1661  0.1947 -0.2444
  141TMC2    O2 2203   4.522   4.427  15.267 -0.3606  0.4147  0.2999
  141TMC2    O5 2204   4.334   4.439  15.135  0.4269  0.3037 -0.1904
  141TMC2    H5 2205   4.317   4.423  15.039 -1.1225 -1.1885  0.3498
  142TMC2    C1 2206   2.773   1.977   9.954 -0.5061  0.4210 -0.4143
  142TMC2    C2 2207   2.734   1.947   9.828  0.1685  0.0307  0.7926
  142TMC2    C3 2208   2.821   1.980   9.728 -0.2741  0.2379 -0.2083
  142TMC2    C4 2209   2.878   2.065   9.981 -0.4931  0.3436 -0.0409
  142TMC2    C5 2210   2.953   2.100   9.877 -0.0651  0.1945  0.7759
  142TMC2    C6 2211   2.936   2.047   9.751  0.2753 -0.6599  0.1222
  142TMC2     C 2212   2.704   1.917  10.074  0.0857  0.3028  0.3344
  142TMC2     O 2213   2.599   1.857  10.042  0.5858  0.3656  0.0944
  142TMC2     H 2214   2.642   1.893   9.810 -0.5595  0.8280  2.1593
  142TMC2    H1 2215   2.882   2.118  10.076 -0.1778 -3.6987  2.2391
  142TMC2    H2 2216   3.001   2.067   9.667  0.6729 -1.3613  0.2689
  142TMC2    C7 2217   3.054   2.200   9.915 -0.4580  0.8518 -0.0881
  142TMC2    C8 2218   2.799   1.915   9.598 -0.5231  0.0233  0.3950
  142TMC2    O1 2219   3.070   2.207  10.032  0.4904 -0.0862 -0.2793
  142TMC2    O2 2220   2.692   1.886   9.552 -0.1142 -0.6069 -0.8969
  142TMC2    O5 2221   2.918   1.897   9.531  0.8203 -0.3462 -0.3906
  142TMC2    H5 2222   2.987   1.889   9.601 -1.1447  0.8082  1.6819
  143MPD2     C 2223   2.655   1.718  10.539 -0.1703  0.0716  0.2013
  143MPD2    C1 2224   2.555   1.738  10.440  0.5468  0.2214  0.1402
  143MPD2    C2 2225   2.593   1.816  10.333  0.5729 -0.7762 -0.0975
  143MPD2    C3 2226   2.727   1.851  10.310  0.3722 -0.0172  0.0423
  143MPD2    C4 2227   2.824   1.832  10.414 -0.4412 -0.0734  0.8857
  143MPD2    C5 2228   2.778   1.765  10.533 -0.3515  0.2160 -0.4440
  143MPD2     H 2229   2.518   1.833  10.255  0.3643 -0.0206  0.2692
  143MPD2    H1 2230   2.929   1.858  10.401 -0.6576 -0.2312 -1.0881
  143MPD2    H2 2231   2.626   1.670  10.632  2.2507 -1.2552  0.2548
  143MPD2    H3 2232   2.848   1.742  10.612 -1.6299  3.5907  1.6544
  143MPD2     N 2233   2.777   1.916  10.192 -0.7673 -0.2679  0.3612
  143MPD2    H5 2234   2.870   1.955  10.194 -1.0922  0.6302 -2.3614
  143MPD2    N1 2235   2.427   1.677  10.461 -0.1780  0.6036 -0.6818
  143MPD2    H7 2236   2.416   1.619  10.543 -0.6901  0.0390 -1.1476
  144TMC2    C1 2237   0.863   1.296   0.759 -0.0867 -0.2789 -0.0996
  144TMC2    C2 2238   0.957   1.212   0.720  0.7563  0.5565 -0.3038
  144TMC2    C3 2239   1.090   1.246   0.726 -0.0695  0.6421 -0.5622
  144TMC2    C4 2240   0.900   1.422   0.814 -0.0117 -0.5120  0.3188
  144TMC2    C5 2241   1.032   1.452   0.819  0.8636  0.0696  0.4864
  144TMC2    C6 2242   1.123   1.376   0.762  0.5507 -0.6147  0.1684
  144TMC2     C 2243   0.720   1.260   0.746 -0.0782 -0.1561 -0.0027
  144TMC2     O 2244   0.697   1.142   0.727 -0.0890 -0.5075  0.1246
  144TMC2     H 2245   0.926   1.115   0.683  1.3685  0.2335  0.0403
  144TMC2    H1 2246   0.825   1.485   0.861  1.2462  0.1641  1.4202
  144TMC2    H2 2247   1.222   1.417   0.745  0.0765 -0.3273 -1.9416
  144TMC2    C7 2248   1.083   1.568   0.897  0.1357 -0.8698  0.6186
  144TMC2    C8 2249   1.177   1.175   0.636 -0.3013  0.0116  0.3694
  144TMC2    O1 2250   1.190   1.553   0.949  0.4260  0.3376 -0.4171
  144TMC2    O2 2251   1.139   1.089   0.554  0.2868 -0.6611 -0.2930
  144TMC2    O5 2252   1.304   1.205   0.669 -0.3193  0.0032  0.5012
  144TMC2    H5 2253   1.317   1.281   0.730  0.6879  0.0596  0.2122
  145MPD2     C 2254   0.252   1.404   0.592 -0.8337 -0.1730 -0.3081
  145MPD2    C1 2255   0.310   1.279   0.603 -0.3423  0.2572 -0.0656
  145MPD2    C2 2256   0.436   1.265   0.657  0.4403 -0.6900  0.9309
  145MPD2    C3 2257   0.511   1.381   0.680  0.4832 -0.4146 -0.2171
  145MPD2    C4 2258   0.454   1.503   0.665  0.5280  0.3561 -0.5618
  145MPD2    C5 2259   0.324   1.516   0.618 -0.2191 -1.0918 -0.3163
  145MPD2     H 2260   0.484   1.167   0.659  1.2623 -0.2532  2.3995
  145MPD2    H1 2261   0.508   1.593   0.692  1.3886  0.1648 -1.6462
  145MPD2    H2 2262   0.145   1.414   0.577 -0.8116  2.9869  1.7823
  145MPD2    H3 2263   0.276   1.612   0.600 -2.7115 -2.1689  0.6262
  145MPD2     N 2264   0.646   1.377   0.724  0.1829  0.0458 -0.3533
  145MPD2    H5 2265   0.706   1.459   0.720 -0.4509  0.5036 -0.4079
  145MPD2    N1 2266   0.239   1.165   0.576  0.0396  0.1821 -0.5400
  145MPD2    H7 2267   0.288   1.085   0.614  0.4148  0.8452  0.3614
  146TMC2    C1 2268   1.958   0.338  12.469 -1.1986 -0.4715 -0.1212
  146TMC2    C2 2269   1.902   0.411  12.364  0.0444 -0.1644  0.1936
  146TMC2    C3 2270   1.985   0.430  12.258 -0.5230 -0.2380  0.6498
  146TMC2    C4 2271   2.084   0.284  12.459 -0.2902 -0.2508  0.3528
  146TMC2    C5 2272   2.161   0.303  12.344 -0.3240 -0.0183  0.2379
  146TMC2    C6 2273   2.112   0.379  12.245  0.3719 -0.2089  0.3220
  146TMC2     C 2274   1.887   0.348  12.596 -0.7332  0.2141  0.7032
  146TMC2     O 2275   1.809   0.442  12.604  0.7512  0.2768 -0.1360
  146TMC2     H 2276   1.803   0.455  12.364 -0.8076 -2.0589  0.6060
  146TMC2    H1 2277   2.119   0.215  12.535  1.3007 -0.4910 -0.6014
  146TMC2    H2 2278   2.172   0.402  12.158 -0.6878  1.2204 -0.0276
  146TMC2    C7 2279   2.257   0.197  12.305  0.2407  0.2875  0.7253
  146TMC2    C8 2280   1.953   0.532  12.156 -0.5077  0.8248  0.2908
  146TMC2    O1 2281   2.261   0.174  12.185 -0.0123  0.0479 -0.0376
  146TMC2    O2 2282   2.042   0.582  12.086 -0.1235  0.4337 -0.3947
  146TMC2    O5 2283   1.825   0.516  12.118  0.3785  0.0664 -0.3105
  146TMC2    H5 2284   1.760   0.504  12.191 -1.7568  1.7175 -1.9424
  147MPD2     C 2285   2.638   4.590  12.370 -0.1022  0.5116  0.0933
  147MPD2    C1 2286   2.568   4.609  12.483 -0.3184  0.5449 -0.3025
  147MPD2    C2 2287   2.466   4.703  12.496 -0.0848 -0.6872 -0.3086
  147MPD2    C3 2288   2.426   0.041  12.391  0.5114  0.2231 -0.2178
  147MPD2    C4 2289   2.496   0.024  12.273  0.1823  0.2781  0.0068
  147MPD2    C5 2290   2.600   4.673  12.262 -0.5101 -0.0465  0.2625
  147MPD2     H 2291   2.427   4.723  12.595 -0.3966 -0.7796 -0.4096
  147MPD2    H1 2292   2.468   0.086  12.190  1.2977  0.9776  0.1562
  147MPD2    H2 2293   2.708   4.509  12.355  0.1184  0.8894 -0.9100
  147MPD2    H3 2294   2.649   4.654  12.167  1.1955 -0.2686  1.1712
  147MPD2     N 2295   2.329   0.141  12.413  0.6359  0.4574  0.2895
  147MPD2    H5 2296   2.292   0.149  12.508  0.8018  0.2937  0.3668
  147MPD2    N1 2297   2.622   4.533  12.591  0.6909  0.1206 -0.1640
  147MPD2    H7 2298   2.713   4.490  12.573 -0.7139 -2.6733 -0.5282
  148TMC2    C1 2299   3.126   2.928  10.664  0.5699  0.2156  0.4572
  148TMC2    C2 2300   3.236   3.011  10.653 -0.2635  0.4840  0.1058
  148TMC2    C3 2301   3.263   3.070  10.528 -0.0806  0.2895  0.7425
  148TMC2    C4 2302   3.058   2.897  10.551 -0.3807 -0.3199 -0.9665
  148TMC2    C5 2303   3.084   2.947  10.433  0.2248  0.0130 -0.9574
  148TMC2    C6 2304   3.184   3.032  10.413 -0.0789 -0.1429 -0.0625
  148TMC2     C 2305   3.059   2.937  10.792  0.0272  0.1008  0.1740
  148TMC2     O 2306   3.123   2.985  10.883  0.3317 -0.6388  0.0127
  148TMC2     H 2307   3.294   3.037  10.741 -0.1629  0.7223 -0.0324
  148TMC2    H1 2308   2.974   2.828  10.548 -0.1210 -0.7040  0.2676
  148TMC2    H2 2309   3.199   3.074  10.314 -0.8565  3.4754  1.3423
  148TMC2    C7 2310   2.976   2.919  10.335 -0.1741  0.5636 -0.0655
  148TMC2    C8 2311   3.354   3.177  10.526 -0.1787 -0.4025 -0.1104
  148TMC2    O1 2312   2.941   2.802  10.334 -0.0232  0.2018 -0.9490
  148TMC2    O2 2313   3.384   3.241  10.627  0.0716  0.0308 -0.2015
  148TMC2    O5 2314   3.427   3.153  10.419  0.0458 -0.2209 -0.0950
  148TMC2    H5 2315   3.404   3.079  10.358  0.9162  0.2494 -0.9976
  149MPD2     C 2316   2.851   2.974  11.014  0.3876 -0.5070  0.0152
  149MPD2    C1 2317   2.830   2.949  10.885  0.3831  0.0015 -0.0149
  149MPD2    C2 2318   2.700   2.963  10.843  0.0986  0.4527 -0.0605
  149MPD2    C3 2319   2.596   3.003  10.923  0.1524  0.2729 -0.0514
  149MPD2    C4 2320   2.630   3.039  11.049 -0.0274  0.1915  0.2359
  149MPD2    C5 2321   2.755   3.011  11.094 -0.8730  0.4917 -0.4436
  149MPD2     H 2322   2.682   2.957  10.736 -1.4007 -0.0094  0.2111
  149MPD2    H1 2323   2.566   3.097  11.115  1.1739 -1.1864  2.5790
  149MPD2    H2 2324   2.951   2.966  11.056  1.4841  1.5473 -2.2108
  149MPD2    H3 2325   2.783   3.028  11.198  0.3637 -1.5370 -0.4538
  149MPD2     N 2326   2.460   3.014  10.871 -0.7350 -0.3347 -0.4103
  149MPD2    H5 2327   2.390   3.064  10.924 -0.2714  1.9501 -1.9742
  149MPD2    N1 2328   2.926   2.922  10.781 -0.4236  0.3657  0.2625
  149MPD2    H7 2329   2.885   2.917  10.688 -0.6051 -2.9481  0.5051
  150TMC2    C1 2330   3.893   2.568  11.981  0.3666 -0.8430 -0.9207
  150TMC2    C2 2331   3.825   2.638  11.891 -0.7852 -0.2358 -0.3576
  150TMC2    C3 2332   3.891   2.686  11.784 -0.0238  0.2884 -0.1433
  150TMC2    C4 2333   4.026   2.560  11.973  0.3607 -0.1682 -0.4374
  150TMC2    C5 2334   4.090   2.612  11.864 -0.1028  0.1585 -0.4323
  150TMC2    C6 2335   4.025   2.672  11.760 -0.4855 -0.0548 -0.0159
  150TMC2     C 2336   3.856   2.590  12.120  0.7451 -0.0420  0.2790
  150TMC2     O 2337   3.953   2.615  12.196  0.2977  0.1197  0.4602
  150TMC2     H 2338   3.719   2.654  11.904 -0.5045  1.2101  0.1517
  150TMC2    H1 2339   4.077   2.493  12.041 -1.7017  0.8018  2.0505
  150TMC2    H2 2340   4.076   2.717  11.676 -2.0823  0.8425 -0.5135
  150TMC2    C7 2341   4.226   2.655  11.881  0.0902 -0.5163  0.5828
  150TMC2    C8 2342   3.832   2.787  11.696  0.2758 -0.5813  0.4146
  150TMC2    O1 2343   4.277   2.715  11.792  0.3666 -0.2127  0.5011
  150TMC2    O2 2344   3.892   2.885  11.651 -0.7335 -0.4127  0.5766
  150TMC2    O5 2345   3.704   2.764  11.683 -0.4491 -0.7949  0.3692
  150TMC2    H5 2346   3.686   2.668  11.689 -0.2195 -0.7948  1.0463
  151MPD2     C 2347   3.582   2.538  12.547 -0.0452  0.5004 -0.1985
  151MPD2    C1 2348   3.514   2.484  12.440  0.0535  0.9143 -0.4233
  151MPD2    C2 2349   3.563   2.489  12.305  0.3543 -0.0462 -0.0475
  151MPD2    C3 2350   3.672   2.564  12.279 -0.5223  0.9669  0.1614
  151MPD2    C4 2351   3.743   2.622  12.385  0.1320 -0.9785 -0.4067
  151MPD2    C5 2352   3.701   2.611  12.517 -0.2660  0.0435 -0.4846
  151MPD2     H 2353   3.510   2.439  12.225 -1.3494  1.8138 -0.1037
  151MPD2    H1 2354   3.839   2.671  12.371 -0.4146 -0.2115 -1.4538
  151MPD2    H2 2355   3.554   2.538  12.652 -1.0511  0.7237 -0.4645
  151MPD2    H3 2356   3.758   2.660  12.595  0.8934 -0.8977 -0.7480
  151MPD2     N 2357   3.726   2.570  12.147 -0.1114 -0.3771  0.1047
  151MPD2    H5 2358   3.664   2.543  12.072 -0.5109  2.9583 -0.7567
  151MPD2    N1 2359   3.392   2.415  12.466  0.7974 -0.2747 -0.0575
  151MPD2    H7 2360   3.351   2.360  12.391 -3.4580  4.5322 -1.2584
  152TMC2    C1 2361   3.964   2.489  12.921  0.3621 -0.0123  0.3149
  152TMC2    C2 2362   4.032   2.408  13.005  0.0858 -0.0915 -0.1947
  152TMC2    C3 2363   4.166   2.379  12.988 -0.5670  0.1183 -0.6145
  152TMC2    C4 2364   4.034   2.550  12.826  0.6298  0.2700  0.5623
  152TMC2    C5 2365   4.170   2.530  12.816  0.1657 -0.0739 -0.4478
  152TMC2    C6 2366   4.243   2.435  12.884  0.2125  0.7903  0.4217
  152TMC2     C 2367   3.822   2.508  12.921  0.3854  0.4432  0.1447
  152TMC2     O 2368   3.762   2.523  12.815  0.1622 -0.0251  0.3334
  152TMC2     H 2369   3.973   2.344  13.070  1.6417 -1.0373  0.2851
  152TMC2    H1 2370   3.980   2.614  12.758 -0.0309  1.4336  2.1805
  152TMC2    H2 2371   4.350   2.425  12.876 -0.0096 -1.0783 -0.1859
  152TMC2    C7 2372   4.227   2.582  12.690 -0.0453 -0.0733  0.3886
  152TMC2    C8 2373   4.210   2.263  13.067 -0.3924 -0.3155  0.4241
  152TMC2    O1 2374   4.146   2.603  12.601  0.0020  0.2235  0.4650
  152TMC2    O2 2375   4.171   2.247  13.185  0.4825  0.1851 -0.0498
  152TMC2    O5 2376   4.327   2.227  13.013 -0.2099 -0.1426 -0.3929
  152TMC2    H5 2377   4.321   2.250  12.917  0.6001 -0.0058 -0.4060
  153MPD2     C 2378   3.618   2.478  13.215 -0.2475  0.1816  0.4262
  153MPD2    C1 2379   3.641   2.495  13.079  0.5931  0.7727  0.0599
  153MPD2    C2 2380   3.532   2.512  12.999  0.0517 -0.3196  0.2461
  153MPD2    C3 2381   3.408   2.531  13.058 -0.1931 -0.0889 -0.0253
  153MPD2    C4 2382   3.386   2.514  13.189 -0.0186 -0.0917  0.1363
  153MPD2    C5 2383   3.488   2.477  13.269 -0.7588  0.6816 -0.5303
  153MPD2     H 2384   3.549   2.527  12.893 -1.5305  0.2781  0.0864
  153MPD2    H1 2385   3.291   2.514  13.242  1.0336 -1.3252  2.0163
  153MPD2    H2 2386   3.704   2.467  13.280 -0.1900  1.1006  0.5021
  153MPD2    H3 2387   3.474   2.448  13.372 -2.8525  0.5550 -0.8588
  153MPD2     N 2388   3.306   2.558  12.971  0.2938  0.2704  0.5056
  153MPD2    H5 2389   3.320   2.551  12.871  0.0158 -3.4464  0.7278
  153MPD2    N1 2390   3.778   2.501  13.049  0.0596 -0.0693 -0.1810
  153MPD2    H7 2391   3.849   2.477  13.117  0.1023  2.3184  0.6380
  154TMC2    C1 2392   0.612   2.607  17.515  0.0868  0.3177 -0.1681
  154TMC2    C2 2393   0.636   2.739  17.522 -0.7450 -0.4167 -0.1452
  154TMC2    C3 2394   0.761   2.783  17.516  0.0549 -0.7375 -0.3340
  154TMC2    C4 2395   0.715   2.517  17.504  0.3147  0.1428  0.0702
  154TMC2    C5 2396   0.844   2.565  17.497  0.5422  0.2883 -0.3657
  154TMC2    C6 2397   0.868   2.699  17.507 -0.2810 -0.3990 -0.2864
  154TMC2     C 2398   0.485   2.557  17.571  0.5601 -0.7538  0.4920
  154TMC2     O 2399   0.389   2.636  17.565  0.1899 -0.3014 -0.3632
  154TMC2     H 2400   0.551   2.806  17.511 -1.8706 -1.4662  2.1505
  154TMC2    H1 2401   0.692   2.412  17.492 -1.8735  0.6949 -0.4422
  154TMC2    H2 2402   0.968   2.737  17.521 -1.6261  3.1723 -0.4226
  154TMC2    C7 2403   0.949   2.467  17.524  0.0361 -0.3642  0.4625
  154TMC2    C8 2404   0.792   2.923  17.536 -0.5735  0.5666  0.4609
  154TMC2    O1 2405   0.922   2.368  17.586  0.1222  0.0533 -0.0067
  154TMC2    O2 2406   0.902   2.972  17.504 -0.6074 -0.1941 -0.2031
  154TMC2    O5 2407   0.673   2.987  17.546  0.5111  0.0693 -0.2847
  154TMC2    H5 2408   0.606   2.931  17.590  0.8579  1.7555  2.3784
  155MPD2     C 2409   0.413   2.215  17.701  0.5440 -0.8225  0.6684
  155MPD2    C1 2410   0.386   2.331  17.629 -0.1415 -0.5139  0.6772
  155MPD2    C2 2411   0.263   2.358  17.568 -0.0646  0.1643  0.1485
  155MPD2    C3 2412   0.162   2.258  17.566 -0.9405  0.6408  0.2186
  155MPD2    C4 2413   0.191   2.138  17.629  0.3438  0.3930  0.1924
  155MPD2    C5 2414   0.312   2.117  17.702  0.1632  0.2240 -0.1875
  155MPD2     H 2415   0.241   2.454  17.523  1.3327 -0.3803 -1.6938
  155MPD2    H1 2416   0.125   2.051  17.630  0.6352  0.1647 -0.7829
  155MPD2    H2 2417   0.510   2.191  17.741  1.1248 -0.3123 -0.4424
  155MPD2    H3 2418   0.330   2.021   0.001  1.6430  0.6116  0.0365
  155MPD2     N 2419   0.038   2.271  17.498  0.3487 -0.1477  0.4083
  155MPD2    H5 2420   4.709   2.197  17.519  0.8984 -0.3483  1.4206
  155MPD2    N1 2421   0.492   2.426  17.617 -0.1250  0.4773 -0.4717
  155MPD2    H7 2422   0.579   2.397  17.661  0.2629  3.6456  0.8601
  156TMC2    C1 2423   3.585   0.204  11.243 -0.5119 -0.3604  0.1107
  156TMC2    C2 2424   3.557   0.182  11.109  0.2009 -0.2404 -0.5316
  156TMC2    C3 2425   3.607   0.267  11.017  0.2770 -0.4896 -0.1416
  156TMC2    C4 2426   3.650   0.320  11.280  0.1196 -0.4595  0.3684
  156TMC2    C5 2427   3.679   0.413  11.187 -0.5346 -0.4528 -0.1845
  156TMC2    C6 2428   3.670   0.384  11.058 -0.2251 -0.8557 -0.3378
  156TMC2     C 2429   3.549   0.101  11.335 -0.4571  0.7825 -0.1575
  156TMC2     O 2430   3.453   0.031  11.308 -0.0642 -0.7848  0.4923
  156TMC2     H 2431   3.515   0.085  11.085  0.2958 -0.3151 -0.3942
  156TMC2    H1 2432   3.652   0.341  11.386  0.0613  1.3122  0.0159
  156TMC2    H2 2433   3.682   0.472  10.996  2.4296 -0.3948  0.8401
  156TMC2    C7 2434   3.694   0.547  11.237 -0.0798  0.9003 -0.4461
  156TMC2    C8 2435   3.573   0.236  10.880 -0.2285  0.1859  0.0617
  156TMC2    O1 2436   3.791   0.605  11.191  0.6072 -0.6587 -0.3434
  156TMC2    O2 2437   3.522   0.129  10.841  0.0393  0.3859  0.1423
  156TMC2    O5 2438   3.629   0.326  10.797  0.2721 -0.3032  0.2780
  156TMC2    H5 2439   3.647   0.411  10.843  0.0556 -1.0675  1.7704
  157MPD2     C 2440   3.548   4.662  11.571 -0.1877 -1.0441  0.2346
  157MPD2    C1 2441   3.658   4.737  11.543 -0.3223  0.0945  0.7139
  157MPD2    C2 2442   3.759   0.011  11.632  0.2959 -0.3145  0.2897
  157MPD2    C3 2443   3.756   4.685  11.749 -0.1654 -0.8806 -0.3642
  157MPD2    C4 2444   3.640   4.618  11.791 -0.1933 -0.6333 -0.2465
  157MPD2    C5 2445   3.546   4.604  11.697 -0.3475  0.3423 -0.5006
  157MPD2     H 2446   3.843   0.078  11.621  2.4490 -2.7595  1.7567
  157MPD2    H1 2447   3.627   4.564  11.883 -0.4801 -0.1573 -0.0084
  157MPD2    H2 2448   3.459   4.653  11.509  0.2296 -0.6491 -0.4344
  157MPD2    H3 2449   3.456   4.550  11.726  0.7463 -0.1770  1.8695
  157MPD2     N 2450   3.871   4.701  11.828  0.0573  0.5969  0.6483
  157MPD2    H5 2451   3.947   0.023  11.796 -0.1030  0.1049 -0.6279
  157MPD2    N1 2452   3.645   0.095  11.433  0.3194 -0.3805  0.2106
  157MPD2    H7 2453   3.712   0.169  11.415 -1.5753  1.1995 -0.3684
  158TMC2    C1 2454   4.286   3.760  13.258 -0.5397  0.4832 -0.3250
  158TMC2    C2 2455   4.348   3.789  13.133  0.1633 -0.3920  0.2195
  158TMC2    C3 2456   4.293   3.872  13.046 -0.0875  0.2303  0.7142
  158TMC2    C4 2457   4.171   3.816  13.300  0.5457  0.5118  0.2595
  158TMC2    C5 2458   4.123   3.910  13.208 -0.2016 -0.0829  0.2272
  158TMC2    C6 2459   4.187   3.939  13.089 -0.1159 -0.5623 -0.2733
  158TMC2     C 2460   4.344   3.648  13.329 -0.7862 -0.0324  0.1164
  158TMC2     O 2461   4.408   3.567  13.262  0.5374 -0.5706 -0.0979
  158TMC2     H 2462   4.439   3.739  13.101  0.3329  0.5809 -0.8130
  158TMC2    H1 2463   4.121   3.794  13.395  1.4011 -1.1136  0.3324
  158TMC2    H2 2464   4.138   4.013  13.027 -0.8239 -1.3265 -0.6221
  158TMC2    C7 2465   3.981   3.931  13.208 -0.0945  0.2809  0.0637
  158TMC2    C8 2466   4.369   3.912  12.933  0.2168  0.0196  0.3693
  158TMC2    O1 2467   3.947   4.043  13.166  0.1218  0.6605  0.0160
  158TMC2    O2 2468   4.490   3.937  12.945 -0.7558 -0.0910 -0.4733
  158TMC2    O5 2469   4.298   3.944  12.825  0.0475  0.0699  0.5122
  158TMC2    H5 2470   4.206   3.911  12.834 -0.3938  1.4044  0.9411
  159MPD2     C 2471   4.479   3.399  13.743 -0.0888 -0.1331 -0.4220
  159MPD2    C1 2472   4.369   3.472  13.773  0.3101 -0.2249 -0.2346
  159MPD2    C2 2473   4.311   3.549  13.680  0.4187 -0.3016  0.2703
  159MPD2    C3 2474   4.370   3.559  13.557  0.2184  0.5934  0.0567
  159MPD2    C4 2475   4.475   3.473  13.526 -0.9811  0.8069  0.3039
  159MPD2    C5 2476   4.539   3.400  13.621 -0.1113  0.4911 -0.2189
  159MPD2     H 2477   4.212   3.591  13.691 -1.2929 -4.2455 -0.0892
  159MPD2    H1 2478   4.527   3.484  13.431 -1.6185 -1.2859 -0.2676
  159MPD2    H2 2479   4.523   3.333  13.817 -0.7655  1.1890  1.1643
  159MPD2    H3 2480   4.632   3.351  13.594  0.4528  1.8034 -0.6700
  159MPD2     N 2481   4.313   3.640  13.463 -0.3668 -0.4235 -0.6165
  159MPD2    H5 2482   4.245   3.701  13.507 -0.6088 -0.1504 -1.3612
  159MPD2    N1 2483   4.302   3.442  13.896 -0.2085  0.2050 -0.1920
  159MPD2    H7 2484   4.327   3.352  13.936 -1.7945 -0.1328  0.0267
  160TMC2    C1 2485   3.690   1.150   1.418 -0.0167  0.0831  0.1100
  160TMC2    C2 2486   3.686   1.086   1.540 -0.0851 -0.3952 -0.0310
  160TMC2    C3 2487   3.804   1.049   1.595 -1.0097  0.6019  0.0819
  160TMC2    C4 2488   3.805   1.182   1.348  0.0820  0.3385  0.6558
  160TMC2    C5 2489   3.925   1.151   1.411 -0.2265 -0.4716 -0.0060
  160TMC2    C6 2490   3.926   1.077   1.531 -0.0868  0.1406 -0.1195
  160TMC2     C 2491   3.566   1.210   1.387  0.3955  0.2976  0.0084
  160TMC2     O 2492   3.463   1.177   1.448  0.3274  0.1704 -0.2276
  160TMC2     H 2493   3.608   1.099   1.614  0.0795  0.8911 -0.0727
  160TMC2    H1 2494   3.807   1.237   1.255  0.0015  1.3854  1.2645
  160TMC2    H2 2495   4.018   1.070   1.587 -0.0851  2.3611  0.1451
  160TMC2    C7 2496   4.053   1.191   1.355 -0.3760 -0.1721 -1.3174
  160TMC2    C8 2497   3.810   1.010   1.725 -0.1748 -0.2822 -0.1574
  160TMC2    O1 2498   4.156   1.133   1.383 -0.6123 -0.1296  0.4790
  160TMC2    O2 2499   3.862   1.082   1.807  0.0881 -0.1106 -0.3895
  160TMC2    O5 2500   3.711   0.925   1.752 -0.2296  0.0152  0.3325
  160TMC2    H5 2501   3.689   0.883   1.666 -1.3411 -2.3046  1.7418
  161MPD2     C 2502   3.345   1.322   1.214  0.3664 -0.4870  0.0293
  161MPD2    C1 2503   3.475   1.372   1.222 -1.2352  0.3535  0.0261
  161MPD2    C2 2504   3.510   1.478   1.137 -0.4007 -0.7086  0.1926
  161MPD2    C3 2505   3.412   1.538   1.061  0.0181 -0.0253 -0.1983
  161MPD2    C4 2506   3.287   1.486   1.064 -0.6819 -0.4756  0.3654
  161MPD2    C5 2507   3.253   1.380   1.139 -0.5420  0.7744 -0.0687
  161MPD2     H 2508   3.613   1.510   1.132 -0.6911  0.2452  0.2753
  161MPD2    H1 2509   3.211   1.542   1.011  0.6526  0.4169 -0.5899
  161MPD2    H2 2510   3.312   1.233   1.267 -0.4196 -0.7710 -0.9381
  161MPD2    H3 2511   3.151   1.342   1.136  0.2554 -1.3876  0.2342
  161MPD2     N 2512   3.437   1.645   0.974 -0.4814 -0.4521 -0.3239
  161MPD2    H5 2513   3.362   1.667   0.910 -0.3170 -0.6933 -0.5992
  161MPD2    N1 2514   3.576   1.308   1.287 -0.0879  0.2854  0.1295
  161MPD2    H7 2515   3.669   1.344   1.267  1.1378 -2.6583  0.6092
  162TMC2    C1 2516   0.960   3.346   0.391  0.6765 -0.8286  0.5285
  162TMC2    C2 2517   0.846   3.368   0.321  0.1314  0.2916  0.1948
  162TMC2    C3 2518   0.772   3.482   0.339 -0.4110  0.2113  0.1838
  162TMC2    C4 2519   1.004   3.434   0.489 -0.3227  0.7120  0.2919
  162TMC2    C5 2520   0.923   3.546   0.505 -0.2376  0.5136 -0.0507
  162TMC2    C6 2521   0.797   3.563   0.446  0.5191  0.3333  0.4303
  162TMC2     C 2522   1.072   3.269   0.344  0.7163  0.6499  0.1282
  162TMC2     O 2523   1.169   3.264   0.419  0.0349  0.0869 -0.5791
  162TMC2     H 2524   0.812   3.294   0.249 -0.7643 -0.6881  1.6107
  162TMC2    H1 2525   1.095   3.412   0.543  0.5976  3.4561 -0.1459
  162TMC2    H2 2526   0.725   3.640   0.470  0.3830  0.1108  0.7346
  162TMC2    C7 2527   0.963   3.660   0.586 -0.3771 -0.5467  0.4709
  162TMC2    C8 2528   0.628   3.480   0.299 -0.5365 -0.4596 -0.8027
  162TMC2    O1 2529   0.923   3.771   0.557 -0.3443  0.3484  0.2517
  162TMC2    O2 2530   0.544   3.550   0.350  0.2325  0.0343  0.4690
  162TMC2    O5 2531   0.622   3.428   0.173 -0.1911 -0.7661 -0.2525
  162TMC2    H5 2532   0.709   3.425   0.128 -0.4452 -2.2323 -0.6429
  163MPD2     C 2533   1.331   3.087  17.692  0.3351 -0.0163  0.4095
  163MPD2    C1 2534   1.367   3.103   0.075  0.3392 -0.9400  0.1160
  163MPD2    C2 2535   1.269   3.137   0.166  0.2197 -0.4488 -0.4557
  163MPD2    C3 2536   1.138   3.152   0.129 -0.6804  0.1680 -0.2160
  163MPD2    C4 2537   1.100   3.142  17.745 -0.3485  0.2561 -0.6861
  163MPD2    C5 2538   1.195   3.103  17.658 -0.5010  0.0063  0.0307
  163MPD2     H 2539   1.293   3.174   0.265 -0.1059  0.3832 -0.6873
  163MPD2    H1 2540   0.997   3.156  17.716 -0.1527 -0.5990 -1.8193
  163MPD2    H2 2541   1.400   3.057  17.614 -0.6452  0.5643 -0.6951
  163MPD2    H3 2542   1.172   3.088  17.554  0.2607  0.0125 -0.1369
  163MPD2     N 2543   1.048   3.217   0.219 -0.0401 -0.2319  0.2862
  163MPD2    H5 2544   0.948   3.226   0.202 -0.2876 -1.8224  0.9193
  163MPD2    N1 2545   1.496   3.101   0.105 -0.0218  0.8846  0.1730
  163MPD2    H7 2546   1.558   3.094   0.025 -0.0112  0.4647  0.2218
  164TMC2    C1 2547   3.101   3.370  11.430 -0.7571  0.2046 -0.2822
  164TMC2    C2 2548   3.046   3.363  11.556  0.5847 -0.6978 -0.0898
  164TMC2    C3 2549   2.913   3.374  11.578 -0.5351 -0.7153 -0.6960
  164TMC2    C4 2550   3.021   3.388  11.319  0.3610 -0.1561 -0.2641
  164TMC2    C5 2551   2.889   3.400  11.345 -0.0615  0.5330 -0.1743
  164TMC2    C6 2552   2.834   3.399  11.470  0.4506  0.1151  0.0396
  164TMC2     C 2553   3.244   3.400  11.411 -0.8839  1.0468 -0.3434
  164TMC2     O 2554   3.306   3.417  11.514  0.2920  0.4780 -0.7440
  164TMC2     H 2555   3.115   3.359  11.639 -1.5145 -0.3857  1.6711
  164TMC2    H1 2556   3.067   3.433  11.232 -2.1744 -1.0585 -2.0808
  164TMC2    H2 2557   2.729   3.385  11.492  0.0513 -2.0145 -3.2246
  164TMC2    C7 2558   2.794   3.390  11.237  0.4330 -0.1506 -0.0123
  164TMC2    C8 2559   2.867   3.423  11.704 -0.6435  0.2214 -0.1584
  164TMC2    O1 2560   2.682   3.422  11.275 -0.1217 -0.0567 -0.2345
  164TMC2    O2 2561   2.781   3.510  11.698 -0.1758  0.3834 -0.0260
  164TMC2    O5 2562   2.868   3.314  11.779  0.1455  0.0152 -0.4787
  164TMC2    H5 2563   2.915   3.241  11.732 -0.6769 -0.1294 -1.0803
  165TMC2    C1 2564   3.755   0.040   0.597  0.0875  0.0688 -0.4603
  165TMC2    C2 2565   3.722   4.648   0.582 -0.6249  0.2929 -0.0520
  165TMC2    C3 2566   3.764   4.554   0.677  0.2837 -0.3303  0.2334
  165TMC2    C4 2567   3.844   0.073   0.694  0.6185  0.4228  0.2925
  165TMC2    C5 2568   3.892   4.717   0.785  0.0413 -1.1170  0.1191
  165TMC2    C6 2569   3.860   4.586   0.770  1.0366 -0.8671 -0.0889
  165TMC2     C 2570   3.652   0.134   0.552 -0.0321 -0.5299 -0.2099
  165TMC2     O 2571   3.543   0.088   0.535 -0.5318  0.0495  0.3670
  165TMC2     H 2572   3.637   4.625   0.518  0.3100 -1.3722 -0.6906
  165TMC2    H1 2573   3.856   0.179   0.716  2.2136  0.2437  0.2944
  165TMC2    H2 2574   3.881   4.518   0.852  0.1979 -1.0507 -0.0271
  165TMC2    C7 2575   3.917   0.037   0.920  0.1933 -0.0824 -0.3077
  165TMC2    C8 2576   3.697   4.424   0.693  0.2291  1.3977  0.1163
  165TMC2    O1 2577   4.003   0.128   0.924  0.7683 -0.5345 -0.5510
  165TMC2    O2 2578   3.718   4.356   0.788  0.2351 -0.2421 -0.2164
  165TMC2    O5 2579   3.671   4.372   0.569 -0.2276  0.1225 -0.4192
  165TMC2    H5 2580   3.673   4.431   0.490 -3.1732  1.5309  0.5616
  166MPD2     C 2581   3.483   0.609   0.452 -0.4835 -0.8229 -0.0673
  166MPD2    C1 2582   3.411   0.499   0.501 -0.3380 -0.1085  0.1996
  166MPD2    C2 2583   3.493   0.390   0.524  0.4479  0.1445 -0.1468
  166MPD2    C3 2584   3.631   0.377   0.488 -0.3139 -0.6290 -0.6308
  166MPD2    C4 2585   3.700   0.495   0.458 -0.6484  0.4904 -0.2609
  166MPD2    C5 2586   3.618   0.601   0.436 -0.3746 -0.0962  0.0881
  166MPD2     H 2587   3.449   0.299   0.562 -0.8934 -0.3671 -2.8910
  166MPD2    H1 2588   3.807   0.498   0.440 -0.9313  3.3091 -1.3562
  166MPD2    H2 2589   3.440   0.708   0.443 -2.0004 -1.7529 -3.0547
  166MPD2    H3 2590   3.675   0.689   0.407  1.7451 -1.3660  0.4331
  166MPD2     N 2591   3.705   0.259   0.511  0.3369 -0.3566 -0.1796
  166MPD2    H5 2592   3.806   0.273   0.508  0.2760 -0.4636 -2.9623
  166MPD2    N1 2593   3.272   0.515   0.531 -0.0143  0.1224  0.2529
  166MPD2    H7 2594   3.222   0.603   0.522 -1.1072 -0.5008  0.1515
  167TMC2    C1 2595   2.089   3.813  12.894 -0.1436  0.1665 -1.0306
  167TMC2    C2 2596   2.008   3.857  12.992  0.6383  0.2795 -0.0712
  167TMC2    C3 2597   1.967   3.772  13.091 -0.4999 -0.1663  0.2157
  167TMC2    C4 2598   2.129   3.679  12.902  0.0124 -1.0707  0.3539
  167TMC2    C5 2599   2.080   3.593  13.004 -0.1155  0.5177 -0.1980
  167TMC2    C6 2600   1.995   3.640  13.094 -0.2704  0.1589  0.3357
  167TMC2     C 2601   2.094   3.873  12.771  0.0623 -0.3009  0.6380
  167TMC2     O 2602   2.061   3.992  12.773  0.3670  0.2624 -0.4539
  167TMC2     H 2603   1.974   3.960  12.987 -0.4094  0.0247  2.0051
  167TMC2    H1 2604   2.207   3.645  12.834  2.2662  2.1883  1.3307
  167TMC2    H2 2605   1.963   3.575  13.175 -2.1666  0.9483  0.2206
  167TMC2    C7 2606   2.113   3.455  13.015 -0.0514  0.1076  0.1553
  167TMC2    C8 2607   1.918   3.818  13.216 -0.4201 -0.3743 -0.0783
  167TMC2    O1 2608   2.079   3.397  13.117  0.4362 -0.0609  0.3331
  167TMC2    O2 2609   1.961   3.770  13.317 -0.3279  0.1920 -0.2478
  167TMC2    O5 2610   1.787   3.798  13.185  0.4011  0.4775  0.0827
  167TMC2    H5 2611   1.760   3.818  13.093  1.2695  2.0619  0.1796
  168MPD2     C 2612   2.049   3.946  12.477  0.4145  0.3200 -0.8100
  168MPD2    C1 2613   2.084   3.823  12.524 -0.6030  0.3094  0.0151
  168MPD2    C2 2614   2.092   3.719  12.435  0.2493  0.2141 -0.7550
  168MPD2    C3 2615   2.063   3.729  12.296 -0.1909  0.9285  0.1530
  168MPD2    C4 2616   2.028   3.860  12.250 -0.3120  0.0006 -0.0961
  168MPD2    C5 2617   2.013   3.961  12.342  0.0044  0.1291 -0.5934
  168MPD2     H 2618   2.127   3.622  12.467 -1.1735  0.0130  0.2060
  168MPD2    H1 2619   2.018   3.886  12.146  0.8352 -1.8713 -0.6681
  168MPD2    H2 2620   2.053   4.036  12.537 -0.6126 -0.5527  0.5898
  168MPD2    H3 2621   2.003   4.063  12.308 -3.5783  1.0168  3.1903
  168MPD2     N 2622   2.084   3.618  12.204 -0.3420  0.4013  0.0890
  168MPD2    H5 2623   2.109   3.528  12.244 -1.1896  0.9420  1.8574
  168MPD2    N1 2624   2.106   3.786  12.666 -0.5849 -0.1308  0.2122
  168MPD2    H7 2625   2.104   3.686  12.685  2.6369 -0.2306  0.1578
  169MPD1     C 2626   4.092   2.007  10.475 -0.0348  0.3259 -0.0267
  169MPD1    C1 2627   4.010   1.957  10.376  0.0631 -0.5102  0.0593
  169MPD1    C2 2628   4.005   2.028  10.255 -0.3576 -0.6320 -0.3071
  169MPD1    C3 2629   4.078   2.143  10.240  0.5212 -0.3954  0.1139
  169MPD1    C4 2630   4.160   2.184  10.343 -0.9657 -0.0131 -0.5979
  169MPD1    C5 2631   4.172   2.114  10.457 -0.4008 -0.2771  0.5379
  169MPD1     H 2632   3.941   2.004  10.171 -1.0202  2.5861 -0.7114
  169MPD1    H1 2633   4.227   2.269  10.351  0.6512 -1.2679 -0.8757
  169MPD1    H2 2634   4.107   1.947  10.564  1.2338  2.4543  1.1975
  169MPD1    H3 2635   4.234   2.151  10.538 -3.2160 -1.2971  3.1358
  169MPD1     N 2636   4.061   2.215  10.119 -0.2792 -0.3231 -0.1483
  169MPD1    H5 2637   3.977   2.188  10.070 -1.4432 -0.3641  1.8728
  169MPD1    N1 2638   3.935   1.837  10.395 -0.3459  0.0462 -0.0565
  169MPD1    H6 2639   3.938   1.808  10.492 -0.6018 -2.2164 -0.7182
  169MPD1    H7 2640   3.836   1.852  10.378 -0.3968  0.9626  1.0653
  170MPD1     C 2641   2.683   0.451  12.913 -0.7655 -0.3368 -0.1586
  170MPD1    C1 2642   2.783   0.413  13.000 -1.0551  0.7457 -0.2098
  170MPD1    C2 2643   2.804   0.501  13.107  0.2786 -0.0686 -0.1498
  170MPD1    C3 2644   2.718   0.606  13.129  0.0905 -0.3697  0.1358
  170MPD1    C4 2645   2.616   0.630  13.039  0.1263  0.1946 -0.1147
  170MPD1    C5 2646   2.595   0.547  12.935  0.0434  0.0614 -0.2106
  170MPD1     H 2647   2.880   0.482  13.182 -0.0361  0.8163  0.4054
  170MPD1    H1 2648   2.554   0.719  13.042 -0.8427 -0.4477 -1.0824
  170MPD1    H2 2649   2.675   0.393  12.821  2.8199  0.1334 -0.7752
  170MPD1    H3 2650   2.518   0.563  12.860 -1.3790  0.1735  1.2806
  170MPD1     N 2651   2.727   0.692  13.241  0.0519  0.4346 -0.0568
  170MPD1    H5 2652   2.803   0.668  13.305  0.2737 -0.0780 -0.5094
  170MPD1    N1 2653   2.880   0.321  12.957  0.2475 -0.5326 -0.3097
  170MPD1    H6 2654   2.932   0.288  13.038 -0.0176 -0.5293 -0.1380
  170MPD1    H7 2655   2.837   0.244  12.907 -0.8395 -0.2685  0.2125
  171MPD1     C 2656   1.021   1.594  15.142  0.5773  0.1011  0.4645
  171MPD1    C1 2657   0.967   1.475  15.191 -0.4163 -0.9669 -0.0435
  171MPD1    C2 2658   0.991   1.448  15.324  0.0047 -0.0835  0.3647
  171MPD1    C3 2659   1.075   1.519  15.410  0.1768  0.0809  0.5956
  171MPD1    C4 2660   1.127   1.637  15.352  0.2436 -0.0364 -0.2966
  171MPD1    C5 2661   1.096   1.675  15.224 -0.2694  0.1944  0.0058
  171MPD1     H 2662   0.958   1.349  15.354  0.6450 -0.3198  0.2984
  171MPD1    H1 2663   1.188   1.702  15.414 -1.4567  1.7448 -0.4619
  171MPD1    H2 2664   0.989   1.638  15.048 -0.4500 -1.5726  0.0338
  171MPD1    H3 2665   1.131   1.772  15.191 -0.3602 -0.1171 -1.0209
  171MPD1     N 2666   1.111   1.493  15.547 -0.0784  0.5816  0.3839
  171MPD1    H5 2667   1.163   1.566  15.595 -1.3349  1.7527 -0.0455
  171MPD1    N1 2668   0.877   1.413  15.108  0.6648 -0.2329 -0.1833
  171MPD1    H6 2669   0.906   1.415  15.011 -1.5981  2.1421 -0.8321
  171MPD1    H7 2670   0.862   1.319  15.144 -0.3280 -0.6384 -1.6582
  172MPD1     C 2671   0.655   0.917  17.342  0.6668  0.1843  0.4421
  172MPD1    C1 2672   0.637   1.050  17.334  0.0430 -0.7599 -0.9249
  172MPD1    C2 2673   0.614   1.122  17.450 -0.8330 -0.5475  0.2187
  172MPD1    C3 2674   0.604   1.056  17.572 -0.1239 -0.0389 -0.2673
  172MPD1    C4 2675   0.616   0.918  17.572 -0.1441  0.6040 -0.5185
  172MPD1    C5 2676   0.643   0.850  17.458 -0.1727  0.3539 -0.6579
  172MPD1     H 2677   0.607   1.230  17.442 -0.1797 -0.4870  0.4860
  172MPD1    H1 2678   0.622   0.862  17.665 -0.1334  1.8687  0.2465
  172MPD1    H2 2679   0.676   0.859  17.253 -0.1037  1.3625 -0.4991
  172MPD1    H3 2680   0.656   0.742  17.463  2.8195  0.7649  0.5086
  172MPD1     N 2681   0.583   1.124  17.698 -0.0311 -0.3482  0.0193
  172MPD1    H5 2682   0.575   1.072   0.037  1.1775  1.0352  0.9655
  172MPD1    N1 2683   0.651   1.117  17.209  0.0942  0.5105  0.6733
  172MPD1    H6 2684   0.628   1.216  17.214 -0.3682  0.4275  0.2644
  172MPD1    H7 2685   0.592   1.086  17.132  0.7204  0.0812  0.3663
  173MPD1     C 2686   2.152   1.392  14.408  0.0697  0.1363  1.0613
  173MPD1    C1 2687   2.018   1.359  14.408 -0.0053 -0.4929 -0.5434
  173MPD1    C2 2688   1.977   1.230  14.434  0.4898 -0.1341  0.4214
  173MPD1    C3 2689   2.067   1.139  14.485  0.3952 -0.0479  0.1195
  173MPD1    C4 2690   2.195   1.170  14.482  0.5585  0.0620  0.1293
  173MPD1    C5 2691   2.236   1.286  14.435  0.1356 -0.6130 -0.0892
  173MPD1     H 2692   1.874   1.198  14.426 -0.2799  1.4448  3.9878
  173MPD1    H1 2693   2.275   1.105  14.517  0.6606  0.4384  0.6006
  173MPD1    H2 2694   2.190   1.485  14.369 -1.5481 -0.0539 -0.9807
  173MPD1    H3 2695   2.343   1.305  14.436 -0.0929  0.5789  2.7012
  173MPD1     N 2696   2.018   1.017  14.534  0.5750 -0.4651 -0.4532
  173MPD1    H5 2697   1.917   1.016  14.548  0.5932 -1.1061 -0.3626
  173MPD1    N1 2698   1.932   1.439  14.329 -0.4685 -0.0450 -0.7311
  173MPD1    H6 2699   1.832   1.425  14.343 -0.2175  1.8960  3.0289
  173MPD1    H7 2700   1.947   1.538  14.348 -0.4921 -0.2587  0.4496
  174MPD1     C 2701   2.359   4.725  14.727 -0.5978 -0.2717 -0.3539
  174MPD1    C1 2702   2.402   0.110  14.781 -0.7758  0.0495  0.2556
  174MPD1    C2 2703   2.323   0.221  14.767 -0.3084 -0.1080 -0.4300
  174MPD1    C3 2704   2.207   0.212  14.693  0.8531 -0.0375 -0.3935
  174MPD1    C4 2705   2.174   0.095  14.628  0.0580 -0.1273 -1.0459
  174MPD1    C5 2706   2.246   4.718  14.648 -0.2667  0.4278  0.2079
  174MPD1     H 2707   2.351   0.305  14.830 -1.7047  0.5019 -0.6249
  174MPD1    H1 2708   2.095   0.089  14.555  0.1028 -1.4380 -0.9896
  174MPD1    H2 2709   2.423   4.638  14.732 -1.0351 -0.6178 -0.8369
  174MPD1    H3 2710   2.220   4.632  14.587 -1.8307  1.5514 -0.7020
  174MPD1     N 2711   2.125   0.328  14.669  0.3720  0.1065 -0.6007
  174MPD1    H5 2712   2.043   0.315  14.610  1.1435 -0.5982 -1.5107
  174MPD1    N1 2713   2.520   0.117  14.854  1.3069  0.2592 -0.3953
  174MPD1    H6 2714   2.538   0.217  14.863 -1.5915  0.8966 -1.7424
  174MPD1    H7 2715   2.600   0.086  14.799  1.0757 -2.2835  0.6788
  175MPD1     C 2716   4.372   2.705  15.750 -0.5558 -0.4580  0.1661
  175MPD1    C1 2717   4.489   2.645  15.707  0.0733  0.0469 -0.6853
  175MPD1    C2 2718   4.548   2.552  15.789  0.0516  0.5813  0.0403
  175MPD1    C3 2719   4.479   2.502  15.893  0.4982  0.5961 -0.2259
  175MPD1    C4 2720   4.357   2.550  15.924 -0.0807 -0.1157 -0.6855
  175MPD1    C5 2721   4.298   2.651  15.852  0.4162  1.1142 -0.1040
  175MPD1     H 2722   4.651   2.527  15.768 -0.6854 -1.1527 -1.5678
  175MPD1    H1 2723   4.309   2.521  16.017  1.0169 -0.8930 -0.3592
  175MPD1    H2 2724   4.331   2.796  15.708 -2.2911 -1.1014  0.4501
  175MPD1    H3 2725   4.216   2.713  15.886 -1.4847 -0.2761 -2.1816
  175MPD1     N 2726   4.524   2.389  15.966 -0.2108  0.0140 -0.1094
  175MPD1    H5 2727   4.452   2.342  16.019 -1.1340  0.9388 -0.5498
  175MPD1    N1 2728   4.570   2.711  15.609 -0.9611  0.1871 -0.5080
  175MPD1    H6 2729   4.654   2.657  15.591 -0.5143  1.6087 -2.7276
  175MPD1    H7 2730   4.522   2.732  15.522  0.9779  3.5484 -0.7744
  176MPD1     C 2731   2.013   3.346  17.347 -0.0580  0.0514  0.4093
  176MPD1    C1 2732   2.084   3.265  17.252  0.1171 -0.0394  0.4219
  176MPD1    C2 2733   2.083   3.313  17.123  0.0365 -0.1568 -0.3032
  176MPD1    C3 2734   2.033   3.437  17.085  0.0986  0.8485  0.0055
  176MPD1    C4 2735   1.974   3.517  17.176  0.2716 -0.5581 -0.5381
  176MPD1    C5 2736   1.970   3.472  17.304  0.1657  0.3499 -0.4216
  176MPD1     H 2737   2.141   3.254  17.052  0.7966 -0.8574  0.8976
  176MPD1    H1 2738   1.929   3.614  17.159 -0.0509 -0.3599  1.3708
  176MPD1    H2 2739   2.009   3.322  17.453 -0.8537  1.1326  0.6186
  176MPD1    H3 2740   1.916   3.537  17.372  1.8558  1.7595 -0.4416
  176MPD1     N 2741   2.035   3.472  16.945 -0.6788 -0.7659 -0.1150
  176MPD1    H5 2742   2.084   3.409  16.883  2.3096  0.3255  1.1301
  176MPD1    N1 2743   2.169   3.158  17.294 -0.0598  0.4122 -0.8200
  176MPD1    H6 2744   2.172   3.091  17.217 -0.4735  0.2901 -0.7314
  176MPD1    H7 2745   2.134   3.111  17.377 -2.2210  1.9989 -0.8304
  177MPD1     C 2746   4.732   3.958   9.982  0.3825 -0.4410  0.0953
  177MPD1    C1 2747   0.004   3.833   9.937  0.1251  0.0698 -0.0104
  177MPD1    C2 2748   4.680   3.796   9.823  0.0148 -0.3530 -0.0140
  177MPD1    C3 2749   4.608   3.889   9.748  0.1590 -0.2240 -0.6120
  177MPD1    C4 2750   4.601   4.024   9.787  0.8727 -0.4483  0.3451
  177MPD1    C5 2751   4.678   4.053   9.901  0.0261 -0.6824  0.2476
  177MPD1     H 2752   4.691   3.699   9.775 -0.4629  1.1314 -3.1124
  177MPD1    H1 2753   4.574   4.108   9.723  1.0085  0.8103  1.9424
  177MPD1    H2 2754   0.053   3.981  10.071  1.2326  1.7535 -1.0361
  177MPD1    H3 2755   4.684   4.155   9.936  1.5248 -0.3769 -0.9165
  177MPD1     N 2756   4.551   3.840   9.629 -0.0148 -0.4027 -0.4113
  177MPD1    H5 2757   4.565   3.740   9.615 -0.4506 -0.3393 -1.3131
  177MPD1    N1 2758   0.051   3.731  10.018 -0.2074  0.4889  0.1211
  177MPD1    H6 2759   0.120   3.769  10.083  0.8826  2.0390 -1.9405
  177MPD1    H7 2760   0.086   3.649   9.968 -0.0432  0.2641  0.5989
  178MPD1     C 2761   2.101   4.168   0.136  0.3199  0.0066 -0.9141
  178MPD1    C1 2762   2.207   4.236   0.188 -0.3789  0.4912 -0.0799
  178MPD1    C2 2763   2.320   4.254   0.116 -0.4121  0.5580 -0.2451
  178MPD1    C3 2764   2.330   4.218  17.731  0.2376  0.2941  0.3200
  178MPD1    C4 2765   2.230   4.143  17.688 -0.3947  0.1298  0.4161
  178MPD1    C5 2766   2.111   4.115   0.009 -0.4533  0.3590  0.4225
  178MPD1     H 2767   2.403   4.309   0.159  1.3205 -2.0396 -0.2521
  178MPD1    H1 2768   2.232   4.112  17.584 -1.7719 -0.7347  0.6478
  178MPD1    H2 2769   2.013   4.143   0.195  1.9906 -0.4806  1.3569
  178MPD1    H3 2770   2.030   4.062  17.709  0.3287 -0.3203 -0.1368
  178MPD1     N 2771   2.433   4.246  17.642  0.4500  0.2830  0.3655
  178MPD1    H5 2772   2.418   4.205  17.551  0.1370  1.1084  0.0423
  178MPD1    N1 2773   2.199   4.270   0.324  0.2062  0.0749  0.1924
  178MPD1    H6 2774   2.105   4.292   0.355  0.5909  1.7706  0.1939
  178MPD1    H7 2775   2.259   4.347   0.354  1.0258 -0.4129 -0.1985
  179MPD1     C 2776   2.611   3.068  15.714  0.7863 -0.2994 -0.1040
  179MPD1    C1 2777   2.585   2.963  15.639  0.2640  0.2911 -0.0589
  179MPD1    C2 2778   2.482   2.887  15.688  0.4627  0.2515 -0.5997
  179MPD1    C3 2779   2.437   2.891  15.818  0.1041  0.1087  0.3731
  179MPD1    C4 2780   2.482   2.995  15.892 -0.2162 -0.7988 -0.5901
  179MPD1    C5 2781   2.570   3.082  15.842  0.4943  0.3725 -0.6740
  179MPD1     H 2782   2.443   2.818  15.614 -1.3134 -2.4151  2.8344
  179MPD1    H1 2783   2.439   3.009  15.991  3.7907  1.1619  0.8658
  179MPD1    H2 2784   2.669   3.151  15.676  0.9350 -0.6289 -0.6056
  179MPD1    H3 2785   2.611   3.156  15.910  0.7630 -0.3059 -0.0982
  179MPD1     N 2786   2.349   2.800  15.879 -0.7555 -0.3352  0.3281
  179MPD1    H5 2787   2.325   2.813  15.976 -0.4079  1.8373  0.1219
  179MPD1    N1 2788   2.632   2.953  15.511 -0.2945  0.5134  0.3135
  179MPD1    H6 2789   2.727   2.988  15.502  0.1817 -1.1177 -0.7971
  179MPD1    H7 2790   2.637   2.855  15.485 -1.7429  0.9824 -1.7633
  180MPD1     C 2791   1.653   4.237  15.496  0.7439 -0.2828  0.1972
  180MPD1    C1 2792   1.695   4.339  15.412  0.0319 -0.3278  0.3584
  180MPD1    C2 2793   1.734   4.305  15.282  0.4256 -0.2974  0.5196
  180MPD1    C3 2794   1.703   4.185  15.223  0.3341  0.3292 -0.4860
  180MPD1    C4 2795   1.649   4.092  15.307 -0.1409 -0.6376  0.0283
  180MPD1    C5 2796   1.623   4.124  15.433  0.0843  0.6760  0.6896
  180MPD1     H 2797   1.785   4.379  15.221  1.0661 -1.6999 -0.6265
  180MPD1    H1 2798   1.616   3.997  15.266  0.2995 -0.8862  0.2504
  180MPD1    H2 2799   1.638   4.256  15.602 -1.9437 -0.1763 -0.2185
  180MPD1    H3 2800   1.572   4.048  15.491  1.3874 -0.6071  0.1414
  180MPD1     N 2801   1.730   4.159  15.091 -0.9282 -0.4326  0.3882
  180MPD1    H5 2802   1.785   4.229  15.042 -0.4047  0.2608  1.9462
  180MPD1    N1 2803   1.741   4.452  15.480 -0.0615  0.1101 -0.1557
  180MPD1    H6 2804   1.763   4.539  15.431  0.1898  1.0985  1.6802
  180MPD1    H7 2805   1.663   4.476  15.541  1.0510  1.8256  0.6082
  181MPD1     C 2806   3.092   0.887   9.772 -0.2577  0.2785 -0.1389
  181MPD1    C1 2807   3.134   0.990   9.693 -1.4701  0.1254  0.4856
  181MPD1    C2 2808   3.260   1.036   9.706  0.6140 -0.3312 -0.5245
  181MPD1    C3 2809   3.346   0.990   9.800  0.3101  0.0217  0.1401
  181MPD1    C4 2810   3.307   0.886   9.881 -0.2376 -0.3388  0.8927
  181MPD1    C5 2811   3.177   0.841   9.867  0.0750  1.1706 -0.1774
  181MPD1     H 2812   3.308   1.098   9.631 -0.6427 -0.5540 -1.5024
  181MPD1    H1 2813   3.365   0.841   9.961  1.6906 -1.3108 -1.0728
  181MPD1    H2 2814   2.991   0.849   9.768  0.5682 -2.2159  2.9684
  181MPD1    H3 2815   3.142   0.759   9.928  2.3827 -0.0512 -0.4987
  181MPD1     N 2816   3.481   1.035   9.824  0.1666 -0.1760 -0.9054
  181MPD1    H5 2817   3.529   0.996   9.904 -2.4409  1.5027  1.4853
  181MPD1    N1 2818   3.054   1.046   9.590  0.4490  0.1938  0.3762
  181MPD1    H6 2819   3.069   1.145   9.571  0.6786  0.4900  2.1288
  181MPD1    H7 2820   2.955   1.039   9.615  0.1881 -0.3837 -0.7906
  182MPD1     C 2821   4.074   0.422   1.738  0.0690  0.8313 -0.3938
  182MPD1    C1 2822   4.210   0.466   1.732  0.6319 -0.3065 -0.3958
  182MPD1    C2 2823   4.283   0.416   1.622  0.4449 -0.7795  0.6082
  182MPD1    C3 2824   4.231   0.330   1.524 -0.1022  0.9349 -0.4829
  182MPD1    C4 2825   4.094   0.307   1.532 -0.2572 -0.2672 -0.5953
  182MPD1    C5 2826   4.019   0.340   1.645  0.4928 -0.8405 -0.6923
  182MPD1     H 2827   4.388   0.445   1.621  0.4404 -0.8082 -1.1909
  182MPD1    H1 2828   4.053   0.261   1.443  0.3257 -0.4304 -0.7788
  182MPD1    H2 2829   4.007   0.452   1.819 -0.9925  0.8276 -1.2801
  182MPD1    H3 2830   3.914   0.318   1.631  0.1715 -0.3639  1.0762
  182MPD1     N 2831   4.302   0.254   1.437  0.0342  0.4117  1.3006
  182MPD1    H5 2832   4.255   0.178   1.388  1.8274 -0.9197  1.6368
  182MPD1    N1 2833   4.267   0.527   1.845 -0.4814 -0.0819 -0.2797
  182MPD1    H6 2834   4.203   0.582   1.902 -0.8146 -2.7901  1.9270
  182MPD1    H7 2835   4.344   0.587   1.816 -1.9872  1.8925 -0.2689
  183MPD1     C 2836   0.099   0.190   8.980 -0.6030  0.7203 -0.1765
  183MPD1    C1 2837   0.092   0.134   9.110  0.6807  0.1988  0.4849
  183MPD1    C2 2838   0.061   0.215   9.218  0.5170 -0.1773  0.2895
  183MPD1    C3 2839   0.020   0.345   9.198 -0.0680  0.8855 -0.0421
  183MPD1    C4 2840   0.019   0.392   9.068  0.5835  0.6741 -0.6467
  183MPD1    C5 2841   0.054   0.319   8.960  0.2549  0.2301  0.2691
  183MPD1     H 2842   0.068   0.170   9.317 -0.7142 -0.4482  0.2539
  183MPD1    H1 2843   4.724   0.494   9.050 -2.5108 -0.0574  0.8195
  183MPD1    H2 2844   0.136   0.137   8.893  0.5411  0.1532  0.6517
  183MPD1    H3 2845   0.043   0.356   8.859 -2.3342 -1.1690  0.0410
  183MPD1     N 2846   4.724   0.424   9.311  0.7494  0.0429  0.6587
  183MPD1    H5 2847   0.004   0.383   9.402  2.6819  0.0419  0.2689
  183MPD1    N1 2848   0.149   0.012   9.134  0.7583 -0.5990  0.2142
  183MPD1    H6 2849   0.156   4.696   9.048 -1.1956 -1.3629  0.5321
  183MPD1    H7 2850   0.085   4.688   9.185  0.8830 -0.2352  0.8139
  184MPD1     C 2851   4.168   3.258  10.361 -0.1827  0.3370 -0.2155
  184MPD1    C1 2852   4.051   3.261  10.280  0.4474 -0.1958  0.6479
  184MPD1    C2 2853   4.034   3.364  10.192  0.3073 -0.7364 -0.4430
  184MPD1    C3 2854   4.127   3.473  10.190 -0.1494  0.3487  0.4551
  184MPD1    C4 2855   4.234   3.462  10.271 -0.2966  0.4052  0.0087
  184MPD1    C5 2856   4.256   3.354  10.354 -0.7536 -0.1931 -0.4410
  184MPD1     H 2857   3.941   3.367  10.135 -0.6511  0.9917  1.2275
  184MPD1    H1 2858   4.310   3.540  10.268  2.3463 -2.1546  0.8923
  184MPD1    H2 2859   4.190   3.169  10.419 -0.2591 -0.8269 -1.9405
  184MPD1    H3 2860   4.344   3.335  10.413 -1.9566  0.9085  1.6949
  184MPD1     N 2861   4.102   3.588  10.116 -0.4396 -0.1700 -0.3663
  184MPD1    H5 2862   4.170   3.663  10.128 -1.1071  0.5942 -1.3833
  184MPD1    N1 2863   3.969   3.149  10.269 -0.0202  0.0261 -0.6497
  184MPD1    H6 2864   3.879   3.169  10.224 -0.3679 -1.9768 -0.8497
  184MPD1    H7 2865   3.954   3.095  10.354 -0.3868  1.1187 -0.0159
  185MPD1     C 2866   3.915   3.723   9.186 -0.7908 -0.2972 -0.6871
  185MPD1    C1 2867   3.886   3.847   9.219  0.2981  0.8603 -0.5707
  185MPD1    C2 2868   3.880   3.870   9.362 -0.3144  0.4751 -0.7832
  185MPD1    C3 2869   3.918   3.774   9.453  0.1296 -0.2069 -0.0949
  185MPD1    C4 2870   3.958   3.649   9.404  0.0630 -0.6312 -0.2099
  185MPD1    C5 2871   3.949   3.623   9.272  0.0359 -0.1486 -0.2674
  185MPD1     H 2872   3.853   3.967   9.403  1.3397  1.4970 -2.1226
  185MPD1    H1 2873   4.002   3.572   9.467 -1.3104 -0.1079  1.3895
  185MPD1    H2 2874   3.903   3.691   9.083 -0.0959 -3.0940  0.1069
  185MPD1    H3 2875   3.961   3.522   9.233 -1.1936  0.1182 -1.3189
  185MPD1     N 2876   3.929   3.791   9.594 -0.4697  0.4650 -0.2134
  185MPD1    H5 2877   3.950   3.705   9.643 -0.2895  0.1325 -0.8749
  185MPD1    N1 2878   3.837   3.950   9.135 -0.7789  0.3954 -0.5076
  185MPD1    H6 2879   3.860   3.940   9.036  0.9940  1.0589 -0.1647
  185MPD1    H7 2880   3.887   4.033   9.166 -1.0682  0.2846  0.2462
  186MPD1     C 2881   3.167   2.583  15.598 -0.5199 -0.3760  0.0315
  186MPD1    C1 2882   3.061   2.519  15.662  0.2258 -0.2552  0.3953
  186MPD1    C2 2883   2.956   2.593  15.717  0.4229  0.4816 -0.6228
  186MPD1    C3 2884   2.972   2.732  15.722 -0.4478  0.3456 -0.3552
  186MPD1    C4 2885   3.085   2.794  15.678  0.7110 -0.3330  0.7286
  186MPD1    C5 2886   3.177   2.721  15.604  0.1207 -0.4393  0.4309
  186MPD1     H 2887   2.871   2.539  15.758  2.0875 -1.3465  0.4282
  186MPD1    H1 2888   3.091   2.902  15.686 -0.4523 -0.1915 -0.3459
  186MPD1    H2 2889   3.238   2.527  15.538  0.9499 -1.1536  2.4554
  186MPD1    H3 2890   3.261   2.771  15.558 -2.0346  2.2327 -0.5542
  186MPD1     N 2891   2.884   2.820  15.782 -0.5076 -0.0860  0.0346
  186MPD1    H5 2892   2.900   2.919  15.766  0.6900  0.0986  2.4628
  186MPD1    N1 2893   3.045   2.376  15.637 -0.4886  0.3366  0.0482
  186MPD1    H6 2894   3.134   2.327  15.636 -2.6673 -3.6494  1.0214
  186MPD1    H7 2895   2.983   2.321  15.697 -3.1830  1.1907 -1.9128
  187MPD1     C 2896   2.163   3.779  17.423  0.0092 -0.3300 -0.6326
  187MPD1    C1 2897   2.259   3.863  17.375  0.3850 -0.9685  0.6205
  187MPD1    C2 2898   2.217   3.993  17.334 -0.0124  0.2966 -0.0387
  187MPD1    C3 2899   2.082   4.027  17.346 -0.5355 -0.0463  0.6938
  187MPD1    C4 2900   1.989   3.934  17.388 -0.2469 -0.7412 -0.4726
  187MPD1    C5 2901   2.032   3.812  17.430 -0.1683  0.5870 -0.0800
  187MPD1     H 2902   2.291   4.056  17.285  1.8529 -2.0595 -0.2684
  187MPD1    H1 2903   1.884   3.960  17.402  0.1731 -0.7420  2.7664
  187MPD1    H2 2904   2.182   3.675  17.446  2.4026 -0.0111 -1.2088
  187MPD1    H3 2905   1.960   3.746  17.477 -1.2354  1.3108 -0.7301
  187MPD1     N 2906   2.037   4.160  17.314 -0.3266  0.0783 -0.4141
  187MPD1    H5 2907   1.936   4.174  17.316 -0.4319 -0.1408 -4.1363
  187MPD1    N1 2908   2.380   3.806  17.344 -0.1285  0.7384 -0.2141
  187MPD1    H6 2909   2.395   3.729  17.408  1.0240  2.3909  1.5068
  187MPD1    H7 2910   2.447   3.878  17.370 -2.7242  2.2281  2.4102
  188MPD1     C 2911   2.236   0.619  10.309 -0.9167 -0.2306 -0.3281
  188MPD1    C1 2912   2.306   0.535  10.396 -0.6156  0.0217 -0.4289
  188MPD1    C2 2913   2.297   0.401  10.379  0.2623 -0.0745 -0.1663
  188MPD1    C3 2914   2.188   0.359  10.301 -0.0571  0.4615 -0.2427
  188MPD1    C4 2915   2.130   0.437  10.210  0.9576 -0.3481  0.1927
  188MPD1    C5 2916   2.148   0.577  10.219 -0.2145 -0.1623  0.0467
  188MPD1     H 2917   2.354   0.343  10.451  0.8649  0.1260 -0.4817
  188MPD1    H1 2918   2.060   0.391  10.140 -0.7348  1.5564  0.6214
  188MPD1    H2 2919   2.264   0.724  10.308 -0.1278 -0.4145  1.5897
  188MPD1    H3 2920   2.095   0.643  10.151  0.6648  2.3320  1.8018
  188MPD1     N 2921   2.145   0.223  10.294  0.1954  0.3010  0.0245
  188MPD1    H5 2922   2.073   0.198  10.226  1.0168 -0.2130 -0.6504
  188MPD1    N1 2923   2.423   0.594  10.465  0.1653  0.0784  0.1755
  188MPD1    H6 2924   2.397   0.686  10.500  1.0427  1.4868 -2.8883
  188MPD1    H7 2925   2.438   0.526  10.540 -1.2113 -1.4714 -0.9344
  189MPD1     C 2926   3.476   0.574   0.848  0.3346  0.1466 -0.5491
  189MPD1    C1 2927   3.369   0.546   0.931 -0.7913 -0.2335 -0.0441
  189MPD1    C2 2928   3.249   0.613   0.907  0.0957  0.5629  0.4016
  189MPD1    C3 2929   3.247   0.721   0.814 -0.2183  0.1284 -0.2845
  189MPD1    C4 2930   3.364   0.763   0.755  0.3242 -0.4544 -0.9787
  189MPD1    C5 2931   3.476   0.684   0.765  0.2485  0.7644 -0.1828
  189MPD1     H 2932   3.155   0.575   0.946 -1.0866 -0.5094 -3.4967
  189MPD1    H1 2933   3.375   0.853   0.697 -0.7807 -0.3291 -0.9910
  189MPD1    H2 2934   3.566   0.514   0.853  0.7383  0.9038  1.2358
  189MPD1    H3 2935   3.569   0.702   0.713  0.9547 -0.3111  0.7042
  189MPD1     N 2936   3.122   0.781   0.793 -0.7407 -0.1115  0.1429
  189MPD1    H5 2937   3.042   0.729   0.828  0.6143 -2.3601 -0.0691
  189MPD1    N1 2938   3.379   0.446   1.022 -0.0161 -0.2976  0.0275
  189MPD1    H6 2939   3.468   0.457   1.069 -0.3170 -2.2669  1.0828
  189MPD1    H7 2940   3.310   0.462   1.095  0.1242 -0.1232  0.1195
  190MPD1     C 2941   2.328   0.064  15.309  0.4719  0.4362  0.1138
  190MPD1    C1 2942   2.329   0.017  15.437  0.7186  0.1786  0.5487
  190MPD1    C2 2943   2.422   4.648  15.457 -0.1884  0.9284 -0.4509
  190MPD1    C3 2944   2.512   4.607  15.364 -0.3680 -0.8147  0.2846
  190MPD1    C4 2945   2.521   4.678  15.253 -0.2836  0.5428 -0.1950
  190MPD1    C5 2946   2.428   0.040  15.220  0.2765 -0.4271  0.0019
  190MPD1     H 2947   2.424   4.599  15.554 -1.9437 -0.8190 -1.2977
  190MPD1    H1 2948   2.588   4.646  15.175 -0.4205 -0.3904  0.0776
  190MPD1    H2 2949   2.240   0.122  15.283 -0.8566 -1.1893  1.0001
  190MPD1    H3 2950   2.422   0.088  15.123 -0.4590  0.1649  0.3430
  190MPD1     N 2951   2.584   4.488  15.400 -0.1835 -0.1666 -0.0719
  190MPD1    H5 2952   2.564   4.450  15.492  3.9418 -0.9812  0.5187
  190MPD1    N1 2953   2.228   0.029  15.531 -0.1291 -0.7011 -0.5547
  190MPD1    H6 2954   2.183   0.120  15.537 -0.9256 -1.0328 -1.5468
  190MPD1    H7 2955   2.266   0.007  15.623  0.0194  0.3466 -0.3657
  191MPD1     C 2956   2.418   0.886  12.651  0.0441 -0.1744  0.5091
  191MPD1    C1 2957   2.484   0.883  12.533  0.1211 -0.0002 -0.5124
  191MPD1    C2 2958   2.464   0.984  12.443  0.0014  0.0270 -0.1091
  191MPD1    C3 2959   2.368   1.085  12.464 -0.1216  0.1851 -0.4471
  191MPD1    C4 2960   2.295   1.077  12.578 -0.5469  0.4848 -0.3034
  191MPD1    C5 2961   2.326   0.983  12.675 -0.2697 -0.0186 -0.4265
  191MPD1     H 2962   2.524   0.990  12.353 -0.7811  3.2536 -0.4223
  191MPD1    H1 2963   2.224   1.147  12.619  0.8137  0.8737  1.4139
  191MPD1    H2 2964   2.426   0.803  12.721  1.4339 -0.7757 -0.3733
  191MPD1    H3 2965   2.279   0.989  12.773  0.3325  0.0865 -0.1466
  191MPD1     N 2966   2.347   1.179  12.367  0.5770  0.5789 -0.1238
  191MPD1    H5 2967   2.415   1.194  12.293  0.7688  4.0765  0.7638
  191MPD1    N1 2968   2.583   0.783  12.525 -0.1970 -0.6668  0.3100
  191MPD1    H6 2969   2.545   0.695  12.558  1.9061 -1.6696  0.1108
  191MPD1    H7 2970   2.615   0.769  12.429  1.5282  0.2707  0.7317
  192MPD1     C 2971   1.662   1.899  12.502  0.5867  0.8220  0.5326
  192MPD1    C1 2972   1.636   1.868  12.370 -0.2668 -0.2361  0.3035
  192MPD1    C2 2973   1.717   1.774  12.299  0.1000 -0.4919  0.1574
  192MPD1    C3 2974   1.805   1.699  12.372  0.1908  0.0441  0.3327
  192MPD1    C4 2975   1.803   1.717  12.510  0.4387  0.2051  0.2521
  192MPD1    C5 2976   1.740   1.818  12.567 -1.2459  0.2215  0.3686
  192MPD1     H 2977   1.712   1.760  12.192  0.4463  0.9824 -0.0508
  192MPD1    H1 2978   1.855   1.642  12.569  1.1900  1.0070  0.6127
  192MPD1    H2 2979   1.607   1.975  12.556 -2.1349  0.0796 -1.1683
  192MPD1    H3 2980   1.759   1.830  12.673  3.5254  0.3933 -0.5192
  192MPD1     N 2981   1.896   1.609  12.322  0.1823 -0.0613 -0.0020
  192MPD1    H5 2982   1.924   1.531  12.381 -1.1335 -0.3935  0.1692
  192MPD1    N1 2983   1.535   1.941  12.302  0.0044  0.3539 -0.2770
  192MPD1    H6 2984   1.457   1.938  12.367 -0.1964  1.3390 -0.4606
  192MPD1    H7 2985   1.505   1.885  12.223 -1.7770  1.6916 -0.5671
  193MPD1     C 2986   1.539   1.295   0.005  0.1641 -0.8049  0.1074
  193MPD1    C1 2987   1.440   1.372  17.702  0.3929 -0.4688  0.2011
  193MPD1    C2 2988   1.436   1.413  17.571  0.5144 -0.2849 -0.7483
  193MPD1    C3 2989   1.547   1.381  17.489 -0.3755 -0.3165  0.1030
  193MPD1    C4 2990   1.650   1.302  17.537 -0.0789 -0.7720  0.5775
  193MPD1    C5 2991   1.647   1.268  17.672  0.6118  0.2218 -0.3752
  193MPD1     H 2992   1.350   1.472  17.542  0.8488  0.4115 -0.3073
  193MPD1    H1 2993   1.730   1.271  17.472 -0.7925  1.2797 -1.2721
  193MPD1    H2 2994   1.518   1.248   0.100 -0.5498  0.2200  0.4521
  193MPD1    H3 2995   1.729   1.203  17.700  0.1922 -0.3198 -0.4022
  193MPD1     N 2996   1.553   1.425  17.350  0.5880  0.2912 -0.5533
  193MPD1    H5 2997   1.641   1.402  17.307  1.0488 -3.0597  2.1746
  193MPD1    N1 2998   1.320   1.387   0.030 -0.1216 -0.2637 -0.1604
  193MPD1    H6 2999   1.338   1.373   0.129 -0.6786 -0.7071 -0.1219
  193MPD1    H7 3000   1.265   1.308  17.746 -1.1694  0.8592 -1.0840
  194MPD1     C 3001   4.021   3.677  16.507 -0.5428 -0.6918 -0.6461
  194MPD1    C1 3002   4.133   3.598  16.515 -0.4331  0.1403  0.0612
  194MPD1    C2 3003   4.165   3.542  16.637  0.2211 -0.5939 -0.0020
  194MPD1    C3 3004   4.094   3.572  16.753  0.0456 -0.4129  0.0945
  194MPD1    C4 3005   3.986   3.660  16.749 -0.2333 -0.1520 -0.3672
  194MPD1    C5 3006   3.962   3.712  16.628 -0.2192 -0.4050  0.2860
  194MPD1     H 3007   4.253   3.480  16.643 -0.5663 -1.4600  3.0029
  194MPD1    H1 3008   3.932   3.693  16.837  0.9766  0.2189  0.2333
  194MPD1    H2 3009   3.978   3.709  16.412 -2.7740  0.3351  0.7134
  194MPD1    H3 3010   3.894   3.795  16.614  2.8543  1.5608 -2.8381
  194MPD1     N 3011   4.146   3.514  16.871 -0.2327  0.0279 -0.1355
  194MPD1    H5 3012   4.220   3.444  16.870 -1.2699 -1.1075  1.2021
  194MPD1    N1 3013   4.189   3.544  16.404  0.2980  0.0566 -0.4609
  194MPD1    H6 3014   4.193   3.603  16.320  0.7618 -1.0209 -1.1961
  194MPD1    H7 3015   4.286   3.521  16.424 -0.0426 -0.6385  0.3625
  195MPD1     C 3016   1.914   4.590  17.567  1.3080  0.8180 -0.8197
  195MPD1    C1 3017   1.935   4.455  17.593 -0.1337 -0.2495  0.2755
  195MPD1    C2 3018   1.850   4.364  17.537 -0.1218  0.3196 -0.6667
  195MPD1    C3 3019   1.730   4.414  17.485  0.2788 -0.4365 -0.1634
  195MPD1    C4 3020   1.699   4.544  17.477  0.5740  0.4129  0.1316
  195MPD1    C5 3021   1.795   4.635  17.512  0.6345  0.5609  0.3820
  195MPD1     H 3022   1.875   4.260  17.524  0.6292  0.5208 -0.7931
  195MPD1    H1 3023   1.601   4.580  17.448  0.1772 -1.4510 -0.8839
  195MPD1    H2 3024   1.993   4.658  17.598  0.2121  2.2067 -1.0658
  195MPD1    H3 3025   1.778   0.004  17.515 -0.9447  0.3195 -0.0591
  195MPD1     N 3026   1.624   4.331  17.441  0.5288  0.5286  0.7461
  195MPD1    H5 3027   1.535   4.376  17.422  1.2554  0.5608 -2.6949
  195MPD1    N1 3028   2.061   4.408  17.627  0.7250 -0.4133 -0.0202
  195MPD1    H6 3029   2.101   4.468  17.699  1.5288 -0.0409 -0.7754
  195MPD1    H7 3030   2.059   4.314  17.664 -3.1354 -0.4740 -0.3945
  196MPD1     C 3031   1.015   0.371   0.275  0.0358  0.4053  0.3579
  196MPD1    C1 3032   1.022   0.284   0.383 -0.2625  0.6074 -0.1502
  196MPD1    C2 3033   0.993   0.329   0.512 -0.0758  0.5407  0.5805
  196MPD1    C3 3034   0.936   0.454   0.525 -0.3145 -0.6992 -0.4791
  196MPD1    C4 3035   0.921   0.529   0.414  0.6297  0.6504  0.0516
  196MPD1    C5 3036   0.958   0.489   0.291  0.7994 -0.3922  0.2951
  196MPD1     H 3037   1.020   0.267   0.596  3.6987  2.4701  0.7522
  196MPD1    H1 3038   0.890   0.629   0.443  0.3553 -0.0782  2.3083
  196MPD1    H2 3039   1.052   0.340   0.178  0.0917  0.3249  0.4050
  196MPD1    H3 3040   0.954   0.560   0.209 -0.2084 -1.1855 -0.3342
  196MPD1     N 3041   0.893   0.509   0.648 -0.3334 -0.6783  0.5886
  196MPD1    H5 3042   0.871   0.608   0.657  1.1110 -0.2339 -0.8101
  196MPD1    N1 3043   1.089   0.164   0.370 -0.2105  0.5458  0.0956
  196MPD1    H6 3044   1.079   0.129   0.274 -0.3157  0.4369  0.1456
  196MPD1    H7 3045   1.190   0.180   0.368 -0.1075 -0.1878 -0.8286
  197MPD1     C 3046   4.466   1.783  17.308 -0.3577  0.0291 -0.1349
  197MPD1    C1 3047   4.412   1.913  17.326 -0.2865 -0.2885 -0.2346
  197MPD1    C2 3048   4.449   2.001  17.225 -0.1639  0.6685  0.5776
  197MPD1    C3 3049   4.519   1.964  17.114  0.8235  0.4911 -0.0303
  197MPD1    C4 3050   4.551   1.827  17.094 -0.8882  0.0075 -0.1822
  197MPD1    C5 3051   4.518   1.737  17.189  0.4992 -0.1103  0.5221
  197MPD1     H 3052   4.435   2.107  17.246 -1.6375  0.1481  2.2674
  197MPD1    H1 3053   4.607   1.797  17.006 -1.9844  0.9385 -1.2029
  197MPD1    H2 3054   4.458   1.706  17.384  0.1800  2.0274  1.9453
  197MPD1    H3 3055   4.545   1.632  17.181 -1.3593 -0.5577  0.0144
  197MPD1     N 3056   4.579   2.059  17.029  0.4968 -0.0792 -0.9463
  197MPD1    H5 3057   4.628   2.017  16.951  1.2088 -0.7036 -0.1606
  197MPD1    N1 3058   4.380   1.957  17.453 -0.4125  0.9914  0.5532
  197MPD1    H6 3059   4.313   2.033  17.441 -1.3086 -0.2874 -2.4835
  197MPD1    H7 3060   4.321   1.893  17.507 -0.5852  1.0467  0.4319
  198MPD1     C 3061   1.462   0.518  16.277  1.0214 -1.0237  0.1796
  198MPD1    C1 3062   1.533   0.498  16.394 -0.1377  0.8739 -0.2169
  198MPD1    C2 3063   1.666   0.529  16.392 -0.2039  0.6677  0.6269
  198MPD1    C3 3064   1.734   0.573  16.280  0.4877 -0.1655 -0.3693
  198MPD1    C4 3065   1.660   0.592  16.161 -0.1907  0.0133  0.3004
  198MPD1    C5 3066   1.525   0.568  16.166  0.0391 -0.0868 -0.3982
  198MPD1     H 3067   1.719   0.524  16.487  0.8723  1.9436  0.0900
  198MPD1    H1 3068   1.704   0.616  16.065 -1.7355 -0.8149 -0.6333
  198MPD1    H2 3069   1.359   0.487  16.264 -0.1714  3.4857 -1.2878
  198MPD1    H3 3070   1.468   0.574  16.074 -1.4219 -1.4627  0.4362
  198MPD1     N 3071   1.875   0.594  16.286  1.0252 -0.0399  0.1172
  198MPD1    H5 3072   1.917   0.558  16.370  1.5404  0.3773  0.0433
  198MPD1    N1 3073   1.477   0.421  16.499 -0.3468 -0.3079 -0.6012
  198MPD1    H6 3074   1.503   0.449  16.594  0.1529 -1.8464 -0.2853
  198MPD1    H7 3075   1.376   0.410  16.495 -0.4078 -0.5106  1.2962
  199MPD1     C 3076   3.794   1.827   8.560 -0.1471 -0.4195  0.4766
  199MPD1    C1 3077   3.662   1.839   8.584  0.2829  0.2122 -1.1634
  199MPD1    C2 3078   3.608   1.793   8.707  0.2431 -1.2577  0.3227
  199MPD1    C3 3079   3.688   1.756   8.819  0.0706 -0.5265 -0.4243
  199MPD1    C4 3080   3.827   1.751   8.791 -0.2144  0.2265  0.4977
  199MPD1    C5 3081   3.877   1.784   8.662  0.3703  0.1698  0.2304
  199MPD1     H 3082   3.501   1.781   8.719  0.2243 -0.3051  1.0953
  199MPD1    H1 3083   3.898   1.729   8.870 -1.3933 -0.3607  1.3819
  199MPD1    H2 3084   3.840   1.839   8.462  3.4348  0.9108  2.3399
  199MPD1    H3 3085   3.983   1.768   8.644  0.4032 -0.4234  0.9433
  199MPD1     N 3086   3.637   1.726   8.947  0.4485  0.2805  0.3949
  199MPD1    H5 3087   3.713   1.714   9.013  0.0522  1.0644  0.9943
  199MPD1    N1 3088   3.584   1.865   8.471 -0.5373  0.3329  0.6911
  199MPD1    H6 3089   3.610   1.928   8.395 -0.6915  0.2369  0.5581
  199MPD1    H7 3090   3.489   1.894   8.497 -0.9497 -0.9371  0.5998
  200MPD1     C 3091   3.269   1.800  15.656 -0.0941 -0.2566  0.2578
  200MPD1    C1 3092   3.380   1.872  15.672 -0.0674 -0.0002  0.2093
  200MPD1    C2 3093   3.464   1.890  15.562 -0.7567 -0.2929  0.3955
  200MPD1    C3 3094   3.443   1.824  15.443  0.1099 -0.0626 -0.5751
  200MPD1    C4 3095   3.334   1.739  15.435 -0.2472  0.2613 -0.2090
  200MPD1    C5 3096   3.246   1.725  15.542 -0.3281 -0.4153  0.3486
  200MPD1     H 3097   3.550   1.956  15.566  0.5169 -1.8375 -1.4201
  200MPD1    H1 3098   3.313   1.684  15.344  1.0030 -0.0925 -0.2736
  200MPD1    H2 3099   3.188   1.798  15.728 -0.0567  0.2312  0.3087
  200MPD1    H3 3100   3.161   1.660  15.524 -0.1865 -0.3252 -0.6561
  200MPD1     N 3101   3.524   1.859  15.329 -0.0318 -0.3397  0.6246
  200MPD1    H5 3102   3.609   1.907  15.357 -0.1807  0.7532 -0.7973
  200MPD1    N1 3103   3.398   1.943  15.791 -0.1109  0.2914  0.1364
  200MPD1    H6 3104   3.358   1.894  15.870 -0.4748  2.3119  1.1891
  200MPD1    H7 3105   3.500   1.947  15.801 -0.2306  0.9439  1.0080
  201MPD1     C 3106   0.852   0.947  13.436 -0.4465  0.3159  0.0937
  201MPD1    C1 3107   0.853   0.853  13.339  0.0688  1.2603  0.3380
  201MPD1    C2 3108   0.941   0.744  13.363 -0.0032 -0.0607 -0.7362
  201MPD1    C3 3109   1.046   0.753  13.458 -0.4124  0.7437  0.3236
  201MPD1    C4 3110   1.038   0.850  13.554 -0.0206  0.8045  0.0401
  201MPD1    C5 3111   0.936   0.943  13.543 -1.1970  0.2474 -0.0626
  201MPD1     H 3112   0.949   0.661  13.294  0.4323  1.5993 -2.6983
  201MPD1    H1 3113   1.119   0.871  13.623 -1.0940  0.8838  1.2703
  201MPD1    H2 3114   0.790   1.037  13.430  0.1844  0.7764  0.5247
  201MPD1    H3 3115   0.928   1.027  13.611 -2.3537  0.7547 -0.8259
  201MPD1     N 3116   1.154   0.653  13.449 -0.3937 -0.7144 -0.3552
  201MPD1    H5 3117   1.156   0.589  13.370  0.5415  0.0497 -0.9558
  201MPD1    N1 3118   0.748   0.845  13.246 -0.8359  0.2963  0.3967
  201MPD1    H6 3119   0.766   0.791  13.161 -0.5685  0.7758  0.1520
  201MPD1    H7 3120   0.706   0.928  13.205  1.8432  1.4355 -0.0400
  202MPD1     C 3121   0.508   3.977   9.441 -0.1346 -0.6547  0.1906
  202MPD1    C1 3122   0.510   4.096   9.364  0.7423 -0.6156 -0.6740
  202MPD1    C2 3123   0.545   4.208   9.437 -1.0774  0.7323 -0.1724
  202MPD1    C3 3124   0.617   4.191   9.551 -0.5007 -0.1458  0.2141
  202MPD1    C4 3125   0.626   4.076   9.621 -0.1763  0.7218 -0.7684
  202MPD1    C5 3126   0.565   3.968   9.565  0.3454 -0.1700 -0.4822
  202MPD1     H 3127   0.545   4.302   9.383 -1.3962  1.3110  0.8318
  202MPD1    H1 3128   0.695   4.065   9.703 -1.2560  0.5765  0.1146
  202MPD1    H2 3129   0.463   3.883   9.411  1.0024 -1.3307  0.6092
  202MPD1    H3 3130   0.578   3.878   9.624 -0.7139  0.6498  1.0076
  202MPD1     N 3131   0.681   4.306   9.610 -0.2439 -0.1302  0.0684
  202MPD1    H5 3132   0.743   4.289   9.688  1.0822  2.1919 -0.5115
  202MPD1    N1 3133   0.432   4.105   9.252 -0.8769  0.7078  0.4514
  202MPD1    H6 3134   0.419   4.020   9.198  1.3727 -1.0130  2.6218
  202MPD1    H7 3135   0.465   4.175   9.186  3.5019 -0.8251  1.0384
  203MPD1     C 3136   4.714   1.579  12.424  0.0983 -0.8270 -0.8163
  203MPD1    C1 3137   4.688   1.461  12.348 -0.4695 -0.1919 -0.5014
  203MPD1    C2 3138   4.736   1.340  12.397  0.1992  0.8982 -0.4335
  203MPD1    C3 3139   0.088   1.334  12.502  1.4247  0.4154  0.2483
  203MPD1    C4 3140   0.124   1.451  12.568 -0.2256 -0.6045  0.5812
  203MPD1    C5 3141   0.056   1.568  12.535 -0.3507  0.3424  0.1188
  203MPD1     H 3142   4.711   1.243  12.355  2.3345  0.1848 -0.0531
  203MPD1    H1 3143   0.194   1.445  12.651  0.4440  0.5504  0.1037
  203MPD1    H2 3144   4.680   1.678  12.397 -1.4370 -1.3358 -0.7628
  203MPD1    H3 3145   0.081   1.662  12.583 -0.5832  0.9702 -0.9822
  203MPD1     N 3146   0.136   1.208  12.548 -0.9166 -0.2492 -0.1560
  203MPD1    H5 3147   0.130   1.127  12.487 -0.0812 -0.1902 -0.3114
  203MPD1    N1 3148   4.604   1.465  12.236 -0.7372  0.0938  0.2747
  203MPD1    H6 3149   4.610   1.373  12.193  1.6862 -0.1354  1.1271
  203MPD1    H7 3150   4.622   1.539  12.168 -0.7384 -0.1879 -0.0342
  204MPD1     C 3151   3.400   1.633  17.396  0.2336  0.5544 -0.6679
  204MPD1    C1 3152   3.497   1.634  17.297 -0.2943  0.3847  0.7332
  204MPD1    C2 3153   3.561   1.516  17.262 -0.0482  0.7359 -0.6974
  204MPD1    C3 3154   3.551   1.404  17.345 -0.0153 -0.8658  0.5044
  204MPD1    C4 3155   3.454   1.412  17.448  0.2118 -0.0608 -0.0379
  204MPD1    C5 3156   3.381   1.521  17.471  0.3764  0.2963 -0.4547
  204MPD1     H 3157   3.642   1.517  17.189  1.1968  0.2537  0.6872
  204MPD1    H1 3158   3.427   1.334  17.518 -1.0767 -0.5853 -1.1368
  204MPD1    H2 3159   3.340   1.721  17.415 -2.8156 -1.6734 -0.1090
  204MPD1    H3 3160   3.311   1.524  17.554  0.9728  0.0711  0.0527
  204MPD1     N 3161   3.631   1.294  17.324  0.1088  0.2425  0.7600
  204MPD1    H5 3162   3.689   1.296  17.241 -0.2752  0.2493  0.4961
  204MPD1    N1 3163   3.506   1.746  17.215  0.0600 -0.2681 -0.6722
  204MPD1    H6 3164   3.587   1.740  17.152 -0.1312  0.4948 -0.9864
  204MPD1    H7 3165   3.500   1.834  17.264 -1.9011 -0.6036 -0.3368
  205MPD1     C 3166   0.024   4.683  17.228  0.9413  0.4626  0.2358
  205MPD1    C1 3167   0.033   4.626  17.347  0.3602 -0.0169  0.1152
  205MPD1    C2 3168   4.684   4.671  17.450  0.1749 -1.6296 -0.6547
  205MPD1    C3 3169   4.607   0.049  17.431  0.0056 -0.0060 -0.3947
  205MPD1    C4 3170   4.612   0.112  17.306  0.3110  0.6843 -0.5784
  205MPD1    C5 3171   4.690   0.061  17.214 -0.0467 -0.7083 -0.0265
  205MPD1     H 3172   4.693   4.628  17.549  0.1732  1.0427  0.5159
  205MPD1    H1 3173   4.545   0.195  17.286  1.8859  1.8556 -0.9062
  205MPD1    H2 3174   0.080   4.634  17.149 -0.3813 -0.9666  0.1760
  205MPD1    H3 3175   4.701   0.112  17.118 -0.3459  1.3439  1.0294
  205MPD1     N 3176   4.529   0.105  17.535  0.3484  0.0123 -0.0945
  205MPD1    H5 3177   4.480   0.188  17.503 -0.7950 -0.2417  1.0115
  205MPD1    N1 3178   0.106   4.504  17.359  0.2027 -0.3607 -0.5207
  205MPD1    H6 3179   0.200   4.516  17.320  0.3074  1.1304  0.2045
  205MPD1    H7 3180   0.120   4.480  17.457  1.7451  1.7188 -0.2496
  206MPD1     C 3181   3.936   4.416  16.664 -0.6307  0.3352 -0.2201
  206MPD1    C1 3182   3.972   4.287  16.651  0.3246  0.2677  0.0660
  206MPD1    C2 3183   3.922   4.219  16.542 -0.5508 -0.1616  0.4527
  206MPD1    C3 3184   3.854   4.277  16.434  0.1220  0.1928 -0.5684
  206MPD1    C4 3185   3.835   4.412  16.446  0.0058 -0.4181  0.2117
  206MPD1    C5 3186   3.869   4.478  16.559  0.1424 -0.4835  0.2059
  206MPD1     H 3187   3.932   4.111  16.536  0.3480 -0.0509 -0.0110
  206MPD1    H1 3188   3.780   4.462  16.367 -1.5690  0.3601  1.8089
  206MPD1    H2 3189   3.967   4.480  16.746  0.0666 -0.4165  0.1070
  206MPD1    H3 3190   3.842   4.583  16.563 -1.3737 -0.8355 -0.9144
  206MPD1     N 3191   3.816   4.217  16.313 -0.4480 -0.0980  0.0825
  206MPD1    H5 3192   3.773   4.284  16.251  2.0625  1.1735 -0.3143
  206MPD1    N1 3193   4.040   4.218  16.749 -0.2020 -0.5180  0.6313
  206MPD1    H6 3194   4.091   4.279  16.812  1.6773 -1.6984  0.2540
  206MPD1    H7 3195   4.103   4.146  16.716 -0.7203 -0.2336 -0.9790
  207MPD1     C 3196   1.676   1.557   9.769 -0.1691  0.5307 -0.1288
  207MPD1    C1 3197   1.649   1.478   9.874 -0.0402  0.1777  0.4483
  207MPD1    C2 3198   1.715   1.493   9.996  0.1765 -0.3139 -0.0224
  207MPD1    C3 3199   1.814   1.583  10.007 -0.9063  0.4402 -0.7534
  207MPD1    C4 3200   1.844   1.674   9.905 -0.6618  0.0280  0.0350
  207MPD1    C5 3201   1.783   1.651   9.783 -0.4740  0.1165  0.1617
  207MPD1     H 3202   1.682   1.433  10.080  0.3496 -1.9388 -1.1189
  207MPD1    H1 3203   1.926   1.744   9.907 -0.4149 -0.2295 -1.2121
  207MPD1    H2 3204   1.629   1.564   9.672  1.7326 -0.9841 -1.1504
  207MPD1    H3 3205   1.810   1.710   9.696 -0.3263  0.5112  0.4738
  207MPD1     N 3206   1.885   1.600  10.127  0.1660  0.3243 -0.2136
  207MPD1    H5 3207   1.944   1.682  10.135  0.3048  0.3805 -1.9480
  207MPD1    N1 3208   1.541   1.390   9.858 -0.3701 -0.6147  0.0230
  207MPD1    H6 3209   1.527   1.359   9.762 -1.4632 -2.4222  0.7743
  207MPD1    H7 3210   1.537   1.308   9.918  1.9577 -1.6516 -1.2139
  208MPD1     C 3211   0.158   1.186   1.419  0.1032  0.1721  0.3732
  208MPD1    C1 3212   0.210   1.178   1.296  0.4056 -0.0064  0.2742
  208MPD1    C2 3213   0.183   1.058   1.222  0.1779  0.6053  0.3231
  208MPD1    C3 3214   0.093   0.958   1.268 -0.2436  0.5261 -0.9630
  208MPD1    C4 3215   0.032   0.985   1.388 -0.4114  1.0264  0.0569
  208MPD1    C5 3216   0.072   1.089   1.466  0.6991 -0.5456 -0.4854
  208MPD1     H 3217   0.233   1.041   1.127 -0.0909 -0.8677  0.4400
  208MPD1    H1 3218   4.701   0.922   1.444  0.3175  1.4997  1.4775
  208MPD1    H2 3219   0.178   1.268   1.488  1.5470 -0.1791  0.3701
  208MPD1    H3 3220   0.031   1.093   1.566  0.9789  0.3023 -0.4031
  208MPD1     N 3221   0.078   0.839   1.204  0.2790  0.5901 -0.3578
  208MPD1    H5 3222   0.128   0.824   1.116 -0.8943  0.9293 -1.0859
  208MPD1    N1 3223   0.314   1.269   1.257 -0.2928  0.0680 -0.0748
  208MPD1    H6 3224   0.305   1.358   1.306 -0.5661 -0.7164  1.3062
  208MPD1    H7 3225   0.323   1.283   1.157 -0.1823 -2.1961 -0.3881
  209MPD1     C 3226   1.461   0.732  11.833 -0.7297  0.0260 -0.1504
  209MPD1    C1 3227   1.592   0.704  11.873 -0.4234  0.1737 -0.5968
  209MPD1    C2 3228   1.697   0.763  11.804 -0.0057  0.1813  0.6588
  209MPD1    C3 3229   1.681   0.878  11.730 -0.2329 -0.1845  0.1091
  209MPD1    C4 3230   1.552   0.917  11.709 -0.1185  0.1678 -0.4998
  209MPD1    C5 3231   1.444   0.845  11.752  0.2424  0.2351  0.1718
  209MPD1     H 3232   1.799   0.729  11.815  0.1340  0.8821  1.5791
  209MPD1    H1 3233   1.528   1.012  11.663  0.6966  0.4626 -0.3030
  209MPD1    H2 3234   1.376   0.686  11.882 -0.8229  1.8004  1.3527
  209MPD1    H3 3235   1.344   0.885  11.740  0.1332 -0.3671 -0.8762
  209MPD1     N 3236   1.796   0.927  11.666  0.0176 -0.3091 -0.3588
  209MPD1    H5 3237   1.885   0.883  11.687  0.1043 -0.8929 -1.9974
  209MPD1    N1 3238   1.610   0.588  11.951  0.0712  0.2105  0.4638
  209MPD1    H6 3239   1.701   0.589  11.998 -0.1676  2.3796  0.8942
  209MPD1    H7 3240   1.529   0.566  12.008 -1.5657 -0.8013 -2.2654
  210MPD1     C 3241   2.747   1.249  11.554 -0.6510 -0.1840 -0.2793
  210MPD1    C1 3242   2.690   1.173  11.653 -0.0090  0.0812  0.1420
  210MPD1    C2 3243   2.564   1.117  11.628 -0.4632  0.5055 -0.8023
  210MPD1    C3 3244   2.502   1.159  11.513 -0.0772 -0.4021  0.0896
  210MPD1    C4 3245   2.562   1.238  11.416 -0.2425  0.2375 -0.0222
  210MPD1    C5 3246   2.689   1.282  11.437  0.1541  0.5405 -0.3348
  210MPD1     H 3247   2.520   1.045  11.695  0.6770 -0.8378 -1.4982
  210MPD1    H1 3248   2.506   1.269  11.328 -0.1879  0.2769 -0.0431
  210MPD1    H2 3249   2.852   1.269  11.571 -0.5314  0.5949 -1.9476
  210MPD1    H3 3250   2.740   1.345  11.365  0.0602 -0.2612 -1.1057
  210MPD1     N 3251   2.371   1.118  11.481 -0.2417 -0.6963 -0.0560
  210MPD1    H5 3252   2.327   1.172  11.407  1.2973 -1.4444 -1.5359
  210MPD1    N1 3253   2.763   1.125  11.759 -0.2184 -0.1742  0.3951
  210MPD1    H6 3254   2.830   1.186  11.806  0.3144  0.1260 -0.7796
  210MPD1    H7 3255   2.696   1.092  11.829  0.5367  0.9504  1.6563
  211MPD1     C 3256   0.169   0.961  16.304 -0.3849 -0.6091 -0.1782
  211MPD1    C1 3257   0.097   0.990  16.187 -0.1356  0.3848 -0.1133
  211MPD1    C2 3258   4.695   0.965  16.185  0.0977 -0.9248 -0.4028
  211MPD1    C3 3259   4.640   0.898  16.290  0.6173  0.0871 -0.7993
  211MPD1    C4 3260   4.719   0.849  16.394 -0.4975 -0.0217  0.0140
  211MPD1    C5 3261   0.113   0.887  16.399  0.0342  0.7429  0.1465
  211MPD1     H 3262   4.641   0.992  16.095 -2.2100 -0.7322  1.0734
  211MPD1    H1 3263   4.678   0.791  16.476 -0.9056  1.3016  0.7434
  211MPD1    H2 3264   0.276   0.977  16.301 -0.5304 -0.0780 -2.8202
  211MPD1    H3 3265   0.173   0.850  16.482  1.0312  0.5360 -0.6587
  211MPD1     N 3266   4.499   0.880  16.288 -0.4908  0.0964 -0.7311
  211MPD1    H5 3267   4.454   0.900  16.200  0.0793 -2.3941 -1.5907
  211MPD1    N1 3268   0.162   1.074  16.094 -1.1961  0.4180 -0.9620
  211MPD1    H6 3269   0.111   1.086  16.007 -0.2991  0.5945 -1.4666
  211MPD1    H7 3270   0.261   1.050  16.085 -1.6795 -2.6576  1.5131
  212MPD1     C 3271   3.631   3.934  16.511 -0.2060  0.5513  1.1436
  212MPD1    C1 3272   3.562   3.843  16.439 -0.2989  0.6790 -0.0067
  212MPD1    C2 3273   3.536   3.719  16.492 -0.5727 -0.9561 -0.7691
  212MPD1    C3 3274   3.557   3.699  16.623 -0.7695  0.9136 -0.6318
  212MPD1    C4 3275   3.615   3.797  16.699  0.2989  0.2752  0.2832
  212MPD1    C5 3276   3.642   3.922  16.645  0.6051 -0.7044 -0.0436
  212MPD1     H 3277   3.471   3.659  16.429  0.2833 -2.7412  0.0590
  212MPD1    H1 3278   3.637   3.770  16.802 -1.4310 -1.2016  0.2650
  212MPD1    H2 3279   3.669   4.022  16.460  0.8807  0.0308  1.0526
  212MPD1    H3 3280   3.699   3.993  16.705  0.8919 -0.8726 -0.1152
  212MPD1     N 3281   3.528   3.582  16.696  0.5970  0.2214  0.6132
  212MPD1    H5 3282   3.526   3.585  16.797 -0.8692 -0.7558  0.6092
  212MPD1    N1 3283   3.554   3.871  16.306  0.0470  0.1438 -0.3236
  212MPD1    H6 3284   3.531   3.969  16.290  1.6803  0.4675 -0.6356
  212MPD1    H7 3285   3.501   3.814  16.240  0.3873 -0.0624 -0.4199
  213MPD1     C 3286   1.482   4.618  15.941 -1.1420  0.5063 -0.8843
  213MPD1    C1 3287   1.503   4.483  15.920 -0.2399  0.6871 -0.4141
  213MPD1    C2 3288   1.454   4.440  15.801 -0.0067  0.5506  0.1635
  213MPD1    C3 3289   1.378   4.517  15.710  0.0604  0.8693 -0.2088
  213MPD1    C4 3290   1.348   4.650  15.742  0.9492  0.7144  0.5643
  213MPD1    C5 3291   1.390   4.686  15.864  0.2338  0.3140 -0.3658
  213MPD1     H 3292   1.483   4.346  15.756 -1.0930 -0.3617  1.3863
  213MPD1    H1 3293   1.289   4.708  15.672 -0.5828  0.7889  1.9379
  213MPD1    H2 3294   1.526   4.664  16.029 -0.7639 -1.7604  0.1341
  213MPD1    H3 3295   1.375   0.046  15.909  3.1410  0.2925  0.6509
  213MPD1     N 3296   1.343   4.458  15.594  0.3748 -0.3108 -0.0937
  213MPD1    H5 3297   1.365   4.360  15.579 -2.5278 -0.7123 -1.7373
  213MPD1    N1 3298   1.620   4.424  15.963  0.1361 -0.0612 -0.4707
  213MPD1    H6 3299   1.598   4.325  15.957  1.5389 -0.4030  0.0444
  213MPD1    H7 3300   1.646   4.451  16.058 -0.8428 -3.4392  0.7501
  214MPD1     C 3301   1.413   3.623  15.491  0.1994  0.2649 -0.1566
  214MPD1    C1 3302   1.413   3.662  15.361  0.1800  0.0561 -0.4242
  214MPD1    C2 3303   1.389   3.796  15.333  0.4328 -0.3844  0.6244
  214MPD1    C3 3304   1.371   3.896  15.423  0.1166 -0.1747  0.2563
  214MPD1    C4 3305   1.375   3.853  15.552  0.2294  1.1148  0.2104
  214MPD1    C5 3306   1.399   3.721  15.590  0.3832 -0.0079  0.3253
  214MPD1     H 3307   1.385   3.828  15.229 -1.9148  0.8299  1.1113
  214MPD1    H1 3308   1.370   3.931  15.627  1.6479  2.1802 -0.8042
  214MPD1    H2 3309   1.445   3.522  15.514 -0.3065 -0.2528 -1.6820
  214MPD1    H3 3310   1.426   3.711  15.695  3.1573  1.2772 -0.2753
  214MPD1     N 3311   1.335   4.035  15.401 -0.0735 -0.2107  0.0335
  214MPD1    H5 3312   1.336   4.101  15.478  3.4840 -3.2716  2.6395
  214MPD1    N1 3313   1.416   3.567  15.260  0.0766 -0.6671 -0.6508
  214MPD1    H6 3314   1.468   3.483  15.283  2.7325  0.5882 -2.1392
  214MPD1    H7 3315   1.462   3.600  15.176  0.7199 -0.3650 -0.1777
  215MPD1     C 3316   1.365   0.793  11.155  0.5363  0.1704  0.1421
  215MPD1    C1 3317   1.441   0.784  11.273  0.0712  0.2082  0.2186
  215MPD1    C2 3318   1.487   0.907  11.325  0.0362 -0.1275  0.2527
  215MPD1    C3 3319   1.477   1.026  11.248  0.1901 -0.3937 -0.2718
  215MPD1    C4 3320   1.426   1.023  11.114 -0.3041  0.4497 -0.0631
  215MPD1    C5 3321   1.358   0.911  11.074 -0.5603 -0.1206  0.3346
  215MPD1     H 3322   1.533   0.911  11.423  0.4599 -0.6663  0.0770
  215MPD1    H1 3323   1.432   1.110  11.050  0.2836  0.5077  0.0783
  215MPD1    H2 3324   1.301   0.716  11.115 -0.2560  0.2315  1.2858
  215MPD1    H3 3325   1.309   0.893  10.979  1.7270  3.0386 -1.4365
  215MPD1     N 3326   1.540   1.145  11.294 -0.0720  0.1637 -0.0518
  215MPD1    H5 3327   1.597   1.144  11.378  1.1558 -0.6643 -0.8952
  215MPD1    N1 3328   1.421   0.665  11.346 -0.7568 -0.2112  0.4293
  215MPD1    H6 3329   1.428   0.582  11.288  0.8970 -0.7730  1.4125
  215MPD1    H7 3330   1.499   0.655  11.412 -1.6832  0.0507  1.5645
  216MPD1     C 3331   3.386   3.680  17.087  0.3521  0.2208 -0.8730
  216MPD1    C1 3332   3.452   3.558  17.070  0.4732  0.1001 -0.3720
  216MPD1    C2 3333   3.398   3.441  17.116 -0.3056  0.2758 -0.2223
  216MPD1    C3 3334   3.282   3.447  17.191  0.2842 -0.4135 -0.3597
  216MPD1    C4 3335   3.217   3.570  17.221 -0.0252  0.7139  0.1068
  216MPD1    C5 3336   3.267   3.683  17.156 -0.0364  0.2214 -0.3912
  216MPD1     H 3337   3.439   3.344  17.089  0.4033 -0.1912  2.5989
  216MPD1    H1 3338   3.128   3.583  17.281 -0.2515  0.1889 -0.1151
  216MPD1    H2 3339   3.431   3.767  17.041 -1.0550  0.8492 -1.0319
  216MPD1    H3 3340   3.221   3.774  17.193  0.1607  0.2059 -0.1092
  216MPD1     N 3341   3.235   3.320  17.232 -0.5393 -0.5911 -0.0689
  216MPD1    H5 3342   3.301   3.245  17.217 -1.8563 -0.9538 -3.9686
  216MPD1    N1 3343   3.570   3.555  16.996 -0.5570 -0.3040 -0.0087
  216MPD1    H6 3344   3.623   3.642  17.002  0.0888 -0.6170 -1.2188
  216MPD1    H7 3345   3.631   3.474  17.002  0.4220  0.2800 -1.8714
  217MPD1     C 3346   4.215   0.135   8.343  0.4355 -0.3277  0.0009
  217MPD1    C1 3347   4.335   0.082   8.389 -1.0866  0.8462  0.1304
  217MPD1    C2 3348   4.337   0.015   8.511 -0.0237  0.2539 -0.4070
  217MPD1    C3 3349   4.217   4.736   8.582 -0.0662 -0.5650  0.3289
  217MPD1    C4 3350   4.105   0.069   8.540  0.4861  0.2089  0.0926
  217MPD1    C5 3351   4.101   0.135   8.423  0.7073  0.2285  0.2044
  217MPD1     H 3352   4.421   4.691   8.542 -0.2804  0.4942  0.7647
  217MPD1    H1 3353   4.016   0.060   8.602  0.6534 -1.0441  0.1553
  217MPD1    H2 3354   4.204   0.180   8.245  1.0998 -1.0493 -0.4002
  217MPD1    H3 3355   4.013   0.191   8.391  0.2656  0.6957  2.2729
  217MPD1     N 3356   4.209   4.665   8.706 -0.4492  0.0676 -0.0270
  217MPD1    H5 3357   4.122   4.679   8.757 -1.3010  0.1395 -1.5031
  217MPD1    N1 3358   4.448   0.074   8.306  0.2035  0.2790 -0.4134
  217MPD1    H6 3359   4.530   0.091   8.363  1.3995 -1.8669 -1.4983
  217MPD1    H7 3360   4.445   0.139   8.228 -3.2586 -0.2994 -0.7682
  218MPD1     C 3361   1.065   0.994  13.087  0.6664  0.1012  0.2452
  218MPD1    C1 3362   1.186   1.014  13.152 -0.0197  0.1244  0.0429
  218MPD1    C2 3363   1.300   1.046  13.079  0.0327  0.1764  0.0656
  218MPD1    C3 3364   1.291   1.048  12.941  0.0848 -0.0269 -0.1537
  218MPD1    C4 3365   1.174   1.022  12.877 -0.3070 -0.3306  0.0033
  218MPD1    C5 3366   1.063   0.999  12.952 -0.0420  0.2183 -0.0581
  218MPD1     H 3367   1.389   1.063  13.139  1.5359  2.1044 -2.7269
  218MPD1    H1 3368   1.162   1.023  12.770 -3.9265  0.8621  0.4177
  218MPD1    H2 3369   0.973   0.965  13.137  0.7631  1.9479  1.4867
  218MPD1    H3 3370   0.970   0.984  12.897 -1.0420  0.2812  1.6163
  218MPD1     N 3371   1.406   1.079  12.872 -0.1929 -0.2426  0.3814
  218MPD1    H5 3372   1.489   1.081  12.931  1.5176 -2.2207 -1.9432
  218MPD1    N1 3373   1.193   1.000  13.293 -0.0269  0.1286 -0.2571
  218MPD1    H6 3374   1.110   0.965  13.339  1.7041  0.5910  3.1559
  218MPD1    H7 3375   1.272   0.944  13.323  0.3692  0.6085 -0.3994
  219MPD1     C 3376   1.558   1.200  11.926 -0.1744 -0.3417  0.3463
  219MPD1    C1 3377   1.641   1.290  11.979 -0.5202  0.2548 -0.1079
  219MPD1    C2 3378   1.677   1.274  12.111  0.4846  0.1057  0.2706
  219MPD1    C3 3379   1.637   1.163  12.186  0.7417 -0.1331  0.0033
  219MPD1    C4 3380   1.562   1.065  12.123  0.4140 -0.1762  0.5248
  219MPD1    C5 3381   1.518   1.085  11.992 -0.1516  0.2784  0.3867
  219MPD1     H 3382   1.747   1.339  12.162  1.0775  0.8066 -1.4283
  219MPD1    H1 3383   1.543   0.969  12.170 -0.1012 -1.3201 -2.0416
  219MPD1    H2 3384   1.517   1.215  11.827  1.4422  1.8557  0.0300
  219MPD1    H3 3385   1.454   1.008  11.948 -1.9070  1.1244  1.4455
  219MPD1     N 3386   1.646   1.163  12.326 -0.1558 -0.2535 -0.0841
  219MPD1    H5 3387   1.606   1.083  12.374 -0.3436  0.3855  0.8122
  219MPD1    N1 3388   1.677   1.413  11.912 -0.0576 -0.0412 -0.2181
  219MPD1    H6 3389   1.703   1.392  11.816 -2.6048  0.0495 -0.9221
  219MPD1    H7 3390   1.756   1.444  11.969 -0.9204 -2.0835  2.1056
  220MPD1     C 3391   1.311   2.109   9.648  0.9980 -0.8475  0.5307
  220MPD1    C1 3392   1.244   1.989   9.670 -0.0875  0.2096 -0.4612
  220MPD1    C2 3393   1.288   1.914   9.778  0.1841  0.1871 -0.1900
  220MPD1    C3 3394   1.401   1.946   9.849  0.1133 -0.2115 -0.0316
  220MPD1    C4 3395   1.480   2.049   9.801 -0.3706  0.2186  0.5294
  220MPD1    C5 3396   1.428   2.136   9.707 -0.5250  0.1218 -0.3605
  220MPD1     H 3397   1.216   1.844   9.819 -0.4837  1.2405  0.4189
  220MPD1    H1 3398   1.581   2.066   9.836 -0.8042  1.9175  0.9205
  220MPD1    H2 3399   1.284   2.187   9.578  0.5872 -0.7249  0.8262
  220MPD1    H3 3400   1.482   2.223   9.671  0.2277 -0.4547 -0.6122
  220MPD1     N 3401   1.445   1.867   9.959 -0.2842 -0.2596 -0.0149
  220MPD1    H5 3402   1.384   1.788   9.975  1.4901 -1.1673  2.1502
  220MPD1    N1 3403   1.108   1.971   9.635  0.2609 -0.4241  0.4376
  220MPD1    H6 3404   1.081   1.873   9.634  0.4910 -0.4927  0.9981
  220MPD1    H7 3405   1.103   2.013   9.543  1.4688 -0.0588  0.5339
  221MPD1     C 3406   3.767   0.900  15.596  0.1961  0.2954  0.3011
  221MPD1    C1 3407   3.741   0.899  15.728 -1.0455  0.5215 -0.2773
  221MPD1    C2 3408   3.827   0.841  15.818 -0.1924 -0.3545  0.0459
  221MPD1    C3 3409   3.946   0.783  15.769 -0.3397 -0.5658  0.5728
  221MPD1    C4 3410   3.978   0.791  15.635  0.2611 -0.2595 -0.2214
  221MPD1    C5 3411   3.883   0.848  15.551 -0.3550 -0.2128 -0.7856
  221MPD1     H 3412   3.788   0.838  15.920  2.7268 -1.5357  1.1259
  221MPD1    H1 3413   4.069   0.742  15.603 -1.4289 -1.8585 -2.5747
  221MPD1    H2 3414   3.698   0.937  15.521 -1.0421  0.5777  1.5857
  221MPD1    H3 3415   3.906   0.850  15.445  0.9563 -0.1513 -0.5048
  221MPD1     N 3416   4.036   0.710  15.857  0.4948  0.0877 -0.5999
  221MPD1    H5 3417   4.123   0.683  15.812 -0.1113 -2.2174 -0.3715
  221MPD1    N1 3418   3.607   0.927  15.770  0.4918  0.0869  0.0797
  221MPD1    H6 3419   3.606   0.971  15.862  1.0553  0.0953  0.0827
  221MPD1    H7 3420   3.569   1.008  15.721  1.5233  0.2655 -0.4138
  222MPD1     C 3421   4.349   3.915   0.086 -0.0606 -0.2306 -0.0488
  222MPD1    C1 3422   4.298   3.878   0.206  0.1409  0.5946 -0.2826
  222MPD1    C2 3423   4.171   3.828   0.202 -0.3297 -0.8740  0.1799
  222MPD1    C3 3424   4.094   3.807   0.090  0.1963 -0.6086 -0.3320
  222MPD1    C4 3425   4.150   3.844  17.718 -0.1566  0.0699  0.0335
  222MPD1    C5 3426   4.280   3.897  17.717 -0.4441 -0.1814 -0.2968
  222MPD1     H 3427   4.125   3.799   0.296 -0.3810  1.0382  0.7342
  222MPD1    H1 3428   4.111   3.840  17.617  1.5248  1.8077 -0.6854
  222MPD1    H2 3429   4.452   3.949   0.076  0.6765 -2.2422  0.6509
  222MPD1    H3 3430   4.328   3.917  17.621 -1.1186  2.4250 -0.0965
  222MPD1     N 3431   3.969   3.736   0.093 -0.7478  0.2039  0.0469
  222MPD1    H5 3432   3.933   3.702   0.005 -0.5330 -3.3125  1.3105
  222MPD1    N1 3433   4.376   3.917   0.319 -0.2651 -0.1465 -0.6044
  222MPD1    H6 3434   4.469   3.953   0.297 -0.5300  0.7207 -0.3259
  222MPD1    H7 3435   4.374   3.840   0.385 -0.1530  0.0069 -0.4201
  223MPD1     C 3436   3.791   3.180  17.229 -0.2278  0.3851  0.6098
  223MPD1    C1 3437   3.804   3.314  17.221  0.3299 -0.2129  0.4861
  223MPD1    C2 3438   3.792   3.386  17.337  0.3349  0.2870 -0.1444
  223MPD1    C3 3439   3.773   3.324  17.457 -1.1504 -0.1581  0.2109
  223MPD1    C4 3440   3.770   3.182  17.461  1.0730 -0.5189 -0.2960
  223MPD1    C5 3441   3.791   3.114  17.341  0.4203  0.1002 -0.2971
  223MPD1     H 3442   3.787   3.494  17.331  1.4572  0.4777  2.5150
  223MPD1    H1 3443   3.762   3.121  17.550 -3.1998  1.3676  0.6066
  223MPD1    H2 3444   3.786   3.119  17.140 -1.4654  1.2837  0.0648
  223MPD1    H3 3445   3.782   3.009  17.315  0.1781  0.3212 -1.1305
  223MPD1     N 3446   3.755   3.398  17.577  0.2698  0.2186  0.4824
  223MPD1    H5 3447   3.763   3.499  17.566 -1.1643  0.2552 -0.2865
  223MPD1    N1 3448   3.796   3.378  17.102 -0.0276  0.0442  0.0323
  223MPD1    H6 3449   3.824   3.327  17.019 -0.6093 -0.9256  0.4266
  223MPD1    H7 3450   3.821   3.476  17.104 -0.4287  0.1701 -1.8389
  224MPD1     C 3451   4.452   0.102   9.008 -0.0707  0.5041 -0.4026
  224MPD1    C1 3452   4.400   0.228   9.036  0.7788  0.2286  0.1692
  224MPD1    C2 3453   4.374   0.256   9.170 -0.5686  0.5251  0.2809
  224MPD1    C3 3454   4.437   0.187   9.269  0.3970 -0.2270 -1.0189
  224MPD1    C4 3455   4.495   0.058   9.236  0.4574 -0.1608  0.8066
  224MPD1    C5 3456   4.497   0.016   9.105 -0.6366  0.1935  0.1850
  224MPD1     H 3457   4.313   0.343   9.191 -0.5712  1.4310 -3.4499
  224MPD1    H1 3458   4.530   4.733   9.317  0.7908  0.3216  1.0360
  224MPD1    H2 3459   4.481   0.069   8.909 -0.6376 -0.4446 -0.2482
  224MPD1    H3 3460   4.549   4.663   9.076 -0.9659  0.1106 -0.1517
  224MPD1     N 3461   4.444   0.226   9.401  0.3717  0.0099  0.8018
  224MPD1    H5 3462   4.476   0.154   9.465 -1.2688 -0.1436  1.4499
  224MPD1    N1 3463   4.342   0.308   8.931 -0.0534  0.3094 -0.9097
  224MPD1    H6 3464   4.333   0.404   8.963 -0.3427  0.2303 -0.7504
  224MPD1    H7 3465   4.387   0.309   8.840  0.5641 -3.0923 -0.6573
  225MPD1     C 3466   1.728   1.931  13.113 -0.7238 -0.1586 -0.5619
  225MPD1    C1 3467   1.711   1.845  13.005 -0.0389  0.4341  0.4093
  225MPD1    C2 3468   1.593   1.861  12.930  0.1140  0.1370 -0.2272
  225MPD1    C3 3469   1.497   1.947  12.979  0.0687 -0.0864  0.0413
  225MPD1    C4 3470   1.510   2.014  13.101  0.3631 -0.0892 -0.5100
  225MPD1    C5 3471   1.634   2.015  13.162  0.4077 -0.2613  0.6002
  225MPD1     H 3472   1.573   1.798  12.844 -2.4802 -0.2752  0.7030
  225MPD1    H1 3473   1.429   2.077  13.136  2.5775  2.9493 -0.9551
  225MPD1    H2 3474   1.823   1.937  13.165  0.1216 -1.5219 -1.9556
  225MPD1    H3 3475   1.654   2.070  13.254  0.9280 -1.4006  1.1653
  225MPD1     N 3476   1.367   1.942  12.927 -0.1765  0.0560 -0.3561
  225MPD1    H5 3477   1.292   1.985  12.981 -0.9589 -3.0319  1.0297
  225MPD1    N1 3478   1.826   1.781  12.957 -0.0958  0.5149 -0.6159
  225MPD1    H6 3479   1.796   1.698  12.906 -0.6941  1.2419 -1.4600
  225MPD1    H7 3480   1.889   1.753  13.032  0.5177  1.1831 -0.8796
  226MPD1     C 3481   4.569   2.435   9.812 -0.2753  0.1884  0.7699
  226MPD1    C1 3482   4.536   2.384   9.691  0.5635  0.2865  0.1253
  226MPD1    C2 3483   4.497   2.249   9.683  0.5364  0.2335 -0.2000
  226MPD1    C3 3484   4.468   2.180   9.802 -0.1202  0.3004 -0.4197
  226MPD1    C4 3485   4.472   2.247   9.926 -0.3791 -0.1537 -0.7572
  226MPD1    C5 3486   4.537   2.367   9.930 -0.1407  0.3636  0.1499
  226MPD1     H 3487   4.488   2.200   9.587 -1.6907  0.5934 -0.1650
  226MPD1    H1 3488   4.451   2.203  10.023  1.3776  0.8013  0.0417
  226MPD1    H2 3489   4.617   2.532   9.818  0.1840  0.0121 -0.0855
  226MPD1    H3 3490   4.550   2.409  10.029  0.9385  0.6200 -0.0995
  226MPD1     N 3491   4.444   2.041   9.814 -0.0218  0.8370  0.5476
  226MPD1    H5 3492   4.437   2.014   9.912  0.0719 -0.7400  0.1240
  226MPD1    N1 3493   4.554   2.453   9.565  0.3070 -0.7924  0.2108
  226MPD1    H6 3494   4.514   2.546   9.576  3.1727  0.8497 -3.3327
  226MPD1    H7 3495   4.497   2.414   9.490  0.1436 -0.6151  0.2434
  227MPD1     C 3496   0.229   1.724  10.377 -0.2963 -0.6500  0.3130
  227MPD1    C1 3497   0.277   1.772  10.258 -1.0598 -0.3777 -0.6297
  227MPD1    C2 3498   0.188   1.760  10.147  0.2927 -0.1888 -0.1800
  227MPD1    C3 3499   0.063   1.700  10.163  0.0824  0.0084 -0.0040
  227MPD1    C4 3500   0.025   1.653  10.282  0.1050 -0.4613 -1.1849
  227MPD1    C5 3501   0.107   1.676  10.388 -0.7379 -0.3203 -0.2167
  227MPD1     H 3502   0.225   1.801  10.053 -0.5362  1.0237  0.0322
  227MPD1    H1 3503   4.676   1.588  10.291  0.9682 -1.5487 -0.6094
  227MPD1    H2 3504   0.283   1.735  10.470 -0.0494 -0.8883  0.1979
  227MPD1    H3 3505   0.092   1.641  10.490  1.9572  0.3615  0.4238
  227MPD1     N 3506   4.723   1.689  10.043  0.2556  0.4703  0.6584
  227MPD1    H5 3507   0.005   1.751   9.965  1.9396  0.9736  1.4728
  227MPD1    N1 3508   0.393   1.850  10.259 -0.1883  0.3530 -0.4807
  227MPD1    H6 3509   0.433   1.859  10.165 -0.6891  0.4843 -0.6805
  227MPD1    H7 3510   0.456   1.826  10.335 -0.5115 -0.5297 -0.4830
  228MPD1     C 3511   3.432   4.596  12.730 -0.1283  0.2116 -0.4810
  228MPD1    C1 3512   3.329   4.644  12.652  0.3446  0.8760  0.2494
  228MPD1    C2 3513   3.200   4.612  12.688  0.1618  0.0653 -0.2513
  228MPD1    C3 3514   3.173   4.520  12.794 -0.2913 -0.2464  0.5404
  228MPD1    C4 3515   3.275   4.464  12.861  0.4311 -0.5648  1.2840
  228MPD1    C5 3516   3.400   4.511  12.829 -0.4860  0.0889  0.4037
  228MPD1     H 3517   3.114   4.657  12.637  0.5975  0.2897 -0.7933
  228MPD1    H1 3518   3.282   4.398  12.947 -1.1044 -0.9999  1.0839
  228MPD1    H2 3519   3.537   4.621  12.717 -0.4323  0.9214 -1.6236
  228MPD1    H3 3520   3.487   4.468  12.877  1.7727  2.0937 -1.8937
  228MPD1     N 3521   3.036   4.482  12.812 -0.7544  0.0231 -0.6855
  228MPD1    H5 3522   2.964   4.530  12.761 -0.5944  1.0543  0.0596
  228MPD1    N1 3523   3.353   0.009  12.560  0.6122 -0.2926  0.0182
  228MPD1    H6 3524   3.447   0.028  12.527  0.6410 -0.8243 -0.2041
  228MPD1    H7 3525   3.294   0.002  12.477  1.7846 -1.7134 -0.6832
  229MPD1     C 3526   1.907   3.265  14.628  1.0535  0.2667  0.0592
  229MPD1    C1 3527   1.973   3.233  14.514 -0.0692  0.6984 -0.1165
  229MPD1    C2 3528   2.100   3.175  14.537 -0.5253  0.3677  0.7942
  229MPD1    C3 3529   2.155   3.153  14.665 -0.5430  0.5333 -0.4636
  229MPD1    C4 3530   2.084   3.182  14.771  0.1600 -0.6977 -0.1830
  229MPD1    C5 3531   1.955   3.229  14.750  0.2952 -0.1283 -0.2491
  229MPD1     H 3532   2.153   3.155  14.445  0.1642  1.8739  0.8678
  229MPD1    H1 3533   2.127   3.162  14.869 -0.1599  1.0480  0.3095
  229MPD1    H2 3534   1.814   3.320  14.618  2.2421  2.1427 -0.5708
  229MPD1    H3 3535   1.900   3.248  14.841  0.8014 -2.9648  0.6279
  229MPD1     N 3536   2.284   3.090  14.691  0.1445 -0.3441 -0.3662
  229MPD1    H5 3537   2.311   3.077  14.788  0.1674 -0.4383 -0.3852
  229MPD1    N1 3538   1.924   3.273  14.389  0.4635 -0.1329 -0.0912
  229MPD1    H6 3539   1.956   3.241  14.298 -1.6312  0.9686 -1.2260
  229MPD1    H7 3540   1.823   3.282  14.376  0.5208  0.1964 -0.3271
  230MPD1     C 3541   2.909   2.924  15.375 -0.1061 -0.6656  0.2283
  230MPD1    C1 3542   2.912   2.806  15.305  0.0515 -0.3569 -0.0702
  230MPD1    C2 3543   2.863   2.809  15.172 -0.3684 -0.4233 -0.2689
  230MPD1    C3 3544   2.811   2.923  15.119  0.3795  0.1368 -0.6181
  230MPD1    C4 3545   2.819   3.035  15.190 -0.6579  0.1728 -0.0532
  230MPD1    C5 3546   2.870   3.036  15.316 -0.1104 -0.5737  0.0576
  230MPD1     H 3547   2.858   2.726  15.103  0.1145 -0.8547  0.2147
  230MPD1    H1 3548   2.777   3.129  15.158 -0.7255  0.6616  1.4495
  230MPD1    H2 3549   2.937   2.924  15.480  1.6790 -0.7921 -0.2520
  230MPD1    H3 3550   2.874   3.134  15.362 -1.8312  0.9174 -2.9317
  230MPD1     N 3551   2.758   2.919  14.992  0.0101  0.7330 -0.5744
  230MPD1    H5 3552   2.758   2.826  14.951 -1.8664  0.9000 -0.9496
  230MPD1    N1 3553   2.946   2.682  15.370 -0.4212 -0.0096 -0.1869
  230MPD1    H6 3554   3.004   2.692  15.453 -1.5599  2.3766  0.3382
  230MPD1    H7 3555   2.978   2.609  15.307 -0.3009 -0.2519  0.1539
  231MPD1     C 3556   0.358   4.679  14.992  0.5130 -0.2753  0.0559
  231MPD1    C1 3557   0.383   0.038  14.899  0.4031  0.3815 -0.0370
  231MPD1    C2 3558   0.494   0.039  14.818  0.1965  1.0148 -0.6480
  231MPD1    C3 3559   0.597   4.691  14.844 -0.5551  0.3792  0.6028
  231MPD1    C4 3560   0.580   4.607  14.959  0.3709 -0.0463 -1.1328
  231MPD1    C5 3561   0.465   4.601  15.028 -0.1815  0.1375  0.1531
  231MPD1     H 3562   0.489   0.103  14.730 -0.5880 -0.2278 -1.5109
  231MPD1    H1 3563   0.655   4.535  14.990 -0.4473  0.5155  2.1127
  231MPD1    H2 3564   0.264   4.679  15.045 -0.0623 -1.0984 -0.9887
  231MPD1    H3 3565   0.459   4.528  15.109  4.1955 -0.9385 -0.4743
  231MPD1     N 3566   0.724   4.701  14.785  0.1580  0.4285 -0.1723
  231MPD1    H5 3567   0.744   0.045  14.728 -0.3036  0.9865  0.4766
  231MPD1    N1 3568   0.285   0.122  14.853  0.2513  0.3827 -0.1243
  231MPD1    H6 3569   0.223   0.133  14.932 -0.0250  0.8152 -0.4001
  231MPD1    H7 3570   0.321   0.213  14.822 -1.5982 -0.0864 -3.6705
  232MPD1     C 3571   3.021   2.260   0.053 -0.4009  0.7077 -1.0090
  232MPD1    C1 3572   2.928   2.360   0.052  0.8269  0.6700  0.0514
  232MPD1    C2 3573   2.812   2.333  17.741  0.2988  0.3807  0.5165
  232MPD1    C3 3574   2.766   2.200  17.728 -0.4160 -0.8069  0.1487
  232MPD1    C4 3575   2.860   2.099   0.004  0.3170 -0.2678 -0.0291
  232MPD1    C5 3576   2.989   2.131   0.040 -0.1481  1.2625 -0.5876
  232MPD1     H 3577   2.745   2.417  17.729  0.4586  0.4852  0.3365
  232MPD1    H1 3578   2.838   1.994  17.743 -2.1732  0.4184 -1.6916
  232MPD1    H2 3579   3.122   2.284   0.084 -1.2693  2.5304  0.4766
  232MPD1    H3 3580   3.069   2.059   0.057  0.4407  2.0353 -0.0632
  232MPD1     N 3581   2.639   2.176  17.671  0.1253 -0.4925  0.6442
  232MPD1    H5 3582   2.591   2.257  17.634  1.3226 -1.0525 -2.1528
  232MPD1    N1 3583   2.980   2.495   0.062 -0.0103 -0.2946 -0.3084
  232MPD1    H6 3584   2.906   2.559   0.090  2.1122  2.4800 -1.0471
  232MPD1    H7 3585   3.050   2.484   0.136 -0.9845  1.2156  0.8485
  233MPD1     C 3586   3.148   4.333   0.781  0.2824 -0.2648  0.5145
  233MPD1    C1 3587   3.153   4.425   0.882  0.1291  0.0611  0.2490
  233MPD1    C2 3588   3.242   4.424   0.988 -0.4887 -0.2229  0.2656
  233MPD1    C3 3589   3.345   4.334   0.989  0.4730 -0.2588  0.7070
  233MPD1    C4 3590   3.342   4.243   0.887 -0.4199 -0.6545  0.0025
  233MPD1    C5 3591   3.246   4.237   0.790  0.4917 -0.1829  0.5485
  233MPD1     H 3592   3.241   4.502   1.064 -0.8235 -1.6427  1.7125
  233MPD1    H1 3593   3.421   4.169   0.898 -1.4049 -1.2793  2.7398
  233MPD1    H2 3594   3.068   4.336   0.708 -0.9994  1.5892  1.9635
  233MPD1    H3 3595   3.251   4.165   0.709  0.2261 -0.2858  0.6232
  233MPD1     N 3596   3.451   4.327   1.078 -0.1665  0.3261 -0.3618
  233MPD1    H5 3597   3.522   4.256   1.070  0.8224  0.9122  3.0800
  233MPD1    N1 3598   3.053   4.516   0.884  0.1224 -0.4455  0.1397
  233MPD1    H6 3599   3.089   4.602   0.925 -1.3556  0.7632 -1.1320
  233MPD1    H7 3600   3.037   4.547   0.789 -0.5679  0.2048  0.4658
  234MPD1     C 3601   0.403   3.418   9.807 -0.3604 -0.2150  0.1606
  234MPD1    C1 3602   0.303   3.448   9.715 -0.3264 -0.3066 -0.3867
  234MPD1    C2 3603   0.268   3.579   9.688 -0.5965  0.3513  0.7801
  234MPD1    C3 3604   0.322   3.684   9.766  0.2591 -0.0555  0.3159
  234MPD1    C4 3605   0.420   3.646   9.856  0.1462  0.1277 -0.0527
  234MPD1    C5 3606   0.451   3.520   9.883 -0.4599  0.0946  0.5363
  234MPD1     H 3607   0.199   3.599   9.607  2.2069  0.9191 -1.4940
  234MPD1    H1 3608   0.479   3.725   9.903 -1.0174  1.2723 -0.5118
  234MPD1    H2 3609   0.426   3.316   9.835  1.7220  0.2001 -0.0720
  234MPD1    H3 3610   0.513   3.506   9.971 -0.9861 -2.1918  0.5350
  234MPD1     N 3611   0.286   3.814   9.739  0.1824  0.2427  0.0757
  234MPD1    H5 3612   0.209   3.831   9.676 -0.3003  1.0765  0.8776
  234MPD1    N1 3613   0.259   3.345   9.626 -0.7893 -0.3652 -0.7262
  234MPD1    H6 3614   0.274   3.251   9.662 -2.5538 -0.6346 -0.6930
  234MPD1    H7 3615   0.161   3.356   9.599 -0.8223  0.4171 -0.2868
  235MPD1     C 3616   2.241   1.933  11.248 -0.1346  0.2433  0.2520
  235MPD1    C1 3617   2.306   2.057  11.236  0.0779  0.0455  0.1057
  235MPD1    C2 3618   2.360   2.098  11.118 -0.2252  0.0031  0.3238
  235MPD1    C3 3619   2.378   2.007  11.022 -0.5008 -0.6814 -0.4479
  235MPD1    C4 3620   2.329   1.880  11.035  0.4076 -0.2055 -0.3816
  235MPD1    C5 3621   2.248   1.850  11.137 -0.0095 -0.5143 -0.8776
  235MPD1     H 3622   2.396   2.199  11.097  0.7186 -0.1703  1.1214
  235MPD1    H1 3623   2.335   1.815  10.949 -0.6173  0.4119 -0.9324
  235MPD1    H2 3624   2.182   1.906  11.335  1.3915 -1.1962  0.8290
  235MPD1    H3 3625   2.215   1.746  11.136 -1.9903  0.1593 -5.0826
  235MPD1     N 3626   2.442   2.054  10.906 -0.0090 -0.4295 -0.2397
  235MPD1    H5 3627   2.482   2.147  10.918  0.2206 -0.3853 -1.3488
  235MPD1    N1 3628   2.279   2.146  11.339 -0.1024 -0.1720  0.8936
  235MPD1    H6 3629   2.273   2.101  11.429  1.3130 -1.7786  0.1697
  235MPD1    H7 3630   2.360   2.207  11.346  0.4449 -0.9294  1.0608
  236MPD1     C 3631   1.649   3.489  10.446 -0.0499 -0.5550  0.2587
  236MPD1    C1 3632   1.731   3.517  10.552 -0.1999 -0.1207  0.1069
  236MPD1    C2 3633   1.831   3.421  10.582  0.2570  0.2559 -0.1906
  236MPD1    C3 3634   1.840   3.303  10.520 -0.6018 -0.2888 -0.3184
  236MPD1    C4 3635   1.753   3.275  10.416  0.0132 -0.4750 -0.2746
  236MPD1    C5 3636   1.657   3.364  10.383  0.5497 -0.3071 -0.2462
  236MPD1     H 3637   1.899   3.441  10.664  1.3528 -1.7501 -0.6107
  236MPD1    H1 3638   1.762   3.185  10.356  2.6952 -0.5186  0.2003
  236MPD1    H2 3639   1.578   3.560  10.405  2.2210 -0.2234 -3.0886
  236MPD1    H3 3640   1.597   3.336  10.297 -1.7112 -1.0178  1.5476
  236MPD1     N 3641   1.942   3.210  10.544  0.3548 -0.2165 -0.0444
  236MPD1    H5 3642   1.941   3.120  10.498  1.1503 -0.0147 -0.4637
  236MPD1    N1 3643   1.730   3.651  10.596 -0.0975  0.8406  1.0750
  236MPD1    H6 3644   1.762   3.658  10.692 -2.1274  0.0558  1.8043
  236MPD1    H7 3645   1.644   3.705  10.594 -1.2159 -0.8961  1.9883
  237MPD1     C 3646   1.477   1.902  15.474 -0.2667 -0.8446  0.5533
  237MPD1    C1 3647   1.454   1.885  15.342  0.4037  0.1018 -0.0313
  237MPD1    C2 3648   1.440   1.762  15.287 -0.0707 -0.0657 -0.7578
  237MPD1    C3 3649   1.445   1.646  15.365  0.4574  0.3862  0.1370
  237MPD1    C4 3650   1.458   1.666  15.498  0.6900  1.0122 -0.5162
  237MPD1    C5 3651   1.474   1.789  15.559 -0.1655  0.0873  0.5827
  237MPD1     H 3652   1.424   1.758  15.179 -0.7096  0.5121 -0.6877
  237MPD1    H1 3653   1.446   1.581  15.565  3.7342 -0.0395 -1.2936
  237MPD1    H2 3654   1.508   1.996  15.518  1.5878 -0.4062 -1.7394
  237MPD1    H3 3655   1.493   1.799  15.666  3.6062  0.0669 -0.0807
  237MPD1     N 3656   1.417   1.515  15.319 -0.3759 -0.4830 -0.5919
  237MPD1    H5 3657   1.445   1.440  15.381  1.1743 -1.6959 -2.7817
  237MPD1    N1 3658   1.461   1.995  15.256  0.0187 -0.2063 -0.0488
  237MPD1    H6 3659   1.392   1.971  15.185 -0.9826  0.2823  0.7686
  237MPD1    H7 3660   1.448   2.092  15.284  0.3873 -0.5618  1.3685
  238MPD1     C 3661   3.224   3.598  15.112 -0.1919 -0.9086 -0.5871
  238MPD1    C1 3662   3.221   3.638  14.974  0.3173 -0.0907 -0.4952
  238MPD1    C2 3663   3.160   3.753  14.940 -0.8335 -1.3025 -0.2906
  238MPD1    C3 3664   3.118   3.848  15.033 -0.1840  0.1212  0.8172
  238MPD1    C4 3665   3.122   3.813  15.165 -0.0373  0.0897  0.2450
  238MPD1    C5 3666   3.173   3.686  15.202 -0.1900 -0.6666  0.0497
  238MPD1     H 3667   3.156   3.785  14.837  3.0716  0.0062 -0.0250
  238MPD1    H1 3668   3.076   3.876  15.240  0.2140  0.0666  0.4222
  238MPD1    H2 3669   3.253   3.497  15.138  0.3809 -1.0903 -1.9313
  238MPD1    H3 3670   3.168   3.654  15.306  3.2129 -2.1324 -0.2490
  238MPD1     N 3671   3.055   3.972  14.998 -0.5808 -0.8610 -0.5103
  238MPD1    H5 3672   3.015   4.028  15.073 -2.1581 -1.6525 -0.7536
  238MPD1    N1 3673   3.263   3.549  14.872 -0.4642 -0.7731  0.4957
  238MPD1    H6 3674   3.338   3.487  14.903 -1.9547 -2.7548  0.0873
  238MPD1    H7 3675   3.281   3.578  14.776  0.3435  2.1673  1.5351
  239MPD1     C 3676   2.700   0.262  15.096 -0.1446  0.2705 -0.0359
  239MPD1    C1 3677   2.825   0.285  15.045  0.5871 -0.3821  0.0299
  239MPD1    C2 3678   2.838   0.396  14.956  0.1351 -0.3625  0.2979
  239MPD1    C3 3679   2.731   0.482  14.936  0.5012 -0.1326 -0.5985
  239MPD1    C4 3680   2.613   0.458  14.988  0.6782 -0.4307 -0.5733
  239MPD1    C5 3681   2.595   0.343  15.058 -0.1638  0.2850 -0.1340
  239MPD1     H 3682   2.932   0.422  14.908 -1.0819  1.9638 -0.8161
  239MPD1    H1 3683   2.520   0.510  14.968  0.3431 -0.3878  1.1032
  239MPD1    H2 3684   2.680   0.179  15.162 -0.5525  0.2587 -0.1748
  239MPD1    H3 3685   2.498   0.320  15.100 -1.1416  2.5120 -1.1777
  239MPD1     N 3686   2.735   0.597  14.846 -0.3632  0.6436  0.4825
  239MPD1    H5 3687   2.647   0.642  14.824 -1.2714  0.3608  3.4615
  239MPD1    N1 3688   2.931   0.202  15.068 -0.1047 -0.4413 -0.6070
  239MPD1    H6 3689   2.925   0.167  15.163 -2.0699  3.8305  0.8502
  239MPD1    H7 3690   3.021   0.250  15.057  0.3143 -0.6809  1.8153
  240MPD1     C 3691   2.684   1.131  14.155 -0.3255 -0.1669  0.0684
  240MPD1    C1 3692   2.761   1.026  14.098 -0.0200  0.3401 -0.3104
  240MPD1    C2 3693   2.726   0.901  14.146 -0.1697 -0.1082  0.6762
  240MPD1    C3 3694   2.654   0.886  14.258  0.4738  0.7111 -0.2576
  240MPD1    C4 3695   2.573   0.990  14.311 -0.4382 -0.3879 -1.2841
  240MPD1    C5 3696   2.590   1.110  14.258  0.4490 -0.5538 -0.3282
  240MPD1     H 3697   2.771   0.811  14.106 -0.4191  0.3978 -0.7441
  240MPD1    H1 3698   2.502   0.978  14.392 -0.9392  0.0263 -1.6554
  240MPD1    H2 3699   2.674   1.217  14.090 -0.5687 -1.4690 -1.6250
  240MPD1    H3 3700   2.516   1.187  14.276  1.6348  0.1867  1.3754
  240MPD1     N 3701   2.655   0.753  14.310  0.3033  0.2780  0.0719
  240MPD1    H5 3702   2.697   0.683  14.249 -1.9657 -0.1371 -1.0022
  240MPD1    N1 3703   2.830   1.041  13.979 -0.2561 -0.6192  0.0468
  240MPD1    H6 3704   2.859   1.137  13.962 -0.7111 -0.0991  2.2472
  240MPD1    H7 3705   2.900   0.969  13.961 -2.8478 -3.0596 -0.3387
  241MPD1     C 3706   3.219   0.054  14.797  0.5660  0.2731  0.3248
  241MPD1    C1 3707   3.186   0.185  14.822  0.3899  0.9392 -0.1072
  241MPD1    C2 3708   3.094   0.246  14.745 -0.0299 -1.2302  0.5327
  241MPD1    C3 3709   3.032   0.179  14.636 -0.5593  0.0311  0.6465
  241MPD1    C4 3710   3.057   0.045  14.616 -0.6835 -0.1454  0.6647
  241MPD1    C5 3711   3.154   4.727  14.696  0.1783 -0.1788  0.0506
  241MPD1     H 3712   3.065   0.345  14.780  1.7277 -0.5736  0.1456
  241MPD1    H1 3713   3.006   4.722  14.542  1.2356 -1.9053  0.7720
  241MPD1    H2 3714   3.294   0.007  14.861 -1.1861 -0.4837  1.8195
  241MPD1    H3 3715   3.178   4.624  14.673  1.3899 -0.4081  2.3810
  241MPD1     N 3716   2.933   0.240  14.566  0.6400 -0.1070 -0.0154
  241MPD1    H5 3717   2.882   0.179  14.503  0.2728  1.2597 -1.0507
  241MPD1    N1 3718   3.229   0.252  14.936  0.2455 -0.3715  0.0301
  241MPD1    H6 3719   3.227   0.352  14.916  2.2224 -0.4584 -0.6075
  241MPD1    H7 3720   3.325   0.232  14.963  0.8761  1.5877 -0.7097
  242MPD1     C 3721   1.851   2.884  16.035  0.7252  0.2641 -0.0362
  242MPD1    C1 3722   1.924   2.999  16.053  0.2930 -0.0098 -0.3049
  242MPD1    C2 3723   2.003   3.045  15.945  0.4418 -0.3707 -0.6133
  242MPD1    C3 3724   2.015   2.974  15.828 -0.4282  0.5794  0.0652
  242MPD1    C4 3725   1.960   2.852  15.820 -0.3223  0.1858 -0.5064
  242MPD1    C5 3726   1.876   2.811  15.920  0.2311 -0.3949  0.3005
  242MPD1     H 3727   2.039   3.147  15.945  0.2616 -0.3064 -0.0042
  242MPD1    H1 3728   1.969   2.794  15.729 -3.7814  1.9064 -1.9160
  242MPD1    H2 3729   1.797   2.823  16.107 -0.0369  0.6219 -0.3112
  242MPD1    H3 3730   1.847   2.707  15.911  0.6740 -0.4273 -0.6906
  242MPD1     N 3731   2.078   3.012  15.712 -0.1234 -0.1750 -0.8387
  242MPD1    H5 3732   2.064   2.948  15.634 -0.1602  1.4725 -2.1987
  242MPD1    N1 3733   1.914   3.069  16.177  0.5844 -0.1912 -0.6669
  242MPD1    H6 3734   1.890   3.003  16.250  1.7418  0.1128 -0.0103
  242MPD1    H7 3735   2.004   3.106  16.209  1.1796 -2.1323 -0.0819
  243MPD1     C 3736   2.779   1.779  17.427 -0.0417 -0.0519  0.5184
  243MPD1    C1 3737   2.884   1.731  17.495 -0.0438 -0.0334 -0.9105
  243MPD1    C2 3738   2.982   1.660  17.423  0.1512  0.4706  0.3171
  243MPD1    C3 3739   2.972   1.637  17.288  0.3609 -0.0560  0.4276
  243MPD1    C4 3740   2.866   1.694  17.220 -0.7602 -0.0906  0.5646
  243MPD1    C5 3741   2.771   1.763  17.294  0.0543  0.5896 -0.2643
  243MPD1     H 3742   3.068   1.628  17.480 -0.0759  1.8356  1.4298
  243MPD1    H1 3743   2.863   1.673  17.114  0.6640  0.5810  0.3933
  243MPD1    H2 3744   2.701   1.836  17.476 -0.4361  0.6362 -0.9402
  243MPD1    H3 3745   2.682   1.803  17.246  0.7097 -1.6819 -3.3900
  243MPD1     N 3746   3.070   1.549  17.228  0.9952 -0.3363 -0.3507
  243MPD1    H5 3747   3.149   1.520  17.284 -0.0191  0.0192  1.2501
  243MPD1    N1 3748   2.915   1.779  17.621  0.0089 -0.1538 -0.5079
  243MPD1    H6 3749   2.973   1.714  17.674  0.9974  0.0354 -1.3649
  243MPD1    H7 3750   2.831   1.796  17.676 -0.6361 -2.3762 -0.8404
  244MPD1     C 3751   3.429   0.735  17.389 -0.1445 -0.3914  0.1998
  244MPD1    C1 3752   3.341   0.819  17.453 -0.2491  0.2644 -1.0656
  244MPD1    C2 3753   3.327   0.945  17.397  0.6424 -0.4247 -0.1867
  244MPD1    C3 3754   3.363   0.968  17.261 -0.2569 -0.0751 -0.0280
  244MPD1    C4 3755   3.429   0.869  17.186  0.5450 -0.0555 -0.4075
  244MPD1    C5 3756   3.475   0.759  17.266 -0.0882 -0.9057 -0.4268
  244MPD1     H 3757   3.289   1.030  17.453  2.8292  0.5605 -0.2088
  244MPD1    H1 3758   3.472   0.889  17.088 -0.6832  1.1821 -0.6952
  244MPD1    H2 3759   3.466   0.643  17.432 -2.7579 -1.3917  0.2844
  244MPD1    H3 3760   3.535   0.683  17.217  0.4331 -1.5969  1.2509
  244MPD1     N 3761   3.347   1.102  17.207  0.0116  0.2608  0.1699
  244MPD1    H5 3762   3.292   1.171  17.256 -2.3918 -2.8941  1.8740
  244MPD1    N1 3763   3.308   0.799  17.585  0.4797 -0.1624 -0.1281
  244MPD1    H6 3764   3.306   0.702  17.615  0.4040 -0.3234 -0.6591
  244MPD1    H7 3765   3.218   0.838  17.612 -0.0547 -0.9595 -0.7616
  245MPD1     C 3766   0.700   2.761  12.952 -0.0721 -0.3206  0.3276
  245MPD1    C1 3767   0.679   2.762  13.082  0.8219  0.0942 -0.2316
  245MPD1    C2 3768   0.708   2.878  13.151  0.5281 -0.7442  0.3204
  245MPD1    C3 3769   0.757   2.988  13.086  0.1609 -0.5184  0.1923
  245MPD1    C4 3770   0.782   2.978  12.957 -0.4127  0.2563 -0.8435
  245MPD1    C5 3771   0.736   2.868  12.888 -0.1270  0.3705  1.0117
  245MPD1     H 3772   0.691   2.893  13.257 -0.2877  2.0579 -0.2048
  245MPD1    H1 3773   0.825   3.052  12.891  0.0867  1.5058  0.8826
  245MPD1    H2 3774   0.683   2.673  12.890  1.2986 -2.0572  2.4126
  245MPD1    H3 3775   0.745   2.866  12.780 -1.0026  1.0118  0.9311
  245MPD1     N 3776   0.786   3.096  13.170 -0.5639  0.3784  0.5212
  245MPD1    H5 3777   0.746   3.092  13.264  2.4694 -1.5420  1.7158
  245MPD1    N1 3778   0.611   2.660  13.144  0.0251 -0.5712 -1.1018
  245MPD1    H6 3779   0.630   2.658  13.244  0.4331 -1.7780 -1.2054
  245MPD1    H7 3780   0.629   2.570  13.101  1.3254  0.6852 -3.2058
  246MPD1     C 3781   2.162   2.711   8.997 -0.0019  0.0643  1.0955
  246MPD1    C1 3782   2.061   2.752   9.082  0.7967  0.2786  0.0181
  246MPD1    C2 3783   2.022   2.659   9.179 -0.6436 -0.1330 -0.2710
  246MPD1    C3 3784   2.093   2.541   9.198 -0.3665 -0.8394  0.5019
  246MPD1    C4 3785   2.207   2.520   9.126  0.1886  0.0260  0.1086
  246MPD1    C5 3786   2.227   2.599   9.018  0.4281 -0.2604 -0.6974
  246MPD1     H 3787   1.934   2.687   9.237  0.7190  1.3382  1.0911
  246MPD1    H1 3788   2.260   2.426   9.123  0.0937 -0.0523  0.8682
  246MPD1    H2 3789   2.183   2.772   8.910  0.0960 -1.1358  0.2716
  246MPD1    H3 3790   2.312   2.574   8.954  2.7085  3.6163  0.8148
  246MPD1     N 3791   2.042   2.446   9.284  0.6002  0.3633  0.1158
  246MPD1    H5 3792   1.946   2.454   9.316  0.6999 -0.2673  0.5879
  246MPD1    N1 3793   1.974   2.857   9.061 -0.5267 -0.2319 -0.3861
  246MPD1    H6 3794   2.024   2.935   9.019  2.9265 -3.5078 -2.3690
  246MPD1    H7 3795   1.932   2.887   9.149  0.5210 -1.3285  0.4946
  247MPD1     C 3796   4.310   2.664  16.473  0.5894  0.7147 -0.2510
  247MPD1    C1 3797   4.387   2.561  16.428 -0.2316 -0.3031  0.1439
  247MPD1    C2 3798   4.524   2.563  16.427  0.2458  0.5213  0.1297
  247MPD1    C3 3799   4.591   2.663  16.498  0.4145 -0.2247  0.2562
  247MPD1    C4 3800   4.514   2.752  16.568 -0.1899 -0.4193  0.3021
  247MPD1    C5 3801   4.372   2.756  16.554  0.4245  0.4486  0.4994
  247MPD1     H 3802   4.576   2.487  16.370  0.0549 -2.2127  3.5576
  247MPD1    H1 3803   4.550   2.825  16.640  1.0940  0.3973 -1.1847
  247MPD1    H2 3804   4.202   2.664  16.469  0.5438  1.8140  0.9356
  247MPD1    H3 3805   4.307   2.829  16.601 -0.9764 -1.1795  1.1177
  247MPD1     N 3806   4.729   2.684  16.496 -0.0316 -0.0131 -0.4489
  247MPD1    H5 3807   0.023   2.777  16.522 -0.3310 -1.0808  3.8428
  247MPD1    N1 3808   4.321   2.461  16.351  0.1823 -0.6498 -0.2781
  247MPD1    H6 3809   4.227   2.441  16.385 -1.0884  2.9927 -1.6091
  247MPD1    H7 3810   4.373   2.377  16.375  2.5621  0.4597 -1.4844
  248MPD1     C 3811   1.386   2.256  17.360 -0.3504 -0.5075  0.5168
  248MPD1    C1 3812   1.388   2.392  17.334  0.2484 -0.6713  0.9482
  248MPD1    C2 3813   1.279   2.474  17.361  0.1200 -0.0129  0.1233
  248MPD1    C3 3814   1.173   2.418  17.430  0.2278  0.1398  1.0880
  248MPD1    C4 3815   1.185   2.287  17.466 -0.3894 -0.5476 -1.1024
  248MPD1    C5 3816   1.284   2.205  17.435 -0.3736 -0.0290 -0.0896
  248MPD1     H 3817   1.289   2.581  17.345 -2.7502  0.0508 -1.3143
  248MPD1    H1 3818   1.105   2.233  17.516 -1.0239  0.7291 -0.7315
  248MPD1    H2 3819   1.467   2.191  17.328  0.5072  0.0784  1.5419
  248MPD1    H3 3820   1.283   2.104  17.473  2.1715  0.7110  1.9993
  248MPD1     N 3821   1.064   2.508  17.457 -1.1736  0.1641 -0.3127
  248MPD1    H5 3822   1.060   2.594  17.404 -0.4395  1.1061  1.1567
  248MPD1    N1 3823   1.499   2.453  17.265  0.0544 -0.1047 -0.6378
  248MPD1    H6 3824   1.586   2.430  17.314 -0.6725  0.6332  1.0053
  248MPD1    H7 3825   1.490   2.554  17.270 -0.2131 -0.1914  0.7126
  249MPD1     C 3826   2.141   1.169  10.287  0.5263 -0.1767  0.5880
  249MPD1    C1 3827   2.235   1.184  10.386 -0.0141 -0.1754  0.6261
  249MPD1    C2 3828   2.346   1.262  10.355  0.4859 -0.0974  0.0996
  249MPD1    C3 3829   2.361   1.325  10.232 -0.4465  0.5215 -0.2028
  249MPD1    C4 3830   2.259   1.315  10.135 -0.8457  0.2668 -0.1474
  249MPD1    C5 3831   2.159   1.232  10.166 -0.1403  0.7214 -0.1090
  249MPD1     H 3832   2.431   1.270  10.422  0.1446  0.2497  0.4945
  249MPD1    H1 3833   2.259   1.360  10.036  0.6848  0.6284  0.0114
  249MPD1    H2 3834   2.044   1.123  10.299  0.2417  0.3992  0.4961
  249MPD1    H3 3835   2.064   1.236  10.113 -1.7023 -3.4093  2.3994
  249MPD1     N 3836   2.481   1.402  10.221  0.2045  0.0429  0.1124
  249MPD1    H5 3837   2.552   1.381  10.291  0.5679 -0.6738 -0.4669
  249MPD1    N1 3838   2.220   1.110  10.506 -0.6516  0.1098  0.7743
  249MPD1    H6 3839   2.265   1.142  10.592  0.2611 -3.2370  1.5138
  249MPD1    H7 3840   2.121   1.097  10.525 -1.0224  0.3065 -0.9792
  250MPD2     C 3841   3.953   1.193  13.200  0.6024  0.8978 -0.0807
  250MPD2    C1 3842   4.054   1.259  13.133  0.2115 -0.2799 -0.6903
  250MPD2    C2 3843   4.119   1.192  13.029 -0.4202  0.5152 -0.4129
  250MPD2    C3 3844   4.064   1.079  12.968  0.3942  0.1940  0.7422
  250MPD2    C4 3845   3.945   1.029  13.025  0.1446 -0.0977 -0.4242
  250MPD2    C5 3846   3.894   1.084  13.140 -0.1247 -0.4036  0.0874
  250MPD2     H 3847   4.213   1.232  12.993 -0.3689 -0.9417 -1.9064
  250MPD2    H1 3848   3.888   0.948  12.979 -2.1309 -0.0681  2.2955
  250MPD2    H2 3849   3.898   1.228  13.286  0.3035 -1.9087  0.8740
  250MPD2    H3 3850   3.812   1.036  13.193  0.6783 -2.9942 -1.0485
  250MPD2     N 3851   4.118   1.017  12.853  0.1401  0.3083  0.5551
  250MPD2    H5 3852   4.095   0.919  12.841  0.7610  0.0859  1.1811
  250MPD2    N1 3853   4.089   1.390  13.176  0.1213 -0.1378  0.8663
  250MPD2    H7 3854   4.042   1.420  13.261 -2.0206  0.2066 -0.4410
  251TMC3    C1 3855   4.174   1.603  13.193 -0.7899  0.9423 -0.3793
  251TMC3    C2 3856   4.060   1.671  13.214 -0.1270 -0.1951 -0.1947
  251TMC3    C3 3857   4.062   1.804  13.211  0.1469  0.7877  0.6190
  251TMC3    C4 3858   4.285   1.680  13.172 -0.0230  0.0801 -0.9173
  251TMC3    C5 3859   4.284   1.819  13.174  0.0262  0.0396 -0.5102
  251TMC3    C6 3860   4.173   1.889  13.199 -0.0154  0.2287 -0.0649
  251TMC3     C 3861   4.173   1.476  13.124  0.3632  0.5413 -0.3704
  251TMC3     O 3862   4.244   1.460  13.027 -0.0759 -0.3101 -0.0198
  251TMC3     H 3863   3.963   1.623  13.223 -1.4907  3.0002  2.1658
  251TMC3    H1 3864   4.380   1.635  13.146  1.0726  1.9433 -0.1841
  251TMC3    H2 3865   4.163   1.996  13.185  1.2721  0.2929 -0.4415
  251TMC3    C7 3866   4.410   1.888  13.179  0.5038  0.0628 -0.3817
  251TMC3    C8 3867   3.952   1.868  13.281  0.3306 -0.3301 -0.8078
  251TMC3    O1 3868   4.513   1.822  13.158 -0.2761 -0.0879 -0.3518
  251TMC3    O2 3869   3.837   1.822  13.261 -0.5008 -0.0598  0.1395
  252TMC3    C1 3870   4.112   2.384   9.954  0.0292  0.2343 -0.1770
  252TMC3    C2 3871   4.149   2.517   9.941  0.8633 -0.1352  0.5771
  252TMC3    C3 3872   4.175   2.565   9.820 -0.3354  0.3101 -0.5153
  252TMC3    C4 3873   4.091   2.298   9.848 -0.3797 -0.1180 -0.0941
  252TMC3    C5 3874   4.122   2.349   9.728 -0.3439  0.0639 -0.3089
  252TMC3    C6 3875   4.160   2.482   9.705 -0.0832  0.4006 -0.2652
  252TMC3     C 3876   4.137   2.322  10.079 -0.0987 -0.4526  0.4789
  252TMC3     O 3877   4.228   2.369  10.144 -0.4042  0.3057  0.1763
  252TMC3     H 3878   4.172   2.574  10.030  1.1437 -0.0949  0.4758
  252TMC3    H1 3879   4.103   2.194   9.877  0.1615  0.0681  0.3488
  252TMC3    H2 3880   4.195   2.510   9.606  0.6711 -1.2664 -0.4652
  252TMC3    C7 3881   4.115   2.256   9.615  0.3267  0.2953 -0.3029
  252TMC3    C8 3882   4.246   2.690   9.797 -0.4320 -0.0419 -0.1307
  252TMC3    O1 3883   4.174   2.281   9.510  1.0573  0.2672 -0.1082
  252TMC3    O2 3884   4.232   2.743   9.688 -0.0417 -0.4635 -0.3831
  253MPD2     C 3885   0.692   1.811  15.614  0.4431  0.4296 -0.0712
  253MPD2    C1 3886   0.556   1.783  15.600 -0.0031 -0.4800  0.3001
  253MPD2    C2 3887   0.503   1.655  15.585  0.4792 -1.2878 -0.2338
  253MPD2    C3 3888   0.591   1.552  15.562  0.0289 -0.3506  0.3806
  253MPD2    C4 3889   0.731   1.584  15.557 -0.0894  0.2867 -0.3656
  253MPD2    C5 3890   0.781   1.706  15.587  0.0520 -0.5442 -0.2155
  253MPD2     H 3891   0.397   1.640  15.604  0.3395 -0.1860 -0.1222
  253MPD2    H1 3892   0.811   1.512  15.542 -0.5286 -0.2353 -0.2449
  253MPD2    H2 3893   0.733   1.905  15.650 -1.1328  0.0608  2.6902
  253MPD2    H3 3894   0.886   1.717  15.562 -0.8268  2.3799 -2.6365
  253MPD2     N 3895   0.548   1.421  15.545  0.1346  0.5336  0.1048
  253MPD2    H5 3896   0.624   1.358  15.519 -2.5653 -2.3246 -0.8754
  253MPD2    N1 3897   0.467   1.887  15.634  0.5586 -0.1133  0.6111
  253MPD2    H7 3898   0.367   1.867  15.636  0.8749 -1.9600 -1.6245
  254TMC3    C1 3899   0.406   1.226  15.567  0.3951  0.6744  0.5925
  254TMC3    C2 3900   0.275   1.203  15.572  0.0161  0.1283  0.6782
  254TMC3    C3 3901   0.223   1.109  15.656 -0.6156  0.0045 -0.2900
  254TMC3    C4 3902   0.497   1.170  15.662 -0.0575 -0.5730 -0.4491
  254TMC3    C5 3903   0.439   1.077  15.750 -0.4377 -0.8048 -0.4729
  254TMC3    C6 3904   0.307   1.044  15.742  0.7612 -0.4387 -0.5826
  254TMC3     C 3905   0.419   1.370  15.553  0.4107 -0.0134  0.0458
  254TMC3     O 3906   0.314   1.433  15.578 -0.3206 -0.3605  0.5097
  254TMC3     H 3907   0.206   1.245  15.499 -0.4008 -0.7235  0.5810
  254TMC3    H1 3908   0.601   1.196  15.670 -0.3053  0.3362 -0.2455
  254TMC3    H2 3909   0.271   0.962  15.802  1.0181 -2.1412 -2.7613
  254TMC3    C7 3910   0.505   1.026  15.868  0.1292 -0.4173  0.6245
  254TMC3    C8 3911   0.111   1.149  15.733  0.0694 -0.2469 -0.5454
  254TMC3    O1 3912   0.448   0.944  15.938  0.1154  0.0099 -0.3691
  254TMC3    O2 3913   0.063   1.058  15.801  0.1381 -0.5717 -0.4038
  255MPD2     C 3914   3.784   3.843  10.276  0.3922 -0.3600 -0.1632
  255MPD2    C1 3915   3.821   3.971  10.310 -0.3350  0.0921 -0.1034
  255MPD2    C2 3916   3.793   4.073  10.216 -0.1744  0.5199 -0.1033
  255MPD2    C3 3917   3.729   4.051  10.102 -0.1894 -0.2010  0.2062
  255MPD2    C4 3918   3.692   3.922  10.072 -0.5278  0.4286  0.3477
  255MPD2    C5 3919   3.713   3.819  10.163 -0.6519  0.5565 -0.1091
  255MPD2     H 3920   3.830   4.171  10.245  3.5801 -1.6599  2.4585
  255MPD2    H1 3921   3.644   3.907   9.976  0.2052  0.0592  0.0312
  255MPD2    H2 3922   3.805   3.757  10.339  1.2820  0.5390  0.7606
  255MPD2    H3 3923   3.675   3.721  10.137  1.6146 -0.2766 -0.2057
  255MPD2     N 3924   3.697   4.158  10.012  0.1805 -0.2843 -0.3231
  255MPD2    H5 3925   3.735   4.251  10.026  0.3091 -0.3221 -0.4219
  255MPD2    N1 3926   3.893   3.989  10.436  0.2593  0.0196 -0.1003
  255MPD2    H7 3927   3.877   3.921  10.510  0.4483 -1.0804 -1.0644
  256TMC3    C1 3928   3.867   4.150  10.612 -0.0446 -0.5205  0.6289
  256TMC3    C2 3929   3.871   4.288  10.637  0.2099  0.8062  0.7025
  256TMC3    C3 3930   3.762   4.351  10.695  0.2540  0.1065  0.0064
  256TMC3    C4 3931   3.749   4.085  10.636  0.0291 -0.1952 -0.0898
  256TMC3    C5 3932   3.638   4.150  10.679  0.7562 -0.0908 -0.4841
  256TMC3    C6 3933   3.647   4.279  10.719 -0.1892  0.0870  0.0777
  256TMC3     C 3934   3.922   4.120  10.482 -0.2408  0.2075  0.6234
  256TMC3     O 3935   3.982   4.209  10.424  0.6090  0.2916  0.3847
  256TMC3     H 3936   3.966   4.341  10.634 -0.2942  1.6755  0.1768
  256TMC3    H1 3937   3.743   3.977  10.629  0.5502 -0.2976  1.0769
  256TMC3    H2 3938   3.567   4.341  10.758  1.2440  0.5135  2.3215
  256TMC3    C7 3939   3.511   4.095  10.627 -0.5348  0.6471 -0.0904
  256TMC3    C8 3940   3.762   4.494  10.691  0.4622  0.1046 -0.3115
  256TMC3    O1 3941   3.522   3.993  10.562  0.1578  0.5018 -0.4801
  256TMC3    O2 3942   3.688   4.547  10.775 -0.0305  0.5565  0.2997
  257MPD2     C 3943   2.860   1.634  13.345 -0.4768  0.2244  0.8609
  257MPD2    C1 3944   2.863   1.536  13.244  0.0183  0.4869  0.4126
  257MPD2    C2 3945   2.851   1.404  13.284 -0.0243 -0.1538 -0.7565
  257MPD2    C3 3946   2.807   1.372  13.412  0.2054 -0.2337 -0.6921
  257MPD2    C4 3947   2.779   1.471  13.500 -0.6882 -0.9777  0.6182
  257MPD2    C5 3948   2.817   1.599  13.469  0.4280  0.2447 -0.0198
  257MPD2     H 3949   2.852   1.325  13.210  2.1539 -1.2160  0.3981
  257MPD2    H1 3950   2.721   1.456  13.590 -0.1434  1.3973  1.3813
  257MPD2    H2 3951   2.886   1.735  13.317 -0.2660 -0.0477  0.0806
  257MPD2    H3 3952   2.813   1.675  13.545 -2.9946 -0.1295  0.1927
  257MPD2     N 3953   2.768   1.237  13.437 -0.0670  0.0968 -0.2115
  257MPD2    H5 3954   2.748   1.180  13.355 -3.2662 -0.1898  0.7627
  257MPD2    N1 3955   2.898   1.571  13.108 -0.1429  0.0263 -0.3270
  257MPD2    H7 3956   2.926   1.666  13.086  1.8574  0.0537  2.3428
  258TMC3    C1 3957   2.722   1.035  13.546  0.5155  0.0364  0.0857
  258TMC3    C2 3958   2.672   0.992  13.429  0.5300  0.2560 -0.2049
  258TMC3    C3 3959   2.691   0.856  13.408  0.5710 -0.6734 -0.4339
  258TMC3    C4 3960   2.771   0.957  13.645  0.6389  1.0369  0.6791
  258TMC3    C5 3961   2.792   0.822  13.617  0.2108  0.2114 -0.4877
  258TMC3    C6 3962   2.749   0.774  13.500  0.1834 -0.0136  0.0511
  258TMC3     C 3963   2.748   1.179  13.558 -0.4303 -0.4381  0.1230
  258TMC3     O 3964   2.793   1.219  13.663  0.1656  0.4707  0.5747
  258TMC3     H 3965   2.623   1.045  13.349  0.5914 -1.4406 -1.3565
  258TMC3    H1 3966   2.786   1.006  13.741  0.3922 -0.9234  1.7127
  258TMC3    H2 3967   2.738   0.667  13.485 -2.3973  0.1248  1.0070
  258TMC3    C7 3968   2.826   0.717  13.714 -0.9666 -0.1986 -0.0780
  258TMC3    C8 3969   2.666   0.814  13.275 -1.0646 -0.2501 -0.2932
  258TMC3    O1 3970   2.802   0.601  13.683  0.3962 -0.5219  0.2732
  258TMC3    O2 3971   2.580   0.881  13.212  0.0519 -0.0404 -0.2567
  259MPD2     C 3972   0.951   2.804   0.499 -0.4269 -0.3360  0.2109
  259MPD2    C1 3973   1.021   2.722   0.575 -0.5599  0.0836  0.5873
  259MPD2    C2 3974   1.146   2.676   0.543  0.6723 -0.4756 -0.5230
  259MPD2    C3 3975   1.207   2.722   0.426  0.0676 -0.3036 -0.0217
  259MPD2    C4 3976   1.130   2.814   0.351  0.3796  0.1548  0.4443
  259MPD2    C5 3977   1.002   2.860   0.390  0.0860 -0.0446 -0.1989
  259MPD2     H 3978   1.195   2.603   0.606 -0.0008  0.0675  0.6312
  259MPD2    H1 3979   1.167   2.853   0.256  0.5920  0.0728  0.4943
  259MPD2    H2 3980   0.859   2.844   0.540 -0.7819  0.8559 -1.7627
  259MPD2    H3 3981   0.949   2.934   0.332 -0.3228 -1.7025 -1.9134
  259MPD2     N 3982   1.332   2.680   0.384  0.2104  0.2887 -0.9365
  259MPD2    H5 3983   1.380   2.613   0.444  0.7180  2.5672  1.2122
  259MPD2    N1 3984   0.959   2.684   0.697 -0.4644  0.1780  0.0640
  259MPD2    H7 3985   0.858   2.693   0.707 -0.1552  3.4247 -0.0277
  260TMC3    C1 3986   1.537   2.656   0.268 -0.6785  0.0283 -0.5381
  260TMC3    C2 3987   1.645   2.723   0.211  0.2765  0.2565  0.4252
  260TMC3    C3 3988   1.771   2.659   0.223  0.4136  0.1492  0.2447
  260TMC3    C4 3989   1.550   2.529   0.305 -0.1278 -0.1543 -0.6647
  260TMC3    C5 3990   1.675   2.481   0.320  0.1716  0.4419 -0.3719
  260TMC3    C6 3991   1.785   2.534   0.267 -0.4125 -0.3166 -0.0003
  260TMC3     C 3992   1.406   2.722   0.271 -0.2311 -0.0718  0.1807
  260TMC3     O 3993   1.387   2.808   0.184  0.2436 -0.4035  0.0345
  260TMC3     H 3994   1.636   2.821   0.165 -0.9676  0.1295  0.3955
  260TMC3    H1 3995   1.463   2.473   0.338  2.0650 -2.4135  1.2476
  260TMC3    H2 3996   1.881   2.491   0.295 -0.5732 -0.6836 -0.0124
  260TMC3    C7 3997   1.695   2.341   0.346  0.0897 -0.2602 -0.2542
  260TMC3    C8 3998   1.869   2.689   0.127 -0.6815 -0.1198  0.2382
  260TMC3    O1 3999   1.784   2.286   0.281 -0.2687  0.4382  0.0630
  260TMC3    O2 4000   1.867   2.801   0.074 -0.1297  0.0968 -0.0351
  261MPD2     C 4001   4.433   1.142  12.100 -0.6753  1.1290  0.4088
  261MPD2    C1 4002   4.376   1.199  12.212  1.0175 -0.2457  0.3221
  261MPD2    C2 4003   4.295   1.313  12.197  0.3588  0.0190  0.2827
  261MPD2    C3 4004   4.271   1.367  12.072 -0.2135  0.0264  0.0585
  261MPD2    C4 4005   4.335   1.320  11.965  0.6459  0.0858  0.6446
  261MPD2    C5 4006   4.411   1.209  11.979  0.1290 -0.0976 -0.2187
  261MPD2     H 4007   4.233   1.354  12.275 -1.5271 -0.3172 -1.0413
  261MPD2    H1 4008   4.330   1.365  11.866 -0.3501 -0.4997  0.4387
  261MPD2    H2 4009   4.501   1.057  12.101 -1.9479  0.0825 -1.0030
  261MPD2    H3 4010   4.458   1.166  11.890 -0.5549 -0.7012 -0.2867
  261MPD2     N 4011   4.175   1.467  12.039 -0.0097  0.2617  0.2136
  261MPD2    H5 4012   4.168   1.500  11.943 -1.0955 -0.4080  0.0743
  261MPD2    N1 4013   4.389   1.149  12.339 -0.7082 -0.1880  0.9453
  261MPD2    H7 4014   4.329   1.197  12.405  0.9047  0.2047  2.1464
  262TMC3    C1 4015   4.012   1.636  12.079  0.6418 -0.3991 -0.2654
  262TMC3    C2 4016   3.902   1.674  12.149 -0.1038  0.3267 -0.3907
  262TMC3    C3 4017   3.830   1.780  12.109 -0.2570 -0.2334 -0.6838
  262TMC3    C4 4018   4.041   1.701  11.961 -0.4851  0.6318  0.4784
  262TMC3    C5 4019   3.971   1.808  11.919 -0.2967 -0.1603  0.1973
  262TMC3    C6 4020   3.868   1.853  11.995 -0.3586 -0.6035  0.0422
  262TMC3     C 4021   4.094   1.531  12.132  0.0167 -0.1673  0.1007
  262TMC3     O 4022   4.082   1.511  12.255  0.1505  0.0857  0.5363
  262TMC3     H 4023   3.886   1.635  12.249  1.4002  0.3555 -0.1451
  262TMC3    H1 4024   4.136   1.681  11.913 -0.8688 -0.9996  0.4033
  262TMC3    H2 4025   3.809   1.937  11.959  1.1084  0.5397  0.3301
  262TMC3    C7 4026   4.026   1.874  11.793 -0.1921  0.1076  0.1377
  262TMC3    C8 4027   3.717   1.825  12.179  0.1308 -0.3186  0.2285
  262TMC3    O1 4028   4.141   1.839  11.770  0.1376 -0.4802  0.2182
  262TMC3    O2 4029   3.686   1.942  12.178  0.3923  0.0047  0.4274
  263MPD2     C 4030   4.602   0.727  11.589  0.2987 -0.5513 -0.5380
  263MPD2    C1 4031   4.716   0.758  11.522  0.6690 -0.1461  0.0270
  263MPD2    C2 4032   4.706   0.816  11.392  0.4667 -0.1585 -0.0781
  263MPD2    C3 4033   4.579   0.842  11.342  0.2672 -0.4136  0.1761
  263MPD2    C4 4034   4.464   0.815  11.420 -0.0264 -0.0704  0.1766
  263MPD2    C5 4035   4.482   0.764  11.543  0.2597  0.1580  0.6536
  263MPD2     H 4036   0.055   0.831  11.328 -1.0463  2.2256 -1.5653
  263MPD2    H1 4037   4.364   0.839  11.388 -0.0214 -0.2411  0.0293
  263MPD2    H2 4038   4.606   0.678  11.686 -1.4839  0.3142 -0.0362
  263MPD2    H3 4039   4.392   0.742  11.600 -0.5456 -0.1058 -0.7253
  263MPD2     N 4040   4.558   0.894  11.211 -0.1486  0.6211  0.4771
  263MPD2    H5 4041   4.460   0.913  11.194 -0.5779 -3.7519 -1.6807
  263MPD2    N1 4042   0.102   0.725  11.579 -0.2470  0.3345  0.6003
  263MPD2    H7 4043   0.096   0.677  11.669  0.4379 -2.0194 -0.5973
  264TMC3    C1 4044   4.609   1.007  11.009 -0.2582  0.6149  0.2876
  264TMC3    C2 4045   4.560   1.127  11.056  0.4870  0.7973 -0.3383
  264TMC3    C3 4046   4.547   1.229  10.964 -0.5791  0.5374  0.0522
  264TMC3    C4 4047   4.632   0.984  10.883  0.0080  0.3057 -0.1568
  264TMC3    C5 4048   4.593   1.076  10.789 -0.4681  0.5973 -0.0371
  264TMC3    C6 4049   4.554   1.198  10.830  0.1860  0.0612 -0.2798
  264TMC3     C 4050   4.654   0.909  11.113 -0.2177  0.5412 -0.1221
  264TMC3     O 4051   0.026   0.855  11.097 -0.6976 -0.4738  0.1688
  264TMC3     H 4052   4.551   1.151  11.161  0.3437 -0.5431 -0.0468
  264TMC3    H1 4053   4.667   0.886  10.852  0.5978  0.0420  1.3274
  264TMC3    H2 4054   4.518   1.274  10.761 -0.8139  0.1206  0.3056
  264TMC3    C7 4055   4.683   1.068  10.672 -0.0915  0.3411  0.2737
  264TMC3    C8 4056   4.578   1.372  10.998  0.2521 -0.2392  0.6961
  264TMC3    O1 4057   0.012   0.971  10.656 -0.2207  0.2483 -0.3087
  264TMC3    O2 4058   4.631   1.434  10.906  0.5316 -0.1014  0.4314
  265MPD2     C 4059   1.461   0.758  15.803  0.0160  0.6811 -0.4127
  265MPD2    C1 4060   1.427   0.849  15.703  0.4875 -0.0043 -0.3159
  265MPD2    C2 4061   1.465   0.811  15.574 -0.0081  0.3429 -0.1788
  265MPD2    C3 4062   1.539   0.694  15.550 -0.2963 -0.1901 -0.2062
  265MPD2    C4 4063   1.585   0.611  15.652 -0.7145 -0.4166 -0.6474
  265MPD2    C5 4064   1.551   0.652  15.782  0.2452  0.0216 -0.0620
  265MPD2     H 4065   1.442   0.881  15.495  0.0992 -1.4095 -1.7454
  265MPD2    H1 4066   1.644   0.522  15.635  0.2098 -0.2703  1.7655
  265MPD2    H2 4067   1.424   0.769  15.905  0.6815 -1.2269  0.0289
  265MPD2    H3 4068   1.574   0.589  15.867  1.1359  1.1143  0.5053
  265MPD2     N 4069   1.585   0.663  15.420 -0.4661 -0.0899  0.2583
  265MPD2    H5 4070   1.651   0.586  15.410  0.8097  0.9585  0.5903
  265MPD2    N1 4071   1.364   0.976  15.714 -0.2853 -0.0188  0.1127
  265MPD2    H7 4072   1.355   1.027  15.627  2.1198 -0.2688 -0.2883
  266TMC3    C1 4073   1.286   1.172  15.824  0.7869 -0.7430 -0.1747
  266TMC3    C2 4074   1.264   1.241  15.943  0.3358  0.3563 -0.3920
  266TMC3    C3 4075   1.202   1.363  15.946  0.6863  0.0333  0.0266
  266TMC3    C4 4076   1.211   1.209  15.717 -0.8117  0.3517 -0.2599
  266TMC3    C5 4077   1.169   1.341  15.714  0.0498  0.3112  0.0264
  266TMC3    C6 4078   1.165   1.420  15.828  0.7290  0.3862 -0.0537
  266TMC3     C 4079   1.322   1.031  15.827  0.8001 -0.3118 -0.1915
  266TMC3     O 4080   1.313   0.978  15.939 -0.7584  0.3830 -0.0658
  266TMC3     H 4081   1.304   1.207  16.038  1.3364  2.8934  0.0859
  266TMC3    H1 4082   1.223   1.155  15.624 -0.3927  0.4111 -0.2393
  266TMC3    H2 4083   1.138   1.525  15.828 -2.0396 -0.3156 -0.4388
  266TMC3    C7 4084   1.092   1.365  15.595  0.1447 -0.0607  0.0362
  266TMC3    C8 4085   1.261   1.455  16.043 -0.0304 -0.0759 -0.7042
  266TMC3    O1 4086   1.046   1.267  15.541  0.4132 -0.6050  0.5176
  266TMC3    O2 4087   1.380   1.430  16.069 -0.0674  0.3995  0.3777
  267MPD2     C 4088   3.270   3.264   0.331  0.6263  1.0969  0.5501
  267MPD2    C1 4089   3.321   3.149   0.283 -0.6253  0.0192  0.6019
  267MPD2    C2 4090   3.263   3.088   0.174  0.3431  0.1488 -0.1038
  267MPD2    C3 4091   3.150   3.138   0.114 -1.0600 -0.2609 -0.1072
  267MPD2    C4 4092   3.092   3.252   0.166 -1.0026 -0.1798  0.0343
  267MPD2    C5 4093   3.148   3.301   0.283 -0.8236 -0.2951  0.5094
  267MPD2     H 4094   3.315   3.006   0.128 -0.2151  0.4724 -1.3075
  267MPD2    H1 4095   2.989   3.275   0.140 -0.0573  1.4584 -2.2630
  267MPD2    H2 4096   3.318   3.302   0.420  1.1350  4.1268 -1.0116
  267MPD2    H3 4097   3.099   3.388   0.324 -1.2351  1.0142 -2.7337
  267MPD2     N 4098   3.087   3.086  17.741 -0.0613 -0.2182  0.3445
  267MPD2    H5 4099   2.994   3.124  17.730 -0.3979 -1.2067 -0.1755
  267MPD2    N1 4100   3.429   3.088   0.349  0.0554  0.7118  0.8650
  267MPD2    H7 4101   3.482   3.151   0.408  2.3457 -0.7433  0.3595
  268TMC3    C1 4102   3.622   2.952   0.368 -1.2357 -0.3920 -0.4432
  268TMC3    C2 4103   3.712   3.054   0.346 -0.4997 -0.1498  0.1044
  268TMC3    C3 4104   3.828   3.034   0.402 -0.8135 -0.8130 -0.0502
  268TMC3    C4 4105   3.642   2.837   0.435  0.4252  0.0368  0.4094
  268TMC3    C5 4106   3.764   2.824   0.487 -0.5260  0.0249  0.1087
  268TMC3    C6 4107   3.860   2.918   0.480  0.2208 -0.1435  0.2945
  268TMC3     C 4108   3.490   2.972   0.313  0.4827 -0.3595  0.9120
  268TMC3     O 4109   3.431   2.862   0.305 -0.1793 -0.1425  0.1560
  268TMC3     H 4110   3.701   3.129   0.269 -0.1350 -0.2268 -0.0255
  268TMC3    H1 4111   3.561   2.766   0.448  1.2631 -0.9245  0.3609
  268TMC3    H2 4112   3.964   2.897   0.503 -0.3359 -1.7496  1.3375
  268TMC3    C7 4113   3.802   2.690   0.533 -0.6804 -0.0592 -0.5088
  268TMC3    C8 4114   3.938   3.117   0.352 -0.4459 -0.2559 -0.8830
  268TMC3    O1 4115   3.899   2.676   0.607 -0.9690 -0.2102  0.8957
  268TMC3    O2 4116   4.027   3.133   0.430  0.3184  0.0496  0.0243
  269MPD2     C 4117   4.502   1.662  15.979 -0.0555 -0.4406 -0.3490
  269MPD2    C1 4118   4.379   1.666  15.916  0.0677  0.1121 -0.4319
  269MPD2    C2 4119   4.343   1.782  15.854 -0.1361 -0.1099  0.2248
  269MPD2    C3 4120   4.424   1.891  15.855 -0.2638 -0.1373  0.4333
  269MPD2    C4 4121   4.550   1.889  15.917 -0.1727  0.3480  0.1815
  269MPD2    C5 4122   4.582   1.774  15.982 -0.7577 -0.2381 -0.7060
  269MPD2     H 4123   4.246   1.801  15.809  1.6594 -0.4674 -3.8268
  269MPD2    H1 4124   4.625   1.966  15.916  1.6765 -1.4651 -2.9332
  269MPD2    H2 4125   4.539   1.573  16.028 -1.1970 -0.0522  1.2395
  269MPD2    H3 4126   4.681   1.773  16.027 -1.2171  0.2365  0.3023
  269MPD2     N 4127   4.377   2.005  15.778  0.4024 -0.2337  0.9612
  269MPD2    H5 4128   4.279   2.003  15.752  0.4832  1.8606  0.5132
  269MPD2    N1 4129   4.309   1.543  15.901 -0.0649  0.0795 -0.9764
  269MPD2    H7 4130   4.352   1.459  15.940 -0.5450 -0.1975 -1.0379
  270TMC3    C1 4131   4.152   1.385  15.830 -0.2760 -0.0010  0.3995
  270TMC3    C2 4132   4.020   1.364  15.792 -0.2578  0.7694  0.3915
  270TMC3    C3 4133   3.983   1.236  15.758  0.5195  0.0254  0.1895
  270TMC3    C4 4134   4.242   1.286  15.819 -0.7352  0.3422 -0.4523
  270TMC3    C5 4135   4.203   1.158  15.784  0.6721 -0.4637  0.1690
  270TMC3    C6 4136   4.072   1.138  15.751  0.5118  0.1307 -0.0433
  270TMC3     C 4137   4.190   1.526  15.842  0.3329  0.4033 -0.4517
  270TMC3     O 4138   4.113   1.615  15.805 -0.2012 -0.1396  0.0899
  270TMC3     H 4139   3.955   1.450  15.781 -2.5665 -0.8900  1.2063
  270TMC3    H1 4140   4.350   1.297  15.824 -0.7352  0.1537 -0.0886
  270TMC3    H2 4141   4.050   1.038  15.717  3.8498 -0.1341 -1.4321
  270TMC3    C7 4142   4.306   1.079  15.722 -0.1709  0.1918  0.0249
  270TMC3    C8 4143   3.879   1.238  15.653 -1.2026 -0.4389  0.1826
  270TMC3    O1 4144   4.315   0.965  15.760 -0.2018  0.2421  0.3438
  270TMC3    O2 4145   3.766   1.275  15.679 -0.3588  0.2279 -0.5339
  271MPD2     C 4146   3.530   1.624  14.106 -0.5758  1.2705  0.0268
  271MPD2    C1 4147   3.479   1.572  14.222 -0.3617  0.6784  0.3335
  271MPD2    C2 4148   3.343   1.586  14.248  0.2410 -0.3654 -0.4380
  271MPD2    C3 4149   3.256   1.629  14.151 -0.7400 -0.0941 -0.9380
  271MPD2    C4 4150   3.316   1.682  14.034  0.4724 -0.0182  0.0891
  271MPD2    C5 4151   3.448   1.681  14.014  0.3324 -0.1245  0.1273
  271MPD2     H 4152   3.303   1.526  14.328 -1.3022  2.2723  0.7600
  271MPD2    H1 4153   3.258   1.731  13.956 -0.9478  0.3062  1.3502
  271MPD2    H2 4154   3.635   1.629  14.080 -0.4497 -0.4133  0.2421
  271MPD2    H3 4155   3.486   1.708  13.916 -0.3829 -0.7976 -0.3321
  271MPD2     N 4156   3.116   1.620  14.168 -0.0446  0.7976  0.7382
  271MPD2    H5 4157   3.060   1.638  14.086 -1.2342  2.2229  1.8400
  271MPD2    N1 4158   3.555   1.503  14.322 -0.2074 -0.3732  0.6022
  271MPD2    H7 4159   3.497   1.460  14.394 -1.9904  1.0217 -0.0163
  272TMC3    C1 4160   3.741   1.405  14.418 -0.1978  0.4341 -0.0494
  272TMC3    C2 4161   3.837   1.310  14.375 -0.7849  0.2222  0.1962
  272TMC3    C3 4162   3.894   1.232  14.469 -0.0908 -0.5012  0.5016
  272TMC3    C4 4163   3.691   1.406  14.540 -0.5758  0.5649  0.5656
  272TMC3    C5 4164   3.750   1.309  14.622 -0.4976  0.6117 -0.0580
  272TMC3    C6 4165   3.844   1.218  14.596 -0.2934  0.5627  0.2412
  272TMC3     C 4166   3.690   1.481  14.308 -0.1755 -0.1231 -0.0999
  272TMC3     O 4167   3.778   1.529  14.238 -0.2398 -0.4511  0.4195
  272TMC3     H 4168   3.879   1.319  14.275  0.0018  2.2495  0.7211
  272TMC3    H1 4169   3.625   1.482  14.579 -1.2248  1.0288 -1.4420
  272TMC3    H2 4170   3.877   1.147  14.670 -1.5889  0.8027  1.0477
  272TMC3    C7 4171   3.735   1.314  14.765  0.3795  0.3138  0.5825
  272TMC3    C8 4172   3.996   1.139  14.417  0.5618 -0.1223  0.2805
  272TMC3    O1 4173   3.826   1.272  14.837 -0.1203 -0.1748  0.0605
  272TMC3    O2 4174   4.010   1.133  14.299 -0.7481 -0.0909 -0.0710
  273MPD2     C 4175   0.268   4.130  11.792  0.0940 -0.0947  0.0156
  273MPD2    C1 4176   0.378   4.209  11.798  0.5947 -0.1960  0.1715
  273MPD2    C2 4177   0.406   4.284  11.685  0.3510  0.3966 -0.2754
  273MPD2    C3 4178   0.323   4.277  11.571  1.0935  0.2523 -0.6402
  273MPD2    C4 4179   0.208   4.208  11.583  0.0998 -0.3441  0.4469
  273MPD2    C5 4180   0.186   4.129  11.685  0.3325  0.7202  0.5278
  273MPD2     H 4181   0.489   4.354  11.684  0.9300 -0.2749  1.9823
  273MPD2    H1 4182   0.137   4.198  11.503  2.4755  0.4416 -1.7521
  273MPD2    H2 4183   0.245   4.071  11.880  1.8026 -0.1656  0.4124
  273MPD2    H3 4184   0.098   4.065  11.681  1.7962 -1.3443  1.5625
  273MPD2     N 4185   0.330   4.358  11.451  0.5444 -0.3334  0.0971
  273MPD2    H5 4186   0.258   4.343  11.381  1.3894  0.4291 -0.9351
  273MPD2    N1 4187   0.464   4.204  11.913  0.0389  0.0773  0.1823
  273MPD2    H7 4188   0.454   4.133  11.985 -1.1501  0.0764  0.0162
  274TMC3    C1 4189   0.437   4.478  11.279 -0.1441  0.6975  0.3849
  274TMC3    C2 4190   0.330   4.457  11.199  0.4914  0.1569 -0.0285
  274TMC3    C3 4191   0.344   4.513  11.070 -0.1421 -0.3882 -0.7955
  274TMC3    C4 4192   0.543   4.556  11.247  0.5315  0.0038 -0.3466
  274TMC3    C5 4193   0.551   4.610  11.117  0.5902 -0.5096  0.6190
  274TMC3    C6 4194   0.456   4.579  11.023 -0.0550  0.2875 -0.6338
  274TMC3     C 4195   0.444   4.413  11.407  0.2603  0.2782 -0.1697
  274TMC3     O 4196   0.555   4.417  11.461  0.0664 -0.2545 -0.1010
  274TMC3     H 4197   0.259   4.378  11.220  0.2742  0.3523 -0.0291
  274TMC3    H1 4198   0.628   4.585  11.307  1.1216 -2.0196 -0.2235
  274TMC3    H2 4199   0.444   4.657  10.948 -0.1583  1.2564  0.3959
  274TMC3    C7 4200   0.642   4.724  11.095  0.1275  0.1117  0.2684
  274TMC3    C8 4201   0.221   4.519  11.006  0.2238 -0.6762  0.4586
  274TMC3    O1 4202   0.672   0.016  10.979  0.1222  0.0515  0.2306
  274TMC3    O2 4203   0.117   4.502  11.071  0.1698  0.3634  0.4612
  275MPD2     C 4204   0.163   2.665  14.644 -0.3436 -0.4498 -0.8053
  275MPD2    C1 4205   0.168   2.527  14.633  0.1868 -0.2713 -0.3316
  275MPD2    C2 4206   0.055   2.451  14.665  0.2002  0.1443  0.5189
  275MPD2    C3 4207   4.680   2.507  14.716 -0.5323  0.0825  0.8732
  275MPD2    C4 4208   4.678   2.643  14.741 -0.2383 -0.0050 -0.0745
  275MPD2    C5 4209   0.043   2.723  14.690  0.0094 -0.9735  0.9000
  275MPD2     H 4210   0.069   2.344  14.658  1.1995  0.2852  0.3540
  275MPD2    H1 4211   4.590   2.683  14.790 -1.3137 -1.2090 -1.0131
  275MPD2    H2 4212   0.244   2.731  14.615  1.6693 -2.4879  0.1746
  275MPD2    H3 4213   0.031   2.830  14.700  2.9105 -0.5822  0.3295
  275MPD2     N 4214   4.567   2.436  14.760 -0.3423 -0.4055  0.7437
  275MPD2    H5 4215   4.502   2.485  14.821 -0.9186  0.7614 -0.8097
  275MPD2    N1 4216   0.276   2.449  14.585  0.1169  0.2023 -0.5476
  275MPD2    H7 4217   0.267   2.348  14.592  0.0133  0.1288 -1.7273
  276TMC3    C1 4218   0.499   2.407  14.556 -0.0392 -0.3761 -0.2626
  276TMC3    C2 4219   0.463   2.273  14.551 -0.3845 -0.1097 -0.1995
  276TMC3    C3 4220   0.506   2.181  14.644  0.0597  0.2997  0.1703
  276TMC3    C4 4221   0.601   2.440  14.645  0.8340 -0.3083  0.2607
  276TMC3    C5 4222   0.648   2.339  14.725 -0.1336 -0.1953  0.5070
  276TMC3    C6 4223   0.599   2.212  14.736 -0.2997 -0.0429  0.1365
  276TMC3     C 4224   0.397   2.505  14.546  0.0975 -0.1488 -0.1834
  276TMC3     O 4225   0.440   2.619  14.540  0.3099 -0.3243  0.0674
  276TMC3     H 4226   0.384   2.258  14.479  0.3865 -1.1960 -0.8184
  276TMC3    H1 4227   0.644   2.539  14.651  0.3390  0.1210 -3.8956
  276TMC3    H2 4228   0.630   2.147  14.817  0.1719  0.1792  0.1337
  276TMC3    C7 4229   0.734   2.380  14.839 -0.9106 -0.3867 -0.3318
  276TMC3    C8 4230   0.403   2.091  14.676 -0.1375  0.1585  0.1050
  276TMC3    O1 4231   0.711   2.485  14.895 -0.0882  0.6562 -0.2587
  276TMC3    O2 4232   0.328   2.065  14.579 -0.2114 -0.2264 -0.1084
  277MPD2     C 4233   2.434   1.267  13.675  0.0685 -0.2995 -0.7157
  277MPD2    C1 4234   2.302   1.237  13.629  0.6455 -0.4675 -0.3523
  277MPD2    C2 4235   2.207   1.193  13.719  0.3005 -0.6391 -0.0049
  277MPD2    C3 4236   2.243   1.168  13.851  0.7168 -0.1829 -0.0603
  277MPD2    C4 4237   2.376   1.177  13.891  0.1586 -0.1059 -0.2449
  277MPD2    C5 4238   2.469   1.232  13.802 -0.5501 -0.1327  0.3594
  277MPD2     H 4239   2.105   1.177  13.686  1.1668  0.9247 -3.4494
  277MPD2    H1 4240   2.409   1.156  13.992 -1.6078 -0.8978  0.1704
  277MPD2    H2 4241   2.515   1.295  13.608 -0.5553  0.1284 -1.2938
  277MPD2    H3 4242   2.570   1.248  13.839 -0.8479  0.5030  0.8978
  277MPD2     N 4243   2.138   1.128  13.934 -0.1722  0.2563  0.1892
  277MPD2    H5 4244   2.049   1.125  13.884 -0.4840 -0.1930  0.7750
  277MPD2    N1 4245   2.263   1.277  13.498 -0.7247  0.1594 -0.2204
  277MPD2    H7 4246   2.336   1.323  13.443 -1.0228 -0.4913 -1.1695
  278TMC3    C1 4247   2.023   1.083  14.129 -0.1095  0.1629 -0.2269
  278TMC3    C2 4248   2.009   0.972  14.203 -1.0305 -0.5086  0.8228
  278TMC3    C3 4249   1.885   0.919  14.211 -0.3237 -0.7928 -0.3946
  278TMC3    C4 4250   1.916   1.148  14.072 -0.8607  0.1448  0.5880
  278TMC3    C5 4251   1.794   1.096  14.094  0.3516 -0.1904 -0.1246
  278TMC3    C6 4252   1.774   0.981  14.158  0.4266  0.2649 -0.0015
  278TMC3     C 4253   2.150   1.113  14.072 -0.7413 -0.0105  0.3455
  278TMC3     O 4254   2.245   1.111  14.146 -0.0169 -0.1432  0.1054
  278TMC3     H 4255   2.091   0.909  14.235 -0.8395 -1.5817 -1.7456
  278TMC3    H1 4256   1.931   1.239  14.016  0.0653 -0.9455 -0.9091
  278TMC3    H2 4257   1.681   0.927  14.164 -0.1869  1.5274  1.7099
  278TMC3    C7 4258   1.716   1.110  13.976 -0.5903  0.2251 -0.0623
  278TMC3    C8 4259   1.892   0.774  14.207 -0.3600 -0.0503 -0.5695
  278TMC3    O1 4260   1.774   1.159  13.880  0.2114  0.4701  0.7359
  278TMC3    O2 4261   1.938   0.713  14.302  0.4817  0.0379 -0.1955
  279MPD2     C 4262   1.061   1.129   0.051  0.1517  0.0467 -0.0960
  279MPD2    C1 4263   0.982   1.217   0.121 -0.5223  0.3116  0.4404
  279MPD2    C2 4264   0.945   1.334   0.054  0.1669  0.0083 -0.1064
  279MPD2    C3 4265   0.968   1.343  17.664 -0.4149 -0.7158  0.8163
  279MPD2    C4 4266   1.033   1.247  17.595  0.6769  0.2237 -0.1679
  279MPD2    C5 4267   1.088   1.146  17.664 -0.8082  0.7838 -0.0830
  279MPD2     H 4268   0.879   1.410   0.096  0.5025  0.8793 -1.1752
  279MPD2    H1 4269   1.056   1.266  17.490 -1.0838  0.1380 -0.5633
  279MPD2    H2 4270   1.106   1.043   0.100 -0.0633  0.2743  0.5042
  279MPD2    H3 4271   1.147   1.075  17.607 -1.0535  0.0576  0.5657
  279MPD2     N 4272   0.924   1.446  17.584 -0.2648 -0.3518 -0.2976
  279MPD2    H5 4273   0.947   1.450  17.485 -0.1227 -0.5460 -0.2718
  279MPD2    N1 4274   0.945   1.175   0.249 -0.2629 -0.3317  0.4105
  279MPD2    H7 4275   1.000   1.100   0.289 -1.1659 -1.2337 -0.0135
  280TMC3    C1 4276   0.732   1.303   0.274  0.1733 -0.6641  0.1173
  280TMC3    C2 4277   0.671   1.229   0.175 -0.4806 -0.3685 -0.3690
  280TMC3    C3 4278   0.571   1.285   0.111  0.6618  0.3572 -0.0916
  280TMC3    C4 4279   0.681   1.411   0.333 -0.1266  0.5516 -0.1511
  280TMC3    C5 4280   0.573   1.473   0.271 -0.0873 -0.3412 -0.3939
  280TMC3    C6 4281   0.524   1.410   0.156 -0.0546  0.2211 -0.2766
  280TMC3     C 4282   0.857   1.247   0.331  0.4342  0.5090  0.6658
  280TMC3     O 4283   0.847   1.238   0.452 -0.0455 -0.5272 -0.0199
  280TMC3     H 4284   0.728   1.146   0.134 -0.8382 -2.1558  2.7811
  280TMC3    H1 4285   0.736   1.467   0.408 -0.7096 -0.2065  0.8477
  280TMC3    H2 4286   0.435   1.450   0.109  1.3771  1.5703 -1.8496
  280TMC3    C7 4287   0.538   1.614   0.289  0.4850  0.4412  0.1538
  280TMC3    C8 4288   0.558   1.256  17.719  0.1221  0.0801  0.1407
  280TMC3    O1 4289   0.630   1.696   0.312  0.2287  0.1706 -0.1440
  280TMC3    O2 4290   0.553   1.352  17.645 -0.1069  0.1221  0.3534
  281TMC3    C1 4291   0.038   1.912  13.512  0.2130 -0.4853  0.2515
  281TMC3    C2 4292   0.105   1.997  13.427  0.4479 -0.4877 -0.4237
  281TMC3    C3 4293   0.134   1.939  13.303 -0.5532 -0.8974 -0.5636
  281TMC3    C4 4294   0.020   1.774  13.482 -0.0610  1.2374  0.6742
  281TMC3    C5 4295   0.056   1.730  13.358  0.3107  0.7355 -0.1943
  281TMC3    C6 4296   0.114   1.808  13.266  0.1804 -0.4611  0.7380
  281TMC3     C 4297   4.694   1.969  13.620  0.1194  1.2218  0.0911
  281TMC3     O 4298   4.652   1.886  13.698 -1.0450  0.6153  0.5907
  281TMC3     H 4299   0.110   2.103  13.449 -1.2797 -0.4985  0.0551
  281TMC3    H1 4300   4.708   1.705  13.549 -0.1852  1.1685  0.5102
  281TMC3    H2 4301   0.144   1.774  13.168  0.3930 -1.5406  1.1758
  281TMC3    C7 4302   0.013   1.602  13.318  0.9686 -0.2318 -1.0232
  281TMC3    C8 4303   0.183   2.013  13.188  0.2275 -0.6517  0.0713
  281TMC3    O1 4304   0.092   1.547  13.241 -0.4682 -0.0707 -0.8258
  281TMC3    O2 4305   0.282   1.967  13.131 -0.3079 -0.7720 -0.2837
  282MPD2     C 4306   1.890   2.599  15.067  0.1783  0.0923 -0.8270
  282MPD2    C1 4307   1.765   2.623  15.114  0.0542 -0.3784  0.2162
  282MPD2    C2 4308   1.666   2.641  15.016 -0.1112  0.4894  0.2992
  282MPD2    C3 4309   1.692   2.608  14.883 -0.3727 -0.0241 -0.5532
  282MPD2    C4 4310   1.822   2.573  14.843  0.2718  0.2396  0.0451
  282MPD2    C5 4311   1.913   2.566  14.936  0.2015 -0.1221 -0.6184
  282MPD2     H 4312   1.565   2.667  15.044 -0.0117 -0.2140  1.3386
  282MPD2    H1 4313   1.852   2.556  14.740  3.9104  4.3431  0.4347
  282MPD2    H2 4314   1.975   2.596  15.133 -0.4216  0.0864 -0.0523
  282MPD2    H3 4315   2.011   2.525  14.911 -0.0895 -1.9509  1.2267
  282MPD2     N 4316   1.591   2.635  14.787  0.3919  0.0789  0.0416
  282MPD2    H5 4317   1.508   2.679  14.826  0.3880  0.9219 -0.9223
  282MPD2    N1 4318   1.736   2.659  15.247 -0.0807 -0.3467  0.3186
  282MPD2    H7 4319   1.637   2.680  15.262 -0.7535 -1.4700 -2.5037
  283TMC3    C1 4320   1.764   2.734  15.458 -0.0390  0.1952 -0.4199
  283TMC3    C2 4321   1.805   2.864  15.490 -0.3299  0.3967 -0.0479
  283TMC3    C3 4322   1.739   2.934  15.585 -0.2638 -0.0348  0.4938
  283TMC3    C4 4323   1.646   2.682  15.514 -0.1302 -0.2604  0.2806
  283TMC3    C5 4324   1.585   2.755  15.613 -0.0085 -0.0418  0.0957
  283TMC3    C6 4325   1.622   2.880  15.642 -0.6134 -0.0485 -0.1174
  283TMC3     C 4326   1.832   2.678  15.340 -0.3048  0.5836 -0.3907
  283TMC3     O 4327   1.954   2.680  15.332 -0.1996 -0.3390 -0.2461
  283TMC3     H 4328   1.894   2.904  15.443  0.0502 -0.3684  0.0361
  283TMC3    H1 4329   1.617   2.585  15.474  0.4507  0.0697 -0.9550
  283TMC3    H2 4330   1.557   2.948  15.696 -0.9528 -1.0334  0.7029
  283TMC3    C7 4331   1.465   2.703  15.684  0.0230 -0.0052 -0.7436
  283TMC3    C8 4332   1.755   3.079  15.571 -0.1437 -0.4300  0.4237
  283TMC3    O1 4333   1.423   2.772  15.779 -0.1117 -0.4424 -0.3443
  283TMC3    O2 4334   1.823   3.125  15.485  0.1388 -0.1447  0.1864
  284MPD2     C 4335   0.525   2.478  12.199 -0.0557  0.2702  0.2995
  284MPD2    C1 4336   0.430   2.494  12.098  0.3862 -0.2968  0.3143
  284MPD2    C2 4337   0.322   2.414  12.098 -0.4696 -0.4896  0.4798
  284MPD2    C3 4338   0.300   2.328  12.201  0.1638  0.2008 -0.0113
  284MPD2    C4 4339   0.387   2.328  12.306 -0.9226 -0.4561 -0.3299
  284MPD2    C5 4340   0.498   2.406  12.311  0.0867  0.3511 -0.6146
  284MPD2     H 4341   0.267   2.406  12.005 -0.1716 -1.3283  0.3704
  284MPD2    H1 4342   0.361   2.269  12.393 -0.7529  0.0970  0.0924
  284MPD2    H2 4343   0.613   2.540  12.199  0.1767 -0.0606  0.8659
  284MPD2    H3 4344   0.553   2.403  12.404  1.1243  0.7279 -1.2210
  284MPD2     N 4345   0.213   2.216  12.187 -0.1375  0.6218  0.4765
  284MPD2    H5 4346   0.228   2.138  12.250 -1.2274  0.2819  0.3285
  284MPD2    N1 4347   0.456   2.558  11.977  0.5257  0.1758  0.2796
  284MPD2    H7 4348   0.393   2.551  11.898 -1.0263 -1.6277  1.6810
  285TMC3    C1 4349   0.551   2.705  11.823 -0.3231  0.0085 -0.0578
  285TMC3    C2 4350   0.533   2.628  11.713  0.1408  0.8124 -0.2618
  285TMC3    C3 4351   0.562   2.682  11.590 -0.3752  0.1426  0.6725
  285TMC3    C4 4352   0.593   2.835  11.811 -0.1649  0.0389 -0.0781
  285TMC3    C5 4353   0.630   2.878  11.687  0.0525  0.9160  0.6653
  285TMC3    C6 4354   0.627   2.799  11.578  0.1575 -0.7597  0.0584
  285TMC3     C 4355   0.554   2.651  11.952  0.0067  0.3538 -0.0584
  285TMC3     O 4356   0.616   2.717  12.036 -0.0580 -0.1924  0.1075
  285TMC3     H 4357   0.521   2.520  11.723 -0.3805  1.0775  1.8128
  285TMC3    H1 4358   0.589   2.901  11.898  1.5414 -0.3077  0.2644
  285TMC3    H2 4359   0.661   2.826  11.479  1.4133 -1.7413  0.2285
  285TMC3    C7 4360   0.645   3.016  11.658 -0.3173  0.2471 -0.2630
  285TMC3    C8 4361   0.580   2.592  11.483 -0.8380  0.8350  0.1333
  285TMC3    O1 4362   0.678   3.044  11.543 -0.2853  0.6500  0.2283
  285TMC3    O2 4363   0.475   2.524  11.468 -0.3895  0.0194 -0.4365
  286MPD2     C 4364   4.313   0.909   1.855 -0.4414  0.0540 -0.7425
  286MPD2    C1 4365   4.359   0.845   1.743 -0.4386  0.2291 -0.5571
  286MPD2    C2 4366   4.489   0.828   1.724 -0.3842  0.3387 -0.5359
  286MPD2    C3 4367   4.590   0.884   1.808  0.2111  0.3171 -0.3735
  286MPD2    C4 4368   4.542   0.953   1.923 -0.5960  0.2987  0.4967
  286MPD2    C5 4369   4.411   0.951   1.947  0.2968 -0.8939 -1.1789
  286MPD2     H 4370   4.524   0.766   1.642  0.5358 -0.1058  0.1861
  286MPD2    H1 4371   4.609   1.005   1.991  2.3872  0.5789 -2.6812
  286MPD2    H2 4372   4.205   0.917   1.859 -0.2550  1.1014  1.6300
  286MPD2    H3 4373   4.385   0.983   2.047  0.3444 -0.5110 -1.2890
  286MPD2     N 4374   4.733   0.875   1.783 -0.0727  0.3347 -0.0460
  286MPD2    H5 4375   0.055   0.919   1.851 -0.9971  1.1135  0.2620
  286MPD2    N1 4376   4.284   0.801   1.631 -0.7075 -0.9484 -0.2289
  286MPD2    H7 4377   4.339   0.766   1.553  0.5438  0.2845  0.1190
  287TMC3    C1 4378   0.195   0.813   1.663 -0.8329  0.1975  1.1634
  287TMC3    C2 4379   0.258   0.721   1.581 -0.0943 -0.0983 -0.1342
  287TMC3    C3 4380   0.367   0.759   1.508  0.3986 -0.0994  0.4747
  287TMC3    C4 4381   0.246   0.941   1.678 -0.5694  0.5774  0.2936
  287TMC3    C5 4382   0.360   0.976   1.606 -0.0665 -0.0740  0.6977
  287TMC3    C6 4383   0.421   0.882   1.523 -0.2461  0.3407  0.5914
  287TMC3     C 4384   0.049   0.798   1.682  0.1958  0.2820 -0.6993
  287TMC3     O 4385   0.007   0.716   1.610  0.0515  0.6548  0.2855
  287TMC3     H 4386   0.219   0.622   1.562 -1.9553  0.6783 -0.3643
  287TMC3    H1 4387   0.202   1.022   1.735  0.6822  1.3641  0.1509
  287TMC3    H2 4388   0.513   0.917   1.476 -0.3663 -0.1951 -0.0412
  287TMC3    C7 4389   0.422   1.115   1.631 -1.1178  1.0988 -0.1723
  287TMC3    C8 4390   0.373   0.700   1.379 -0.5657 -0.1866 -0.2100
  287TMC3    O1 4391   0.359   1.188   1.708 -0.4098  0.3214  0.3461
  287TMC3    O2 4392   0.336   0.580   1.376 -0.2199  0.0534  0.7263
  288TMC3    C1 4393   2.064   0.567  14.648  0.3066  0.9017 -0.4006
  288TMC3    C2 4394   1.935   0.532  14.643 -0.2361  0.3163  0.0950
  288TMC3    C3 4395   1.846   0.638  14.621 -0.1840  0.0914  0.6361
  288TMC3    C4 4396   2.119   0.688  14.627  0.5772 -0.6535  0.2329
  288TMC3    C5 4397   2.031   0.787  14.605  0.2042 -0.5698  0.5723
  288TMC3    C6 4398   1.898   0.763  14.598 -0.0789  0.2817 -0.0306
  288TMC3     C 4399   2.155   0.464  14.699 -1.0896 -0.0942  0.0582
  288TMC3     O 4400   2.252   0.512  14.765  0.1416  0.0761 -0.3393
  288TMC3     H 4401   1.895   0.445  14.693 -0.4305  1.1663  1.4169
  288TMC3    H1 4402   2.226   0.696  14.614  1.0290 -1.7103  3.1977
  288TMC3    H2 4403   1.828   0.845  14.581 -0.4628  0.1231  0.7736
  288TMC3    C7 4404   2.094   0.907  14.550 -0.3007 -0.3866 -0.1121
  288TMC3    C8 4405   1.720   0.627  14.685 -0.0397  0.2657  0.7093
  288TMC3    O1 4406   2.213   0.895  14.515  0.3164  0.4661  0.4762
  288TMC3    O2 4407   1.667   0.728  14.727 -0.5839 -0.2909  0.3692
  289MPD2     C 4408   2.534   4.643  14.401  0.4267  1.2996  0.4598
  289MPD2    C1 4409   2.454   0.007  14.403 -0.2558  0.6265 -0.4647
  289MPD2    C2 4410   2.333   0.005  14.333  0.7041 -0.1117 -0.8801
  289MPD2    C3 4411   2.285   4.625  14.276  0.1411  0.9378  0.5866
  289MPD2    C4 4412   2.370   4.517  14.287  0.0391 -0.2788  0.2730
  289MPD2    C5 4413   2.492   4.529  14.349  0.7672  0.6498  0.4327
  289MPD2     H 4414   2.273   0.095  14.328 -0.0001 -0.5573 -0.4490
  289MPD2    H1 4415   2.345   4.417  14.252 -3.0300 -0.3492  2.6752
  289MPD2    H2 4416   2.630   4.655  14.448  1.4814 -2.1835 -0.7874
  289MPD2    H3 4417   2.558   4.443  14.360  0.9100  1.0576  2.7453
  289MPD2     N 4418   2.151   4.603  14.221 -0.4253  0.1609 -0.1691
  289MPD2    H5 4419   2.127   4.513  14.180 -3.0513  0.1839  1.2819
  289MPD2    N1 4420   2.514   0.131  14.448 -0.2021  0.3025  0.0965
  289MPD2    H7 4421   2.596   0.111  14.503 -0.0560  3.1164  0.9316
  290TMC3    C1 4422   1.922   4.636  14.182  0.0353  0.0146  0.7192
  290TMC3    C2 4423   1.823   4.705  14.127 -0.1758 -0.5824  0.2038
  290TMC3    C3 4424   1.724   4.641  14.054 -0.8349 -0.0385 -0.1361
  290TMC3    C4 4425   1.913   4.502  14.182 -0.5971 -0.1284 -0.1826
  290TMC3    C5 4426   1.812   4.440  14.117  0.4444  0.0317  0.3901
  290TMC3    C6 4427   1.728   4.503  14.035  0.0927 -0.0438 -0.3258
  290TMC3     C 4428   2.048   4.697  14.225 -0.2003 -0.7510  0.2605
  290TMC3     O 4429   2.037   0.073  14.266 -0.1405 -0.2743  0.2663
  290TMC3     H 4430   1.830   0.076  14.129  0.5758 -0.6102 -0.9991
  290TMC3    H1 4431   1.978   4.441  14.244 -0.9111  1.5838  1.8237
  290TMC3    H2 4432   1.645   4.451  13.988  0.3577  0.1492 -0.9978
  290TMC3    C7 4433   1.750   4.334  14.191  0.4776  0.2850 -0.3979
  290TMC3    C8 4434   1.610   4.713  14.012 -0.1712 -0.0490  1.1339
  290TMC3    O1 4435   1.696   4.245  14.125 -1.0223 -0.4148 -0.1909
  290TMC3    O2 4436   1.557   4.680  13.907  0.1685  0.0408  0.0017
  291MPD2     C 4437   0.969   4.385   0.184  0.2765  0.2811 -0.2485
  291MPD2    C1 4438   0.922   4.280   0.107 -0.6558  0.7634 -0.0948
  291MPD2    C2 4439   0.982   4.251  17.734  0.6475  0.7973  0.0330
  291MPD2    C3 4440   1.100   4.318  17.700  0.3245  0.7338 -0.3060
  291MPD2    C4 4441   1.133   4.433   0.027  0.2231  0.4512 -0.1891
  291MPD2    C5 4442   1.068   4.466   0.143  0.3269  0.1916 -0.1220
  291MPD2     H 4443   0.950   4.166  17.674  1.7902 -0.3056  0.9618
  291MPD2    H1 4444   1.220   4.494   0.003  1.9860 -1.6095  0.9045
  291MPD2    H2 4445   0.923   4.417   0.277  2.9420 -1.8927  1.8040
  291MPD2    H3 4446   1.100   4.555   0.197  0.5665 -0.3804  0.6778
  291MPD2     N 4447   1.187   4.281  17.592 -0.1510  0.1374  0.0851
  291MPD2    H5 4448   1.273   4.335  17.587 -0.3473  0.6444  2.0124
  291MPD2    N1 4449   0.821   4.186   0.144  0.8230 -0.5343  0.0385
  291MPD2    H7 4450   0.791   4.119   0.074  2.1870 -0.8333 -0.2511
  292TMC3    C1 4451   0.698   4.039   0.276  0.4420 -0.0635  0.2451
  292TMC3    C2 4452   0.577   4.050   0.350 -0.0149  0.1046 -0.1211
  292TMC3    C3 4453   0.490   3.943   0.334 -0.2980  0.4216  0.2659
  292TMC3    C4 4454   0.726   3.941   0.183  0.4896  0.2148  0.7883
  292TMC3    C5 4455   0.631   3.847   0.169 -0.1218  1.1367  0.4479
  292TMC3    C6 4456   0.517   3.844   0.242 -0.1420 -0.0816 -0.8665
  292TMC3     C 4457   0.772   4.162   0.269  0.5368  0.2276 -0.6426
  292TMC3     O 4458   0.771   4.236   0.365 -0.4547  0.3310 -0.6415
  292TMC3     H 4459   0.556   4.125   0.425 -0.2265  1.2078 -1.2927
  292TMC3    H1 4460   0.823   3.946   0.134 -0.4241  0.3890 -1.0163
  292TMC3    H2 4461   0.452   3.756   0.245  1.3350 -1.0926  1.6612
  292TMC3    C7 4462   0.649   3.769   0.040 -0.3825 -0.3053  0.2193
  292TMC3    C8 4463   0.384   3.932   0.427 -0.3060 -0.6814 -0.5781
  292TMC3    O1 4464   0.765   3.756   0.004  0.0564  0.1134 -0.3704
  292TMC3    O2 4465   0.390   3.976   0.538 -0.4104 -0.0150  0.5058
  293MPD2     C 4466   2.968   0.996  13.014  0.1111 -0.5584 -0.0783
  293MPD2    C1 4467   3.022   1.118  12.984 -1.0336 -0.0656 -0.2741
  293MPD2    C2 4468   3.076   1.190  13.083 -0.7349  0.8695 -0.4087
  293MPD2    C3 4469   3.066   1.143  13.214 -0.5711 -0.0487  0.1305
  293MPD2    C4 4470   3.001   1.026  13.243  0.9805  0.5919  0.0397
  293MPD2    C5 4471   2.946   0.954  13.140 -0.1329  0.4040 -0.3462
  293MPD2     H 4472   3.121   1.288  13.074 -0.8600  1.1104  1.5956
  293MPD2    H1 4473   2.972   0.996  13.343  1.3348 -2.8755 -0.9136
  293MPD2    H2 4474   2.930   0.933  12.935  1.4569  2.0112 -2.8011
  293MPD2    H3 4475   2.905   0.855  13.157 -0.4234  0.2619 -1.8430
  293MPD2     N 4476   3.115   1.223  13.322  0.0496  0.3040 -0.4750
  293MPD2    H5 4477   3.170   1.303  13.291  2.3173 -0.9893  0.1743
  293MPD2    N1 4478   3.029   1.139  12.845  0.1188 -0.1354 -0.4183
  293MPD2    H7 4479   2.993   1.075  12.774  0.7378  0.7296 -1.5057
  294TMC3    C1 4480   3.110   1.257  12.655  0.0363 -0.2785  0.3764
  294TMC3    C2 4481   2.995   1.212  12.589 -1.0855 -0.3981 -0.5059
  294TMC3    C3 4482   2.995   1.218  12.449  0.0497  0.0947 -0.2551
  294TMC3    C4 4483   3.225   1.299  12.592 -1.3876  0.7250  0.0152
  294TMC3    C5 4484   3.219   1.301  12.456 -0.7560 -0.3369  0.3442
  294TMC3    C6 4485   3.105   1.260  12.385  0.4186  0.2439  0.3422
  294TMC3     C 4486   3.108   1.246  12.800  0.7558  0.6464  0.0383
  294TMC3     O 4487   3.182   1.320  12.865  0.4414  0.4048  0.5195
  294TMC3     H 4488   2.908   1.175  12.642 -0.7584  1.5579  1.4240
  294TMC3    H1 4489   3.318   1.310  12.647  0.1183 -0.6864 -2.2506
  294TMC3    H2 4490   3.099   1.266  12.276  1.5239 -1.0627  0.2155
  294TMC3    C7 4491   3.341   1.280  12.373  0.0826  0.5790 -0.1132
  294TMC3    C8 4492   2.906   1.140  12.363 -0.2042  0.4042  0.4315
  294TMC3    O1 4493   3.336   1.233  12.263  0.3710  0.3798  0.4065
  294TMC3    O2 4494   2.861   1.200  12.268 -0.0408  0.0055  0.1615
  295MPD2     C 4495   2.802   3.939   1.308 -0.3928  0.0724 -0.0473
  295MPD2    C1 4496   2.797   4.054   1.228 -0.3693  0.7910  0.3391
  295MPD2    C2 4497   2.736   4.168   1.281  0.4468 -0.2343 -0.7898
  295MPD2    C3 4498   2.697   4.174   1.413 -1.0838 -0.0099 -0.1323
  295MPD2    C4 4499   2.699   4.061   1.489 -0.2392 -0.1602  0.3779
  295MPD2    C5 4500   2.750   3.946   1.437  0.3868  0.2215 -0.0670
  295MPD2     H 4501   2.735   4.250   1.211  0.7388 -0.5937 -1.2103
  295MPD2    H1 4502   2.660   4.058   1.590  0.3914  0.9754  0.6582
  295MPD2    H2 4503   2.845   3.847   1.273  1.5538 -0.0428  2.6316
  295MPD2    H3 4504   2.740   3.856   1.495  1.7885  0.2890  0.2799
  295MPD2     N 4505   2.628   4.291   1.468  0.3971 -1.0496  0.3238
  295MPD2    H5 4506   2.604   4.288   1.566 -1.2719  0.1463 -0.0580
  295MPD2    N1 4507   2.845   4.063   1.099 -0.0377 -0.4127  0.8196
  295MPD2    H7 4508   2.823   4.147   1.048  0.9606  1.0958  2.8449
  296TMC3    C1 4509   2.542   4.521   1.460 -0.0249 -0.3910 -0.3776
  296TMC3    C2 4510   2.539   4.638   1.393 -0.3299  0.0513 -0.3950
  296TMC3    C3 4511   2.493   0.012   1.462  0.4926 -0.7604  0.1578
  296TMC3    C4 4512   2.481   4.505   1.581 -0.1052 -0.1587 -0.1561
  296TMC3    C5 4513   2.433   4.612   1.645  0.4968  0.3245  0.0294
  296TMC3    C6 4514   2.443   4.735   1.592  0.4874 -0.2178  0.7314
  296TMC3     C 4515   2.583   4.398   1.388  0.1992  0.1253  0.0372
  296TMC3     O 4516   2.579   4.408   1.266  0.3822 -0.4380  0.4496
  296TMC3     H 4517   2.549   4.629   1.286  1.3021  1.3535 -0.3629
  296TMC3    H1 4518   2.467   4.408   1.628 -0.0471 -0.6777 -1.1969
  296TMC3    H2 4519   2.422   0.093   1.638 -2.5612  0.2459 -1.6601
  296TMC3    C7 4520   2.361   4.613   1.773  0.4567  0.1397 -0.2527
  296TMC3    C8 4521   2.506   0.151   1.416 -0.0740 -0.8594 -1.0116
  296TMC3    O1 4522   2.346   4.726   1.818  0.9778  0.0171  0.6401
  296TMC3    O2 4523   2.439   0.232   1.472  0.4209 -1.2932  0.1484
  297MPD2     C 4524   0.376   1.838  15.999 -0.4014  0.4057  0.2107
  297MPD2    C1 4525   0.389   1.964  16.047 -0.0596 -0.2838 -0.2581
  297MPD2    C2 4526   0.513   2.026  16.028  0.5859  0.2989 -0.3581
  297MPD2    C3 4527   0.630   1.954  15.990 -0.2200  0.4182  0.2969
  297MPD2    C4 4528   0.612   1.823  15.945 -0.2573 -0.1123 -0.6488
  297MPD2    C5 4529   0.484   1.767  15.952  0.3925  0.2551 -0.3358
  297MPD2     H 4530   0.517   2.128  16.065  0.6976 -0.2928  1.2472
  297MPD2    H1 4531   0.692   1.762  15.904  1.0214  0.5554  0.8372
  297MPD2    H2 4532   0.276   1.801  15.982 -1.5409  3.9474 -0.8783
  297MPD2    H3 4533   0.458   1.674  15.904 -1.2613  1.7582 -2.3541
  297MPD2     N 4534   0.756   2.016  16.013  0.6348 -0.5272  0.2504
  297MPD2    H5 4535   0.757   2.100  16.071 -1.7578  0.6791 -1.4358
  297MPD2    N1 4536   0.275   2.034  16.108 -0.1503 -0.5926 -0.0236
  297MPD2    H7 4537   0.280   2.132  16.134  0.9128 -0.7245  0.2707
  298TMC3    C1 4538   0.067   2.078  16.173 -0.4985  0.4885 -0.0885
  298TMC3    C2 4539   0.046   2.165  16.070 -0.4048  0.4121 -0.1495
  298TMC3    C3 4540   4.680   2.251  16.082 -0.9301  0.2869  0.2959
  298TMC3    C4 4541   4.728   2.064  16.283  0.0490 -0.2769 -0.2076
  298TMC3    C5 4542   4.613   2.141  16.284 -0.1372 -0.5032 -0.2935
  298TMC3    C6 4543   4.592   2.236  16.182  1.1020  0.3759 -0.3986
  298TMC3     C 4544   0.163   1.977  16.153 -0.5530  0.2335  0.6832
  298TMC3     O 4545   0.129   1.861  16.173  0.2203 -0.4452  0.3316
  298TMC3     H 4546   0.110   2.167  15.982 -0.3575  3.0851 -0.0500
  298TMC3    H1 4547   0.025   1.997  16.361  1.7722 -1.8199 -2.3050
  298TMC3    H2 4548   4.506   2.301  16.175 -0.1408 -1.2771 -0.5579
  298TMC3    C7 4549   4.510   2.129  16.388 -0.0467  0.3798  0.6717
  298TMC3    C8 4550   4.654   2.345  15.972  0.5040  0.4534 -0.4130
  298TMC3    O1 4551   4.422   2.216  16.398  0.5794  0.0488 -1.2773
  298TMC3    O2 4552   0.013   2.394  15.919 -0.4151  0.2792 -0.0973
  299MPD2     C 4553   1.313   2.000  10.839  0.3312  0.0654  0.3673
  299MPD2    C1 4554   1.405   1.984  10.736  0.3366 -0.5658 -0.6008
  299MPD2    C2 4555   1.365   1.968  10.607 -0.1399 -0.7257  0.4703
  299MPD2    C3 4556   1.229   1.982  10.572  0.4470  0.7592  0.2147
  299MPD2    C4 4557   1.145   1.997  10.678 -0.4913 -0.2961  0.1799
  299MPD2    C5 4558   1.187   2.009  10.807  0.3959  0.1486  0.7346
  299MPD2     H 4559   1.438   1.956  10.528 -0.3279 -0.3928  0.2496
  299MPD2    H1 4560   1.037   1.999  10.665 -0.3215  1.2984 -1.0385
  299MPD2    H2 4561   1.344   2.003  10.943 -1.1774 -0.6351  0.8385
  299MPD2    H3 4562   1.109   2.018  10.882  1.3776  0.2006  1.7426
  299MPD2     N 4563   1.171   1.960  10.442  0.4664  0.1126  0.0982
  299MPD2    H5 4564   1.070   1.953  10.439  0.6072 -0.9593 -2.2101
  299MPD2    N1 4565   1.536   1.997  10.781 -0.9686 -0.3620 -0.1740
  299MPD2    H7 4566   1.549   1.990  10.882 -1.9254 -0.4949 -0.0585
  300TMC3    C1 4567   1.168   1.899  10.221  0.3328  0.4814 -0.2436
  300TMC3    C2 4568   1.169   1.972  10.108  0.4026 -0.4328 -0.4925
  300TMC3    C3 4569   1.062   1.957  10.018  0.3076  0.4997  0.2418
  300TMC3    C4 4570   1.065   1.811  10.249  0.5603  0.5525 -0.1029
  300TMC3    C5 4571   0.977   1.789  10.150 -0.7727 -0.5127 -0.0442
  300TMC3    C6 4572   0.985   1.849  10.027  0.4231 -0.1157 -0.7194
  300TMC3     C 4573   1.244   1.948  10.330  0.0665 -0.2144  0.4042
  300TMC3     O 4574   1.362   1.962  10.306 -0.2750  0.2281 -0.0114
  300TMC3     H 4575   1.248   2.045  10.092 -0.8367  0.8038 -0.9645
  300TMC3    H1 4576   1.060   1.749  10.338  1.4776  0.4942 -0.0853
  300TMC3    H2 4577   0.904   1.838   9.957  0.4060 -1.6211 -0.4752
  300TMC3    C7 4578   0.853   1.722  10.187 -0.1606  0.1926 -0.2914
  300TMC3    C8 4579   0.977   2.076  10.041  0.3296  0.1061 -0.1134
  300TMC3    O1 4580   0.785   1.672  10.097  0.5636 -0.0704  0.0172
  300TMC3    O2 4581   0.855   2.054  10.054  0.2048  0.1664 -0.3702
  301MPD2     C 4582   3.670   2.629   0.944 -0.1617  0.3176  0.3115
  301MPD2    C1 4583   3.554   2.599   0.880  0.3615 -0.7617  0.4495
  301MPD2    C2 4584   3.520   2.469   0.861 -0.1987 -0.7258 -0.4562
  301MPD2    C3 4585   3.597   2.369   0.924 -0.1971 -0.0737  0.8669
  301MPD2    C4 4586   3.716   2.401   0.981  0.2832  0.5373 -0.2281
  301MPD2    C5 4587   3.757   2.532   0.991  0.0961  0.1463  0.4526
  301MPD2     H 4588   3.421   2.451   0.820  0.4395 -3.9655 -0.5710
  301MPD2    H1 4589   3.776   2.324   1.029 -0.0213  0.8147  0.5999
  301MPD2    H2 4590   3.717   2.727   0.943 -0.1881  0.3255  0.0118
  301MPD2    H3 4591   3.849   2.555   1.043 -1.3538  0.4425  2.9032
  301MPD2     N 4592   3.580   2.230   0.902  0.4079  0.6578  0.0403
  301MPD2    H5 4593   3.651   2.169   0.941 -0.7442  2.0819  4.3434
  301MPD2    N1 4594   3.463   2.701   0.831 -0.2316  0.2577 -0.1030
  301MPD2    H7 4595   3.380   2.664   0.786  1.2333 -1.5842 -1.3318
  302TMC3    C1 4596   3.493   2.037   0.803 -0.9883 -0.1289  0.0700
  302TMC3    C2 4597   3.550   1.947   0.895  0.2481 -0.1207  0.1229
  302TMC3    C3 4598   3.538   1.819   0.864  0.2556  0.2272  0.4549
  302TMC3    C4 4599   3.423   1.998   0.695 -0.8686 -0.5881 -0.0258
  302TMC3    C5 4600   3.422   1.868   0.663 -0.2241 -0.5049 -0.3529
  302TMC3    C6 4601   3.476   1.774   0.752  0.5689  0.1263 -0.5265
  302TMC3     C 4602   3.477   2.176   0.828 -0.4344 -1.0401 -0.6056
  302TMC3     O 4603   3.389   2.231   0.759  0.4112 -0.5346 -0.1699
  302TMC3     H 4604   3.585   1.978   0.993 -2.1652 -0.3610  1.0640
  302TMC3    H1 4605   3.384   2.069   0.622 -1.3463 -0.3318  0.4760
  302TMC3    H2 4606   3.472   1.667   0.732 -1.4550  0.3950 -1.5621
  302TMC3    C7 4607   3.315   1.812   0.581 -0.0540  0.4893 -0.0583
  302TMC3    C8 4608   3.557   1.719   0.964  0.2133 -0.2753 -0.0489
  302TMC3    O1 4609   3.298   1.695   0.567 -0.0350  0.1723  0.4709
  302TMC3    O2 4610   3.653   1.722   1.042 -0.2105  0.3907  0.4219
  303MPD2     C 4611   3.747   1.156  10.188 -0.8268  0.4632  0.1701
  303MPD2    C1 4612   3.671   1.046  10.217 -0.6534  0.2150  0.0554
  303MPD2    C2 4613   3.541   1.049  10.176  0.2688  0.2891 -0.0498
  303MPD2    C3 4614   3.480   1.166  10.131 -0.1651  0.0089  0.5499
  303MPD2    C4 4615   3.561   1.272  10.096  0.3340  0.4656  0.6462
  303MPD2    C5 4616   3.696   1.265  10.124 -0.8518 -0.0416 -0.2016
  303MPD2     H 4617   3.476   0.964  10.194  0.6535  0.1716  0.7708
  303MPD2    H1 4618   3.521   1.362  10.051 -0.4885 -0.9179 -1.3725
  303MPD2    H2 4619   3.853   1.154  10.213 -1.0505  0.4951  1.1183
  303MPD2    H3 4620   3.760   1.349  10.100  0.3068 -0.7094  0.5683
  303MPD2     N 4621   3.343   1.177  10.107 -0.6035  0.4983  0.0652
  303MPD2    H5 4622   3.315   1.255  10.048  0.0724  0.3404 -0.4723
  303MPD2    N1 4623   3.721   0.932  10.281 -0.8586  0.2773  0.6095
  303MPD2    H7 4624   3.652   0.858  10.277 -1.1952  0.5764  0.9330
  304TMC3    C1 4625   3.837   0.787  10.420 -0.4856 -0.6525 -0.0467
  304TMC3    C2 4626   3.866   0.791  10.553 -0.2109 -0.4387 -0.5431
  304TMC3    C3 4627   3.853   0.670  10.622  0.1019  0.3749 -0.7971
  304TMC3    C4 4628   3.802   0.672  10.355 -0.7211 -0.1688  0.3053
  304TMC3    C5 4629   3.799   0.556  10.420  0.1517  0.3984  0.4910
  304TMC3    C6 4630   3.827   0.552  10.559 -0.0041 -0.4762 -0.1185
  304TMC3     C 4631   3.833   0.917  10.363  0.5279  0.4753 -0.3054
  304TMC3     O 4632   3.923   0.991  10.404 -0.0978  0.1522 -0.1068
  304TMC3     H 4633   3.899   0.881  10.604  2.0703 -2.0368  0.7853
  304TMC3    H1 4634   3.770   0.672  10.251  1.3330 -1.1154 -0.3237
  304TMC3    H2 4635   3.830   0.455  10.609  1.5534 -0.3897 -0.0430
  304TMC3    C7 4636   3.673   0.489  10.395 -0.3125 -0.2435 -0.1346
  304TMC3    C8 4637   3.785   0.676  10.748 -0.2909 -0.2542 -0.5376
  304TMC3    O1 4638   3.634   0.480  10.279  0.1869  0.4337  0.8482
  304TMC3    O2 4639   3.716   0.578  10.773  0.3108 -0.0599 -0.0135
  305MPD2     C 4640   1.437   3.011  14.148  0.7423 -0.2205  0.6509
  305MPD2    C1 4641   1.557   2.942  14.122 -0.0319  0.1868  0.1543
  305MPD2    C2 4642   1.573   2.874  14.006  0.3072  0.2335 -0.3272
  305MPD2    C3 4643   1.474   2.874  13.904 -0.2748 -1.2396 -0.5723
  305MPD2    C4 4644   1.353   2.930  13.934 -0.1130 -0.6510  0.3274
  305MPD2    C5 4645   1.334   3.001  14.056  0.8276 -0.0780  0.6338
  305MPD2     H 4646   1.668   2.824  13.991  2.2048  3.8222 -0.3179
  305MPD2    H1 4647   1.261   2.910  13.880 -0.1670  0.9203 -0.1838
  305MPD2    H2 4648   1.425   3.079  14.232 -2.6186  0.4268 -0.3337
  305MPD2    H3 4649   1.237   3.039  14.087 -0.6503 -2.2191 -1.3182
  305MPD2     N 4650   1.485   2.823  13.774 -0.5414  0.1749  0.2134
  305MPD2    H5 4651   1.397   2.823  13.724  0.2696  0.0370 -1.2153
  305MPD2    N1 4652   1.667   2.959  14.215  0.3604 -0.2082  0.1975
  305MPD2    H7 4653   1.651   3.008  14.302 -0.3426  1.2421 -0.7483
  306TMC3    C1 4654   1.854   2.907  14.339  0.1676 -0.5898  0.5383
  306TMC3    C2 4655   1.987   2.881  14.338 -0.0955  0.5806 -0.2456
  306TMC3    C3 4656   2.045   2.844  14.458 -0.2774 -0.1108  1.2138
  306TMC3    C4 4657   1.773   2.909  14.452 -0.0661 -0.0636 -0.0802
  306TMC3    C5 4658   1.842   2.886  14.568 -0.7830 -0.5754 -0.3427
  306TMC3    C6 4659   1.971   2.846  14.574 -0.0587  0.0429 -0.1941
  306TMC3     C 4660   1.786   2.890  14.215 -0.3992  0.4721  0.4863
  306TMC3     O 4661   1.835   2.806  14.139 -0.1116  0.0403 -0.1114
  306TMC3     H 4662   2.043   2.887  14.245 -0.3252  0.5388 -0.3880
  306TMC3    H1 4663   1.665   2.921  14.449 -0.3568 -1.6498  3.3220
  306TMC3    H2 4664   2.025   2.843  14.668 -2.2366  2.0890  1.1311
  306TMC3    C7 4665   1.765   2.916  14.686  0.7608 -0.4550 -1.1619
  306TMC3    C8 4666   2.173   2.764  14.444 -0.1331 -0.6133  0.4195
  306TMC3    O1 4667   1.648   2.964  14.676 -0.1451 -0.2956  0.0269
  306TMC3    O2 4668   2.199   2.734  14.328 -0.6265  0.3005 -0.2648
  307MPD2     C 4669   4.046   0.496   0.679 -0.1910  0.1825  0.8266
  307MPD2    C1 4670   3.993   0.608   0.626 -0.0812 -0.0207  0.5087
  307MPD2    C2 4671   3.921   0.697   0.694  0.0122  0.0200  0.7519
  307MPD2    C3 4672   3.884   0.669   0.826  0.4000 -0.0224 -0.1508
  307MPD2    C4 4673   3.922   0.546   0.876 -0.0339 -0.0402  0.9596
  307MPD2    C5 4674   4.006   0.463   0.804 -0.2798 -0.7116  0.3006
  307MPD2     H 4675   3.890   0.790   0.647  0.5407 -0.2421 -0.1121
  307MPD2    H1 4676   3.879   0.510   0.969  0.5901 -0.2052  1.1834
  307MPD2    H2 4677   4.112   0.431   0.624  0.3043 -0.6448  2.4045
  307MPD2    H3 4678   4.039   0.368   0.845 -1.3345 -1.0389  0.4052
  307MPD2     N 4679   3.809   0.770   0.891  1.2269 -0.3183 -0.8401
  307MPD2    H5 4680   3.811   0.859   0.842  2.0205 -0.2778 -0.7323
  307MPD2    N1 4681   4.030   0.654   0.500 -0.2016 -0.5820 -0.2260
  307MPD2    H7 4682   3.993   0.745   0.474  0.8393 -0.8268 -2.5903
  308TMC3    C1 4683   3.469   0.993   1.047 -0.6680  0.1406  0.4660
  308TMC3    C2 4684   3.524   1.104   1.000  0.2670 -0.7234  0.8136
  308TMC3    C3 4685   3.657   1.096   0.997  0.0244  0.2521 -0.0121
  308TMC3    C4 4686   3.535   0.879   1.070  0.8361 -0.1607  0.8588
  308TMC3    C5 4687   3.671   0.872   1.055  0.6278 -0.2509  0.0204
  308TMC3    C6 4688   3.730   0.982   1.021 -0.6277  1.0915 -0.1014
  308TMC3     C 4689   3.324   0.985   1.046  0.1110  0.2920 -0.3858
  308TMC3     O 4690   3.272   0.891   1.105 -0.3251  0.6810  0.3667
  308TMC3     H 4691   3.467   1.194   0.982  2.8888  0.6731 -0.4352
  308TMC3    H1 4692   3.487   0.792   1.114  0.9123 -1.2120 -1.1286
  308TMC3    H2 4693   3.836   0.990   1.000 -0.4575  0.5182  0.5183
  308TMC3    C7 4694   3.735   0.750   1.010 -0.4879 -0.2440  0.9049
  308TMC3    C8 4695   3.731   1.209   0.944  0.2304  0.5458  0.1756
  308TMC3    O1 4696   3.715   0.649   1.074  0.0339 -0.1895 -0.2990
  308TMC3    O2 4697   3.849   1.224   0.976  0.0787 -0.0090 -0.2538
  309MPD2     C 4698   3.038   1.113  17.028 -0.1607  0.4602 -0.1352
  309MPD2    C1 4699   2.983   1.210  16.947  1.0495 -0.5583 -0.4576
  309MPD2    C2 4700   2.892   1.290  17.002  0.0225  0.0972  0.0130
  309MPD2    C3 4701   2.852   1.274  17.133  0.0649 -0.4769 -0.0228
  309MPD2    C4 4702   2.916   1.182  17.217  0.2811  0.3622  0.0116
  309MPD2    C5 4703   2.994   1.091  17.154  0.4178  0.0242  0.7009
  309MPD2     H 4704   2.850   1.363  16.932  1.7800 -1.3391 -2.5430
  309MPD2    H1 4705   2.883   1.160  17.318 -2.9910  2.8887 -0.5203
  309MPD2    H2 4706   3.111   1.044  16.987  0.3200  0.2725  1.0527
  309MPD2    H3 4707   3.041   1.015  17.215 -0.3220 -2.0386 -1.2661
  309MPD2     N 4708   2.747   1.346  17.185 -0.9453  0.0753 -0.7944
  309MPD2    H5 4709   2.726   1.336  17.284 -1.6367  3.9698 -0.5356
  309MPD2    N1 4710   3.024   1.228  16.810  0.2911  0.1997  0.6474
  309MPD2    H7 4711   2.957   1.289  16.763 -2.0606 -1.2183  2.1644
  310TMC3    C1 4712   3.163   1.218  16.615 -0.3045 -0.2687 -0.3160
  310TMC3    C2 4713   3.075   1.295  16.549 -0.3846 -0.0845 -0.2427
  310TMC3    C3 4714   3.077   1.299  16.410 -0.5469 -0.5092 -0.0034
  310TMC3    C4 4715   3.245   1.135  16.548  0.6593 -0.1938 -0.3814
  310TMC3    C5 4716   3.247   1.144  16.407 -1.0355 -0.4251  0.4685
  310TMC3    C6 4717   3.154   1.217  16.336 -0.4531 -0.3579 -0.0259
  310TMC3     C 4718   3.134   1.177  16.751 -0.4663  0.3673 -0.3492
  310TMC3     O 4719   3.206   1.086  16.790 -0.3269  0.2782 -0.2616
  310TMC3     H 4720   3.012   1.363  16.606 -1.0965  0.8178 -2.0778
  310TMC3    H1 4721   3.315   1.074  16.604  0.2211 -1.1252 -0.8560
  310TMC3    H2 4722   3.159   1.227  16.228 -0.6606 -0.2547 -0.0253
  310TMC3    C7 4723   3.358   1.069  16.348  0.3409  0.1998 -0.0821
  310TMC3    C8 4724   2.991   1.396  16.329  0.8748  0.6237  0.2099
  310TMC3    O1 4725   3.407   0.986  16.426  0.1262 -0.6546  0.5096
  310TMC3    O2 4726   3.010   1.408  16.205  0.2206  0.4236 -0.4042
  311MPD2     C 4727   0.957   2.923  12.305  0.4358 -0.6408  0.5720
  311MPD2    C1 4728   0.939   3.021  12.397 -0.2996  0.3133 -0.1836
  311MPD2    C2 4729   0.817   3.032  12.456 -0.1912  0.3851  0.5944
  311MPD2    C3 4730   0.714   2.939  12.431 -0.3080  0.5156  0.1366
  311MPD2    C4 4731   0.741   2.825  12.365 -0.2861 -0.2443  0.2140
  311MPD2    C5 4732   0.858   2.826  12.295  0.0855 -0.4294  0.3155
  311MPD2     H 4733   0.796   3.106  12.532 -1.0284  1.0342 -0.2694
  311MPD2    H1 4734   0.683   2.733  12.365 -0.5690 -0.0664 -0.0792
  311MPD2    H2 4735   1.051   2.903  12.256  0.0571 -0.3478 -0.2851
  311MPD2    H3 4736   0.876   2.742  12.228 -2.1746  0.0799 -0.9617
  311MPD2     N 4737   0.600   2.965  12.510  0.3875 -0.8200 -0.5680
  311MPD2    H5 4738   0.586   3.054  12.556 -1.0099  0.2839 -3.1333
  311MPD2    N1 4739   1.043   3.113  12.436 -0.4903  0.7187  0.0577
  311MPD2    H7 4740   1.015   3.197  12.485 -1.8764 -1.4735  3.0157
  312TMC3    C1 4741   0.402   2.935  12.627  0.4566  0.4676 -0.3540
  312TMC3    C2 4742   0.288   2.867  12.631  0.3887 -0.7731 -0.3058
  312TMC3    C3 4743   0.224   2.864  12.749  0.8282  0.8825 -0.8223
  312TMC3    C4 4744   0.456   3.001  12.738 -1.3017  0.0321  0.3864
  312TMC3    C5 4745   0.398   2.986  12.863 -0.2814  0.6293  0.2044
  312TMC3    C6 4746   0.277   2.912  12.867  0.1398  0.0100  0.2962
  312TMC3     C 4747   0.486   2.891  12.521 -0.0336 -0.4083  0.2566
  312TMC3     O 4748   0.442   2.806  12.444  0.2745 -0.1757 -0.3841
  312TMC3     H 4749   0.246   2.822  12.542 -0.3964 -3.7216  1.5370
  312TMC3    H1 4750   0.540   3.070  12.731 -2.9370  1.9974 -0.0500
  312TMC3    H2 4751   0.223   2.898  12.960 -0.8718  1.1947 -0.1169
  312TMC3    C7 4752   0.399   3.111  12.944 -0.6260 -0.8386 -0.6041
  312TMC3    C8 4753   0.090   2.821  12.749  0.0191  0.1164  0.1163
  312TMC3    O1 4754   0.420   3.214  12.878  0.2681 -0.3953 -0.3528
  312TMC3    O2 4755   0.042   2.775  12.856 -0.0199 -0.1498  0.6576
  313MPD2     C 4756   0.402   2.163  10.678 -0.1116  0.4494 -0.4190
  313MPD2    C1 4757   0.293   2.215  10.746  0.7126  0.6008  0.1622
  313MPD2    C2 4758   0.169   2.176  10.708  0.1267  0.6052 -0.1545
  313MPD2    C3 4759   0.156   2.099  10.593  0.0252  0.4120  0.4607
  313MPD2    C4 4760   0.261   2.054  10.527  0.0634 -0.2266  0.1467
  313MPD2    C5 4761   0.393   2.082  10.565  0.1627 -0.3741  0.1040
  313MPD2     H 4762   0.084   2.202  10.771 -0.7343 -3.8478  0.4983
  313MPD2    H1 4763   0.249   1.981  10.448  0.1557 -0.5499  0.4276
  313MPD2    H2 4764   0.501   2.180  10.719  1.2929  0.6563 -3.8906
  313MPD2    H3 4765   0.481   2.044  10.515 -1.5332 -0.9167 -2.4756
  313MPD2     N 4766   0.026   2.055  10.560  0.0399  0.3466 -0.9612
  313MPD2    H5 4767   4.686   2.068  10.624  0.4859 -1.7221  0.0106
  313MPD2    N1 4768   0.309   2.295  10.860  0.2502  0.2878  0.6568
  313MPD2    H7 4769   0.227   2.313  10.917 -1.9498  1.0027 -2.7085
  314TMC3    C1 4770   0.411   2.459  11.004  0.4657  0.5254  0.3821
  314TMC3    C2 4771   0.534   2.517  11.036  0.8417 -0.4090  0.2901
  314TMC3    C3 4772   0.537   2.637  11.085 -0.5286 -0.1730  0.6127
  314TMC3    C4 4773   0.290   2.522  11.032  0.0025  0.4649  0.4814
  314TMC3    C5 4774   0.302   2.641  11.099  0.3462 -0.3101  0.8186
  314TMC3    C6 4775   0.423   2.705  11.126 -0.4294 -0.1906  0.4347
  314TMC3     C 4776   0.421   2.354  10.909  0.4445 -0.5314  0.2697
  314TMC3     O 4777   0.525   2.356  10.851  0.9793  0.4079  0.0416
  314TMC3     H 4778   0.618   2.459  11.001  1.6556  0.3852  0.9311
  314TMC3    H1 4779   0.191   2.492  11.002  0.3416  1.0963 -1.2732
  314TMC3    H2 4780   0.441   2.791  11.189 -0.5471 -0.9930  1.5724
  314TMC3    C7 4781   0.209   2.734  11.038  0.0163 -0.3578 -0.3697
  314TMC3    C8 4782   0.670   2.692  11.122  0.6731  0.0253  0.0597
  314TMC3    O1 4783   0.252   2.813  10.959 -0.4822  0.1753  0.2295
  314TMC3    O2 4784   0.663   2.775  11.214 -0.0798  0.2215 -0.2271
  315MPD2     C 4785   4.253   1.148   0.316  0.8438 -0.3699 -0.8121
  315MPD2    C1 4786   4.374   1.191   0.373  0.1369  0.9886 -0.2730
  315MPD2    C2 4787   4.408   1.326   0.365  0.1566 -0.1657 -0.1609
  315MPD2    C3 4788   4.321   1.408   0.293  0.3839 -0.1147 -0.3789
  315MPD2    C4 4789   4.217   1.362   0.221 -0.1435  0.1857  0.2535
  315MPD2    C5 4790   4.176   1.231   0.236  0.4468 -0.3519  0.1775
  315MPD2     H 4791   4.492   1.369   0.418 -0.1600 -0.1091  0.2998
  315MPD2    H1 4792   4.156   1.427   0.159 -0.1392 -1.3890 -1.4458
  315MPD2    H2 4793   4.208   1.052   0.337 -0.5931  0.0872 -1.8243
  315MPD2    H3 4794   4.076   1.202   0.205  0.2213 -0.3893  0.9312
  315MPD2     N 4795   4.360   1.539   0.295  0.5563 -0.0068  0.4974
  315MPD2    H5 4796   4.460   1.554   0.308  0.8946 -1.1092 -0.7991
  315MPD2    N1 4797   4.460   1.110   0.449 -0.1150 -0.3846  0.4187
  315MPD2    H7 4798   4.550   1.152   0.469  0.0801  0.3185 -1.9237
  316TMC3    C1 4799   4.330   1.774   0.287  0.0401 -0.4873 -0.4043
  316TMC3    C2 4800   4.467   1.797   0.284 -0.5224 -0.2915  1.3119
  316TMC3    C3 4801   4.502   1.932   0.302  0.9088  0.5453  0.7678
  316TMC3    C4 4802   4.236   1.870   0.313  0.9437  0.1308 -0.3977
  316TMC3    C5 4803   4.281   1.987   0.355 -0.1558 -0.2865 -0.0622
  316TMC3    C6 4804   4.410   2.030   0.353 -0.3193  0.1972 -0.3646
  316TMC3     C 4805   4.272   1.642   0.283 -0.5520 -0.1373  0.2620
  316TMC3     O 4806   4.153   1.633   0.263  0.7428 -0.1839 -0.9249
  316TMC3     H 4807   4.540   1.722   0.255 -0.1909 -0.5398  2.7866
  316TMC3    H1 4808   4.129   1.850   0.314  1.0275 -0.1000  3.5791
  316TMC3    H2 4809   4.433   2.124   0.400 -0.3687  0.2565 -0.4578
  316TMC3    C7 4810   4.182   2.088   0.327  0.7236  0.3509 -0.0590
  316TMC3    C8 4811   4.640   1.976   0.305  0.2694  0.1485  0.1937
  316TMC3    O1 4812   4.174   2.183   0.400  0.4148  0.1219 -0.1826
  316TMC3    O2 4813   4.656   2.088   0.344  1.1109 -0.2395  0.1573
  317MPD2     C 4814   1.853   0.418  12.887  0.1857  0.7127  0.2912
  317MPD2    C1 4815   1.900   0.295  12.847  0.4982  0.5955 -0.4426
  317MPD2    C2 4816   1.951   0.210  12.943  0.6862  0.0248  0.3153
  317MPD2    C3 4817   1.952   0.242  13.083  0.2928 -0.5419  0.2913
  317MPD2    C4 4818   1.888   0.361  13.126 -0.6076 -0.3183 -0.2219
  317MPD2    C5 4819   1.852   0.446  13.021 -0.5204  0.3997  0.5208
  317MPD2     H 4820   1.994   0.117  12.906 -0.2450 -0.3776  0.2380
  317MPD2    H1 4821   1.873   0.396  13.228 -1.7683 -1.3613 -0.0327
  317MPD2    H2 4822   1.826   0.496  12.817 -1.8194 -0.4766 -0.2676
  317MPD2    H3 4823   1.810   0.544  13.041 -1.8668  0.0420 -0.5542
  317MPD2     N 4824   2.005   0.142  13.176 -0.6412 -0.5921  0.1354
  317MPD2    H5 4825   2.021   0.049  13.139  0.6321 -0.2450 -0.1728
  317MPD2    N1 4826   1.924   0.270  12.707  0.0875 -0.2021  0.0790
  317MPD2    H7 4827   1.974   0.189  12.671 -2.3301 -2.8003  2.5712
  318TMC3    C1 4828   2.086   0.063  13.387 -0.5222 -0.4825  0.5118
  318TMC3    C2 4829   2.052   4.676  13.357  0.3818 -0.4610 -0.2855
  318TMC3    C3 4830   2.130   4.573  13.407  0.2073  0.1274  0.5478
  318TMC3    C4 4831   2.201   0.087  13.461 -0.3088  0.2108  0.5565
  318TMC3    C5 4832   2.276   4.718  13.507  0.0719  0.0637 -0.4884
  318TMC3    C6 4833   2.240   4.592  13.481 -0.3463 -0.6850  0.7350
  318TMC3     C 4834   2.029   0.169  13.311 -0.0152 -0.1243  0.1133
  318TMC3     O 4835   2.041   0.275  13.366 -0.7439  0.0031  0.6129
  318TMC3     H 4836   1.959   4.669  13.301 -0.8812 -1.0346  1.8856
  318TMC3    H1 4837   2.225   0.191  13.482  1.5089  0.0933 -1.0197
  318TMC3    H2 4838   2.301   4.510  13.516 -1.9624 -1.7217  1.1634
  318TMC3    C7 4839   2.418   0.007  13.496  0.0384 -0.1384 -0.2600
  318TMC3    C8 4840   2.090   4.436  13.386 -0.3925  0.1656  0.1704
  318TMC3    O1 4841   2.444   0.118  13.445  0.0918  0.0435 -0.5497
  318TMC3    O2 4842   2.155   4.345  13.434 -0.2327 -0.6140  0.0099
  319MPD2     C 4843   2.839   0.883  16.722 -0.4320 -0.3527 -0.0204
  319MPD2    C1 4844   2.756   0.840  16.827  0.4310 -0.0288 -0.6295
  319MPD2    C2 4845   2.617   0.852  16.819 -0.5161 -0.3607 -0.1090
  319MPD2    C3 4846   2.566   0.901  16.696  0.2823  0.9087  0.4077
  319MPD2    C4 4847   2.650   0.945  16.592 -0.7501  0.0236 -0.5558
  319MPD2    C5 4848   2.782   0.938  16.612  0.2229  0.0511  0.6502
  319MPD2     H 4849   2.556   0.822  16.904  0.6539 -1.7814  0.2439
  319MPD2    H1 4850   2.608   0.990  16.503  0.8911  0.1281 -1.2854
  319MPD2    H2 4851   2.946   0.873  16.705 -0.2049  0.6428  0.8517
  319MPD2    H3 4852   2.849   0.952  16.527 -1.2679  1.6586 -0.2425
  319MPD2     N 4853   2.428   0.908  16.672 -0.5289  0.0242  0.6516
  319MPD2    H5 4854   2.398   0.935  16.579 -0.0828 -0.2741  0.4235
  319MPD2    N1 4855   2.811   0.785  16.946 -0.2171  0.4914  0.0904
  319MPD2    H7 4856   2.741   0.762  17.015  0.6640  0.1483  0.8618
  320TMC3    C1 4857   2.194   0.857  16.692  0.1955  0.0339 -0.0779
  320TMC3    C2 4858   2.159   0.931  16.578  0.4462  0.9034  0.2946
  320TMC3    C3 4859   2.036   0.907  16.528 -0.6427 -1.0075 -0.1988
  320TMC3    C4 4860   2.109   0.770  16.759 -0.1088  0.4219 -0.1044
  320TMC3    C5 4861   1.987   0.751  16.704 -0.0297  0.1813  0.6012
  320TMC3    C6 4862   1.950   0.822  16.596  0.5734 -0.3720 -0.6624
  320TMC3     C 4863   2.322   0.875  16.757  0.0888 -1.0402 -0.3202
  320TMC3     O 4864   2.330   0.832  16.874 -0.1568  0.1485 -0.0399
  320TMC3     H 4865   2.224   1.008  16.538 -0.9043  0.9565 -1.7858
  320TMC3    H1 4866   2.149   0.708  16.838  1.5854  1.0259 -0.4839
  320TMC3    H2 4867   1.855   0.791  16.553 -0.5206  1.0312  0.7342
  320TMC3    C7 4868   1.974   0.611  16.673  0.3430 -0.2700 -0.0503
  320TMC3    C8 4869   1.989   0.973  16.400 -0.7778 -0.2402 -0.1478
  320TMC3    O1 4870   1.969   0.584  16.556 -0.2116  0.3992  0.3873
  320TMC3    O2 4871   2.077   1.042  16.347  0.0844  0.1643  0.3025
  321TMC3    C1 4872   2.978   0.704  17.104  0.2801 -0.0831  0.6029
  321TMC3    C2 4873   3.098   0.639  17.115 -0.0863  0.1782  0.5694
  321TMC3    C3 4874   3.144   0.608  17.239  0.4756 -0.1411  0.5379
  321TMC3    C4 4875   2.908   0.751  17.210 -0.5658 -0.4004  0.3060
  321TMC3    C5 4876   2.948   0.710  17.337  0.5891 -0.2770  0.3053
  321TMC3    C6 4877   3.067   0.638  17.349 -0.3907  0.1362  0.0373
  321TMC3     C 4878   2.940   0.739  16.964  0.0931 -0.5965 -0.3255
  321TMC3     O 4879   3.025   0.714  16.878 -0.5800 -0.5025  0.3231
  321TMC3     H 4880   3.144   0.594  17.027 -1.4167  1.6439 -0.8755
  321TMC3    H1 4881   2.818   0.812  17.208 -1.1862 -1.3690 -1.5059
  321TMC3    H2 4882   3.105   0.620  17.449 -0.6911  0.6843  0.2497
  321TMC3    C7 4883   2.851   0.668  17.434 -0.6015  0.3987  0.1823
  321TMC3    C8 4884   3.177   0.466  17.259 -0.1516 -0.0518  0.7308
  321TMC3    O1 4885   2.888   0.564  17.490  0.0004  0.4959  0.2976
  321TMC3    O2 4886   3.262   0.416  17.182  0.1235  0.5159 -0.1663
  322MPD2     C 4887   1.409   2.099  13.568  0.0863 -0.3650  0.3312
  322MPD2    C1 4888   1.545   2.112  13.582  0.9832  0.2284  0.9920
  322MPD2    C2 4889   1.633   2.009  13.538  0.4483  0.0125  0.0426
  322MPD2    C3 4890   1.584   1.883  13.491  0.2807  0.2799  0.2401
  322MPD2    C4 4891   1.454   1.880  13.465 -0.1880  1.2222  0.9014
  322MPD2    C5 4892   1.370   1.984  13.496  0.6922 -0.1077 -1.1546
  322MPD2     H 4893   1.736   2.022  13.569  1.0437 -1.2703 -1.4175
  322MPD2    H1 4894   1.418   1.790  13.416  0.3112  2.6674 -2.0876
  322MPD2    H2 4895   1.338   2.179  13.587  2.1766  0.9304  2.6003
  322MPD2    H3 4896   1.265   1.974  13.470  0.7401 -1.5231 -0.8194
  322MPD2     N 4897   1.667   1.762  13.499 -0.1419  0.1084 -0.3541
  322MPD2    H5 4898   1.763   1.779  13.528 -0.4357  0.4380  0.4456
  322MPD2    N1 4899   1.600   2.215  13.658  0.3815  0.0081 -0.0838
  322MPD2    H7 4900   1.702   2.217  13.656  0.2955  3.0060 -0.9415
  323TMC3    C1 4901   1.625   2.402  13.789 -0.6836  1.3026  0.5687
  323TMC3    C2 4902   1.746   2.421  13.729 -0.4752  0.5412 -0.2700
  323TMC3    C3 4903   1.841   2.479  13.811 -0.4852  0.1970 -0.3252
  323TMC3    C4 4904   1.597   2.436  13.919 -0.0248 -0.3319 -0.1089
  323TMC3    C5 4905   1.689   2.493  14.002 -0.5358  0.4773 -0.3018
  323TMC3    C6 4906   1.813   2.516  13.942  0.8672 -0.5411  0.0988
  323TMC3     C 4907   1.530   2.309  13.738  0.0375  0.4394 -0.4911
  323TMC3     O 4908   1.412   2.314  13.769 -0.3546 -0.8871 -0.3229
  323TMC3     H 4909   1.761   2.385  13.628  0.1283 -2.1446  0.7815
  323TMC3    H1 4910   1.500   2.409  13.960  0.4021 -2.7490 -0.6842
  323TMC3    H2 4911   1.900   2.546  13.999  0.7040  1.4442 -0.6582
  323TMC3    C7 4912   1.693   2.427  14.132 -0.0096 -0.7062  0.7323
  323TMC3    C8 4913   1.961   2.533  13.760 -0.3956 -0.0418  0.4060
  323TMC3    O1 4914   1.653   2.313  14.136  0.0074 -0.8137 -0.1940
  323TMC3    O2 4915   2.020   2.619  13.821  0.2945  0.0147 -0.2707
  324MPD2     C 4916   3.527   3.871  14.229  0.5216 -0.1263 -0.2543
  324MPD2    C1 4917   3.524   3.810  14.352  0.4372  0.0826 -0.6235
  324MPD2    C2 4918   3.402   3.777  14.410  1.1101  0.4592 -0.1893
  324MPD2    C3 4919   3.280   3.799  14.344  0.4696  0.2824 -0.6375
  324MPD2    C4 4920   3.285   3.859  14.224 -0.1981  0.4916 -0.1721
  324MPD2    C5 4921   3.405   3.896  14.171 -0.3972  0.7724 -0.3555
  324MPD2     H 4922   3.414   3.728  14.506 -1.4161  2.1087  0.9704
  324MPD2    H1 4923   3.195   3.881  14.168  0.4421  1.5292 -0.8022
  324MPD2    H2 4924   3.616   3.906  14.178  0.6586  0.8535  0.6619
  324MPD2    H3 4925   3.405   3.953  14.080 -1.4138  0.1289 -0.7619
  324MPD2     N 4926   3.158   3.778  14.405 -0.7390  0.2390  0.6055
  324MPD2    H5 4927   3.086   3.838  14.366 -1.4209 -0.6562  0.5016
  324MPD2    N1 4928   3.648   3.772  14.419 -0.2389  0.4897  0.5564
  324MPD2    H7 4929   3.640   3.748  14.517  2.7996  1.3369  1.0076
  325TMC3    C1 4930   3.001   3.712  14.568  0.0546 -0.0243  0.2266
  325TMC3    C2 4931   2.945   3.603  14.626  0.1070 -0.2623  0.6102
  325TMC3    C3 4932   2.809   3.602  14.652 -0.2999  0.5709  0.1938
  325TMC3    C4 4933   2.922   3.826  14.544 -0.7280 -0.5457 -0.3231
  325TMC3    C5 4934   2.792   3.827  14.590 -0.5692 -0.3080  0.8533
  325TMC3    C6 4935   2.740   3.719  14.659  0.0066  0.7653  0.3351
  325TMC3     C 4936   3.136   3.702  14.519  0.0330  0.3514  0.1097
  325TMC3     O 4937   3.211   3.629  14.585  0.0396 -0.0384 -0.4587
  325TMC3     H 4938   3.002   3.511  14.621 -1.6733 -1.2128 -2.0034
  325TMC3    H1 4939   2.968   3.913  14.498  0.4834 -0.8569  0.2808
  325TMC3    H2 4940   2.637   3.727  14.694 -0.7007 -1.4049 -1.2059
  325TMC3    C7 4941   2.723   3.958  14.579  0.9573 -0.0026 -0.8777
  325TMC3    C8 4942   2.746   3.495  14.578  0.4209 -0.0051  0.7015
  325TMC3    O1 4943   2.786   4.039  14.511  0.3056  0.6900  0.3349
  325TMC3    O2 4944   2.817   3.419  14.515 -0.0193 -0.1225 -0.5175
  326MPD2     C 4945   4.498   4.692  11.271  0.2744  0.3702 -0.3869
  326MPD2    C1 4946   4.517   4.696  11.134 -0.2717  1.0442 -0.5783
  326MPD2    C2 4947   4.628   0.023  11.085 -0.2058 -0.2507  0.3908
  326MPD2    C3 4948   4.726   0.076  11.171  0.0009 -0.5287  0.0378
  326MPD2    C4 4949   4.709   0.065  11.305 -0.0577 -0.6631  0.6901
  326MPD2    C5 4950   4.600   4.730  11.354  0.2103  0.2301  0.4896
  326MPD2     H 4951   4.653   0.022  10.980  1.6144 -2.5080  0.8392
  326MPD2    H1 4952   0.039   0.109  11.378 -0.9093 -1.9209  2.2307
  326MPD2    H2 4953   4.409   4.643  11.311 -1.2825  3.4537 -0.0579
  326MPD2    H3 4954   4.571   4.736  11.458  1.6606  1.2170  0.8411
  326MPD2     N 4955   0.107   0.136  11.134  0.1658  0.0939  0.0997
  326MPD2    H5 4956   0.166   0.161  11.212  0.5953 -0.5519 -0.0191
  326MPD2    N1 4957   4.425   4.649  11.037 -0.6032 -0.6144  0.0228
  326MPD2    H7 4958   4.457   4.646  10.941 -1.0655  2.0438 -0.2122
  327TMC3    C1 4959   4.232   4.565  10.949 -0.5871  0.3089 -0.3378
  327TMC3    C2 4960   4.128   4.641  10.914  0.0437  0.1630 -0.4491
  327TMC3    C3 4961   4.103   4.659  10.780 -0.4454  0.7536 -0.5916
  327TMC3    C4 4962   4.303   4.487  10.861  0.3066 -0.9259  0.3948
  327TMC3    C5 4963   4.287   4.512  10.726  0.5274  0.2722  0.5816
  327TMC3    C6 4964   4.173   4.582  10.690  1.0843 -0.5790  0.0427
  327TMC3     C 4965   4.298   4.611  11.066  0.5747 -0.7209 -0.5429
  327TMC3     O 4966   4.234   4.613  11.167  0.3870 -0.1718  0.1192
  327TMC3     H 4967   4.080   4.694  10.996  0.5737 -0.8091  0.4842
  327TMC3    H1 4968   4.380   4.415  10.885  2.0609  0.9471  0.2858
  327TMC3    H2 4969   4.152   4.581  10.584 -2.6353  1.3199  0.7805
  327TMC3    C7 4970   4.407   4.553  10.657 -0.1626  0.0661  0.5465
  327TMC3    C8 4971   4.083   0.063  10.738  0.1873 -0.3895  0.0648
  327TMC3    O1 4972   4.403   4.629  10.562  0.5128  0.2592 -0.2641
  327TMC3    O2 4973   4.160   0.090  10.641 -0.1459 -0.0110  0.7053
  328MPD2     C 4974   2.152   4.175  16.881  1.0363 -0.3299 -0.2144
  328MPD2    C1 4975   2.072   4.136  16.784  0.6027  0.1998 -0.8334
  328MPD2    C2 4976   1.962   4.201  16.738 -0.7066 -0.0081  0.4338
  328MPD2    C3 4977   1.942   4.325  16.795 -0.4008 -0.2094  0.8301
  328MPD2    C4 4978   2.032   4.379  16.883  0.6792 -0.1368 -0.0587
  328MPD2    C5 4979   2.133   4.301  16.929 -0.0689  0.0631  0.0527
  328MPD2     H 4980   1.898   4.149  16.668 -1.5623 -1.9396  2.6574
  328MPD2    H1 4981   2.023   4.478  16.926  0.2859 -0.3910  0.4358
  328MPD2    H2 4982   2.229   4.110  16.921  0.5869  0.6235  2.1730
  328MPD2    H3 4983   2.199   4.345  17.003  0.5396 -0.5876 -0.0998
  328MPD2     N 4984   1.834   4.401  16.767  0.6445 -0.4090  0.2778
  328MPD2    H5 4985   1.838   4.499  16.793 -0.0429 -0.6949  1.4581
  328MPD2    N1 4986   2.084   3.999  16.752 -0.0227 -0.1695  0.0007
  328MPD2    H7 4987   2.142   3.945  16.816  0.8330  2.2898  1.3021
  329TMC3    C1 4988   2.035   3.791  16.636  0.2764  0.2577  0.0003
  329TMC3    C2 4989   1.949   3.736  16.544 -0.4913 -0.1339  0.5952
  329TMC3    C3 4990   1.888   3.613  16.569  0.2650  0.0729 -0.3718
  329TMC3    C4 4991   2.088   3.715  16.736 -0.5546  0.9211  0.0084
  329TMC3    C5 4992   2.023   3.601  16.752  0.1079 -0.0716  0.2326
  329TMC3    C6 4993   1.935   3.541  16.675  0.3356  0.7325 -0.6432
  329TMC3     C 4994   2.028   3.936  16.637  0.5834  0.5271 -0.4296
  329TMC3     O 4995   1.972   3.988  16.542  0.5050  0.0472  0.1657
  329TMC3     H 4996   1.886   3.793  16.477 -0.0569 -0.3980 -0.0462
  329TMC3    H1 4997   2.162   3.747  16.809 -1.1920  0.6223  0.7780
  329TMC3    H2 4998   1.881   3.458  16.719 -1.4738  1.4197 -1.5767
  329TMC3    C7 4999   1.989   3.596  16.889  0.0652 -0.4689 -0.5403
  329TMC3    C8 5000   1.743   3.634  16.584  0.2785  1.1205 -0.1374
  329TMC3    O1 5001   1.923   3.692  16.931 -0.1511  0.4855 -0.2703
  329TMC3    O2 5002   1.690   3.656  16.477 -0.7830 -0.5580 -0.2080
  330TMC3    C1 5003   4.305   3.886   9.227  0.7174 -0.1882  0.0416
  330TMC3    C2 5004   4.297   3.750   9.212  0.2913 -0.5504  0.2740
  330TMC3    C3 5005   4.352   3.669   9.310 -0.0389 -0.0879 -0.0758
  330TMC3    C4 5006   4.373   3.943   9.330 -0.1921 -0.1554 -0.1730
  330TMC3    C5 5007   4.441   3.856   9.417 -0.2285 -0.2139  0.3376
  330TMC3    C6 5008   4.430   3.715   9.412 -0.5032  0.4605 -0.3290
  330TMC3     C 5009   4.221   3.961   9.135  0.3102 -0.2680  0.6718
  330TMC3     O 5010   4.171   3.904   9.035 -0.7695  0.5765  0.2289
  330TMC3     H 5011   4.227   3.710   9.139  0.4791  0.8062 -0.6575
  330TMC3    H1 5012   4.402   4.047   9.332  0.8915 -0.4902  1.2124
  330TMC3    H2 5013   4.470   3.653   9.491 -0.3552 -2.0538 -2.3977
  330TMC3    C7 5014   4.489   3.920   9.538  0.8157  0.4099 -0.3328
  330TMC3    C8 5015   4.328   3.525   9.294  0.0088 -0.2680 -0.2868
  330TMC3    O1 5016   4.446   4.034   9.548  0.8552  0.0590  0.0178
  330TMC3    O2 5017   4.285   3.488   9.185 -0.4291 -0.2543  0.2078
  331MPD2     C 5018   2.565   3.283  13.016 -0.7042 -0.2470 -1.2669
  331MPD2    C1 5019   2.689   3.288  12.960  0.8282 -0.0051 -0.1269
  331MPD2    C2 5020   2.741   3.169  12.912 -0.4632  0.6591  0.3930
  331MPD2    C3 5021   2.694   3.053  12.954  0.5294 -0.1968  0.0414
  331MPD2    C4 5022   2.581   3.039  13.036  0.3373 -0.6439 -0.3670
  331MPD2    C5 5023   2.520   3.157  13.054 -0.3680 -0.0413 -0.1666
  331MPD2     H 5024   2.834   3.172  12.856  1.1291  2.6024  3.1195
  331MPD2    H1 5025   2.536   2.946  13.069 -0.7669  0.1862  0.4631
  331MPD2    H2 5026   2.506   3.374  13.028 -0.7905 -0.5452  0.5585
  331MPD2    H3 5027   2.427   3.162  13.110 -1.7227 -3.3176 -2.1336
  331MPD2     N 5028   2.777   2.945  12.920  0.3445 -0.2460 -0.7269
  331MPD2    H5 5029   2.862   2.969  12.870 -0.9857 -0.2742 -3.0046
  331MPD2    N1 5030   2.737   3.416  12.901 -0.2101  0.2964 -0.2154
  331MPD2    H7 5031   2.675   3.495  12.895  1.1078  1.4560  1.4230
  332TMC3    C1 5032   2.880   2.747  12.887 -0.5637  0.0743  1.4781
  332TMC3    C2 5033   2.921   2.799  12.766  0.0812  0.0511  0.2731
  332TMC3    C3 5034   3.049   2.774  12.725 -0.2175  0.7114  0.0628
  332TMC3    C4 5035   2.963   2.680  12.971  0.3094  0.1429  0.2055
  332TMC3    C5 5036   3.087   2.647  12.922  0.4457 -0.6743  0.1157
  332TMC3    C6 5037   3.131   2.697  12.801  0.3396 -0.4718  0.4297
  332TMC3     C 5038   2.766   2.815  12.953 -0.7350  0.5189 -0.5799
  332TMC3     O 5039   2.690   2.754  13.026 -0.5757  0.2426  0.2454
  332TMC3     H 5040   2.848   2.837  12.695  0.7842  0.1438 -0.4023
  332TMC3    H1 5041   2.929   2.655  13.071 -0.5397 -0.1430 -0.1502
  332TMC3    H2 5042   3.227   2.668  12.759 -0.8047 -0.8986 -1.9140
  332TMC3    C7 5043   3.182   2.600  13.013 -0.2814 -0.0213 -0.1870
  332TMC3    C8 5044   3.078   2.778  12.585  0.5956 -0.3243  0.5464
  332TMC3    O1 5045   3.143   2.619  13.128 -0.0410  0.4365 -0.5241
  332TMC3    O2 5046   2.991   2.789  12.500 -0.0849  0.1979  0.1111
  333MPD2     C 5047   3.166   2.950  11.324 -0.1124  0.6437 -0.1292
  333MPD2    C1 5048   3.238   2.833  11.309  0.7118 -0.8644  0.0807
  333MPD2    C2 5049   3.170   2.713  11.314 -0.2497 -0.0945  0.2582
  333MPD2    C3 5050   3.036   2.707  11.344 -0.5096 -0.3504  0.1638
  333MPD2    C4 5051   2.965   2.826  11.358  0.3076  0.3080 -1.1203
  333MPD2    C5 5052   3.028   2.948  11.350  0.4166  0.2601  0.0300
  333MPD2     H 5053   3.216   2.616  11.296 -0.3456  0.1343 -1.2118
  333MPD2    H1 5054   2.857   2.827  11.369  0.2392  0.1539 -1.7770
  333MPD2    H2 5055   3.213   3.048  11.320  2.7276 -0.7513 -1.1061
  333MPD2    H3 5056   2.970   3.036  11.374  2.6194  1.6617  0.2018
  333MPD2     N 5057   2.971   2.579  11.358 -0.2848  0.3796  0.6064
  333MPD2    H5 5058   3.017   2.489  11.340 -1.2645 -0.7365  3.8052
  333MPD2    N1 5059   3.377   2.843  11.296  0.4643  0.4274  0.2873
  333MPD2    H7 5060   3.410   2.936  11.321  0.4500  0.0882  1.5597
  334TMC3    C1 5061   3.609   2.784  11.243  0.1179  0.2476 -0.3438
  334TMC3    C2 5062   3.705   2.690  11.270 -0.4460 -0.0351  0.1769
  334TMC3    C3 5063   3.832   2.723  11.244  0.2490  0.1158 -0.2106
  334TMC3    C4 5064   3.642   2.905  11.189  0.4339 -0.0320 -0.6178
  334TMC3    C5 5065   3.774   2.928  11.158 -0.1387  0.1814  0.7002
  334TMC3    C6 5066   3.871   2.839  11.189 -0.1201  0.0708 -0.0080
  334TMC3     C 5067   3.468   2.740  11.266 -0.1265 -0.1035 -0.0467
  334TMC3     O 5068   3.443   2.621  11.265 -0.0653 -0.1336 -0.2669
  334TMC3     H 5069   3.681   2.587  11.295 -0.4338 -0.8466 -3.1497
  334TMC3    H1 5070   3.566   2.978  11.164  1.6180  1.3063 -0.2801
  334TMC3    H2 5071   3.971   2.861  11.154 -1.1683  3.7170 -0.6927
  334TMC3    C7 5072   3.814   3.054  11.093 -0.1887  0.0292  0.2772
  334TMC3    C8 5073   3.930   2.623  11.277 -0.4208 -0.3530  0.4128
  334TMC3    O1 5074   3.738   3.149  11.097 -0.1668  0.1919 -0.1673
  334TMC3    O2 5075   3.900   2.503  11.265 -0.1802 -0.2105  0.2308
  335TMC3    C1 5076   2.628   4.361  17.545  0.4516  0.2193 -0.0963
  335TMC3    C2 5077   2.585   4.341  17.416  0.0247  0.2481  0.0397
  335TMC3    C3 5078   2.676   4.362  17.314 -0.5134 -0.0296  0.0385
  335TMC3    C4 5079   2.754   4.404  17.565  0.3678  0.1871 -0.0991
  335TMC3    C5 5080   2.843   4.428  17.461 -0.7342  0.4706  0.7023
  335TMC3    C6 5081   2.796   4.424  17.333  0.3140  0.3551  0.3415
  335TMC3     C 5082   2.542   4.326  17.664  0.5514 -0.2846  0.2620
  335TMC3     O 5083   2.593   4.353   0.027 -0.2433 -0.0867  0.1024
  335TMC3     H 5084   2.487   4.301  17.392  1.0218 -1.5915 -0.9324
  335TMC3    H1 5085   2.792   4.406  17.666 -1.4244  0.8164  0.5791
  335TMC3    H2 5086   2.859   4.449  17.248 -0.1442  1.1356  0.2289
  335TMC3    C7 5087   2.988   4.412  17.477 -0.3555  0.2364 -0.2232
  335TMC3    C8 5088   2.649   4.304  17.185 -0.1791  0.3810 -0.4539
  335TMC3    O1 5089   3.053   4.401  17.377 -0.6250 -0.4207 -0.0966
  335TMC3    O2 5090   2.718   4.347  17.093  0.1083 -0.8963  0.1769
  336MPD2     C 5091   2.291   2.295  16.490  0.1844 -0.2851  0.3988
  336MPD2    C1 5092   2.273   2.240  16.369  0.0390  0.2768 -0.1757
  336MPD2    C2 5093   2.267   2.099  16.347  0.3537  0.8783  0.1647
  336MPD2    C3 5094   2.306   2.017  16.451  0.1346 -0.8801 -0.5122
  336MPD2    C4 5095   2.338   2.070  16.570  0.4783  0.3955  0.6657
  336MPD2    C5 5096   2.322   2.207  16.589  0.3628 -0.6594 -0.4559
  336MPD2     H 5097   2.219   2.064  16.257 -1.0128 -1.0963  1.6710
  336MPD2    H1 5098   2.366   2.018  16.661 -2.1055 -0.7015  0.8294
  336MPD2    H2 5099   2.303   2.401  16.511 -0.0474 -0.8591  3.3802
  336MPD2    H3 5100   2.342   2.244  16.689  1.1879 -1.3758 -0.3565
  336MPD2     N 5101   2.325   1.878  16.444  0.8403 -0.1319 -0.1173
  336MPD2    H5 5102   2.336   1.825  16.530  3.2380 -1.2390 -1.0943
  336MPD2    N1 5103   2.230   2.307  16.257 -0.0971  0.2463 -0.3650
  336MPD2    H7 5104   2.193   2.251  16.181 -0.7752 -1.2605  1.0881
  337TMC3    C1 5105   2.206   2.486  16.110  0.3823 -0.4330 -0.1402
  337TMC3    C2 5106   2.107   2.415  16.056 -0.2397  0.2806  0.6166
  337TMC3    C3 5107   2.073   2.438  15.927 -0.6420 -0.1198 -0.0024
  337TMC3    C4 5108   2.270   2.583  16.036 -0.4962  0.9322 -0.2382
  337TMC3    C5 5109   2.237   2.599  15.900 -0.2464 -0.0597  0.5370
  337TMC3    C6 5110   2.136   2.530  15.846  0.1158  0.0936  0.4555
  337TMC3     C 5111   2.261   2.441  16.233  0.1887  0.0202 -0.7795
  337TMC3     O 5112   2.364   2.499  16.264  0.5640  0.7224  0.3620
  337TMC3     H 5113   2.053   2.339  16.112  2.1343 -2.5255 -0.8982
  337TMC3    H1 5114   2.351   2.639  16.080 -0.4758  0.3434  0.4664
  337TMC3    H2 5115   2.101   2.560  15.748 -1.7396 -1.1681  0.7279
  337TMC3    C7 5116   2.317   2.685  15.814 -0.1582 -0.3006 -0.1220
  337TMC3    C8 5117   1.944   2.397  15.892  0.2843  0.3868  0.7968
  337TMC3    O1 5118   2.305   2.656  15.697 -0.3218 -0.0250  0.2190
  337TMC3    O2 5119   1.869   2.392  15.985  0.0297  0.1381  0.0467
  338MPD2     C 5120   2.636   2.051   0.841 -0.6065  0.9800  0.5797
  338MPD2    C1 5121   2.578   1.987   0.734 -0.2512  0.2058 -0.7928
  338MPD2    C2 5122   2.451   2.029   0.698 -0.8570 -0.0863  0.0129
  338MPD2    C3 5123   2.381   2.117   0.777  0.0054  0.5174  0.4954
  338MPD2    C4 5124   2.439   2.183   0.878 -0.3653  0.2498  0.2559
  338MPD2    C5 5125   2.570   2.152   0.907  0.4314 -0.1345  0.3812
  338MPD2     H 5126   2.399   1.977   0.619 -1.7760 -0.1884  0.6808
  338MPD2    H1 5127   2.380   2.260   0.925 -1.3744  0.3190 -1.1000
  338MPD2    H2 5128   2.739   2.030   0.868 -0.0171  3.3230  0.1632
  338MPD2    H3 5129   2.620   2.207   0.986  2.0490 -0.2247 -0.5973
  338MPD2     N 5130   2.246   2.132   0.742  0.8023  0.5413 -0.6389
  338MPD2    H5 5131   2.213   2.082   0.660  0.8244  0.0703 -0.3610
  338MPD2    N1 5132   2.623   1.877   0.666  0.2960  0.0840 -0.2275
  338MPD2    H7 5133   2.571   1.851   0.583 -1.3091 -0.3230  0.9002
  339TMC3    C1 5134   2.011   2.128   0.756 -0.8855  0.0761  0.1041
  339TMC3    C2 5135   1.954   2.039   0.847 -0.2861 -0.9162  0.1731
  339TMC3    C3 5136   1.875   1.939   0.797 -0.0227  0.5039 -0.2470
  339TMC3    C4 5137   2.015   2.098   0.624 -0.1204  0.6388 -0.4996
  339TMC3    C5 5138   1.960   1.980   0.583  0.5416 -0.4584  0.0817
  339TMC3    C6 5139   1.887   1.903   0.663 -0.4776  0.4929 -0.2868
  339TMC3     C 5140   2.139   2.178   0.815 -0.6453 -0.1064 -0.2077
  339TMC3     O 5141   2.138   2.203   0.932 -0.9943 -0.3285 -0.2474
  339TMC3     H 5142   1.949   2.076   0.948 -1.6493 -2.4030  0.6461
  339TMC3    H1 5143   2.059   2.169   0.555  1.2404 -0.2277 -0.5187
  339TMC3    H2 5144   1.825   1.826   0.618 -1.0983  0.8470 -0.0413
  339TMC3    C7 5145   2.003   1.936   0.450 -0.3372 -0.0623  0.0041
  339TMC3    C8 5146   1.773   1.884   0.875 -0.4220 -0.0347 -0.7833
  339TMC3    O1 5147   2.056   2.018   0.372  0.8651  0.1410  0.6442
  339TMC3    O2 5148   1.748   1.765   0.858 -0.0515  0.3307  0.4573
  340MPD2     C 5149   3.002   4.102  10.572  0.7451 -0.3596  0.8718
  340MPD2    C1 5150   3.097   4.015  10.517 -0.0996 -0.3269  0.2078
  340MPD2    C2 5151   3.230   4.024  10.559 -0.0271  0.0026  0.2765
  340MPD2    C3 5152   3.266   4.119  10.647 -0.6746  0.1371  0.1291
  340MPD2    C4 5153   3.175   4.204  10.705 -1.1100 -0.6098 -0.2617
  340MPD2    C5 5154   3.043   4.197  10.665  0.2576 -0.1725 -0.7260
  340MPD2     H 5155   3.306   3.980  10.496  0.0075  0.5927 -0.0936
  340MPD2    H1 5156   3.205   4.282  10.774  0.5606 -0.4363 -1.1852
  340MPD2    H2 5157   2.900   4.104  10.535  1.2622  2.1150 -0.4550
  340MPD2    H3 5158   2.962   4.257  10.705 -0.3462 -1.9107  0.6464
  340MPD2     N 5159   3.395   4.154  10.684 -0.4689  0.2904  0.0000
  340MPD2    H5 5160   3.401   4.227  10.754 -0.0332  1.6254 -1.4611
  340MPD2    N1 5161   3.053   3.935  10.408 -0.2270  0.4515 -0.6268
  340MPD2    H7 5162   2.959   3.960  10.378 -0.4496 -0.8819 -1.0551
  341TMC3    C1 5163   3.032   3.766  10.245  0.6120  0.1475  0.3161
  341TMC3    C2 5164   3.071   3.653  10.188  0.5768 -0.4162  0.3774
  341TMC3    C3 5165   2.997   3.598  10.082 -0.8355  0.0522  0.0392
  341TMC3    C4 5166   2.935   3.840  10.185 -0.8899  1.3526  0.3352
  341TMC3    C5 5167   2.853   3.781  10.096  0.1694 -0.4103  0.7812
  341TMC3    C6 5168   2.882   3.664  10.034  0.5164  0.0760 -0.6142
  341TMC3     C 5169   3.121   3.830  10.342 -0.2242  0.2471 -0.1618
  341TMC3     O 5170   3.225   3.779  10.373  0.2641  0.2163  0.0283
  341TMC3     H 5171   3.152   3.596  10.231  1.6762  0.9955  0.1997
  341TMC3    H1 5172   2.919   3.946  10.203  0.6472  1.6973 -0.3542
  341TMC3    H2 5173   2.822   3.631   9.950 -2.0469  0.3153  1.1176
  341TMC3    C7 5174   2.761   3.866  10.019 -0.3230 -0.1405 -0.0785
  341TMC3    C8 5175   3.048   3.483  10.014  0.0141  0.0482  0.6447
  341TMC3    O1 5176   2.746   3.831   9.901 -0.3874  0.7692 -0.0461
  341TMC3    O2 5177   2.980   3.438   9.927 -0.2926  0.0301  0.2275
  342MPD2     C 5178   0.468   2.728  17.196  0.1067  0.7704 -0.3017
  342MPD2    C1 5179   0.594   2.685  17.166  0.8539  0.1240 -0.1940
  342MPD2    C2 5180   0.695   2.778  17.153 -0.2696  0.1306 -0.1666
  342MPD2    C3 5181   0.665   2.910  17.172 -0.5144  0.0501  0.2430
  342MPD2    C4 5182   0.539   2.947  17.210  0.0234 -0.7960 -0.5825
  342MPD2    C5 5183   0.443   2.856  17.228  0.7173 -0.2270  0.3525
  342MPD2     H 5184   0.800   2.751  17.147 -0.6372 -1.3025 -0.0613
  342MPD2    H1 5185   0.527   3.053  17.230  0.7546 -1.1286  1.6643
  342MPD2    H2 5186   0.378   2.670  17.208 -0.7337  1.7876 -1.7253
  342MPD2    H3 5187   0.345   2.899  17.242  1.3358  1.6376 -0.8950
  342MPD2     N 5188   0.754   3.017  17.174  0.0005  0.0867  0.2743
  342MPD2    H5 5189   0.703   3.105  17.178 -0.6183 -0.2868  0.5482
  342MPD2    N1 5190   0.616   2.546  17.148  0.1852 -0.2021  0.4722
  342MPD2    H7 5191   0.713   2.524  17.124 -0.1850 -1.3769  0.0291
  343TMC3    C1 5192   0.598   2.327  17.150  0.0937 -0.2975  0.4033
  343TMC3    C2 5193   0.687   2.315  17.053 -0.0996 -0.0369  0.1616
  343TMC3    C3 5194   0.703   2.195  16.994 -0.1074  0.1632 -0.2836
  343TMC3    C4 5195   0.553   2.215  17.215  0.0322 -0.6378  0.1569
  343TMC3    C5 5196   0.586   2.094  17.155 -0.0691  0.2953 -0.0757
  343TMC3    C6 5197   0.655   2.079  17.046 -0.9499  0.1268 -0.5227
  343TMC3     C 5198   0.530   2.450  17.182 -0.3642 -0.2700 -0.1658
  343TMC3     O 5199   0.436   2.458  17.260 -0.8404 -0.6116  0.7935
  343TMC3     H 5200   0.726   2.399  16.997 -0.4669  0.9643  1.3963
  343TMC3    H1 5201   0.487   2.224  17.301 -1.5242  1.4668 -1.2504
  343TMC3    H2 5202   0.662   1.981  17.001 -0.7570  0.6164 -1.5479
  343TMC3    C7 5203   0.556   1.971  17.224 -0.4635 -0.0409  0.0501
  343TMC3    C8 5204   0.820   2.189  16.911 -0.3942  0.6159  0.2894
  343TMC3    O1 5205   0.532   1.870  17.161  0.0916  0.1554  0.4940
  343TMC3    O2 5206   0.863   2.289  16.850 -0.1673  0.2622 -0.0400
  344MPD2     C 5207   2.265   2.433  10.741  0.1854 -0.2060  0.4076
  344MPD2    C1 5208   2.171   2.372  10.655  0.3101 -0.0346 -0.5178
  344MPD2    C2 5209   2.186   2.394  10.522  0.9844 -0.6026 -0.3165
  344MPD2    C3 5210   2.305   2.456  10.472 -0.4642 -0.1530 -1.0250
  344MPD2    C4 5211   2.401   2.505  10.560 -0.3965  0.1342  0.7035
  344MPD2    C5 5212   2.374   2.497  10.688 -0.2409 -0.0530 -0.2839
  344MPD2     H 5213   2.116   2.358  10.447  0.2594  0.3796 -0.1055
  344MPD2    H1 5214   2.494   2.555  10.535 -0.4137 -1.0423 -1.6306
  344MPD2    H2 5215   2.264   2.420  10.849 -1.0673 -1.6887  0.2170
  344MPD2    H3 5216   2.443   2.532  10.764  0.1806 -0.0739 -0.6587
  344MPD2     N 5217   2.332   2.482  10.335 -0.0536 -0.7386 -0.0451
  344MPD2    H5 5218   2.423   2.521  10.317  0.1900 -1.1397  0.3053
  344MPD2    N1 5219   2.074   2.282  10.702  0.2177  0.2896 -0.1196
  344MPD2    H7 5220   2.015   2.239  10.631  1.7109 -1.7860 -0.0658
  345TMC3    C1 5221   2.292   2.529  10.116 -0.0574 -0.4579  0.4930
  345TMC3    C2 5222   2.428   2.542  10.088 -0.5340 -0.1809 -0.4516
  345TMC3    C3 5223   2.471   2.630   9.997 -0.3774  0.3995 -0.1146
  345TMC3    C4 5224   2.204   2.615  10.060  0.4329  0.0050  0.0604
  345TMC3    C5 5225   2.244   2.716   9.976 -0.0115 -0.0418  0.2745
  345TMC3    C6 5226   2.380   2.717   9.941 -0.4665  0.0882 -0.6583
  345TMC3     C 5227   2.250   2.452  10.228 -0.5751 -0.0651 -0.0300
  345TMC3     O 5228   2.136   2.403  10.221  0.1357  0.3668  0.2771
  345TMC3     H 5229   2.490   2.478  10.148 -1.6568  0.0754  0.9722
  345TMC3    H1 5230   2.102   2.608  10.096 -0.3504  0.1494 -2.1598
  345TMC3    H2 5231   2.411   2.799   9.877 -0.9632 -0.2122 -1.2739
  345TMC3    C7 5232   2.176   2.845   9.980 -0.1948 -0.2401 -0.8320
  345TMC3    C8 5233   2.604   2.685  10.030  0.0298  0.3699 -0.4689
  345TMC3    O1 5234   2.245   2.942   9.968 -0.5264 -0.6723 -0.0904
  345TMC3    O2 5235   2.644   2.656  10.143  0.5155 -0.1938 -0.0388
  346MPD2     C 5236   1.706   3.752  14.074 -0.5817  0.7422 -0.4533
  346MPD2    C1 5237   1.762   3.876  14.086  0.6300 -0.0513 -0.2330
  346MPD2    C2 5238   1.785   3.925  14.212  0.5496 -0.3090 -0.1398
  346MPD2    C3 5239   1.758   3.854  14.326 -0.3155 -0.8012  0.5395
  346MPD2    C4 5240   1.712   3.726  14.308 -0.1996  0.1510 -0.3357
  346MPD2    C5 5241   1.686   3.676  14.183 -0.9161  0.0693 -0.1687
  346MPD2     H 5242   1.836   4.020  14.214 -0.2144  0.0859  0.6861
  346MPD2    H1 5243   1.702   3.651  14.385  3.0026 -2.5755 -2.5989
  346MPD2    H2 5244   1.693   3.708  13.975  0.1679  0.5240 -0.4586
  346MPD2    H3 5245   1.641   3.578  14.174 -0.9779  0.2356 -1.6594
  346MPD2     N 5246   1.794   3.915  14.441  0.0797 -0.0223  0.0732
  346MPD2    H5 5247   1.832   4.009  14.431  0.0184 -0.0114 -0.0653
  346MPD2    N1 5248   1.810   3.952  13.976 -0.0938 -0.1616  0.0353
  346MPD2    H7 5249   1.843   4.045  13.998  0.3011 -1.1881  3.7725
  347TMC3    C1 5250   1.800   3.979  14.670 -0.6252  0.3183 -0.0580
  347TMC3    C2 5251   1.927   4.044  14.658 -0.2577  0.1852  0.2303
  347TMC3    C3 5252   1.962   4.108  14.769  0.0672  0.0587  0.1847
  347TMC3    C4 5253   1.720   3.984  14.783 -0.3680 -0.0686  0.0659
  347TMC3    C5 5254   1.764   4.058  14.893  0.7637 -0.5092  0.1282
  347TMC3    C6 5255   1.892   4.116  14.888 -0.2098  0.2202  0.2376
  347TMC3     C 5256   1.760   3.876  14.571 -0.1256  0.2442 -0.4105
  347TMC3     O 5257   1.679   3.794  14.609  0.5788 -0.1337 -0.0840
  347TMC3     H 5258   1.988   4.035  14.569 -1.7329  0.0147 -0.7735
  347TMC3    H1 5259   1.621   3.940  14.785  0.2868 -1.4224  3.1224
  347TMC3    H2 5260   1.943   4.167  14.969  1.1442 -2.4697  1.0504
  347TMC3    C7 5261   1.691   4.057  15.012  0.8328  0.5973  0.2913
  347TMC3    C8 5262   2.105   4.097  14.783 -0.1741 -0.1583 -0.1519
  347TMC3    O1 5263   1.604   3.971  15.015 -0.2048  0.0500 -0.4927
  347TMC3    O2 5264   2.151   4.003  14.848  0.5772 -0.1263  0.0486
  348MPD2     C 5265   0.878   3.837  12.126  0.2736 -0.0775  0.7289
  348MPD2    C1 5266   0.959   3.827  12.020  0.5016  0.2786 -0.4492
  348MPD2    C2 5267   0.909   3.856  11.888  0.2041  0.8087  0.3720
  348MPD2    C3 5268   0.773   3.875  11.862 -0.3692  0.0342 -0.2404
  348MPD2    C4 5269   0.703   3.904  11.977 -1.0954  0.0759 -0.8945
  348MPD2    C5 5270   0.753   3.882  12.107  0.0237 -0.2289 -0.4020
  348MPD2     H 5271   0.987   3.850  11.814 -0.2333 -0.6948  0.0441
  348MPD2    H1 5272   0.598   3.925  11.964 -0.5798  2.4634 -1.2887
  348MPD2    H2 5273   0.914   3.813  12.226 -0.9489  0.8832  1.3935
  348MPD2    H3 5274   0.684   3.890  12.190 -0.7085 -2.0715 -0.8315
  348MPD2     N 5275   0.744   3.889  11.723 -0.3829  0.2090  0.2699
  348MPD2    H5 5276   0.819   3.891  11.655 -1.7978  0.1657 -1.3113
  348MPD2    N1 5277   1.094   3.788  12.030 -0.0737  0.2413 -0.1114
  348MPD2    H7 5278   1.154   3.797  11.949 -2.2005  0.4042 -1.6741
  349TMC3    C1 5279   1.279   3.686  12.118 -0.3755  0.3931 -0.2741
  349TMC3    C2 5280   1.312   3.560  12.163  0.7099  0.0765  0.4056
  349TMC3    C3 5281   1.383   3.480  12.074  0.0132 -0.5926 -1.1155
  349TMC3    C4 5282   1.332   3.732  12.003 -0.3902  0.6185  0.2987
  349TMC3    C5 5283   1.402   3.651  11.919  0.2494  0.1682  0.2224
  349TMC3    C6 5284   1.426   3.530  11.956 -0.4087  0.4404  0.4044
  349TMC3     C 5285   1.145   3.731  12.146  0.9685 -0.5799 -0.1998
  349TMC3     O 5286   1.090   3.690  12.245 -0.3219 -0.6127  0.0225
  349TMC3     H 5287   1.283   3.527  12.263  1.6169 -0.4197  0.5023
  349TMC3    H1 5288   1.307   3.834  11.976 -2.8345 -0.3088 -0.9964
  349TMC3    H2 5289   1.448   3.452  11.884  0.9734  1.2270 -0.0261
  349TMC3    C7 5290   1.352   3.660  11.787 -0.7597 -0.7657 -0.6637
  349TMC3    C8 5291   1.376   3.337  12.105  0.0931  0.1674 -0.1125
  349TMC3    O1 5292   1.237   3.705  11.783 -0.4626  0.0396  0.2758
  349TMC3    O2 5293   1.293   3.302  12.186  0.0390 -0.0743  0.7886
  350MPD2     C 5294   3.994   1.749   9.852  0.3545 -0.6090 -0.3450
  350MPD2    C1 5295   4.024   1.634   9.926  0.1308 -0.2714  0.6242
  350MPD2    C2 5296   4.120   1.649  10.027 -0.8314 -1.3295  0.0084
  350MPD2    C3 5297   4.186   1.769  10.042 -0.3320  0.2949  1.3098
  350MPD2    C4 5298   4.157   1.877   9.964 -0.6552 -0.5220 -0.3239
  350MPD2    C5 5299   4.058   1.869   9.876  0.1568  0.8613  0.0889
  350MPD2     H 5300   4.147   1.559  10.081  1.9470  0.2426  1.2426
  350MPD2    H1 5301   4.202   1.976   9.970 -0.2555 -0.5814 -2.3017
  350MPD2    H2 5302   3.914   1.763   9.781 -0.6262  2.1652  1.3040
  350MPD2    H3 5303   4.030   1.954   9.814  1.0517  1.1707  0.1046
  350MPD2     N 5304   4.285   1.773  10.143  0.1811  0.4444 -0.2888
  350MPD2    H5 5305   4.288   1.698  10.211 -0.3154  0.8407  0.1680
  350MPD2    N1 5306   3.980   1.501   9.903  0.2868 -0.6200 -0.0932
  350MPD2    H7 5307   4.024   1.426   9.955  0.5788  0.2295  0.8704
  351TMC3    C1 5308   3.848   1.333   9.803  0.5781 -0.0417 -0.5485
  351TMC3    C2 5309   3.938   1.239   9.851  0.5532  0.2910  0.0764
  351TMC3    C3 5310   3.888   1.115   9.878 -0.3481 -0.7304 -0.0539
  351TMC3    C4 5311   3.710   1.300   9.781  0.0338 -0.0819  0.1134
  351TMC3    C5 5312   3.676   1.174   9.813  0.8733 -0.8190 -0.8250
  351TMC3    C6 5313   3.761   1.079   9.854 -0.4974 -0.3844  0.0152
  351TMC3     C 5314   3.885   1.473   9.809 -0.2305  0.1790  0.1547
  351TMC3     O 5315   3.816   1.545   9.740 -0.1056  0.7433 -0.2684
  351TMC3     H 5316   4.044   1.254   9.835  0.8351  1.4646  3.1982
  351TMC3    H1 5317   3.642   1.377   9.749  0.7678  0.0412 -1.1408
  351TMC3    H2 5318   3.735   0.974   9.851 -1.9090  0.0029 -1.0404
  351TMC3    C7 5319   3.541   1.146   9.772 -0.2604  0.3194  0.0681
  351TMC3    C8 5320   3.987   1.011   9.906 -0.5807  1.2693  0.2595
  351TMC3    O1 5321   3.479   1.230   9.706  0.1864 -0.9033 -0.4670
  351TMC3    O2 5322   3.973   0.900   9.865 -0.1686  0.3142  0.3286
  352MPD2     C 5323   2.947   3.371   1.223  0.4662 -0.7078 -0.3000
  352MPD2    C1 5324   2.937   3.408   1.090  0.4185 -1.1097  0.1467
  352MPD2    C2 5325   3.025   3.349   1.004 -0.3144 -0.2774  0.2950
  352MPD2    C3 5326   3.124   3.261   1.038  0.5923 -0.2752 -0.4733
  352MPD2    C4 5327   3.129   3.224   1.171 -0.0317 -0.4604 -0.1574
  352MPD2    C5 5328   3.047   3.283   1.261 -0.6954 -0.7463  0.4627
  352MPD2     H 5329   3.015   3.375   0.899  3.2402 -2.1471 -0.5238
  352MPD2    H1 5330   3.204   3.153   1.204  2.4476  1.8484 -0.7885
  352MPD2    H2 5331   2.875   3.407   1.296 -0.9122 -4.6155  0.2695
  352MPD2    H3 5332   3.060   3.249   1.363  1.3802  0.4163  0.5804
  352MPD2     N 5333   3.203   3.191   0.943  0.0741  0.1243  0.3615
  352MPD2    H5 5334   3.262   3.111   0.964  0.7162  0.8198  1.2778
  352MPD2    N1 5335   2.854   3.506   1.028  0.5594 -0.4998  0.5336
  352MPD2    H7 5336   2.852   3.521   0.928  0.2012 -2.6369  0.2222
  353TMC3    C1 5337   3.286   3.124   0.735  0.5753  0.3143 -0.7370
  353TMC3    C2 5338   3.378   3.046   0.800  0.5558  0.4953 -0.2221
  353TMC3    C3 5339   3.374   2.914   0.763 -0.0833  0.3256  0.4669
  353TMC3    C4 5340   3.218   3.082   0.624 -0.5460  0.0700 -0.3014
  353TMC3    C5 5341   3.231   2.949   0.588  0.5195 -0.5493 -0.0853
  353TMC3    C6 5342   3.306   2.862   0.657 -0.2975 -0.7048 -0.5186
  353TMC3     C 5343   3.212   3.228   0.811  0.0885 -0.7192 -0.5329
  353TMC3     O 5344   3.169   3.319   0.734 -0.2993  0.2658 -0.1135
  353TMC3     H 5345   3.422   3.086   0.892  0.3729  2.0276 -0.7941
  353TMC3    H1 5346   3.145   3.150   0.582 -2.3673 -1.9367 -0.3168
  353TMC3    H2 5347   3.313   2.756   0.636 -0.8814 -0.9887  0.7235
  353TMC3    C7 5348   3.134   2.875   0.504 -0.4760 -0.3434  0.4850
  353TMC3    C8 5349   3.480   2.837   0.829 -0.5943  0.5445  0.3248
  353TMC3    O1 5350   3.140   2.754   0.489 -0.2169  0.0831  0.2672
  353TMC3    O2 5351   3.578   2.896   0.870 -0.2446  0.5416  0.2925
  354TMC3    C1 5352   4.384   4.721  13.154 -0.2815 -0.0263  0.4511
  354TMC3    C2 5353   4.418   0.111  13.197  0.9961  0.0274 -0.0754
  354TMC3    C3 5354   4.462   0.203  13.103  0.7396 -0.6044  0.2913
  354TMC3    C4 5355   4.434   4.675  13.033  1.0150 -0.1143 -0.0704
  354TMC3    C5 5356   4.484   0.035  12.945 -0.8508  0.1901  0.0065
  354TMC3    C6 5357   4.494   0.170  12.972 -0.4325  1.0197  1.0410
  354TMC3     C 5358   4.335   4.625  13.248 -0.9398  1.1210 -0.0923
  354TMC3     O 5359   4.285   4.674  13.348 -0.7449 -0.5503  0.0427
  354TMC3     H 5360   4.390   0.138  13.298 -0.2886  2.0419 -0.9814
  354TMC3    H1 5361   4.417   4.574  12.997 -0.1863 -1.0710  3.1951
  354TMC3    H2 5362   4.512   0.245  12.896  1.3031 -0.6339 -0.1651
  354TMC3    C7 5363   4.564   4.713  12.843  0.3315 -0.2354 -0.3403
  354TMC3    C8 5364   4.463   0.350  13.140  0.0799  0.0160 -0.2288
  354TMC3    O1 5365   4.537   4.601  12.799 -0.3333  0.1908  0.0428
  354TMC3    O2 5366   4.398   0.371  13.245  0.1354  0.1399 -0.0279
  355MPD2     C 5367   4.678   1.021  11.809 -0.2185  0.2011  0.0439
  355MPD2    C1 5368   0.014   1.090  11.714 -0.6684 -0.3490 -0.1993
  355MPD2    C2 5369   0.146   1.128  11.745 -0.1279 -0.2866  0.3958
  355MPD2    C3 5370   0.207   1.097  11.870  0.0713 -0.0289  0.4340
  355MPD2    C4 5371   0.135   1.020  11.954 -0.0118 -0.4034 -0.0558
  355MPD2    C5 5372   0.010   0.982  11.923 -0.1668 -0.6598 -0.2034
  355MPD2     H 5373   0.213   1.173  11.673 -0.6853  1.0278  0.7064
  355MPD2    H1 5374   0.174   0.969  12.042 -1.3476 -1.9162 -0.3432
  355MPD2    H2 5375   4.575   0.986  11.801 -0.1547  0.3896 -1.7160
  355MPD2    H3 5376   4.696   0.925  11.999 -1.1899 -0.9706 -1.1341
  355MPD2     N 5377   0.346   1.124  11.904  0.2598  0.1834 -0.2154
  355MPD2    H5 5378   0.371   1.087  11.995 -0.5880  0.2571  0.0481
  355MPD2    N1 5379   4.686   1.120  11.592 -0.2690 -0.0479 -0.0539
  355MPD2    H7 5380   4.589   1.089  11.588  0.0648 -1.3524  2.4597
  356TMC3    C1 5381   0.567   1.216  11.879 -0.0719 -0.7698 -0.3288
  356TMC3    C2 5382   0.646   1.303  11.804 -0.4642  0.3900  0.3282
  356TMC3    C3 5383   0.731   1.387  11.871  0.0228 -0.0277  0.0273
  356TMC3    C4 5384   0.567   1.227  12.020 -0.3281  0.0551  0.7950
  356TMC3    C5 5385   0.669   1.301  12.076 -0.1633 -0.0738  0.1507
  356TMC3    C6 5386   0.747   1.389  12.004 -0.6866  0.1837 -0.5778
  356TMC3     C 5387   0.443   1.168  11.816  0.8165  0.5774 -0.8586
  356TMC3     O 5388   0.451   1.167  11.694 -0.3356  0.2684  0.6595
  356TMC3     H 5389   0.636   1.305  11.696 -2.3143  1.8398  0.5087
  356TMC3    H1 5390   0.507   1.163  12.083 -0.6491  3.2039  3.7186
  356TMC3    H2 5391   0.838   1.423  12.053  1.6423 -1.1922 -3.9044
  356TMC3    C7 5392   0.723   1.268  12.205 -0.3954 -0.1764  0.0440
  356TMC3    C8 5393   0.834   1.444  11.783 -0.0476 -0.1387  0.5841
  356TMC3    O1 5394   0.707   1.151  12.236  0.0351 -0.2996 -0.1033
  356TMC3    O2 5395   0.845   1.408  11.667  0.0583 -0.0848 -0.3340
  357MPD2     C 5396   4.264   4.452   0.844 -0.1971 -0.6484  0.8681
  357MPD2    C1 5397   4.257   4.493   0.974 -0.7251 -0.4985 -0.3858
  357MPD2    C2 5398   4.147   4.472   1.052  0.1212  0.1882 -0.0526
  357MPD2    C3 5399   4.049   4.379   1.019 -0.7780  0.3978  0.6842
  357MPD2    C4 5400   4.050   4.341   0.886 -0.1757 -0.0204  0.5939
  357MPD2    C5 5401   4.155   4.375   0.803  0.5243  0.5886 -0.1223
  357MPD2     H 5402   4.131   4.521   1.148  1.0588 -0.7503  0.5819
  357MPD2    H1 5403   3.985   4.263   0.850  0.3780 -0.6663  0.9991
  357MPD2    H2 5404   4.344   4.472   0.773 -1.3041  1.8603  0.2838
  357MPD2    H3 5405   4.165   4.314   0.714  0.0346 -1.5330  1.2575
  357MPD2     N 5406   3.943   4.329   1.100 -0.1639 -0.0503  0.3602
  357MPD2    H5 5407   3.878   4.272   1.047  0.1940 -0.5265  0.4332
  357MPD2    N1 5408   4.355   4.586   1.017 -0.0256  0.6117 -0.8798
  357MPD2    H7 5409   4.415   4.628   0.946  1.3606 -0.1627 -0.1832
  358TMC3    C1 5410   4.466   4.732   1.176  0.3742 -0.3340  0.3482
  358TMC3    C2 5411   4.560   0.039   1.089  0.1862  0.2927 -0.6229
  358TMC3    C3 5412   4.628   0.152   1.120  0.5836  0.3907 -0.1634
  358TMC3    C4 5413   4.438   0.066   1.294  0.5876 -0.7681  0.9282
  358TMC3    C5 5414   4.501   0.176   1.319  0.1694  0.1093 -0.7689
  358TMC3    C6 5415   4.605   0.223   1.239  0.1355  1.0539  0.4744
  358TMC3     C 5416   4.372   4.623   1.152  0.2181 -0.6644 -0.1512
  358TMC3     O 5417   4.319   4.571   1.252 -0.5490  0.5357 -0.2138
  358TMC3     H 5418   4.577   4.714   1.002 -0.3295  0.3611 -0.7713
  358TMC3    H1 5419   4.364   0.029   1.364  1.3356  0.7690  2.5576
  358TMC3    H2 5420   4.648   0.320   1.256 -1.8876  2.3525 -1.8020
  358TMC3    C7 5421   4.438   0.276   1.413  0.0123 -0.2389  0.4113
  358TMC3    C8 5422   4.694   0.224   1.012  0.0434  0.6427 -0.7508
  358TMC3    O1 5423   4.509   0.366   1.449  0.6212 -0.1990  0.7995
  358TMC3    O2 5424   0.026   0.323   1.049  0.0600  0.2755  0.4953
  359MPD2     C 5425   0.496   3.974  12.590  0.1798 -0.2477 -0.0807
  359MPD2    C1 5426   0.434   4.017  12.472 -0.4532  0.8622 -0.8492
  359MPD2    C2 5427   0.298   4.001  12.449 -1.0759 -0.3645 -0.5739
  359MPD2    C3 5428   0.224   3.947  12.550 -0.2596  0.3004  0.1036
  359MPD2    C4 5429   0.283   3.913  12.665 -0.3792  0.2439 -0.3433
  359MPD2    C5 5430   0.415   3.925  12.691 -0.1912  0.3301 -0.0267
  359MPD2     H 5431   0.247   4.037  12.361  2.5728 -0.6705 -2.8071
  359MPD2    H1 5432   0.225   3.874  12.748 -0.6223  1.3516  0.0216
  359MPD2    H2 5433   0.604   3.979  12.602  0.1063 -1.4985  1.1008
  359MPD2    H3 5434   0.450   3.910  12.792  2.6937 -0.7423 -1.1956
  359MPD2     N 5435   0.084   3.903  12.531 -0.5301 -0.3119  0.0655
  359MPD2    H5 5436   0.034   3.889  12.618 -0.3871  0.6968  0.3104
  359MPD2    N1 5437   0.509   4.073  12.370  0.7711 -0.4395  0.1852
  359MPD2    H7 5438   0.472   4.067  12.276  2.5360  1.5597 -0.6672
  360TMC3    C1 5439   0.696   4.168  12.255 -0.2049 -0.5461 -0.1225
  360TMC3    C2 5440   0.830   4.169  12.244 -0.1668 -0.5227 -0.3997
  360TMC3    C3 5441   0.883   4.181  12.115 -0.5521  0.0925  1.3485
  360TMC3    C4 5442   0.614   4.214  12.159  0.0543  0.3794 -0.0823
  360TMC3    C5 5443   0.669   4.243  12.043 -0.4830 -0.1334 -0.0844
  360TMC3    C6 5444   0.804   4.224  12.010 -0.5762 -0.4161 -0.3698
  360TMC3     C 5445   0.639   4.117  12.377 -0.2646  0.5327 -0.6638
  360TMC3     O 5446   0.711   4.147  12.471 -0.5666  0.5612  0.1892
  360TMC3     H 5447   0.891   4.114  12.314  0.8017  1.8124  0.6199
  360TMC3    H1 5448   0.507   4.222  12.178 -0.0687  2.6866 -1.6537
  360TMC3    H2 5449   0.853   4.258  11.920 -0.7201 -0.1603 -0.3517
  360TMC3    C7 5450   0.583   4.279  11.926  0.0614 -0.2601  0.6108
  360TMC3    C8 5451   1.023   4.177  12.105  0.0092  0.3569 -0.0992
  360TMC3    O1 5452   0.637   4.356  11.847 -0.4045 -0.2597  0.1772
  360TMC3    O2 5453   1.081   4.179  12.211 -0.4043  0.1075  0.0851
  361MPD2     C 5454   1.925   3.164  16.650  0.1192 -0.2229  0.1397
  361MPD2    C1 5455   1.898   3.149  16.787 -0.1727  0.5166  0.3020
  361MPD2    C2 5456   1.981   3.075  16.862  0.1092  0.4445  0.0038
  361MPD2    C3 5457   2.082   3.013  16.792 -0.1936  0.0320  0.0346
  361MPD2    C4 5458   2.116   3.024  16.656  0.6928 -0.1364 -0.2369
  361MPD2    C5 5459   2.035   3.110  16.591 -0.8877 -0.6216  0.2486
  361MPD2     H 5460   1.970   3.055  16.968  2.8410 -2.3647 -0.2611
  361MPD2    H1 5461   2.195   2.967  16.609  1.0096 -0.6470  0.9246
  361MPD2    H2 5462   1.869   3.220  16.575  0.7482 -0.6277 -0.6320
  361MPD2    H3 5463   2.050   3.133  16.486 -1.6927  2.5544  0.8188
  361MPD2     N 5464   2.164   2.921  16.863 -0.6643 -0.7580 -0.8372
  361MPD2    H5 5465   2.226   2.864  16.807 -0.2352 -0.5393 -0.5878
  361MPD2    N1 5466   1.780   3.193  16.844 -0.0372  0.2282  0.4936
  361MPD2    H7 5467   1.761   3.182  16.943  0.2372  1.0473  0.6390
  362TMC3    C1 5468   1.558   3.251  16.846  0.2175  0.4561  0.2768
  362TMC3    C2 5469   1.574   3.352  16.938 -0.3811 -0.2896 -0.3982
  362TMC3    C3 5470   1.485   3.453  16.948  0.4740 -0.1670 -0.2422
  362TMC3    C4 5471   1.443   3.255  16.762  0.3220 -0.3902 -0.1980
  362TMC3    C5 5472   1.368   3.372  16.758  0.1647 -0.3547 -0.0467
  362TMC3    C6 5473   1.386   3.471  16.854  0.1779  0.9006  0.4264
  362TMC3     C 5474   1.669   3.206  16.767  0.2913  0.0848  0.0299
  362TMC3     O 5475   1.648   3.189  16.650 -0.4155  0.0402  0.3892
  362TMC3     H 5476   1.640   3.347  17.024 -1.3885 -1.4153  0.3067
  362TMC3    H1 5477   1.415   3.174  16.696  1.4258  0.1557 -1.3379
  362TMC3    H2 5478   1.325   3.560  16.864  1.8702  2.1393 -0.2185
  362TMC3    C7 5479   1.341   3.427  16.630 -0.6834  0.6221 -0.2959
  362TMC3    C8 5480   1.479   3.526  17.063 -0.8493  0.3271  0.1296
  362TMC3    O1 5481   1.247   3.508  16.636 -0.5839 -0.1407  0.1109
  362TMC3    O2 5482   1.590   3.548  17.108  0.0821  0.3441 -0.5836
  363TMC3    C1 5483   4.661   0.590   9.453 -0.3000 -0.2987  0.5182
  363TMC3    C2 5484   0.038   0.565   9.527 -0.8452  0.3992 -0.0965
  363TMC3    C3 5485   0.050   0.630   9.646  0.2091 -0.6711  0.2088
  363TMC3    C4 5486   4.575   0.691   9.490  0.4225 -0.3631 -0.2305
  363TMC3    C5 5487   4.597   0.756   9.610  0.3795  0.5493 -0.5758
  363TMC3    C6 5488   4.698   0.725   9.691 -0.2224  0.1567 -0.3310
  363TMC3     C 5489   4.678   0.547   9.315 -0.2586 -0.8376  0.0928
  363TMC3     O 5490   4.630   0.616   9.227  0.0201 -0.0880  0.1540
  363TMC3     H 5491   0.117   0.496   9.502 -0.5229  1.0637 -0.9074
  363TMC3    H1 5492   4.501   0.719   9.415 -1.6117  0.6316  2.1616
  363TMC3    H2 5493   4.706   0.771   9.788  0.6976 -2.1137  0.6541
  363TMC3    C7 5494   4.529   0.885   9.641 -0.5670  0.0577  0.1784
  363TMC3    C8 5495   0.174   0.620   9.725 -0.1615  0.3982  0.6786
  363TMC3    O1 5496   4.598   0.963   9.705  0.0282 -0.0897  1.4269
  363TMC3    O2 5497   0.180   0.706   9.813  0.5368  0.1693 -0.0145
  364MPD2     C 5498   4.086   0.552  10.881  0.1039 -0.2254  0.1057
  364MPD2    C1 5499   4.118   0.498  10.758 -0.1810 -0.1723 -0.1113
  364MPD2    C2 5500   4.093   0.360  10.731  0.2319  0.2535 -0.3528
  364MPD2    C3 5501   4.041   0.279  10.834 -0.1666  0.7455 -1.1286
  364MPD2    C4 5502   4.013   0.340  10.959 -0.6638  0.2849  0.1580
  364MPD2    C5 5503   4.028   0.476  10.984  0.7694 -0.0230  0.1050
  364MPD2     H 5504   4.123   0.311  10.639  1.5190  1.5510 -0.6234
  364MPD2    H1 5505   3.973   0.292  11.048  1.6664 -0.3172  0.8800
  364MPD2    H2 5506   4.111   0.655  10.903  0.2744 -0.3179  0.3485
  364MPD2    H3 5507   3.992   0.521  11.076  2.0073 -0.1585  0.6467
  364MPD2     N 5508   4.024   0.146  10.832  0.3698  0.2061 -0.2792
  364MPD2    H5 5509   3.959   0.106  10.900 -0.2599  0.9896 -0.4255
  364MPD2    N1 5510   4.184   0.588  10.668  0.1644 -0.1104  0.4114
  364MPD2    H7 5511   4.206   0.674  10.718  0.6116 -1.0638  1.8476
  365TMC3    C1 5512   4.309   0.666  10.484  0.1395  0.5756  0.2904
  365TMC3    C2 5513   4.413   0.633  10.405 -0.2115 -0.0824 -0.0718
  365TMC3    C3 5514   4.512   0.723  10.387 -0.5210  1.0451  0.8749
  365TMC3    C4 5515   4.287   0.792  10.526  0.5338 -0.8944 -0.9114
  365TMC3    C5 5516   4.382   0.886  10.496 -0.5368 -0.3666 -0.3017
  365TMC3    C6 5517   4.500   0.851  10.428 -0.9413  0.7900  0.2065
  365TMC3     C 5518   4.238   0.556  10.548 -0.4152  0.2614 -0.2607
  365TMC3     O 5519   4.241   0.447  10.493 -0.4273 -0.4008 -0.6033
  365TMC3     H 5520   4.430   0.528  10.383 -0.0008  0.0953 -0.7806
  365TMC3    H1 5521   4.196   0.811  10.582  2.1076  0.7996  1.0739
  365TMC3    H2 5522   4.574   0.923  10.394 -0.1813  1.0311  2.3484
  365TMC3    C7 5523   4.356   1.030  10.509  0.3487  0.5115 -0.5552
  365TMC3    C8 5524   4.645   0.685  10.344  0.1731  0.1478 -0.5550
  365TMC3    O1 5525   4.396   1.107  10.424 -0.1520 -0.0942 -0.2977
  365TMC3    O2 5526   4.729   0.768  10.317  0.3247 -0.4247 -0.2161
  366MPD2     C 5527   2.111   0.929  15.320  0.6854  0.2746  0.6264
  366MPD2    C1 5528   2.111   1.043  15.246  0.2469  0.1452  1.4030
  366MPD2    C2 5529   2.230   1.088  15.200 -0.4377 -0.2716 -0.3957
  366MPD2    C3 5530   2.355   1.032  15.233 -0.8391 -0.3757  0.0436
  366MPD2    C4 5531   2.354   0.914  15.310  0.5073  0.2788  0.0453
  366MPD2    C5 5532   2.230   0.863  15.345 -0.0707 -0.2485  0.2184
  366MPD2     H 5533   2.236   1.188  15.158  0.2466 -1.6780 -3.6134
  366MPD2    H1 5534   2.446   0.869  15.347  0.9692  0.8939 -0.3547
  366MPD2    H2 5535   2.016   0.906  15.368  1.3197 -1.1175  1.2122
  366MPD2    H3 5536   2.241   0.786  15.421  0.8979 -0.3786 -0.0477
  366MPD2     N 5537   2.474   1.116  15.220 -0.6713  0.1661  0.2490
  366MPD2    H5 5538   2.469   1.206  15.174  2.2089  0.3167  0.2609
  366MPD2    N1 5539   1.999   1.128  15.225  0.2269 -0.6026  0.3787
  366MPD2    H7 5540   2.017   1.213  15.173  0.1610 -0.3211  0.8135
  367TMC3    C1 5541   1.803   1.239  15.282 -0.1564 -0.0787  0.1309
  367TMC3    C2 5542   1.794   1.319  15.388  0.3958 -0.2222  0.7721
  367TMC3    C3 5543   1.765   1.455  15.384 -0.5432 -1.2300  0.1570
  367TMC3    C4 5544   1.782   1.285  15.158 -0.1500 -0.6996  0.5636
  367TMC3    C5 5545   1.741   1.414  15.151 -0.2161  0.0725 -0.1564
  367TMC3    C6 5546   1.751   1.508  15.259  0.2098  0.5797  0.3614
  367TMC3     C 5547   1.882   1.120  15.293  0.1035  0.3985 -0.6039
  367TMC3     O 5548   1.845   1.039  15.375  0.3641 -0.0569 -0.6267
  367TMC3     H 5549   1.819   1.275  15.483  0.7117 -0.7993  0.4187
  367TMC3    H1 5550   1.779   1.214  15.076 -0.7801  0.2100 -0.1953
  367TMC3    H2 5551   1.735   1.613  15.236  1.6782  0.4943 -1.0508
  367TMC3    C7 5552   1.694   1.464  15.021 -0.4363 -0.0758 -0.5116
  367TMC3    C8 5553   1.858   1.534  15.462 -0.0913 -0.3144 -0.4517
  367TMC3    O1 5554   1.624   1.383  14.961  0.3423 -0.2642 -0.2945
  367TMC3    O2 5555   1.947   1.468  15.510  0.7933 -0.8121 -0.2237
  368MPD2     C 5556   3.448   2.967  12.848 -1.8733  0.3270  0.0786
  368MPD2    C1 5557   3.528   3.079  12.854 -0.1190 -0.2781  0.8587
  368MPD2    C2 5558   3.671   3.067  12.829 -0.2382  0.0179 -0.1884
  368MPD2    C3 5559   3.716   2.945  12.801 -0.2729  0.2660 -0.0696
  368MPD2    C4 5560   3.629   2.839  12.790 -0.1085 -0.3718 -0.9199
  368MPD2    C5 5561   3.500   2.846  12.821  0.0838 -0.6707  0.2382
  368MPD2     H 5562   3.740   3.150  12.842  0.8497 -0.8835 -0.1689
  368MPD2    H1 5563   3.671   2.741  12.772 -1.1081 -1.3758  2.2492
  368MPD2    H2 5564   3.341   2.968  12.866 -1.9634  1.1712 -0.5236
  368MPD2    H3 5565   3.442   2.754  12.825  0.2154 -0.8023 -1.0034
  368MPD2     N 5566   3.854   2.919  12.777  0.2142 -0.9247 -0.7710
  368MPD2    H5 5567   3.876   2.829  12.736 -0.4392 -1.1547 -0.6196
  368MPD2    N1 5568   3.464   3.194  12.898 -0.3031 -0.2553 -0.4342
  368MPD2    H7 5569   3.366   3.180  12.917 -0.1579 -1.2339 -0.4363
  369TMC3    C1 5570   3.431   3.418  12.956  0.2912 -0.3554  0.6833
  369TMC3    C2 5571   3.479   3.542  12.940  0.0668 -0.0823  0.6792
  369TMC3    C3 5572   3.429   3.638  13.022 -0.1650  0.6692  0.0020
  369TMC3    C4 5573   3.333   3.382  13.046 -0.4623 -0.3978 -0.0464
  369TMC3    C5 5574   3.278   3.485  13.110  0.0271 -0.0115 -0.1219
  369TMC3    C6 5575   3.323   3.610  13.105 -0.2496 -0.6124  0.3016
  369TMC3     C 5576   3.522   3.321  12.908 -0.6119  0.1983  0.2777
  369TMC3     O 5577   3.634   3.358  12.881  0.0475  0.1733 -0.4437
  369TMC3     H 5578   3.551   3.570  12.864 -0.3258  2.0748  1.0824
  369TMC3    H1 5579   3.306   3.280  13.074  1.0788 -0.7576  0.0912
  369TMC3    H2 5580   3.296   3.687  13.176  1.8477 -0.6503  1.1325
  369TMC3    C7 5581   3.159   3.453  13.180  0.6699 -0.2183  0.1159
  369TMC3    C8 5582   3.445   3.778  12.980  0.2570 -0.5088  0.3563
  369TMC3    O1 5583   3.167   3.347  13.245 -0.7832 -0.0597  0.2942
  369TMC3    O2 5584   3.341   3.841  12.994  0.0908 -0.2066 -0.1914
  370TMC3    C1 5585   3.116   3.871  16.225  0.3314  0.2861  0.4216
  370TMC3    C2 5586   3.009   3.815  16.277  0.5932  0.8106  0.4021
  370TMC3    C3 5587   2.938   3.720  16.210  0.1501 -0.1000 -0.2339
  370TMC3    C4 5588   3.154   3.859  16.092  0.7780 -0.5171  0.1681
  370TMC3    C5 5589   3.079   3.767  16.025  0.6902 -0.2182  0.4302
  370TMC3    C6 5590   2.973   3.695  16.082  0.6492 -0.2454  0.0151
  370TMC3     C 5591   3.200   3.945  16.317 -0.2306  0.1312 -0.1823
  370TMC3     O 5592   3.185   3.927  16.435 -0.5847 -0.3570  1.1111
  370TMC3     H 5593   2.991   3.827  16.383 -1.0284  1.6190  0.0290
  370TMC3    H1 5594   3.252   3.892  16.057 -0.0149  3.2015  1.4576
  370TMC3    H2 5595   2.908   3.632  16.022  1.0989 -0.1495 -0.5674
  370TMC3    C7 5596   3.146   3.709  15.915 -0.4869 -0.8753  0.3122
  370TMC3    C8 5597   2.843   3.629  16.284  0.0803  0.6180 -0.6152
  370TMC3    O1 5598   3.225   3.776  15.858 -0.7964  0.4383 -0.9425
  370TMC3    O2 5599   2.805   3.523  16.237  0.4855  0.0880  0.1797
  371TMC3    C1 5600   4.379   2.216  15.671 -0.1402 -0.1736  0.0869
  371TMC3    C2 5601   4.257   2.247  15.719 -0.3233 -0.5003 -0.5747
  371TMC3    C3 5602   4.190   2.353  15.658  0.1014 -0.8020  0.7640
  371TMC3    C4 5603   4.445   2.284  15.574 -0.0905  0.2818  0.2855
  371TMC3    C5 5604   4.373   2.378  15.506  0.0591  0.1498  0.0785
  371TMC3    C6 5605   4.255   2.429  15.558 -0.4745  0.3405 -0.3650
  371TMC3     C 5606   4.457   2.106  15.733 -0.1258  0.3335 -0.6672
  371TMC3     O 5607   4.580   2.122  15.735  0.2467  0.2225 -0.1023
  371TMC3     H 5608   4.224   2.208  15.815  0.0558  1.1892  0.2332
  371TMC3    H1 5609   4.540   2.246  15.539 -0.3661 -0.3145  0.1794
  371TMC3    H2 5610   4.201   2.505  15.502 -0.8126 -1.1962 -2.1046
  371TMC3    C7 5611   4.443   2.459  15.407  0.4717 -0.0112 -0.2791
  371TMC3    C8 5612   4.050   2.381  15.691  0.1526 -0.3031  0.4451
  371TMC3    O1 5613   4.405   2.574  15.390 -0.0938 -0.4288 -0.0859
  371TMC3    O2 5614   4.010   2.490  15.654 -0.3739  0.3079 -1.0207
  372MPD2     C 5615   3.688   3.928  13.241 -0.4635  0.1380 -0.1859
  372MPD2    C1 5616   3.770   3.821  13.270  0.6136 -0.6065 -0.4785
  372MPD2    C2 5617   3.720   3.701  13.305 -0.3204  0.1789  0.0380
  372MPD2    C3 5618   3.585   3.691  13.340  0.0944  0.0417 -0.1234
  372MPD2    C4 5619   3.504   3.809  13.327 -1.0508 -0.0277 -0.0577
  372MPD2    C5 5620   3.554   3.917  13.275 -0.2368  0.1389 -0.4995
  372MPD2     H 5621   3.789   3.623  13.332 -0.1039  0.2207 -0.3819
  372MPD2    H1 5622   3.400   3.827  13.353 -1.3902 -2.4779  0.3536
  372MPD2    H2 5623   3.723   4.019  13.194  0.9744 -0.7079 -0.7461
  372MPD2    H3 5624   3.486   3.994  13.241 -1.4143 -1.0136 -0.8071
  372MPD2     N 5625   3.528   3.568  13.386 -0.7556 -0.1656  0.2757
  372MPD2    H5 5626   3.586   3.485  13.373 -4.2346 -2.2188 -2.3041
  372MPD2    N1 5627   3.911   3.821  13.241  0.3656  1.5305 -0.2423
  372MPD2    H7 5628   3.972   3.740  13.258 -0.5488  1.1821  1.4346
  373TMC3    C1 5629   3.397   3.414  13.499  0.0030  0.0488 -0.6122
  373TMC3    C2 5630   3.304   3.385  13.590  0.3187 -0.2080 -0.4492
  373TMC3    C3 5631   3.310   3.272  13.664  0.5917 -0.6560 -0.3041
  373TMC3    C4 5632   3.504   3.333  13.476  0.4764 -0.4187  0.0426
  373TMC3    C5 5633   3.511   3.216  13.549 -0.0834  0.0407  0.6628
  373TMC3    C6 5634   3.420   3.190  13.647 -0.4984  0.4503 -0.6519
  373TMC3     C 5635   3.403   3.549  13.441  0.3638 -0.1055  0.0621
  373TMC3     O 5636   3.322   3.637  13.472 -0.6178  0.6569 -0.1603
  373TMC3     H 5637   3.223   3.456  13.605 -2.0529 -2.9083 -0.4141
  373TMC3    H1 5638   3.576   3.344  13.395  1.1756  0.5990  0.7940
  373TMC3    H2 5639   3.433   3.103  13.710  0.6376  0.7309 -0.4988
  373TMC3    C7 5640   3.622   3.131  13.522  0.5171 -0.2554  0.1018
  373TMC3    C8 5641   3.278   3.294  13.803  0.2770 -0.3545  0.1009
  373TMC3    O1 5642   3.725   3.174  13.474 -0.6540 -0.0430 -0.4946
  373TMC3    O2 5643   3.179   3.366  13.826  0.5134  0.3969 -0.0760
  374TMC3    C1 5644   3.984   3.753   9.995 -0.5746 -0.5533 -0.5499
  374TMC3    C2 5645   4.050   3.857  10.057 -0.5427 -0.4768  0.2281
  374TMC3    C3 5646   4.049   3.982   9.995 -0.5393  0.5177 -0.1332
  374TMC3    C4 5647   3.919   3.768   9.867 -0.2690  0.5317 -0.8903
  374TMC3    C5 5648   3.946   3.887   9.810  0.7065 -0.0794  0.3410
  374TMC3    C6 5649   3.991   4.002   9.875  0.1379  0.5978 -0.8438
  374TMC3     C 5650   3.986   3.617  10.045  0.7498  0.1674  0.1993
  374TMC3     O 5651   3.899   3.541  10.008  0.2812 -0.6324 -0.1486
  374TMC3     H 5652   4.105   3.830  10.147 -2.8404 -0.4498  1.6602
  374TMC3    H1 5653   3.864   3.686   9.823 -3.9527  3.0568 -0.9778
  374TMC3    H2 5654   4.013   4.094   9.823  0.1625  0.9667 -0.1795
  374TMC3    C7 5655   3.916   3.906   9.669 -0.4019  0.7238 -0.1442
  374TMC3    C8 5656   4.128   4.101  10.045  0.1089  0.2803  0.8666
  374TMC3    O1 5657   3.914   4.019   9.628  0.0268  0.2257 -0.1088
  374TMC3    O2 5658   4.106   4.212  10.007  0.2746  0.2838 -0.1063
  375MPD2     C 5659   4.223   3.833  17.285 -0.5212  0.4530 -0.3547
  375MPD2    C1 5660   4.162   3.914  17.195 -0.6997 -0.1998  0.1713
  375MPD2    C2 5661   4.204   3.920  17.066  0.6487 -0.3673 -0.1716
  375MPD2    C3 5662   4.304   3.841  17.013  0.5944 -0.2093 -0.1329
  375MPD2    C4 5663   4.362   3.750  17.099 -0.7047 -0.0581  0.1025
  375MPD2    C5 5664   4.318   3.748  17.231  0.0131  0.0445 -0.3661
  375MPD2     H 5665   4.165   4.000  17.004  0.0753 -0.9127 -0.5138
  375MPD2    H1 5666   4.450   3.691  17.076 -2.1689 -1.9194 -0.7557
  375MPD2    H2 5667   4.202   3.832  17.391 -1.2050  1.3325 -0.4779
  375MPD2    H3 5668   4.370   3.673  17.289  0.6572  1.6329  1.1110
  375MPD2     N 5669   4.327   3.830  16.875 -0.3557 -0.7935 -0.0460
  375MPD2    H5 5670   4.397   3.759  16.859 -0.0944 -0.9351  1.7120
  375MPD2    N1 5671   4.051   3.996  17.232  0.2308 -0.0021  0.5988
  375MPD2    H7 5672   4.006   4.054  17.161  0.0260 -2.7123 -1.4901
  376TMC3    C1 5673   4.340   3.894  16.639 -0.1750 -0.0343  0.4051
  376TMC3    C2 5674   4.471   3.865  16.622 -0.4361 -0.5703  0.0951
  376TMC3    C3 5675   4.527   3.857  16.500  0.1720 -0.3552  0.2777
  376TMC3    C4 5676   4.250   3.901  16.530  0.0497 -0.0250 -0.3726
  376TMC3    C5 5677   4.306   3.900  16.408 -0.3184 -0.2617  0.3308
  376TMC3    C6 5678   4.441   3.870  16.387 -0.5643  0.6676 -0.4458
  376TMC3     C 5679   4.273   3.903  16.771  0.0922 -0.4485 -0.0865
  376TMC3     O 5680   4.167   3.965  16.777 -0.4523  0.6408  0.0870
  376TMC3     H 5681   4.537   3.868  16.708 -2.0699 -0.7317  1.3510
  376TMC3    H1 5682   4.149   3.937  16.546  0.9917  2.7670 -0.5945
  376TMC3    H2 5683   4.477   3.888  16.287 -1.1384  0.2965 -0.7221
  376TMC3    C7 5684   4.256   3.997  16.304  0.4185 -0.1190 -0.2629
  376TMC3    C8 5685   4.656   3.914  16.483  0.5117  0.7320  1.1604
  376TMC3    O1 5686   4.241   4.110  16.346 -0.0916  0.5943  0.0295
  376TMC3    O2 5687   4.680   3.971  16.379  0.0798 -0.3110  0.2778
  377MPD2     C 5688   2.303   4.123  13.086  0.5071  0.5272 -0.1094
  377MPD2    C1 5689   2.398   4.024  13.055 -0.6440  0.1777  0.0209
  377MPD2    C2 5690   2.402   3.917  13.139 -0.0425  0.0494 -0.3319
  377MPD2    C3 5691   2.312   3.905  13.247  0.0593  0.0965  0.4255
  377MPD2    C4 5692   2.214   3.998  13.275 -0.3107  0.7632 -0.8620
  377MPD2    C5 5693   2.216   4.108  13.190  0.2699  0.2297  0.1803
  377MPD2     H 5694   2.474   3.839  13.114  0.3834 -0.2484  1.8420
  377MPD2    H1 5695   2.139   3.984  13.352  1.7162 -1.1660  0.7507
  377MPD2    H2 5696   2.303   4.220  13.038 -1.4021 -0.3992 -1.9757
  377MPD2    H3 5697   2.137   4.180  13.211  1.1587  1.2526 -0.0154
  377MPD2     N 5698   2.321   3.797  13.334 -0.4693  0.1941  0.2246
  377MPD2    H5 5699   2.267   3.806  13.419 -0.4331  0.0665  0.2618
  377MPD2    N1 5700   2.475   4.042  12.935  0.1857 -0.1790 -0.5964
  377MPD2    H7 5701   2.459   4.126  12.881  0.2369 -0.6103 -1.2752
  378TMC3    C1 5702   2.652   4.112  12.578 -0.0912 -0.2364 -0.1590
  378TMC3    C2 5703   2.587   4.084  12.692  0.5520  0.1139  0.2290
  378TMC3    C3 5704   2.658   4.006  12.786  0.1573 -0.3952  0.0953
  378TMC3    C4 5705   2.784   4.075  12.555 -0.2950 -0.3844 -0.2955
  378TMC3    C5 5706   2.847   4.010  12.657  0.0014 -0.0779  0.2112
  378TMC3    C6 5707   2.784   3.966  12.767 -0.2034  0.6206 -0.0710
  378TMC3     C 5708   2.596   4.202  12.480 -0.0669 -0.4824  0.1990
  378TMC3     O 5709   2.497   4.263  12.519  0.4904 -0.1108 -0.1151
  378TMC3     H 5710   2.482   4.109  12.704  0.8628  1.5196  0.0629
  378TMC3    H1 5711   2.849   4.122  12.482 -0.2599  0.3559  0.2148
  378TMC3    H2 5712   2.825   3.915  12.854  2.5821 -0.1022 -1.7987
  378TMC3    C7 5713   2.991   3.982  12.652  0.5006  0.4975  0.0871
  378TMC3    C8 5714   2.580   3.961  12.902  0.1829 -0.3880  0.0116
  378TMC3    O1 5715   3.031   3.942  12.760  0.0732  0.6841 -0.3501
  378TMC3    O2 5716   2.634   3.863  12.952  0.2565  0.0253  0.1823
  379MPD2     C 5717   2.651   1.773  16.318  0.0749 -0.0330 -0.3870
  379MPD2    C1 5718   2.704   1.705  16.218  0.4432 -0.0230  0.4395
  379MPD2    C2 5719   2.785   1.595  16.248 -0.3344 -0.5475 -0.4350
  379MPD2    C3 5720   2.832   1.576  16.380  0.1770 -0.4364 -0.8283
  379MPD2    C4 5721   2.774   1.651  16.480 -0.1331  0.0442  0.1556
  379MPD2    C5 5722   2.678   1.744  16.448  0.1958  0.5069  0.1589
  379MPD2     H 5723   2.823   1.538  16.164  0.3140  0.6956 -0.9917
  379MPD2    H1 5724   2.801   1.640  16.584 -0.7980 -0.1808  0.3030
  379MPD2    H2 5725   2.586   1.858  16.306 -1.6904 -1.0864  1.6486
  379MPD2    H3 5726   2.632   1.800  16.528 -2.6697 -1.5768 -0.0323
  379MPD2     N 5727   2.920   1.475  16.414 -0.5569  0.4506  0.0228
  379MPD2    H5 5728   2.945   1.470  16.512 -1.0599 -0.3579  0.1194
  379MPD2    N1 5729   2.654   1.739  16.090  0.0780 -0.0522  0.5604
  379MPD2    H7 5730   2.588   1.817  16.092  2.1147  1.6664  0.6274
  380TMC3    C1 5731   2.611   1.732  15.853 -0.1890 -0.5526 -0.2358
  380TMC3    C2 5732   2.686   1.729  15.737 -0.5494 -0.3183  0.0603
  380TMC3    C3 5733   2.627   1.782  15.624  0.6208 -0.0310 -0.4984
  380TMC3    C4 5734   2.494   1.805  15.865  0.0541  0.4141  0.1010
  380TMC3    C5 5735   2.445   1.858  15.749 -0.0353 -0.6563  0.7420
  380TMC3    C6 5736   2.504   1.836  15.626  0.0491 -0.0033 -0.5752
  380TMC3     C 5737   2.678   1.672  15.973  0.1670  0.4720 -0.3990
  380TMC3     O 5738   2.772   1.598  15.952  0.1486 -0.4957  0.5900
  380TMC3     H 5739   2.784   1.682  15.735 -0.1201  0.6308 -0.9773
  380TMC3    H1 5740   2.447   1.815  15.962 -1.1298  2.6838 -0.7057
  380TMC3    H2 5741   2.474   1.867  15.526  0.2741 -0.9852 -0.9486
  380TMC3    C7 5742   2.309   1.898  15.758  0.3537  0.2212 -0.2929
  380TMC3    C8 5743   2.700   1.786  15.499 -0.3412  0.4677 -0.0363
  380TMC3    O1 5744   2.267   1.948  15.861  0.5316 -0.7037 -0.2419
  380TMC3    O2 5745   2.688   1.875  15.420 -0.6167 -0.2562 -0.1213
  381TMC3    C1 5746   2.782   2.881  15.984  1.1932  0.6555  0.5422
  381TMC3    C2 5747   2.879   2.978  15.994 -0.5590  0.3022 -0.8864
  381TMC3    C3 5748   2.910   3.035  16.114 -0.4692 -0.2915  0.6071
  381TMC3    C4 5749   2.708   2.850  16.098 -0.4023  0.8792  0.3004
  381TMC3    C5 5750   2.740   2.910  16.220 -0.1922  0.0586 -0.6239
  381TMC3    C6 5751   2.834   3.010  16.226  0.6089 -0.6244  0.5034
  381TMC3     C 5752   2.795   2.786  15.886  0.4522  0.0385  0.3174
  381TMC3     O 5753   2.739   2.677  15.910  0.0255  0.0175  0.3289
  381TMC3     H 5754   2.922   3.021  15.904 -0.5862  2.1936  0.0047
  381TMC3    H1 5755   2.636   2.769  16.093  1.4802 -0.8542  1.0679
  381TMC3    H2 5756   2.854   3.048  16.326 -0.6178 -1.5835  1.1135
  381TMC3    C7 5757   2.677   2.862  16.343 -0.3071  0.5988  0.1026
  381TMC3    C8 5758   3.004   3.138  16.110  0.4623  0.7148  0.1771
  381TMC3    O1 5759   2.641   2.743  16.339  0.1398  0.4143  0.1210
  381TMC3    O2 5760   3.080   3.130  16.015 -0.3626 -0.4978  0.3779
  382MPD2     C 5761   2.470   0.350  17.350  0.1434 -0.1819 -0.5971
  382MPD2    C1 5762   2.331   0.364  17.355 -0.0722  0.2418  0.2210
  382MPD2    C2 5763   2.251   0.254  17.346  0.5477  0.9137 -0.2318
  382MPD2    C3 5764   2.305   0.129  17.328 -0.2348  0.1758  0.4026
  382MPD2    C4 5765   2.444   0.117  17.333  0.4715 -0.5092  0.4991
  382MPD2    C5 5766   2.528   0.228  17.332 -0.2553  0.5277  0.2610
  382MPD2     H 5767   2.147   0.284  17.337  0.0220 -0.7271  0.4586
  382MPD2    H1 5768   2.478   0.015  17.323 -0.0270 -0.5664 -0.5883
  382MPD2    H2 5769   2.541   0.429  17.372 -0.3638  0.1052  0.0255
  382MPD2    H3 5770   2.636   0.216  17.326 -0.5171 -1.3526 -0.8150
  382MPD2     N 5771   2.229   0.014  17.300 -0.2858 -0.2981  0.8114
  382MPD2    H5 5772   2.286   4.671  17.273  2.3149  2.5757 -2.3688
  382MPD2    N1 5773   2.274   0.491  17.382 -0.7032 -0.5109 -0.2739
  382MPD2    H7 5774   2.173   0.491  17.396 -0.4295 -0.8020  1.6354
  383TMC3    C1 5775   2.040   4.623  17.249  0.8895 -0.1582 -0.5956
  383TMC3    C2 5776   1.914   4.616  17.195 -0.2850  0.2001 -0.2285
  383TMC3    C3 5777   1.853   4.494  17.180  0.0130  0.4053 -0.3762
  383TMC3    C4 5778   2.105   4.505  17.277 -0.7072 -0.8834  0.4478
  383TMC3    C5 5779   2.043   4.385  17.249  0.1628  0.8102  0.0734
  383TMC3    C6 5780   1.913   4.375  17.206 -0.6204 -0.1305  0.3943
  383TMC3     C 5781   2.093   0.012  17.298 -0.2952 -0.0505 -0.2325
  383TMC3     O 5782   2.009   0.087  17.345  0.1971 -0.2257  0.2893
  383TMC3     H 5783   1.862   4.707  17.169 -0.3177  0.7483  1.7607
  383TMC3    H1 5784   2.199   4.498  17.330  0.1637 -1.4305 -1.1754
  383TMC3    H2 5785   1.873   4.278  17.179  0.7114  0.0775 -2.2315
  383TMC3    C7 5786   2.118   4.267  17.289  1.0025 -0.1312 -0.3361
  383TMC3    C8 5787   1.733   4.496  17.102  0.2699  0.4482 -0.0657
  383TMC3    O1 5788   2.242   4.279  17.289 -0.0018 -0.3034  0.1444
  383TMC3    O2 5789   1.696   4.608  17.065  0.5115 -0.4088 -0.0451
  384MPD2     C 5790   3.804   2.259  11.991  1.0456 -0.4069  0.5197
  384MPD2    C1 5791   3.886   2.235  12.101  0.2823  0.3253 -0.5706
  384MPD2    C2 5792   4.016   2.199  12.083 -0.3285 -0.6742  0.4092
  384MPD2    C3 5793   4.067   2.191  11.956  0.3807 -0.1237 -0.0358
  384MPD2    C4 5794   3.982   2.198  11.850 -0.3409 -0.1744 -0.0702
  384MPD2    C5 5795   3.847   2.227  11.868 -1.2014  0.1550  0.6134
  384MPD2     H 5796   4.084   2.186  12.166 -1.9791 -2.3473  1.4856
  384MPD2    H1 5797   4.026   2.185  11.752  4.8387  0.3659  2.1930
  384MPD2    H2 5798   3.703   2.299  12.000  0.1668 -2.4153 -0.6097
  384MPD2    H3 5799   3.787   2.241  11.779 -0.3256  0.1929  0.0355
  384MPD2     N 5800   4.206   2.168  11.939 -0.0450  0.3990  0.8199
  384MPD2    H5 5801   4.236   2.139  11.846 -0.8158  1.7281  0.1644
  384MPD2    N1 5802   3.830   2.244  12.236 -0.5909  0.4201  0.4536
  384MPD2    H7 5803   3.728   2.247  12.241 -0.6956 -0.5728 -0.9391
  385TMC3    C1 5804   4.420   2.110  12.036 -0.0185 -0.1899  0.3921
  385TMC3    C2 5805   4.406   1.994  11.967  0.3330  0.5346  0.1700
  385TMC3    C3 5806   4.433   1.879  12.042  0.1357  0.1655  0.2617
  385TMC3    C4 5807   4.485   2.110  12.157 -0.0280 -0.4485 -0.3211
  385TMC3    C5 5808   4.490   1.996  12.233  0.3957 -0.6487  0.5853
  385TMC3    C6 5809   4.474   1.875  12.169  0.0719  0.4075  0.0868
  385TMC3     C 5810   4.296   2.194  12.036 -0.0336 -0.2386 -0.0666
  385TMC3     O 5811   4.294   2.269  12.128  0.0175 -0.1112 -0.5671
  385TMC3     H 5812   4.365   1.992  11.867 -0.5605  2.6443  0.4915
  385TMC3    H1 5813   4.498   2.203  12.210 -1.5706 -1.0123  1.0541
  385TMC3    H2 5814   4.475   1.781  12.225  1.1863  1.4183  1.7615
  385TMC3    C7 5815   4.418   2.001  12.362  0.3020  0.3044 -0.2900
  385TMC3    C8 5816   4.473   1.754  11.970 -0.1058  0.1476  0.4350
  385TMC3    O1 5817   4.367   2.114  12.375  0.2171  0.4370  0.4110
  385TMC3    O2 5818   4.563   1.698  12.040 -0.0668 -0.1779 -0.0933
  386TMC3    C1 5819   4.222   4.272  11.866 -0.0881 -0.0694  0.7518
  386TMC3    C2 5820   4.246   4.297  11.733  0.6039 -0.1855 -0.5326
  386TMC3    C3 5821   4.138   4.341  11.660  0.2037 -0.1760  0.3504
  386TMC3    C4 5822   4.103   4.289  11.930 -0.2962  0.1099  0.3547
  386TMC3    C5 5823   4.001   4.334  11.848  0.1538 -0.3259 -0.0036
  386TMC3    C6 5824   4.014   4.372  11.717 -0.1864  0.0435 -0.7490
  386TMC3     C 5825   4.325   4.229  11.949  0.5246 -0.3200  0.0231
  386TMC3     O 5826   4.323   4.258  12.066 -0.2325  0.0088  0.5588
  386TMC3     H 5827   4.329   4.252  11.679  0.4007 -0.3492 -0.7108
  386TMC3    H1 5828   4.086   4.246  12.028  1.5128  0.0255  0.6337
  386TMC3    H2 5829   3.930   4.419  11.668 -0.2136  1.5568  0.7628
  386TMC3    C7 5830   3.868   4.316  11.908 -0.5307 -0.0378 -0.1192
  386TMC3    C8 5831   4.139   4.332  11.519 -0.6382 -0.3559  0.7766
  386TMC3    O1 5832   3.868   4.299  12.031  0.5588 -0.4534 -0.0072
  386TMC3    O2 5833   4.038   4.290  11.468 -0.0180 -0.1892 -0.6218
  387MPD2     C 5834   1.747   4.383   9.960 -0.1265  0.6204 -0.2155
  387MPD2    C1 5835   1.808   4.334  10.071 -0.3878 -0.3733 -0.0581
  387MPD2    C2 5836   1.823   4.203  10.085 -0.1508 -0.0625 -0.2581
  387MPD2    C3 5837   1.759   4.118   9.995 -0.0772  0.1599 -0.1340
  387MPD2    C4 5838   1.693   4.168   9.884 -0.0103 -0.4717  0.2622
  387MPD2    C5 5839   1.690   4.302   9.869 -0.1235 -1.1800 -1.0765
  387MPD2     H 5840   1.882   4.159  10.163  0.8636 -1.2343 -1.6897
  387MPD2    H1 5841   1.651   4.105   9.807  2.2958 -2.1169  0.3699
  387MPD2    H2 5842   1.727   4.490   9.958  1.3481  0.9377  2.6183
  387MPD2    H3 5843   1.641   4.359   9.791 -0.1154 -0.0333 -0.2503
  387MPD2     N 5844   1.781   3.980  10.023 -0.3025 -0.0275  0.2224
  387MPD2    H5 5845   1.841   3.964  10.104  2.4660 -0.3729 -1.9202
  387MPD2    N1 5846   1.863   4.412  10.170  0.0165 -0.2307 -0.1709
  387MPD2    H7 5847   1.899   4.371  10.255  1.6516  0.8227 -0.3504
  388TMC3    C1 5848   1.969   4.589  10.280 -0.3502  0.7116 -0.8860
  388TMC3    C2 5849   2.008   4.717  10.302  0.5233  0.4394 -0.2059
  388TMC3    C3 5850   2.141   4.735  10.366 -0.4860 -0.0791 -0.0425
  388TMC3    C4 5851   2.042   4.485  10.334  0.2797  0.1602 -0.4047
  388TMC3    C5 5852   2.166   4.510  10.393  0.2117  0.7014  0.1775
  388TMC3    C6 5853   2.216   4.631  10.415  0.1248  0.4092 -0.6152
  388TMC3     C 5854   1.876   4.555  10.171  0.2741  0.2194  0.4162
  388TMC3     O 5855   1.834   4.647  10.100 -0.6854 -0.0807 -0.0294
  388TMC3     H 5856   1.944   0.056  10.261  0.9324  0.8750 -0.0309
  388TMC3    H1 5857   2.014   4.380  10.339  0.6187  0.0058 -1.7355
  388TMC3    H2 5858   2.318   4.644  10.449  0.3547 -1.8947 -0.4482
  388TMC3    C7 5859   2.247   4.397  10.419  0.3369 -0.2796 -0.1973
  388TMC3    C8 5860   2.196   0.128  10.382 -0.0868 -0.4859  0.5103
  388TMC3    O1 5861   2.303   4.391  10.527  0.2548  0.2487 -0.1669
  388TMC3    O2 5862   2.284   0.143  10.467 -0.8122 -0.1680 -0.0484
  389MPD2     C 5863   1.499   2.470  11.290 -0.5702 -0.6183 -0.2438
  389MPD2    C1 5864   1.411   2.374  11.240  0.2130 -0.7554  0.4754
  389MPD2    C2 5865   1.312   2.323  11.325 -0.4111  0.3338 -0.0050
  389MPD2    C3 5866   1.300   2.360  11.456  1.1760 -0.2625  0.1167
  389MPD2    C4 5867   1.395   2.454  11.497  0.2152 -0.0134  0.0083
  389MPD2    C5 5868   1.496   2.508  11.420 -0.3294 -0.4003  0.0606
  389MPD2     H 5869   1.246   2.247  11.284  2.6721 -2.6760  0.6605
  389MPD2    H1 5870   1.387   2.485  11.600 -0.6000  0.3262 -0.1601
  389MPD2    H2 5871   1.577   2.519  11.232 -1.6340  0.0856 -1.0635
  389MPD2    H3 5872   1.558   2.582  11.469  0.6421 -0.1692 -1.5159
  389MPD2     N 5873   1.205   2.304  11.552 -0.2664  0.3296 -0.4400
  389MPD2    H5 5874   1.201   2.350  11.642  3.7094 -1.3195  0.6358
  389MPD2    N1 5875   1.411   2.353  11.102 -0.0203 -0.1017  0.5519
  389MPD2    H7 5876   1.488   2.390  11.047 -1.0917  0.1662 -0.7642
  390TMC3    C1 5877   1.027   2.175  11.638 -0.6152 -0.4067 -0.7194
  390TMC3    C2 5878   0.972   2.052  11.642 -0.0973 -0.5424 -0.5188
  390TMC3    C3 5879   0.888   2.022  11.745 -0.1755 -0.3669 -0.3902
  390TMC3    C4 5880   0.988   2.277  11.725 -0.4600  0.2027 -0.1422
  390TMC3    C5 5881   0.894   2.251  11.819 -0.0410  0.3509  0.3140
  390TMC3    C6 5882   0.855   2.123  11.836  0.1632 -0.1751  0.0140
  390TMC3     C 5883   1.127   2.196  11.531  0.1989 -0.1495  0.6245
  390TMC3     O 5884   1.133   2.111  11.443  0.0849 -0.6769 -0.2466
  390TMC3     H 5885   1.004   1.983  11.565 -5.2217 -1.4228 -1.8562
  390TMC3    H1 5886   1.013   2.383  11.719 -0.5357  0.2499  0.3888
  390TMC3    H2 5887   0.784   2.090  11.911  0.0812  1.0740  0.4807
  390TMC3    C7 5888   0.783   2.346  11.821  0.1248  0.2196 -0.0913
  390TMC3    C8 5889   0.795   1.915  11.715 -0.4183 -1.0518  0.0324
  390TMC3    O1 5890   0.798   2.446  11.759  0.4342  0.0545  0.3920
  390TMC3    O2 5891   0.792   1.879  11.601 -0.3609  0.1337 -0.0900
  391MPD2     C 5892   0.253   3.601  11.219  0.5122 -0.3136 -0.1924
  391MPD2    C1 5893   0.272   3.731  11.196 -0.6446  0.1218 -0.0904
  391MPD2    C2 5894   0.238   3.779  11.067  0.2602 -0.2127 -0.4649
  391MPD2    C3 5895   0.206   3.692  10.970 -0.2983  0.0892 -0.0960
  391MPD2    C4 5896   0.169   3.562  10.998 -0.1109  0.4851  0.2678
  391MPD2    C5 5897   0.203   3.518  11.125 -0.4602 -0.6174  0.2663
  391MPD2     H 5898   0.256   3.880  11.031  1.1822 -0.7067 -1.3787
  391MPD2    H1 5899   0.133   3.490  10.925  1.1123  1.1027 -0.9487
  391MPD2    H2 5900   0.260   3.566  11.321 -3.1287 -0.4547 -0.0222
  391MPD2    H3 5901   0.187   3.413  11.146 -0.2730 -0.2439  2.2398
  391MPD2     N 5902   0.199   3.748  10.838 -0.3732  0.4272 -0.0435
  391MPD2    H5 5903   0.243   3.838  10.822  1.0950 -0.5836 -1.6206
  391MPD2    N1 5904   0.326   3.820  11.295 -0.2156  0.2750 -0.8135
  391MPD2    H7 5905   0.356   3.777  11.381 -3.4032 -0.8756 -0.2645
  392TMC3    C1 5906   0.157   3.777  10.612 -0.8228  0.0144 -0.8343
  392TMC3    C2 5907   0.045   3.797  10.539  0.4610 -0.2372  0.9330
  392TMC3    C3 5908   0.054   3.894  10.439 -0.9315  0.1337 -0.1262
  392TMC3    C4 5909   0.277   3.846  10.588  0.0620  0.3407  0.2533
  392TMC3    C5 5910   0.281   3.935  10.489 -0.1483 -0.5274  0.0847
  392TMC3    C6 5911   0.171   3.967  10.418  0.4627  0.2060  0.3597
  392TMC3     C 5912   0.129   3.691  10.732 -0.9626 -0.2988  0.1038
  392TMC3     O 5913   0.059   3.590  10.715 -0.7879 -0.1276  0.2686
  392TMC3     H 5914   4.689   3.750  10.569 -0.5063  0.7420 -0.5566
  392TMC3    H1 5915   0.361   3.817  10.649  1.4596  0.9117 -1.3934
  392TMC3    H2 5916   0.177   4.041  10.340  1.8756 -0.4455 -0.1617
  392TMC3    C7 5917   0.415   3.988  10.454  1.0698 -0.6858 -0.1915
  392TMC3    C8 5918   4.664   3.937  10.392 -0.2058 -0.2057 -0.6697
  392TMC3    O1 5919   0.502   3.952  10.532 -0.1144 -0.4850  0.6036
  392TMC3    O2 5920   4.577   3.852  10.389 -0.3676 -0.5188  0.6317
  393TMC3    C1 5921   3.635   1.723  10.935  0.4327  0.6392 -0.0711
  393TMC3    C2 5922   3.563   1.609  10.975 -0.0102 -0.3193  0.2658
  393TMC3    C3 5923   3.631   1.546  11.078  0.4094 -0.7662 -0.2833
  393TMC3    C4 5924   3.757   1.756  10.985  0.2185 -0.1979 -0.2443
  393TMC3    C5 5925   3.817   1.683  11.083 -0.2882 -0.2332 -0.4307
  393TMC3    C6 5926   3.752   1.583  11.138  0.3711 -0.1203  0.5028
  393TMC3     C 5927   3.583   1.787  10.817  0.0847 -0.0845  0.2311
  393TMC3     O 5928   3.667   1.829  10.742  0.1172  0.0121  0.2706
  393TMC3     H 5929   3.459   1.587  10.952  0.0402 -0.0941 -0.1880
  393TMC3    H1 5930   3.804   1.849  10.955  0.7470 -0.8200 -1.3511
  393TMC3    H2 5931   3.798   1.514  11.208  0.4827 -0.0741  0.4745
  393TMC3    C7 5932   3.957   1.702  11.120 -0.4235  0.6363  0.5606
  393TMC3    C8 5933   3.560   1.443  11.145  0.4180 -0.4907 -0.0106
  393TMC3    O1 5934   3.993   1.656  11.227 -0.3023 -0.6539 -0.2422
  393TMC3    O2 5935   3.582   1.425  11.262  0.2986 -0.5783 -0.3813
  394TMC3    C1 5936   1.332   2.318  10.899 -0.6798  0.1587  0.1237
  394TMC3    C2 5937   1.215   2.344  10.821 -0.4176  0.7054  0.0870
  394TMC3    C3 5938   1.229   2.396  10.691  0.7185  0.1472  0.5301
  394TMC3    C4 5939   1.462   2.322  10.849  0.3644  0.0426  0.2579
  394TMC3    C5 5940   1.466   2.380  10.724 -0.1874  0.0242  0.6018
  394TMC3    C6 5941   1.358   2.414  10.652 -0.1702  0.2649  0.0210
  394TMC3     C 5942   1.316   2.284  11.028 -0.7426 -0.3686  0.0626
  394TMC3     O 5943   1.204   2.244  11.065 -0.4097  0.0410  0.1423
  394TMC3     H 5944   1.120   2.330  10.872 -0.1979  2.6352  1.0301
  394TMC3    H1 5945   1.552   2.271  10.883  0.7551  1.0215  0.7001
  394TMC3    H2 5946   1.361   2.462  10.555 -0.0751  0.7306  0.2573
  394TMC3    C7 5947   1.603   2.397  10.664 -0.9618  0.3968 -0.3903
  394TMC3    C8 5948   1.103   2.425  10.619  0.3304 -0.2279 -0.5483
  394TMC3    O1 5949   1.685   2.423  10.749  0.3035  0.0855  0.5322
  394TMC3    O2 5950   1.011   2.452  10.693 -0.3889 -0.1734  0.0550
  395TMC3    C1 5951   0.720   3.647  14.765 -0.3896 -0.0115 -0.1886
  395TMC3    C2 5952   0.601   3.716  14.728  0.0599 -0.7645  0.1533
  395TMC3    C3 5953   0.606   3.812  14.634 -0.4986  0.0844 -0.0644
  395TMC3    C4 5954   0.831   3.694  14.702 -0.0235 -0.3486 -0.4268
  395TMC3    C5 5955   0.827   3.784  14.598 -0.2551  0.4944 -0.4781
  395TMC3    C6 5956   0.717   3.850  14.569 -0.5501 -0.1093  1.0050
  395TMC3     C 5957   0.735   3.595  14.897 -1.0298  0.2885 -0.6500
  395TMC3     O 5958   0.813   3.496  14.908 -0.6194  0.1202  0.3874
  395TMC3     H 5959   0.513   3.695  14.789  0.0811  0.1135  0.4972
  395TMC3    H1 5960   0.923   3.651  14.739 -0.5003 -1.2736 -0.3138
  395TMC3    H2 5961   0.726   3.922  14.489 -2.0701 -0.3344  0.6455
  395TMC3    C7 5962   0.946   3.872  14.594  0.1929  0.0969  0.9754
  395TMC3    C8 5963   0.499   3.912  14.634 -0.1847 -0.3062  0.7938
  395TMC3    O1 5964   0.997   3.909  14.695  0.3249 -0.6056 -0.4822
  395TMC3    O2 5965   0.393   3.869  14.671  0.5237  0.0688  0.3957
  396MPD2     C 5966   0.220   0.314  17.117 -0.4061 -0.9399 -0.5177
  396MPD2    C1 5967   0.287   0.409  17.182  0.2868  0.3765  0.1988
  396MPD2    C2 5968   0.330   0.519  17.102  0.3287 -1.1208  0.2988
  396MPD2    C3 5969   0.296   0.534  16.970  0.3031 -0.5270  0.7540
  396MPD2    C4 5970   0.216   0.434  16.919  0.9192 -0.1542  0.1449
  396MPD2    C5 5971   0.191   0.320  16.985 -0.1535 -0.1526 -0.8766
  396MPD2     H 5972   0.395   0.596  17.143 -2.6077  0.5590  1.8070
  396MPD2    H1 5973   0.178   0.426  16.818  2.4075 -1.1523 -0.3318
  396MPD2    H2 5974   0.191   0.228  17.177  0.8549  0.4580  2.0937
  396MPD2    H3 5975   0.133   0.243  16.935  0.4461 -0.9134 -0.3736
  396MPD2     N 5976   0.345   0.645  16.906  0.1108 -0.2854 -0.4889
  396MPD2    H5 5977   0.395   0.716  16.958  1.6207 -0.8153 -1.2307
  396MPD2    N1 5978   0.331   0.389  17.311 -1.0079 -0.1485 -0.0269
  396MPD2    H7 5979   0.327   0.295  17.348 -0.2347 -0.3228 -0.3836
  397TMC3    C1 5980   0.508   0.426  17.466 -0.8194 -0.6798  0.6328
  397TMC3    C2 5981   0.612   0.397  17.378 -0.7282 -0.3738 -0.3640
  397TMC3    C3 5982   0.670   0.269  17.374  0.0051 -0.0686 -0.4849
  397TMC3    C4 5983   0.467   0.318  17.539  0.2455 -0.1061 -1.1920
  397TMC3    C5 5984   0.522   0.195  17.527  0.1510 -0.7673 -0.0580
  397TMC3    C6 5985   0.625   0.165  17.442 -0.4173  0.4658  0.3569
  397TMC3     C 5986   0.403   0.483  17.389  0.3684 -0.1093 -0.3074
  397TMC3     O 5987   0.415   0.606  17.361 -0.2315 -0.4542 -1.1106
  397TMC3     H 5988   0.618   0.467  17.295 -1.1167 -0.6766 -0.6406
  397TMC3    H1 5989   0.378   0.339  17.597  2.3997  1.1093  1.6673
  397TMC3    H2 5990   0.669   0.067  17.431 -0.2049  0.6860 -0.8390
  397TMC3    C7 5991   0.455   0.095  17.600  0.3765  0.0432  0.0668
  397TMC3    C8 5992   0.671   0.244  17.231  0.3925  0.3297  0.2576
  397TMC3    O1 5993   0.467   4.715  17.563  0.2860  0.0515  0.0034
  397TMC3    O2 5994   0.725   0.327  17.161  0.4525  0.0681 -0.5323
  398MPD2     C 5995   2.821   1.327   0.181  0.1737 -0.4305 -0.2172
  398MPD2    C1 5996   2.929   1.270   0.257 -1.0867 -0.1611  0.2102
  398MPD2    C2 5997   3.052   1.329   0.238  0.4738  0.5359  0.1653
  398MPD2    C3 5998   3.074   1.445   0.155 -0.3845 -0.5190 -0.3734
  398MPD2    C4 5999   2.966   1.496   0.081 -0.1670  0.1654  0.3725
  398MPD2    C5 6000   2.845   1.433   0.089 -0.0121 -0.3464  0.1100
  398MPD2     H 6001   3.138   1.313   0.302  1.3677  1.5608 -0.7587
  398MPD2    H1 6002   2.980   1.593   0.037 -1.0847  0.7923  1.4662
  398MPD2    H2 6003   2.719   1.294   0.193  1.2966 -3.9293 -0.0374
  398MPD2    H3 6004   2.765   1.475   0.028  1.8086  2.2448 -0.4785
  398MPD2     N 6005   3.203   1.501   0.165  0.1937 -0.2850  0.0179
  398MPD2    H5 6006   3.269   1.451   0.225 -0.7851 -2.3000 -0.5978
  398MPD2    N1 6007   2.917   1.178   0.359  1.0934  0.0073  0.2901
  398MPD2    H7 6008   3.004   1.143   0.399  1.5339 -0.3957 -1.0286
  399TMC3    C1 6009   2.823   1.012   0.512 -0.0419 -0.3553 -0.5029
  399TMC3    C2 6010   2.936   1.011   0.589  0.4754  0.3983  0.2484
  399TMC3    C3 6011   2.957   0.914   0.686 -0.2589  0.6367  0.3812
  399TMC3    C4 6012   2.723   0.927   0.552 -0.2102  0.4373  0.7766
  399TMC3    C5 6013   2.746   0.833   0.646  0.0688 -0.3995  0.4989
  399TMC3    C6 6014   2.866   0.814   0.708  0.2089 -0.3105 -0.1808
  399TMC3     C 6015   2.804   1.112   0.401 -0.4697 -0.1785 -0.6736
  399TMC3     O 6016   2.692   1.118   0.348  0.1831 -0.2103  0.1593
  399TMC3     H 6017   3.006   1.093   0.585  0.0657  0.8904  3.7507
  399TMC3    H1 6018   2.634   0.938   0.492  1.1009  1.6716 -0.9727
  399TMC3    H2 6019   2.869   0.739   0.786 -0.4320 -1.7250 -1.5291
  399TMC3    C7 6020   2.641   0.745   0.693  0.0290 -0.2713  1.0587
  399TMC3    C8 6021   3.097   0.889   0.714  0.2978 -0.1936  0.7627
  399TMC3    O1 6022   2.672   0.642   0.753 -0.0045 -0.7512  0.4179
  399TMC3    O2 6023   3.176   0.965   0.654 -0.3337  0.4939 -0.0255
  400TMC3    C1 6024   1.641   4.477  16.665  0.1124  0.0052  0.2072
  400TMC3    C2 6025   1.506   4.445  16.647 -0.9636 -0.7326  0.1376
  400TMC3    C3 6026   1.416   4.544  16.664 -0.9924 -0.4799 -0.3789
  400TMC3    C4 6027   1.679   4.608  16.692 -0.8279  0.4883 -0.1887
  400TMC3    C5 6028   1.578   4.703  16.693 -0.1775 -0.7960 -0.2291
  400TMC3    C6 6029   1.445   4.672  16.692 -0.6211 -0.1356  0.1191
  400TMC3     C 6030   1.730   4.369  16.684 -0.9785  0.7605  0.5553
  400TMC3     O 6031   1.697   4.268  16.624  0.1421  0.3709  0.0466
  400TMC3     H 6032   1.477   4.341  16.636  1.8319 -1.4767 -0.1870
  400TMC3    H1 6033   1.781   4.642  16.711 -0.7936  0.7905 -0.9187
  400TMC3    H2 6034   1.373   0.015  16.700 -1.1184 -0.3922 -1.7223
  400TMC3    C7 6035   1.632   0.099  16.726 -0.8900 -1.0313  0.4232
  400TMC3    C8 6036   1.272   4.523  16.637 -0.7377  0.0200  0.4333
  400TMC3    O1 6037   1.722   0.151  16.662 -0.3361  0.1889 -0.2856
  400TMC3    O2 6038   1.205   4.624  16.649 -0.3158 -0.2436 -0.9334
  401MPD2     C 6039   4.473   3.191  17.340  0.2161  0.0873 -0.1470
  401MPD2    C1 6040   4.434   3.136  17.456  0.6919 -0.9183 -0.4325
  401MPD2    C2 6041   4.395   3.000  17.454  0.0006  0.3715  0.1559
  401MPD2    C3 6042   4.406   2.921  17.340 -0.1362 -0.6455 -0.3037
  401MPD2    C4 6043   4.443   2.979  17.226  0.2102 -0.1539 -0.0263
  401MPD2    C5 6044   4.479   3.115  17.224  0.0888  0.4561 -0.4437
  401MPD2     H 6045   4.362   2.954  17.546 -0.3502 -0.5380 -0.4253
  401MPD2    H1 6046   4.446   2.927  17.131 -0.8426 -0.0996 -0.0916
  401MPD2    H2 6047   4.507   3.294  17.329  0.5503 -0.2903 -2.6720
  401MPD2    H3 6048   4.511   3.169  17.136 -3.6584  0.6535 -1.7157
  401MPD2     N 6049   4.392   2.787  17.362  1.0609 -0.1388 -0.1965
  401MPD2    H5 6050   4.379   2.761  17.459  0.2977  1.4200  0.1259
  401MPD2    N1 6051   4.439   3.213  17.579  0.2271  0.3768  0.6347
  401MPD2    H7 6052   4.412   3.165  17.664 -2.7903 -1.2619 -1.2546
  402TMC3    C1 6053   4.441   2.557  17.338 -0.3776  0.5716 -0.1454
  402TMC3    C2 6054   4.368   2.516  17.445 -0.0077 -0.1122  0.0394
  402TMC3    C3 6055   4.400   2.395  17.503 -0.2109 -0.8405  0.8622
  402TMC3    C4 6056   4.556   2.493  17.304  0.4340  0.3186  0.6247
  402TMC3    C5 6057   4.604   2.383  17.382  0.2113 -0.0273 -0.9575
  402TMC3    C6 6058   4.520   2.339  17.473 -0.1303  0.9812  0.2413
  402TMC3     C 6059   4.430   2.688  17.278  0.5018  0.2820  0.2073
  402TMC3     O 6060   4.480   2.704  17.168  1.0431 -0.3200  0.4446
  402TMC3     H 6061   4.282   2.573  17.478 -0.5424 -0.2548 -1.1089
  402TMC3    H1 6062   4.615   2.540  17.227  0.6640 -0.3790  0.3685
  402TMC3    H2 6063   4.546   2.250  17.529  2.1370  1.9070  0.6430
  402TMC3    C7 6064   0.008   2.371  17.408  0.9583 -0.5169 -0.3358
  402TMC3    C8 6065   4.366   2.373  17.646  1.0992 -0.1909  0.7858
  402TMC3    O1 6066   0.083   2.448  17.347 -0.1061 -0.0591 -0.1349
  402TMC3    O2 6067   4.446   2.313  17.717 -1.0845 -0.0666  0.1052
  403MPD2     C 6068   3.495   1.612  13.418  0.3718  0.0738 -0.2932
  403MPD2    C1 6069   3.415   1.657  13.524 -0.8092 -0.3755  0.1643
  403MPD2    C2 6070   3.464   1.748  13.613  0.4415  0.2987 -0.8342
  403MPD2    C3 6071   3.604   1.770  13.618  0.2065 -0.1638 -0.1957
  403MPD2    C4 6072   3.686   1.716  13.521 -0.0303 -0.4756  0.0878
  403MPD2    C5 6073   3.629   1.641  13.422  0.2411 -0.1344  0.4331
  403MPD2     H 6074   3.394   1.806  13.672  0.5126 -3.4091  2.9044
  403MPD2    H1 6075   3.792   1.737  13.524  0.0801 -0.9621 -0.2505
  403MPD2    H2 6076   3.457   1.549  13.339  0.6276  1.5863 -1.6181
  403MPD2    H3 6077   3.694   1.608  13.342 -1.6075  1.4464 -1.7128
  403MPD2     N 6078   3.668   1.852  13.719 -0.0545  0.2368  0.0547
  403MPD2    H5 6079   3.769   1.861  13.712  0.4079 -1.9587  3.6375
  403MPD2    N1 6080   3.281   1.612  13.513  0.0202 -0.7169  0.5441
  403MPD2    H7 6081   3.263   1.542  13.442  0.2253  0.6186 -0.8177
  404TMC3    C1 6082   3.121   1.503  13.637  0.4018 -0.5954  0.1773
  404TMC3    C2 6083   3.151   1.443  13.763 -0.0539 -0.5152 -0.3867
  404TMC3    C3 6084   3.210   1.318  13.764 -0.1071 -0.6973  0.7975
  404TMC3    C4 6085   3.122   1.419  13.522 -0.0666 -0.6550 -0.2514
  404TMC3    C5 6086   3.164   1.293  13.535 -0.0770 -0.1657  1.2712
  404TMC3    C6 6087   3.233   1.251  13.650 -0.5312  0.4452  1.0674
  404TMC3     C 6088   3.189   1.632  13.617  0.8493 -0.2328  0.5704
  404TMC3     O 6089   3.201   1.705  13.717 -0.2359 -0.0947 -0.1243
  404TMC3     H 6090   3.169   1.509  13.847  1.4262 -2.5334  0.8452
  404TMC3    H1 6091   3.070   1.454  13.434 -1.2237  0.0202  0.7069
  404TMC3    H2 6092   3.269   1.149  13.650 -2.6693 -0.2995  1.1438
  404TMC3    C7 6093   3.113   1.191  13.452  0.3460  0.2433 -0.5038
  404TMC3    C8 6094   3.258   1.265  13.888 -0.2288 -0.1475 -0.0542
  404TMC3    O1 6095   3.096   1.083  13.504 -0.4008 -0.2652 -0.1205
  404TMC3    O2 6096   3.380   1.244  13.887 -1.0671  0.1709 -0.3541
  405MPD2     C 6097   3.724   2.442  15.092  0.3808 -0.0248 -0.4907
  405MPD2    C1 6098   3.764   2.349  15.002 -0.3802  0.0939  0.7778
  405MPD2    C2 6099   3.770   2.377  14.868  0.0098 -0.2929  0.0239
  405MPD2    C3 6100   3.734   2.503  14.822 -0.1583  0.4937 -0.1565
  405MPD2    C4 6101   3.694   2.599  14.909 -0.3646  0.4896 -0.0335
  405MPD2    C5 6102   3.699   2.568  15.042 -0.4349 -0.7949 -0.1148
  405MPD2     H 6103   3.794   2.301  14.794 -0.5295 -0.5565  0.1181
  405MPD2    H1 6104   3.664   2.700  14.883  0.5782  2.0610  5.1202
  405MPD2    H2 6105   3.714   2.417  15.197  2.1281 -1.6996 -0.7177
  405MPD2    H3 6106   3.679   2.642  15.119  2.2195  0.2471 -0.4118
  405MPD2     N 6107   3.719   2.509  14.683  0.3348 -0.9464 -0.0113
  405MPD2    H5 6108   3.749   2.423  14.638  0.3737 -1.0822  0.2792
  405MPD2    N1 6109   3.784   2.214  15.054  0.2595 -0.2488 -0.0048
  405MPD2    H7 6110   3.767   2.186  15.150 -1.0169 -0.9347 -0.4319
  406TMC3    C1 6111   3.554   2.621  14.273  0.1705 -0.2339  0.6261
  406TMC3    C2 6112   3.593   2.504  14.215  0.1619  0.1801 -0.4071
  406TMC3    C3 6113   3.691   2.430  14.287 -0.4477 -0.3934  0.5377
  406TMC3    C4 6114   3.605   2.663  14.390  0.4851 -0.6257  0.2906
  406TMC3    C5 6115   3.675   2.583  14.466 -0.0461  0.7976 -0.3659
  406TMC3    C6 6116   3.727   2.465  14.417  0.4363  0.0315  0.3698
  406TMC3     C 6117   3.450   2.697  14.200  0.1577  0.2356  0.0328
  406TMC3     O 6118   3.454   2.814  14.235 -0.0310 -0.2109 -0.8737
  406TMC3     H 6119   3.551   2.453  14.128  0.9858  0.1655 -0.7888
  406TMC3    H1 6120   3.567   2.759  14.423 -1.7166 -0.9449 -1.2520
  406TMC3    H2 6121   3.801   2.408  14.472  1.0610  1.0542  0.5750
  406TMC3    C7 6122   3.681   2.610  14.604 -0.0319  0.4542 -0.6120
  406TMC3    C8 6123   3.702   2.286  14.256  0.3047  0.0902  0.4566
  406TMC3    O1 6124   3.656   2.720  14.646  0.1489 -0.0543  0.2740
  406TMC3    O2 6125   3.629   2.244  14.161 -0.0512 -0.2958  0.0559
  407MPD2     C 6126   1.255   3.455   9.965  0.0604 -0.0596  0.0197
  407MPD2    C1 6127   1.389   3.476   9.984  0.8579  0.2829  0.2091
  407MPD2    C2 6128   1.439   3.579  10.066  0.2017  0.0130  0.2110
  407MPD2    C3 6129   1.348   3.651  10.129  0.3030  0.4992 -0.6890
  407MPD2    C4 6130   1.211   3.629  10.121  0.1284 -0.4440  1.1065
  407MPD2    C5 6131   1.163   3.518  10.052  0.2330  0.5819 -0.3704
  407MPD2     H 6132   1.545   3.599  10.072  0.6497 -2.0584 -0.7313
  407MPD2    H1 6133   1.146   3.691  10.181 -1.0238 -0.6675  0.0721
  407MPD2    H2 6134   1.221   3.366   9.912  0.2496 -0.2023  0.1367
  407MPD2    H3 6135   1.056   3.518  10.037  0.0493 -0.3989  0.9062
  407MPD2     N 6136   1.383   3.762  10.202  0.0420 -0.5843  0.2803
  407MPD2    H5 6137   1.306   3.818  10.236  0.2119 -0.8615  1.1318
  407MPD2    N1 6138   1.484   3.398   9.911 -0.3280  0.2439  0.6750
  407MPD2    H7 6139   1.579   3.387   9.946  0.3539  0.2267 -1.1245
  408TMC3    C1 6140   1.580   3.260   9.744  0.6156 -0.4379  0.1117
  408TMC3    C2 6141   1.693   3.339   9.726  0.4049  0.0796  0.3857
  408TMC3    C3 6142   1.804   3.270   9.683 -0.4401  0.4949  0.5032
  408TMC3    C4 6143   1.568   3.130   9.708  0.6486 -0.5966  0.8558
  408TMC3    C5 6144   1.681   3.068   9.665  0.4676 -0.0233  0.0732
  408TMC3    C6 6145   1.799   3.137   9.661  0.4358 -0.3199 -0.2747
  408TMC3     C 6146   1.460   3.327   9.788  0.5505 -0.0092  0.7584
  408TMC3     O 6147   1.359   3.308   9.719 -0.1217  0.3778 -0.2309
  408TMC3     H 6148   1.692   3.442   9.759 -0.6708  0.1377  0.1687
  408TMC3    H1 6149   1.476   3.073   9.708 -0.1788  0.7659 -0.7611
  408TMC3    H2 6150   1.882   3.077   9.626  0.3418 -0.2384 -0.6330
  408TMC3    C7 6151   1.693   2.923   9.653  0.0083  0.2177 -0.1208
  408TMC3    C8 6152   1.931   3.334   9.685  0.5950 -0.0499  0.1171
  408TMC3    O1 6153   1.760   2.886   9.562 -0.5042  0.1760 -0.0723
  408TMC3    O2 6154   2.029   3.255   9.680  0.4612  0.1151  1.1996
  409MPD2     C 6155   0.444   4.233  16.934 -0.1845 -0.0177 -0.2512
  409MPD2    C1 6156   0.545   4.246  17.023 -0.1593 -0.2022 -0.4185
  409MPD2    C2 6157   0.628   4.356  17.022 -0.2364 -0.5285 -0.2072
  409MPD2    C3 6158   0.608   4.460  16.927 -0.3367 -0.4376 -1.1091
  409MPD2    C4 6159   0.512   4.438  16.832  0.4173 -0.0246 -0.2270
  409MPD2    C5 6160   0.439   4.322  16.834  0.3012 -0.2956  0.6148
  409MPD2     H 6161   0.709   4.357  17.094 -0.3672  0.7563 -0.0728
  409MPD2    H1 6162   0.502   4.502  16.746 -1.8460 -0.6361 -0.4342
  409MPD2    H2 6163   0.369   4.154  16.927 -0.4768  0.3018 -0.7567
  409MPD2    H3 6164   0.363   4.316  16.757  2.0038 -0.4436 -1.0593
  409MPD2     N 6165   0.686   4.576  16.924 -0.1985  0.2503  0.3074
  409MPD2    H5 6166   0.682   4.623  16.834 -0.1135 -2.2571 -0.9919
  409MPD2    N1 6167   0.577   4.135  17.108 -0.4085 -0.6641 -0.3037
  409MPD2    H7 6168   0.651   4.141  17.177  0.7450 -1.2377 -1.4863
  410TMC3    C1 6169   0.882   4.706  16.980  0.9994 -0.8930 -0.8124
  410TMC3    C2 6170   1.009   4.694  17.033  0.0661  0.5059  0.6403
  410TMC3    C3 6171   1.114   0.032  16.983 -0.0649 -0.3535  0.7268
  410TMC3    C4 6172   0.858   0.060  16.877  0.0810  0.5452  0.5002
  410TMC3    C5 6173   0.971   0.137  16.839  0.0481 -0.0865 -0.4469
  410TMC3    C6 6174   1.095   0.128  16.890  0.2082  0.0742 -0.0632
  410TMC3     C 6175   0.778   4.614  17.022 -0.3443 -0.9852  0.4461
  410TMC3     O 6176   0.782   4.562  17.131  0.5429 -0.1210  0.7348
  410TMC3     H 6177   1.020   4.609  17.099 -1.3259 -0.2163 -0.0726
  410TMC3    H1 6178   0.760   0.082  16.837  0.9332 -0.6082 -2.1498
  410TMC3    H2 6179   1.181   0.182  16.851 -0.2156  1.6321  1.1476
  410TMC3    C7 6180   0.951   0.205  16.716  0.3675  0.3206 -0.4453
  410TMC3    C8 6181   1.239   4.695  16.975 -0.2650  0.2072  0.1521
  410TMC3    O1 6182   0.871   0.166  16.634 -0.3909 -0.2688 -0.6070
  410TMC3    O2 6183   1.344   0.017  16.976 -0.1318 -0.3150  0.0924
  411MPD2     C 6184   1.093   4.728  14.305 -0.2551 -0.2868  0.1189
  411MPD2    C1 6185   0.990   0.049  14.360 -0.0523  0.0925  0.3631
  411MPD2    C2 6186   0.869   4.717  14.373  0.0745  0.4611  0.1640
  411MPD2    C3 6187   0.859   4.589  14.333  0.4088 -0.2507 -0.0040
  411MPD2    C4 6188   0.971   4.527  14.286  0.3532  0.8154 -0.8044
  411MPD2    C5 6189   1.084   4.596  14.258  0.3279 -0.1459 -0.8218
  411MPD2     H 6190   0.797   0.023  14.441 -0.6418 -0.3173 -0.0883
  411MPD2    H1 6191   0.973   4.421  14.265 -0.8321  0.8062 -0.8942
  411MPD2    H2 6192   1.191   0.037  14.299 -1.0522  1.3831  0.1358
  411MPD2    H3 6193   1.169   4.548  14.212 -0.6643 -2.4794 -0.2227
  411MPD2     N 6194   0.736   4.519  14.340 -0.1241  0.1540  0.4139
  411MPD2    H5 6195   0.732   4.418  14.339  0.7061  0.1501 -2.5446
  411MPD2    N1 6196   0.996   0.184  14.407 -0.2293 -0.2882  0.3751
  411MPD2    H7 6197   0.913   0.212  14.459 -0.4577 -0.5296  0.1479
  412TMC3    C1 6198   0.497   4.477  14.334  0.5134  0.4504  0.2568
  412TMC3    C2 6199   0.375   4.506  14.393 -0.2079 -0.4496  0.5529
  412TMC3    C3 6200   0.273   4.418  14.373 -0.4309  0.4235 -0.4798
  412TMC3    C4 6201   0.521   4.360  14.264  0.0607  0.2515  0.0559
  412TMC3    C5 6202   0.414   4.276  14.246  0.3284 -0.0424  0.5337
  412TMC3    C6 6203   0.293   4.295  14.307  0.1401  0.7301  0.1253
  412TMC3     C 6204   0.611   4.568  14.367  0.1770  0.0378 -0.6098
  412TMC3     O 6205   0.586   4.687  14.361  0.1130 -0.3547 -0.6828
  412TMC3     H 6206   0.349   4.604  14.430 -2.3909 -0.9528  0.3559
  412TMC3    H1 6207   0.607   4.347  14.198  2.0823 -0.6823  2.8896
  412TMC3    H2 6208   0.209   4.227  14.300  2.0453 -1.6430  0.4718
  412TMC3    C7 6209   0.390   4.222  14.107  0.8081 -0.7562  0.4816
  412TMC3    C8 6210   0.152   4.473  14.331 -0.0817 -0.0813  0.7154
  412TMC3    O1 6211   0.276   4.223  14.072 -0.1007 -0.3500 -0.9437
  412TMC3    O2 6212   0.109   4.569  14.394 -0.5938  0.0919 -0.5420
  413MPD2     C 6213   2.764   3.393  15.597 -0.6652  0.1720  0.2360
  413MPD2    C1 6214   2.703   3.392  15.476  0.1330  0.3726  0.7519
  413MPD2    C2 6215   2.765   3.427  15.353 -0.1013  0.1252 -1.1908
  413MPD2    C3 6216   2.904   3.421  15.360 -0.4760 -0.1283 -0.5569
  413MPD2    C4 6217   2.967   3.429  15.484  0.2105  0.4474  0.5787
  413MPD2    C5 6218   2.897   3.417  15.604  0.0897 -0.6639  0.6228
  413MPD2     H 6219   2.706   3.430  15.262 -0.7671 -1.1720 -0.8055
  413MPD2    H1 6220   3.073   3.442  15.499  0.3211  1.7404 -1.3618
  413MPD2    H2 6221   2.707   3.377  15.687 -0.0459 -0.4323  0.5156
  413MPD2    H3 6222   2.945   3.418  15.701  0.1138 -1.8175  0.6235
  413MPD2     N 6223   2.970   3.393  15.238 -0.0419  0.6945  0.3260
  413MPD2    H5 6224   2.916   3.398  15.152 -1.0678  1.3421  1.0080
  413MPD2    N1 6225   2.575   3.338  15.486  0.1864 -0.3264 -0.6588
  413MPD2    H7 6226   2.531   3.325  15.577 -0.5310 -1.9480 -1.2296
  414TMC3    C1 6227   3.118   3.253  15.115 -0.2411  0.0959  0.8983
  414TMC3    C2 6228   3.160   3.126  15.150 -0.5839  0.3093  0.3458
  414TMC3    C3 6229   3.142   3.024  15.061 -0.7498 -0.4699 -0.0025
  414TMC3    C4 6230   3.060   3.285  14.996  0.6462  0.4663 -0.5059
  414TMC3    C5 6231   3.058   3.186  14.906 -0.1040  0.3081 -0.7136
  414TMC3    C6 6232   3.087   3.057  14.942 -0.0636  0.0562 -0.5006
  414TMC3     C 6233   3.095   3.330  15.235  0.5353  0.1654  1.0805
  414TMC3     O 6234   3.178   3.316  15.325 -0.0673 -0.0895  0.1920
  414TMC3     H 6235   3.200   3.105  15.248 -0.6983  0.3992  0.4132
  414TMC3    H1 6236   3.041   3.390  14.972  0.7482  0.7255  0.5576
  414TMC3    H2 6237   3.083   2.982  14.864 -0.8632 -1.5439  1.0743
  414TMC3    C7 6238   2.976   3.210  14.785  0.5304  0.6056 -0.2853
  414TMC3    C8 6239   3.191   2.888  15.088  0.2852 -0.3119 -0.4319
  414TMC3    O1 6240   2.878   3.278  14.807  0.1936 -0.3571 -0.1466
  414TMC3    O2 6241   3.148   2.797  15.023 -0.6184  0.8517  0.2491
  415TMC3    C1 6242   3.124   1.130  10.148  0.3569 -0.4178 -0.4700
  415TMC3    C2 6243   3.090   1.148  10.021 -0.3131  0.1715  0.7342
  415TMC3    C3 6244   2.962   1.181   9.998  0.4870  1.2986  0.0172
  415TMC3    C4 6245   3.031   1.111  10.245  1.3294 -0.2325 -0.5595
  415TMC3    C5 6246   2.904   1.146  10.224  0.1066 -0.1725 -0.3197
  415TMC3    C6 6247   2.867   1.192  10.101  0.3710  0.2117 -0.0401
  415TMC3     C 6248   3.254   1.105  10.178 -0.2751 -0.6507 -0.1102
  415TMC3     O 6249   3.282   1.041  10.277 -0.6683 -0.3899 -0.0650
  415TMC3     H 6250   3.164   1.120   9.947  1.6804 -0.3281  2.9222
  415TMC3    H1 6251   3.071   1.089  10.343 -2.9266 -2.5351  0.6601
  415TMC3    H2 6252   2.765   1.226  10.089  0.3937  0.4665  0.5331
  415TMC3    C7 6253   2.800   1.135  10.334  0.5691 -0.2010  0.3334
  415TMC3    C8 6254   2.914   1.252   9.885 -0.3119  0.7026  0.3128
  415TMC3    O1 6255   2.715   1.223  10.341 -0.6963  0.0803 -0.1596
  415TMC3    O2 6256   2.794   1.250   9.873  0.4070 -0.4714 -0.5287
  416MPD2     C 6257   0.791   0.461  11.252 -0.9077 -0.3310  0.0589
  416MPD2    C1 6258   0.700   0.406  11.344  0.3098 -0.6307  0.4320
  416MPD2    C2 6259   0.648   0.277  11.328  0.2769  1.1125  0.4401
  416MPD2    C3 6260   0.681   0.203  11.219  0.0938 -0.2415 -0.1882
  416MPD2    C4 6261   0.772   0.253  11.130  0.1175 -0.3145  0.1505
  416MPD2    C5 6262   0.829   0.376  11.151  0.1978  0.7675  0.8909
  416MPD2     H 6263   0.593   0.223  11.404 -0.4911  1.7883  0.3550
  416MPD2    H1 6264   0.793   0.197  11.039  0.3292  1.0419 -0.6272
  416MPD2    H2 6265   0.833   0.561  11.261  1.1162 -1.1797  0.1799
  416MPD2    H3 6266   0.909   0.416  11.090  0.9109 -0.3779  1.0968
  416MPD2     N 6267   0.640   0.068  11.210 -0.4349 -0.2080  0.1723
  416MPD2    H5 6268   0.589   0.031  11.290  0.9558 -1.8221  0.3135
  416MPD2    N1 6269   0.657   0.499  11.440  0.6002 -0.8134  0.2283
  416MPD2    H7 6270   0.675   0.599  11.435 -2.2303 -0.3138  0.2594
  417TMC3    C1 6271   0.532   0.586  11.610 -0.4654 -0.5185 -0.0394
  417TMC3    C2 6272   0.522   0.578  11.746  0.0654  1.1239  0.3570
  417TMC3    C3 6273   0.418   0.635  11.809  0.4641  0.1184  0.3959
  417TMC3    C4 6274   0.436   0.659  11.544  0.1353  0.5646  0.0765
  417TMC3    C5 6275   0.335   0.718  11.606 -0.2812  0.7571  0.4191
  417TMC3    C6 6276   0.324   0.716  11.748  0.1616 -0.3557 -0.4144
  417TMC3     C 6277   0.581   0.467  11.543 -1.1406  0.2078 -0.1276
  417TMC3     O 6278   0.580   0.360  11.605 -0.1628  0.3369  0.0922
  417TMC3     H 6279   0.588   0.519  11.810  0.1568 -0.8130 -1.5289
  417TMC3    H1 6280   0.434   0.666  11.436 -2.9927  2.8551  0.2999
  417TMC3    H2 6281   0.236   0.759  11.794  1.9057  0.0920  2.4981
  417TMC3    C7 6282   0.224   0.767  11.530  0.3169 -0.9468  0.3001
  417TMC3    C8 6283   0.418   0.641  11.952 -0.2025  0.0663 -0.8203
  417TMC3    O1 6284   0.257   0.836  11.434  0.3493  0.5699 -0.2842
  417TMC3    O2 6285   0.354   0.728  12.006 -0.2500 -0.2225  0.7804
  418TMC3    C1 6286   3.610   1.605   0.068  1.0754  0.6498  0.5963
  418TMC3    C2 6287   3.487   1.636   0.032 -0.0147  0.5869 -0.3458
  418TMC3    C3 6288   3.386   1.654   0.130 -0.4771 -0.6446 -0.2264
  418TMC3    C4 6289   3.639   1.586   0.200 -0.0431  0.6766  0.0093
  418TMC3    C5 6290   3.540   1.611   0.290 -0.1222 -0.2962  0.2362
  418TMC3    C6 6291   3.415   1.644   0.256  0.2494 -0.5033 -0.5901
  418TMC3     C 6292   3.686   1.545  17.716  0.2068 -0.6799  0.8425
  418TMC3     O 6293   3.714   1.613  17.620  0.3072  0.4863 -0.0374
  418TMC3     H 6294   3.455   1.655  17.679 -1.3112 -2.2193 -0.4595
  418TMC3    H1 6295   3.740   1.565   0.232 -0.7102 -0.3357  1.4106
  418TMC3    H2 6296   3.345   1.671   0.335  0.2300 -2.7042  0.1504
  418TMC3    C7 6297   3.555   1.541   0.421 -1.0879  0.5550 -0.4080
  418TMC3    C8 6298   3.252   1.611   0.089 -0.6904  0.5525  0.2628
  418TMC3    O1 6299   3.478   1.451   0.436  0.6946 -0.0822 -0.1982
  418TMC3    O2 6300   3.202   1.657  17.734  0.8334 -0.6877 -0.2611
  419MPD2     C 6301   2.747   4.737  12.958  0.0934 -0.0744 -0.2201
  419MPD2    C1 6302   2.670   0.077  12.875 -0.2166 -0.3296  0.6453
  419MPD2    C2 6303   2.565   0.149  12.930  0.8093  0.6779  0.5530
  419MPD2    C3 6304   2.531   0.135  13.062 -0.8062  0.0926 -0.1007
  419MPD2    C4 6305   2.598   0.045  13.137  0.8710  0.6812 -0.3346
  419MPD2    C5 6306   2.712   4.727  13.086 -0.0508 -0.0880  0.7664
  419MPD2     H 6307   2.511   0.214  12.862 -2.1536 -3.7107 -1.2800
  419MPD2    H1 6308   2.583   0.029  13.243  2.2226  0.8430 -0.1151
  419MPD2    H2 6309   2.837   4.688  12.923 -0.1573  1.0273 -2.4150
  419MPD2    H3 6310   2.774   4.662  13.147  1.4645  1.1651  0.5349
  419MPD2     N 6311   2.429   0.207  13.128  0.1812 -0.0032 -0.4160
  419MPD2    H5 6312   2.429   0.198  13.229 -0.5541  2.3068 -0.1983
  419MPD2    N1 6313   2.716   0.115  12.747 -0.0879 -0.3458  0.4320
  419MPD2    H7 6314   2.658   0.188  12.708 -0.5935 -0.8406  0.2633
  420TMC3    C1 6315   2.280   0.397  13.152  0.8933  0.6418  0.6601
  420TMC3    C2 6316   2.242   0.512  13.075  0.1560 -0.6340  0.0596
  420TMC3    C3 6317   2.269   0.636  13.128  0.3190 -0.0312 -0.2764
  420TMC3    C4 6318   2.344   0.418  13.271 -0.5396  0.0683  0.7531
  420TMC3    C5 6319   2.358   0.541  13.326 -0.5270  0.7785 -0.3497
  420TMC3    C6 6320   2.320   0.655  13.258 -0.0962 -0.2325  1.1695
  420TMC3     C 6321   2.342   0.296  13.069  0.5214 -0.2067 -0.4894
  420TMC3     O 6322   2.323   0.303  12.947  0.0925  0.7634 -0.0982
  420TMC3     H 6323   2.209   0.502  12.972 -3.0397 -3.0971  1.3176
  420TMC3    H1 6324   2.364   0.333  13.335 -1.4589  1.0902  2.3675
  420TMC3    H2 6325   2.344   0.753  13.297 -0.6143  0.2601  0.2555
  420TMC3    C7 6326   2.424   0.553  13.451  0.2576  0.1477  0.1079
  420TMC3    C8 6327   2.220   0.751  13.053  0.2484 -0.7165  0.2666
  420TMC3    O1 6328   2.506   0.465  13.476 -0.5613  0.2404 -0.1233
  420TMC3    O2 6329   2.149   0.733  12.960  0.2667 -0.8007 -0.0924
  421TMC3    C1 6330   3.707   2.005  13.890  0.0804  0.3728  0.2654
  421TMC3    C2 6331   3.689   2.138  13.872 -0.1417 -0.1612  0.1165
  421TMC3    C3 6332   3.799   2.216  13.891 -0.0881  0.0072  0.4286
  421TMC3    C4 6333   3.812   1.945  13.951 -0.0630  0.3398 -0.2494
  421TMC3    C5 6334   3.909   2.037  13.985 -0.9547 -0.1688  0.1857
  421TMC3    C6 6335   3.909   2.166  13.950  0.7093  0.0932  0.4489
  421TMC3     C 6336   3.608   1.921  13.817 -0.2757 -0.4737 -0.2751
  421TMC3     O 6337   3.492   1.957  13.820  0.4343  0.1098 -0.1731
  421TMC3     H 6338   3.595   2.177  13.837 -1.2322 -1.1957  1.8988
  421TMC3    H1 6339   3.811   1.841  13.983  1.2076  0.6679  0.8520
  421TMC3    H2 6340   3.990   2.232  13.979 -0.6277  1.1067  1.8773
  421TMC3    C7 6341   4.009   2.003  14.086  0.0681  0.0103  0.0607
  421TMC3    C8 6342   3.791   2.357  13.885 -0.3774 -0.0128 -0.7172
  421TMC3    O1 6343   4.058   2.098  14.144  0.1188  0.1585 -0.2851
  421TMC3    O2 6344   3.900   2.410  13.880  0.3034  0.2040  0.0117
  422TMC3    C1 6345   1.477   3.269  12.468 -0.3037 -0.0308  1.0661
  422TMC3    C2 6346   1.438   3.398  12.491 -0.1932  0.5357  0.8297
  422TMC3    C3 6347   1.304   3.425  12.491  0.0320  0.0406 -0.1028
  422TMC3    C4 6348   1.387   3.171  12.438  0.2049  0.3897 -0.1443
  422TMC3    C5 6349   1.254   3.198  12.444 -0.7448 -0.3874 -0.0648
  422TMC3    C6 6350   1.213   3.321  12.482 -0.2545 -0.6735 -0.3102
  422TMC3     C 6351   1.606   3.254  12.404  0.3965 -0.1218 -0.2599
  422TMC3     O 6352   1.671   3.353  12.367  0.1111  0.1768 -0.1214
  422TMC3     H 6353   1.508   3.480  12.496  0.3399  0.0243  1.6770
  422TMC3    H1 6354   1.418   3.070  12.416  0.9041  0.5862 -0.0537
  422TMC3    H2 6355   1.106   3.337  12.478 -0.2364 -0.7638 -1.1908
  422TMC3    C7 6356   1.172   3.083  12.409 -0.2311 -0.0997 -0.6010
  422TMC3    C8 6357   1.272   3.555  12.544 -0.3193  0.1770  0.3645
  422TMC3    O1 6358   1.225   2.980  12.377 -0.1821 -0.2762  0.4481
  422TMC3    O2 6359   1.369   3.633  12.565 -0.3912  0.0366 -0.4488
  423MPD2     C 6360   2.571   4.048   0.435  1.1432  0.2197 -0.8940
  423MPD2    C1 6361   2.594   3.915   0.471  0.0281 -0.7131 -0.1456
  423MPD2    C2 6362   2.622   3.830   0.363 -0.7534  0.1013 -0.3973
  423MPD2    C3 6363   2.619   3.865   0.230 -0.0641  0.3030  0.3773
  423MPD2    C4 6364   2.594   3.999   0.198 -0.2727 -0.2784 -0.4045
  423MPD2    C5 6365   2.572   4.089   0.302 -0.5879  0.1075  0.4545
  423MPD2     H 6366   2.651   3.728   0.386 -2.1730 -0.4273 -0.9305
  423MPD2    H1 6367   2.586   4.037   0.097 -0.5932 -1.2722 -0.7577
  423MPD2    H2 6368   2.549   4.127   0.507 -1.6332  0.1520 -1.6744
  423MPD2    H3 6369   2.553   4.194   0.281 -0.9365 -0.4882 -2.2154
  423MPD2     N 6370   2.653   3.783   0.123 -0.1635  0.0764  0.5323
  423MPD2    H5 6371   2.637   3.821   0.030  1.4058  0.0902  0.2558
  423MPD2    N1 6372   2.602   3.886   0.605 -0.4352  0.0226 -0.6642
  423MPD2    H7 6373   2.555   3.943   0.675  2.5635  0.5762  0.9084
  424TMC3    C1 6374   2.625   3.755   0.800  0.3188  0.0523 -0.4693
  424TMC3    C2 6375   2.695   3.669   0.875  0.3913 -0.6064  0.6406
  424TMC3    C3 6376   2.672   3.667   1.008  0.7212 -0.7356  0.5248
  424TMC3    C4 6377   2.537   3.844   0.851 -0.7479  0.9863 -0.1099
  424TMC3    C5 6378   2.521   3.835   0.987  0.3035 -0.0812  0.2344
  424TMC3    C6 6379   2.582   3.748   1.069  0.3274 -0.7560 -1.0321
  424TMC3     C 6380   2.663   3.779   0.659 -0.8020 -0.1345  0.4714
  424TMC3     O 6381   2.758   3.718   0.607 -0.2816  0.5614  0.0692
  424TMC3     H 6382   2.762   3.605   0.819  1.1647  0.1964  0.6599
  424TMC3    H1 6383   2.463   3.900   0.795 -2.2576 -0.7578  0.1129
  424TMC3    H2 6384   2.562   3.750   1.175  3.4250  0.4836 -0.4926
  424TMC3    C7 6385   2.450   3.949   1.043 -0.1202  0.5519 -0.1008
  424TMC3    C8 6386   2.756   3.575   1.091  0.5244  0.0765  0.3963
  424TMC3    O1 6387   2.468   4.047   0.976 -0.2876  0.1153  0.5726
  424TMC3    O2 6388   2.723   3.569   1.209 -0.8740 -0.5879  0.0312
  425MPD2     C 6389   1.686   3.261  17.499  0.0822  0.5034  0.1578
  425MPD2    C1 6390   1.659   3.195  17.380  0.1204 -0.1528  1.1025
  425MPD2    C2 6391   1.525   3.192  17.335 -0.0247 -0.3896  0.4512
  425MPD2    C3 6392   1.431   3.273  17.388 -0.5261  0.1242  0.4756
  425MPD2    C4 6393   1.459   3.353  17.495  0.1730  0.2677 -0.5786
  425MPD2    C5 6394   1.583   3.336  17.554  0.3587  0.2249  1.0470
  425MPD2     H 6395   1.505   3.131  17.248 -1.2763  1.1391 -0.3317
  425MPD2    H1 6396   1.391   3.420  17.547 -0.8570 -0.4353 -1.0457
  425MPD2    H2 6397   1.785   3.275  17.541  0.0546 -0.8542  0.6686
  425MPD2    H3 6398   1.599   3.407  17.635 -0.4480  1.9219 -0.2946
  425MPD2     N 6399   1.300   3.264  17.333 -0.0621  0.0746 -0.3906
  425MPD2    H5 6400   1.294   3.198  17.256  0.9426  0.3047 -0.6658
  425MPD2    N1 6401   1.756   3.110  17.330 -0.7411  0.2840 -0.0998
  425MPD2    H7 6402   1.838   3.086  17.384 -0.8283 -0.6187 -0.3599
  426TMC3    C1 6403   1.807   2.919  17.189  0.1162  0.1489  0.0326
  426TMC3    C2 6404   1.787   2.861  17.067  0.0854  0.9600  0.1612
  426TMC3    C3 6405   1.792   2.726  17.071  0.1727 -0.0205  0.2184
  426TMC3    C4 6406   1.814   2.855  17.313 -0.2263  1.0365 -0.0346
  426TMC3    C5 6407   1.829   2.716  17.304 -0.0642  0.0521  0.5717
  426TMC3    C6 6408   1.822   2.658  17.178  1.1895  0.2639 -0.6212
  426TMC3     C 6409   1.754   3.057  17.202 -0.0591 -1.0674 -0.0297
  426TMC3     O 6410   1.675   3.092  17.117  0.3320 -0.2010  0.4640
  426TMC3     H 6411   1.767   2.927  16.983 -2.1459  2.0229  1.5391
  426TMC3    H1 6412   1.833   2.906  17.406 -2.4956  0.9677  0.4749
  426TMC3    H2 6413   1.811   2.551  17.174 -0.7711  0.4806 -0.9928
  426TMC3    C7 6414   1.766   2.654  17.418 -0.2534 -0.4006 -0.2312
  426TMC3    C8 6415   1.771   2.655  16.943 -0.4294  0.0106 -0.3013
  426TMC3    O1 6416   1.708   2.723  17.501 -0.2921 -0.3395 -0.3278
  426TMC3    O2 6417   1.812   2.539  16.929 -0.7043 -0.1152 -0.2710
  427MPD2     C 6418   0.409   0.430  14.742  0.2727  0.1461 -0.1858
  427MPD2    C1 6419   0.395   0.437  14.877 -0.2152 -1.4349  0.9653
  427MPD2    C2 6420   0.286   0.504  14.932 -0.1801 -1.0521  0.2670
  427MPD2    C3 6421   0.185   0.551  14.852  0.2525 -0.1450 -0.0652
  427MPD2    C4 6422   0.200   0.542  14.716  0.0552  0.2597 -0.1438
  427MPD2    C5 6423   0.313   0.481  14.666 -0.0617  0.5067 -0.3943
  427MPD2     H 6424   0.282   0.512  15.040 -0.2293  2.6083 -0.0192
  427MPD2    H1 6425   0.131   0.590  14.647  0.1296  0.6741  0.0723
  427MPD2    H2 6426   0.488   0.382  14.686 -0.2617  1.3761 -2.0118
  427MPD2    H3 6427   0.330   0.472  14.559  1.9089  0.8335 -0.1200
  427MPD2     N 6428   0.067   0.613  14.896  0.0350 -0.8431 -0.2561
  427MPD2    H5 6429   0.001   0.640  14.824  1.4842 -1.0094 -1.6318
  427MPD2    N1 6430   0.487   0.369  14.963 -0.3855 -0.1962  0.2262
  427MPD2    H7 6431   0.480   0.389  15.063  0.8931  2.0540 -0.1249
  428TMC3    C1 6432   0.680   0.256  15.030  0.7769  1.3458 -0.4042
  428TMC3    C2 6433   0.606   0.167  15.108  0.0842 -0.4830 -0.8327
  428TMC3    C3 6434   0.684   0.093  15.195  0.2238  0.3035  0.0429
  428TMC3    C4 6435   0.814   0.256  15.018  0.2823  0.2261 -0.2853
  428TMC3    C5 6436   0.888   0.179  15.118 -0.2292 -0.3655  0.0558
  428TMC3    C6 6437   0.820   0.101  15.206  0.1387 -0.3195  0.0142
  428TMC3     C 6438   0.604   0.320  14.919 -0.0381 -0.3977 -0.8625
  428TMC3     O 6439   0.669   0.316  14.817 -0.2638 -0.5148  0.3059
  428TMC3     H 6440   0.498   0.171  15.115  0.2647  1.2024  1.2873
  428TMC3    H1 6441   0.860   0.329  14.952  1.1567  0.8972  1.0594
  428TMC3    H2 6442   0.866   0.063  15.296  1.2938  2.7999  0.7424
  428TMC3    C7 6443   0.988   0.259  15.186  0.1133 -0.1662  0.1253
  428TMC3    C8 6444   0.613   0.022  15.295  0.0275 -0.0095  0.3953
  428TMC3    O1 6445   1.005   0.231  15.307  0.3620  0.0084  0.4983
  428TMC3    O2 6446   0.665   4.660  15.342 -0.3087 -0.3085  0.3595
  429MPD2     C 6447   0.649   0.426   0.090 -0.4731  0.1283 -0.1826
  429MPD2    C1 6448   0.752   0.338   0.067 -0.1544 -0.9996  0.3255
  429MPD2    C2 6449   0.856   0.359  17.731  0.2753  0.3600 -0.2125
  429MPD2    C3 6450   0.864   0.487  17.673 -0.2301  0.6657  0.6033
  429MPD2    C4 6451   0.766   0.583  17.693  0.2558  0.2455 -0.4692
  429MPD2    C5 6452   0.655   0.543   0.026 -0.3138  0.2664 -0.0009
  429MPD2     H 6453   0.937   0.288  17.724  0.5629  0.9295 -2.7292
  429MPD2    H1 6454   0.764   0.680  17.644  1.2026  0.2341 -0.5364
  429MPD2    H2 6455   0.568   0.410   0.160 -0.8654 -1.4538 -1.0022
  429MPD2    H3 6456   0.586   0.624   0.045  0.1525  0.4986  0.6898
  429MPD2     N 6457   0.975   0.504  17.588 -0.2092  0.5178 -0.3208
  429MPD2    H5 6458   1.031   0.419  17.585 -1.6474 -0.4735  1.3059
  429MPD2    N1 6459   0.750   0.211   0.127  0.4102 -0.2152 -0.4797
  429MPD2    H7 6460   0.820   0.145   0.093  0.9231  0.8602 -1.5218
  430TMC3    C1 6461   1.158   0.582  17.465 -0.5693 -0.7083 -0.2981
  430TMC3    C2 6462   1.247   0.687  17.470 -0.6544  0.9316  0.5825
  430TMC3    C3 6463   1.379   0.676  17.434  0.0999  0.3580 -0.1641
  430TMC3    C4 6464   1.199   0.467  17.420  0.7939 -0.3409  0.4972
  430TMC3    C5 6465   1.332   0.455  17.376  0.2053  0.1997 -0.3744
  430TMC3    C6 6466   1.421   0.556  17.389  0.2682  0.3068 -0.0703
  430TMC3     C 6467   1.021   0.610  17.512 -0.7758  0.0512  0.3056
  430TMC3     O 6468   0.966   0.717  17.494  0.2775  0.2255 -0.5701
  430TMC3     H 6469   1.213   0.782  17.509  0.2478  0.9389  1.3318
  430TMC3    H1 6470   1.134   0.381  17.410  0.4182 -0.1617  1.3893
  430TMC3    H2 6471   1.526   0.538  17.365  0.1251 -0.2533 -0.2823
  430TMC3    C7 6472   1.347   0.386  17.246  0.3003 -0.2023 -0.1902
  430TMC3    C8 6473   1.440   0.770  17.343  0.9890 -0.3888 -0.4024
  430TMC3    O1 6474   1.299   0.273  17.228  0.5484  0.2428  0.9410
  430TMC3    O2 6475   1.493   0.726  17.244  0.4869  0.3256 -0.1778
  431MPD2     C 6476   2.836   0.937  12.183  0.5721 -0.5520 -0.2901
  431MPD2    C1 6477   2.865   0.904  12.314 -0.7572  0.4609 -0.0179
  431MPD2    C2 6478   2.877   0.776  12.354 -0.1275 -0.0845 -0.3974
  431MPD2    C3 6479   2.857   0.670  12.268  0.5021  0.0972 -0.5320
  431MPD2    C4 6480   2.836   0.699  12.133 -0.6754  0.3969 -0.6878
  431MPD2    C5 6481   2.815   0.831  12.098  0.4526  0.0349 -0.7547
  431MPD2     H 6482   2.894   0.771  12.461 -2.5401 -0.6743 -0.0362
  431MPD2    H1 6483   2.815   0.629  12.053 -1.4647 -0.5486  0.3450
  431MPD2    H2 6484   2.825   1.035  12.137 -0.0721 -0.5536 -0.1371
  431MPD2    H3 6485   2.791   0.853  11.995 -2.2866 -0.6612 -0.2750
  431MPD2     N 6486   2.861   0.534  12.304  0.6753  0.1457  0.1824
  431MPD2    H5 6487   2.838   0.466  12.231  1.5040  1.6444 -1.4594
  431MPD2    N1 6488   2.905   1.009  12.399  0.3920 -0.1951 -0.1610
  431MPD2    H7 6489   2.935   0.982  12.492  0.3823 -2.7739 -0.9147
  432TMC3    C1 6490   2.877   0.342  12.447 -0.2982  0.5842  0.7078
  432TMC3    C2 6491   2.959   0.281  12.359 -0.2162  0.2684  0.9481
  432TMC3    C3 6492   2.991   0.148  12.376 -0.1270 -0.5262 -0.1989
  432TMC3    C4 6493   2.826   0.273  12.553  0.2758 -0.3995  0.8034
  432TMC3    C5 6494   2.864   0.140  12.565  0.4293 -0.5016 -0.2671
  432TMC3    C6 6495   2.954   0.082  12.484  0.4584  0.3367 -0.6900
  432TMC3     C 6496   2.846   0.485  12.434 -0.0606  0.1182  0.0586
  432TMC3     O 6497   2.822   0.544  12.541  0.0190 -0.1549  0.0338
  432TMC3     H 6498   2.986   0.328  12.265 -0.3990  2.3649  1.9448
  432TMC3    H1 6499   2.768   0.323  12.629  0.8052 -1.0057  1.6025
  432TMC3    H2 6500   2.972   4.713  12.495  0.1623  0.4831  1.1448
  432TMC3    C7 6501   2.825   0.056  12.684  0.3653 -0.1020 -0.1230
  432TMC3    C8 6502   3.104   0.093  12.304  0.0024 -0.4721  0.4341
  432TMC3    O1 6503   2.877   4.682  12.696  0.2254  0.7244 -0.3892
  432TMC3    O2 6504   3.127   4.714  12.338 -0.2146  0.2218 -0.2941
  433MPD2     C 6505   1.340   3.551  10.743  0.1613 -0.1953  0.0944
  433MPD2    C1 6506   1.449   3.519  10.816  0.4082 -0.0417  0.3469
  433MPD2    C2 6507   1.489   3.620  10.909  0.1354 -0.0466  0.2666
  433MPD2    C3 6508   1.421   3.736  10.935 -0.7723 -0.1922  0.4440
  433MPD2    C4 6509   1.315   3.763  10.857  0.1353 -0.9820  0.5567
  433MPD2    C5 6510   1.283   3.677  10.756 -0.0705 -0.4405 -0.1197
  433MPD2     H 6511   1.583   3.611  10.962  1.0627 -1.7067 -1.6371
  433MPD2    H1 6512   1.265   3.859  10.859  1.2843 -0.4070  1.7937
  433MPD2    H2 6513   1.307   3.486  10.664  1.9074 -0.2069 -0.6073
  433MPD2    H3 6514   1.193   3.698  10.699 -0.6593 -0.2378  0.8754
  433MPD2     N 6515   1.474   3.820  11.037  0.1357  0.0047  0.2937
  433MPD2    H5 6516   1.555   3.789  11.090  2.3829  1.2525 -2.4098
  433MPD2    N1 6517   1.517   3.396  10.797 -0.0752  0.2595 -0.3457
  433MPD2    H7 6518   1.483   3.327  10.731  0.7145 -0.2071 -0.2693
  434TMC3    C1 6519   1.669   3.217  10.836  0.8380 -0.2674 -0.5527
  434TMC3    C2 6520   1.727   3.146  10.939  0.2516  0.9076 -0.0501
  434TMC3    C3 6521   1.770   3.022  10.913  0.5114  0.0617  0.9033
  434TMC3    C4 6522   1.650   3.163  10.715 -0.5384  0.4277  0.1438
  434TMC3    C5 6523   1.692   3.035  10.696  0.1532 -0.2790 -0.2848
  434TMC3    C6 6524   1.764   2.970  10.791 -0.0608 -1.2200 -0.0374
  434TMC3     C 6525   1.613   3.343  10.877 -0.5272  0.2864 -0.2403
  434TMC3     O 6526   1.663   3.394  10.975  0.4189  0.2335 -0.1929
  434TMC3     H 6527   1.725   3.180  11.042 -1.9578  0.5996  0.0083
  434TMC3    H1 6528   1.608   3.220  10.633 -2.0739  0.3768  0.8976
  434TMC3    H2 6529   1.807   2.872  10.776 -0.2326 -1.3549  0.3553
  434TMC3    C7 6530   1.643   2.954  10.586 -0.1888  0.6392  0.7855
  434TMC3    C8 6531   1.880   2.981  11.002  0.1569 -0.6592  0.3102
  434TMC3    O1 6532   1.692   2.843  10.578  0.5152 -0.0105 -0.5334
  434TMC3    O2 6533   1.881   3.049  11.107  0.2979  0.6211 -0.4379
  435MPD2     C 6534   3.312   4.005  15.323 -0.1813  0.0797 -0.5281
  435MPD2    C1 6535   3.253   3.999  15.446  0.2529  0.4779 -0.9451
  435MPD2    C2 6536   3.316   3.946  15.554 -0.3364 -0.5468 -1.1482
  435MPD2    C3 6537   3.440   3.895  15.543 -0.1393 -0.4465  0.3300
  435MPD2    C4 6538   3.504   3.905  15.421  0.0622  0.0809  0.6757
  435MPD2    C5 6539   3.440   3.957  15.310  0.0582 -0.2352  0.6708
  435MPD2     H 6540   3.270   3.926  15.651  0.8938  1.8814 -0.0705
  435MPD2    H1 6541   3.603   3.863  15.404  1.3085  2.7588  1.4379
  435MPD2    H2 6542   3.256   4.043  15.238 -1.3480  0.6705  0.4954
  435MPD2    H3 6543   3.487   3.968  15.213  2.4275 -2.2179  1.6097
  435MPD2     N 6544   3.489   3.815  15.647  0.1923  0.4880  0.3807
  435MPD2    H5 6545   3.438   3.811  15.736  1.1074 -0.6615  0.8534
  435MPD2    N1 6546   3.116   4.052  15.478 -0.8598 -0.1214  0.2334
  435MPD2    H7 6547   3.087   4.043  15.574 -1.5302  0.7818  0.1089
  436TMC3    C1 6548   2.726   4.163  15.571  0.3215 -0.6127  0.4162
  436TMC3    C2 6549   2.858   4.124  15.546  0.5252  0.2217  0.3318
  436TMC3    C3 6550   2.919   4.185  15.446  0.5951 -0.3569 -0.0169
  436TMC3    C4 6551   2.668   4.254  15.487 -0.2953  0.0115 -0.6358
  436TMC3    C5 6552   2.742   4.310  15.382 -0.0497 -0.1352 -0.0193
  436TMC3    C6 6553   2.873   4.282  15.362  0.2449  0.1719 -0.4075
  436TMC3     C 6554   2.648   4.065  15.644  0.4825  0.4003 -0.0544
  436TMC3     O 6555   2.705   3.959  15.652  0.4405 -0.2784 -0.0389
  436TMC3     H 6556   2.899   4.035  15.593 -1.5224 -0.7403  0.2931
  436TMC3    H1 6557   2.560   4.253  15.500 -0.2945 -1.1605 -0.6944
  436TMC3    H2 6558   2.933   4.341  15.294 -0.0938  1.2044  0.1763
  436TMC3    C7 6559   2.684   4.429  15.323 -0.8008 -0.3218 -0.2210
  436TMC3    C8 6560   3.032   4.118  15.387 -0.0717  0.1777 -0.5215
  436TMC3    O1 6561   2.730   4.475  15.220 -0.3159 -0.4160  0.0834
  436TMC3    O2 6562   3.053   4.150  15.269 -0.0123  0.5641 -0.0978
  437TMC3    C1 6563   2.203   1.362  12.264 -0.0614  0.1397  0.2662
  437TMC3    C2 6564   2.083   1.429  12.266 -0.6416 -0.2080 -0.1262
  437TMC3    C3 6565   2.057   1.526  12.175 -0.4227  0.1805  0.6129
  437TMC3    C4 6566   2.302   1.401  12.176 -0.2384  0.4955 -0.3614
  437TMC3    C5 6567   2.272   1.509  12.093 -0.0656  0.4850 -0.5583
  437TMC3    C6 6568   2.152   1.572  12.086 -0.1316  0.1597  0.2305
  437TMC3     C 6569   2.229   1.252  12.358 -0.5288  0.3164 -0.1514
  437TMC3     O 6570   2.124   1.226  12.413 -0.4406 -0.3984 -0.6335
  437TMC3     H 6571   2.002   1.388  12.325 -2.4558  1.6457 -1.3177
  437TMC3    H1 6572   2.392   1.343  12.168 -1.1358 -0.8441 -0.7415
  437TMC3    H2 6573   2.146   1.659  12.022  1.3306  0.9467  1.1848
  437TMC3    C7 6574   2.382   1.597  12.069  0.4429 -0.2846 -0.2455
  437TMC3    C8 6575   1.949   1.622  12.196  0.4426 -0.5482 -0.1160
  437TMC3    O1 6576   2.368   1.690  11.986  0.9042 -0.0274 -0.0512
  437TMC3    O2 6577   1.937   1.715  12.112  0.5851 -0.1579  0.1001
  438MPD2     C 6578   3.869   1.137  16.546  0.1792 -0.0006  0.5549
  438MPD2    C1 6579   3.971   1.096  16.631  0.0500  0.1846  0.4171
  438MPD2    C2 6580   3.940   1.045  16.752  0.4948 -0.0312  0.2479
  438MPD2    C3 6581   3.814   1.042  16.804 -0.6540 -0.4453 -0.5761
  438MPD2    C4 6582   3.708   1.072  16.721  0.1709 -0.4985 -0.7357
  438MPD2    C5 6583   3.739   1.123  16.597 -0.1104  0.4529 -0.2863
  438MPD2     H 6584   4.018   0.992  16.805  0.0219 -3.8242 -2.9287
  438MPD2    H1 6585   3.601   1.057  16.733  0.6623 -3.0327  0.3963
  438MPD2    H2 6586   3.872   1.172  16.444 -1.4149 -1.3788  0.0315
  438MPD2    H3 6587   3.658   1.156  16.533  0.4212  2.1458 -0.0889
  438MPD2     N 6588   3.783   1.001  16.941  0.0763 -0.4286  0.6298
  438MPD2    H5 6589   3.686   1.010  16.971 -0.9084 -4.1917 -1.3420
  438MPD2    N1 6590   4.103   1.098  16.592  0.0905  0.4642 -0.6345
  438MPD2    H7 6591   4.173   1.054  16.651  0.7079  2.7035  0.2926
  439TMC3    C1 6592   4.296   1.174  16.464  0.9017  0.1047  0.4925
  439TMC3    C2 6593   4.351   1.212  16.335  0.1043 -0.0385  0.3294
  439TMC3    C3 6594   4.482   1.228  16.323 -0.1656  0.5820 -0.5780
  439TMC3    C4 6595   4.386   1.145  16.561 -0.1154  0.4316  0.0306
  439TMC3    C5 6596   4.516   1.141  16.533  0.6739 -0.3697 -0.2799
  439TMC3    C6 6597   4.568   1.188  16.417  0.4796  0.2139  0.1443
  439TMC3     C 6598   4.155   1.174  16.484  0.3185 -0.1701 -0.4361
  439TMC3     O 6599   4.090   1.232  16.400  0.1177 -0.3116  0.2292
  439TMC3     H 6600   4.288   1.218  16.247 -0.6618 -0.0383  0.8723
  439TMC3    H1 6601   4.355   1.146  16.665  1.2108 -1.5245  0.4501
  439TMC3    H2 6602   4.676   1.201  16.407  0.9896 -1.3303  3.6082
  439TMC3    C7 6603   4.613   1.113  16.634  0.1787 -0.5079  0.8480
  439TMC3    C8 6604   4.537   1.253  16.190  0.3475  0.0571  0.4338
  439TMC3    O1 6605   4.718   1.177  16.637 -0.2213 -0.2015  0.0646
  439TMC3    O2 6606   4.472   1.207  16.096  0.0028 -0.8960  0.4642
  440MPD2     C 6607   2.898   2.530  14.439 -0.4952  0.1910  0.2064
  440MPD2    C1 6608   2.872   2.549  14.576 -0.2123 -0.9641 -0.1300
  440MPD2    C2 6609   2.932   2.455  14.660 -0.1196  0.1180 -0.3419
  440MPD2    C3 6610   3.013   2.353  14.616 -0.3119  0.1688 -0.2523
  440MPD2    C4 6611   3.029   2.330  14.483 -0.4823 -0.4699 -0.7877
  440MPD2    C5 6612   2.979   2.421  14.397 -0.0917  0.9173  0.5632
  440MPD2     H 6613   2.911   2.458  14.766 -0.2158  0.7343 -0.3743
  440MPD2    H1 6614   3.092   2.251  14.442  1.1985 -0.1330  1.1464
  440MPD2    H2 6615   2.861   2.599  14.364  0.0267 -0.0326 -0.2493
  440MPD2    H3 6616   3.014   2.409  14.295 -2.3811 -1.8622  0.0834
  440MPD2     N 6617   3.060   2.261  14.711  0.2374 -1.0230  0.2694
  440MPD2    H5 6618   3.092   2.168  14.686 -1.2256 -1.1346 -1.1885
  440MPD2    N1 6619   2.805   2.664  14.630 -0.0095  0.0110  0.2117
  440MPD2    H7 6620   2.789   2.661  14.731 -0.0496 -0.9778  0.1749
  441TMC3    C1 6621   3.187   2.203  14.904 -0.0579 -0.2053 -0.3155
  441TMC3    C2 6622   3.300   2.243  14.972 -0.4474 -0.0645 -0.5006
  441TMC3    C3 6623   3.333   2.175  15.084 -0.6686  0.2628 -1.2329
  441TMC3    C4 6624   3.109   2.103  14.953 -0.1404  0.0156  0.3509
  441TMC3    C5 6625   3.158   2.030  15.057  0.2509  0.3092 -0.0435
  441TMC3    C6 6626   3.268   2.067  15.134  0.4507  0.6288  0.1503
  441TMC3     C 6627   3.112   2.306  14.835 -0.0164  0.6564 -0.6622
  441TMC3     O 6628   3.117   2.423  14.872  0.2898 -0.5635 -0.5393
  441TMC3     H 6629   3.360   2.325  14.933  1.1492 -1.0564 -0.1190
  441TMC3    H1 6630   3.013   2.079  14.909 -0.3918 -0.5002  1.1772
  441TMC3    H2 6631   3.304   2.017  15.223  0.1521  0.2935  0.0780
  441TMC3    C7 6632   3.066   1.950  15.130  0.7859  0.1844  0.4478
  441TMC3    C8 6633   3.387   2.267  15.181  0.3177 -0.2300  0.2624
  441TMC3    O1 6634   2.952   1.987  15.127  0.1817 -0.3701 -0.5713
  441TMC3    O2 6635   3.483   2.232  15.248  0.4819  0.9551 -0.0942
  442MPD2     C 6636   1.228   2.558  16.692 -0.4996 -0.2536  0.6694
  442MPD2    C1 6637   1.101   2.545  16.632  0.2636 -0.0334  0.0076
  442MPD2    C2 6638   1.078   2.452  16.535 -0.9240  0.2241  0.0101
  442MPD2    C3 6639   1.172   2.353  16.495 -0.0903  0.2357  0.1301
  442MPD2    C4 6640   1.292   2.370  16.557 -0.2861  0.2878 -0.0898
  442MPD2    C5 6641   1.320   2.475  16.643  0.3331 -0.5470  0.9678
  442MPD2     H 6642   0.976   2.449  16.500 -0.7316  0.0949 -0.5368
  442MPD2    H1 6643   1.377   2.316  16.517  1.2513  2.8703 -0.2876
  442MPD2    H2 6644   1.261   2.621  16.773 -2.2455  2.5814 -0.8404
  442MPD2    H3 6645   1.421   2.495  16.678  0.7942  1.8326 -1.6253
  442MPD2     N 6646   1.169   2.272  16.378  0.0216 -0.7496  0.4532
  442MPD2    H5 6647   1.252   2.220  16.353 -0.1799 -0.4641 -0.8157
  442MPD2    N1 6648   0.996   2.629  16.674  0.2844 -0.2672 -0.0138
  442MPD2    H7 6649   0.908   2.611  16.628 -0.3594 -2.5369  2.1356
  443TMC3    C1 6650   0.880   2.802  16.794  0.5780 -0.2167 -0.0155
  443TMC3    C2 6651   0.909   2.934  16.807 -0.2101  0.3301 -0.2461
  443TMC3    C3 6652   0.810   3.024  16.800  0.0459  0.1621  0.0770
  443TMC3    C4 6653   0.747   2.765  16.785  0.5242  0.2973  0.3301
  443TMC3    C5 6654   0.649   2.859  16.796  1.0963  0.3717 -0.3513
  443TMC3    C6 6655   0.672   2.991  16.801 -0.0417 -0.1768 -0.5499
  443TMC3     C 6656   0.993   2.720  16.776 -0.0603 -0.3775  0.4147
  443TMC3     O 6657   1.086   2.771  16.834 -0.6155 -0.0235  0.2732
  443TMC3     H 6658   1.011   2.967  16.827  0.6413 -0.4259 -3.2765
  443TMC3    H1 6659   0.719   2.661  16.790  0.4206  0.2610 -1.0454
  443TMC3    H2 6660   0.602   3.073  16.788  0.2183  0.0002 -0.8411
  443TMC3    C7 6661   0.514   2.810  16.824 -0.1859  0.6960  0.3240
  443TMC3    C8 6662   0.861   3.160  16.772 -0.3629 -0.2257  0.9206
  443TMC3    O1 6663   0.496   2.693  16.792 -0.2804  0.6386  0.0472
  443TMC3    O2 6664   0.935   3.200  16.859  0.4275  0.3352 -0.1898
  444MPD2     C 6665   1.085   2.110  16.779  0.7123  0.2649 -0.8002
  444MPD2    C1 6666   1.016   2.040  16.875  0.5572  0.3445 -0.3913
  444MPD2    C2 6667   1.069   1.915  16.921 -0.3977  0.5687  0.0532
  444MPD2    C3 6668   1.188   1.871  16.867 -0.6868 -0.2483 -0.1792
  444MPD2    C4 6669   1.249   1.940  16.766 -0.2709 -0.1790  0.3503
  444MPD2    C5 6670   1.194   2.059  16.718  0.7496 -0.1847 -0.3107
  444MPD2     H 6671   1.020   1.858  16.999  0.2886  1.1400  0.9102
  444MPD2    H1 6672   1.335   1.904  16.710 -0.1915  0.1245  0.2746
  444MPD2    H2 6673   1.055   2.210  16.749  0.2549  0.4504  0.2807
  444MPD2    H3 6674   1.235   2.110  16.631 -0.0913  0.9886 -0.0207
  444MPD2     N 6675   1.235   1.745  16.907  0.5375 -0.0183 -0.2881
  444MPD2    H5 6676   1.179   1.689  16.970  0.3496  0.9656  0.4370
  444MPD2    N1 6677   0.893   2.078  16.935 -0.4849 -0.0689  0.0864
  444MPD2    H7 6678   0.866   2.021  17.014  2.0231 -1.0448  0.2310
  445TMC3    C1 6679   1.389   1.570  16.933 -0.7030  0.3348 -0.9125
  445TMC3    C2 6680   1.383   1.571  17.071 -0.0721  0.4442  0.4411
  445TMC3    C3 6681   1.489   1.524  17.145 -0.3762  0.0183 -0.0336
  445TMC3    C4 6682   1.496   1.503  16.878  0.1673  0.1478  0.1778
  445TMC3    C5 6683   1.582   1.431  16.955  1.0365  0.3454 -0.0915
  445TMC3    C6 6684   1.589   1.450  17.090 -0.0134  0.0937  0.2684
  445TMC3     C 6685   1.362   1.694  16.868  0.1045 -0.2181 -0.4342
  445TMC3     O 6686   1.447   1.729  16.790  0.3682  0.0377  1.0092
  445TMC3     H 6687   1.312   1.643  17.111  0.3216  0.9932  0.1589
  445TMC3    H1 6688   1.499   1.493  16.771  0.2437  1.3319  0.0674
  445TMC3    H2 6689   1.663   1.402  17.153  0.5447  1.6962  0.8249
  445TMC3    C7 6690   1.700   1.381  16.881  0.0690  0.5615  0.0115
  445TMC3    C8 6691   1.452   1.485  17.279  0.2734 -0.1963 -0.5247
  445TMC3    O1 6692   1.736   1.450  16.785  0.3002  0.6716 -0.1362
  445TMC3    O2 6693   1.340   1.510  17.314 -0.1072 -0.8956  0.4710
  446MPD2     C 6694   1.631   3.292  11.556  1.2774 -0.8611 -0.3215
  446MPD2    C1 6695   1.563   3.295  11.435 -0.2488  0.3036  0.6217
  446MPD2    C2 6696   1.637   3.329  11.324  0.2689  0.6267  0.0733
  446MPD2    C3 6697   1.770   3.350  11.329  0.2398  0.2184  0.0239
  446MPD2    C4 6698   1.832   3.332  11.451 -0.3956 -0.1027 -0.3669
  446MPD2    C5 6699   1.768   3.304  11.564  0.1156 -0.2377 -0.5930
  446MPD2     H 6700   1.581   3.332  11.231  2.2226 -3.7307 -1.2369
  446MPD2    H1 6701   1.940   3.339  11.452 -0.3578 -0.7136 -0.2281
  446MPD2    H2 6702   1.585   3.259  11.649  1.1725  0.6595  0.1700
  446MPD2    H3 6703   1.826   3.285  11.654  1.1408 -1.1731 -1.4407
  446MPD2     N 6704   1.835   3.381  11.207 -0.1254  0.3349 -0.4431
  446MPD2    H5 6705   1.782   3.395  11.122 -2.0191 -1.9481  0.3752
  446MPD2    N1 6706   1.417   3.266  11.424  0.4936  0.1717  0.0298
  446MPD2    H7 6707   1.390   3.274  11.326 -0.5703 -0.1846  0.2995
  447TMC3    C1 6708   2.019   3.416  11.066  0.3269 -0.8252  0.5838
  447TMC3    C2 6709   1.980   3.536  11.011 -0.0950  0.3358  0.3189
  447TMC3    C3 6710   2.054   3.600  10.918 -0.2989  0.0936 -0.4846
  447TMC3    C4 6711   2.139   3.364  11.030  0.1297 -0.0530  0.5931
  447TMC3    C5 6712   2.215   3.432  10.936  0.6853  0.4553 -0.5424
  447TMC3    C6 6713   2.180   3.551  10.880 -0.1854  0.4253 -0.2490
  447TMC3     C 6714   1.975   3.377  11.191 -0.3639 -1.3726  0.1310
  447TMC3     O 6715   2.059   3.337  11.265 -0.2602 -0.4545  0.5222
  447TMC3     H 6716   1.881   3.577  11.026  0.2932  1.0950  0.8238
  447TMC3    H1 6717   2.159   3.266  11.072  1.0185  0.6479  1.8095
  447TMC3    H2 6718   2.243   3.581  10.798  1.4078 -3.4445 -0.4352
  447TMC3    C7 6719   2.352   3.387  10.947  1.0555  0.5519  0.7477
  447TMC3    C8 6720   2.001   3.706  10.840  0.7355 -0.4364  0.1948
  447TMC3    O1 6721   2.375   3.297  11.025  0.2869 -0.6536 -0.5937
  447TMC3    O2 6722   1.881   3.701  10.823  0.2683  0.0699  0.0638
  448TMC3    C1 6723   4.138   3.434  17.092  0.3497 -1.0837  0.5106
  448TMC3    C2 6724   4.156   3.304  17.053  0.2992  0.5204 -0.1625
  448TMC3    C3 6725   4.152   3.203  17.149  0.0007 -0.4033 -0.2096
  448TMC3    C4 6726   4.116   3.463  17.226 -0.6072  0.6651 -0.2398
  448TMC3    C5 6727   4.122   3.362  17.322  0.2306  0.0654  0.2374
  448TMC3    C6 6728   4.147   3.234  17.284  0.1111  0.2952  0.5656
  448TMC3     C 6729   4.082   3.524  16.993  0.4445 -0.1805 -0.3465
  448TMC3     O 6730   3.989   3.587  17.034 -0.0549  0.6228 -0.1202
  448TMC3     H 6731   4.173   3.283  16.948  1.6971  0.8211 -0.0061
  448TMC3    H1 6732   4.077   3.559  17.258 -0.8795  0.6625 -0.5615
  448TMC3    H2 6733   4.149   3.159  17.362 -0.7259  0.1812  0.4820
  448TMC3    C7 6734   4.121   3.402  17.462 -0.7723  0.3864  0.2379
  448TMC3    C8 6735   4.131   3.060  17.119  0.1012  0.5736 -0.1345
  448TMC3    O1 6736   4.106   3.522  17.486  0.2696 -0.0086  0.2964
  448TMC3    O2 6737   4.120   2.991  17.215 -0.5924 -0.2372  0.2911
  449MPD2     C 6738   1.127   1.361  13.798  0.0696  0.4268  0.0633
  449MPD2    C1 6739   1.005   1.345  13.728 -0.0019 -0.0911 -0.4872
  449MPD2    C2 6740   0.884   1.367  13.800 -0.5192  0.9645 -0.2297
  449MPD2    C3 6741   0.890   1.391  13.929 -0.4796 -0.3778  0.5470
  449MPD2    C4 6742   1.002   1.395  14.000 -0.3859  0.1147 -0.0863
  449MPD2    C5 6743   1.120   1.379  13.931  0.1569  0.7641 -0.2265
  449MPD2     H 6744   0.792   1.393  13.749 -0.8073 -4.1814 -2.3403
  449MPD2    H1 6745   1.002   1.415  14.106  1.5599 -3.7735  0.6679
  449MPD2    H2 6746   1.221   1.360  13.745 -0.6587 -1.7648 -1.1653
  449MPD2    H3 6747   1.207   1.395  13.993 -1.1698  1.2234  1.4993
  449MPD2     N 6748   0.767   1.431  13.987  0.4084  0.4136  0.2274
  449MPD2    H5 6749   0.695   1.437  13.916  0.1783 -0.7893  0.3505
  449MPD2    N1 6750   0.992   1.346  13.589  0.2208 -0.1498 -0.2206
  449MPD2    H7 6751   0.898   1.353  13.553 -0.1361  4.6753  1.6765
  450TMC3    C1 6752   1.041   1.390  13.362 -0.0595  0.2083 -0.3742
  450TMC3    C2 6753   1.117   1.378  13.254 -0.0968 -0.2928  0.2472
  450TMC3    C3 6754   1.064   1.411  13.124  0.1784 -0.2696 -0.1184
  450TMC3    C4 6755   0.921   1.461  13.356  0.3401 -0.0600  1.2093
  450TMC3    C5 6756   0.873   1.499  13.230 -0.5128  0.7471  0.3751
  450TMC3    C6 6757   0.939   1.475  13.115  0.3249  0.0520  0.0996
  450TMC3     C 6758   1.089   1.356  13.494 -0.1857  0.2836  0.5287
  450TMC3     O 6759   1.211   1.353  13.504  0.4527  0.2618  0.6879
  450TMC3     H 6760   1.212   1.337  13.285 -0.1797 -0.5494  0.1577
  450TMC3    H1 6761   0.888   1.504  13.450 -0.6381 -0.8321  1.2251
  450TMC3    H2 6762   0.911   1.513  13.017  1.4843 -2.7294 -1.3012
  450TMC3    C7 6763   0.739   1.550  13.211  0.4637 -0.3426  0.8331
  450TMC3    C8 6764   1.153   1.433  13.014  0.3616 -0.1768  0.2968
  450TMC3    O1 6765   0.718   1.639  13.132 -0.1179  0.4188 -0.5200
  450TMC3    O2 6766   1.103   1.466  12.907  0.1954  0.8931  0.0503
  451MPD2     C 6767   1.910   1.067   2.088  0.1796  0.6096 -0.2513
  451MPD2    C1 6768   1.968   1.040   1.967 -0.2999 -0.1035  0.2265
  451MPD2    C2 6769   2.017   0.913   1.943  0.3076 -0.0172 -0.1635
  451MPD2    C3 6770   2.014   0.815   2.046  0.1886 -0.5341  0.0486
  451MPD2    C4 6771   1.970   0.851   2.173 -0.6671  0.0279  0.4808
  451MPD2    C5 6772   1.909   0.971   2.191 -0.4248  0.2428  0.0238
  451MPD2     H 6773   2.055   0.889   1.844 -0.6156 -0.0112 -0.5241
  451MPD2    H1 6774   1.960   0.773   2.247 -3.2422  0.9150  1.0529
  451MPD2    H2 6775   1.863   1.161   2.118 -1.9969 -0.1922 -1.1414
  451MPD2    H3 6776   1.861   0.996   2.285  1.4183  0.2799  0.9552
  451MPD2     N 6777   2.046   0.678   2.023 -0.5735  0.1936  0.2433
  451MPD2    H5 6778   2.040   0.613   2.100  2.7948 -0.8117 -0.3449
  451MPD2    N1 6779   1.959   1.142   1.865  0.5473 -0.2090  0.0560
  451MPD2    H7 6780   1.900   1.219   1.896  0.5220 -0.6175  1.0007
  452TMC3    C1 6781   2.124   0.477   1.914  0.8071 -0.3867  0.1432
  452TMC3    C2 6782   2.138   0.407   2.034  0.5297  0.5275 -0.5344
  452TMC3    C3 6783   2.133   0.270   2.023  0.2987  0.5100 -0.0550
  452TMC3    C4 6784   2.112   0.411   1.793 -0.5906  0.4055  0.1235
  452TMC3    C5 6785   2.107   0.274   1.786  0.5018 -0.1979  1.0420
  452TMC3    C6 6786   2.123   0.199   1.903  0.0951 -0.0441 -0.5829
  452TMC3     C 6787   2.082   0.619   1.906  0.4458 -0.1475 -0.1243
  452TMC3     O 6788   2.101   0.672   1.797 -0.2980  0.1351 -0.4581
  452TMC3     H 6789   2.140   0.458   2.130  1.9364 -2.7377  1.1423
  452TMC3    H1 6790   2.098   0.470   1.703  1.5246  2.1152  0.9228
  452TMC3    H2 6791   2.130   0.091   1.904 -0.7414 -0.0933  0.3230
  452TMC3    C7 6792   2.094   0.205   1.655  0.0424  0.2571 -0.0904
  452TMC3    C8 6793   2.142   0.188   2.138 -0.5699  0.1065 -0.2855
  452TMC3    O1 6794   2.081   0.277   1.559  0.2282 -0.5754  0.8961
  452TMC3    O2 6795   2.069   0.092   2.138  0.6391  0.0198  0.3793
  453TMC3    C1 6796   3.219   2.314  12.580  0.1789 -0.5490 -0.0018
  453TMC3    C2 6797   3.235   2.183  12.530 -0.2316 -0.9587  0.0963
  453TMC3    C3 6798   3.128   2.122  12.465  1.0453  0.6647 -0.4957
  453TMC3    C4 6799   3.105   2.384  12.545 -0.2108 -0.8808  0.2100
  453TMC3    C5 6800   3.002   2.318  12.484  0.1709 -0.2548 -0.4344
  453TMC3    C6 6801   3.003   2.184  12.446  0.1928 -0.2958 -0.1648
  453TMC3     C 6802   3.339   2.400  12.590  0.3715  0.1661  0.8998
  453TMC3     O 6803   3.341   2.468  12.688  0.1467  0.1730 -0.0730
  453TMC3     H 6804   3.318   2.129  12.573  0.4961 -0.4116 -0.6107
  453TMC3    H1 6805   3.103   2.492  12.558  1.2036 -0.9369  0.9223
  453TMC3    H2 6806   2.922   2.140  12.390  1.3537  0.5800 -2.5759
  453TMC3    C7 6807   2.939   2.415  12.392  0.1783  0.8492  0.3192
  453TMC3    C8 6808   3.146   1.989  12.416 -0.1958  0.0611  0.4675
  453TMC3    O1 6809   2.913   2.514  12.454 -0.1517  0.4725 -0.0672
  453TMC3    O2 6810   3.043   1.917  12.430  0.0253  1.0490 -0.3340
  454MPD2     C 6811   1.989   1.400  16.284 -0.3755  0.2195 -0.5910
  454MPD2    C1 6812   2.011   1.518  16.213  0.7467  0.1787 -0.1679
  454MPD2    C2 6813   1.978   1.636  16.269 -0.6597 -0.7750 -0.0297
  454MPD2    C3 6814   1.925   1.640  16.398 -0.6790 -0.1881  0.4433
  454MPD2    C4 6815   1.900   1.522  16.460  0.7727 -0.5755  0.1447
  454MPD2    C5 6816   1.920   1.404  16.398 -1.0563 -0.2079  0.1742
  454MPD2     H 6817   1.986   1.728  16.213 -0.9354  1.2165  3.2055
  454MPD2    H1 6818   1.865   1.525  16.563 -0.6138 -2.7866 -0.2629
  454MPD2    H2 6819   2.016   1.302  16.244  1.3120  0.1387  0.7288
  454MPD2    H3 6820   1.897   1.313  16.453  1.4558  0.4927  2.3807
  454MPD2     N 6821   1.891   1.756  16.459  0.3377 -0.1163 -0.1871
  454MPD2    H5 6822   1.833   1.750  16.542 -1.0897  0.9500 -1.1135
  454MPD2    N1 6823   2.057   1.521  16.074  0.0838 -0.3556 -0.5188
  454MPD2    H7 6824   2.082   1.608  16.029 -2.9010 -1.7276 -4.8871
  455TMC3    C1 6825   1.827   1.978  16.478  0.0965  0.5958 -0.5298
  455TMC3    C2 6826   1.863   2.106  16.464  0.1470  0.3256 -0.7246
  455TMC3    C3 6827   1.776   2.208  16.439  0.3896  0.2328 -0.2606
  455TMC3    C4 6828   1.691   1.945  16.466 -0.8089  0.0477 -0.6593
  455TMC3    C5 6829   1.607   2.043  16.427  0.3754 -0.0620 -0.4199
  455TMC3    C6 6830   1.648   2.177  16.400  0.2538 -0.0462 -0.3944
  455TMC3     C 6831   1.919   1.880  16.412  0.2183  0.3177  0.0249
  455TMC3     O 6832   1.995   1.925  16.327  0.1804  1.0506 -0.2438
  455TMC3     H 6833   1.969   2.127  16.454  0.1871  0.7268  0.6253
  455TMC3    H1 6834   1.661   1.842  16.451 -1.1903  0.4376 -2.5806
  455TMC3    H2 6835   1.574   2.248  16.366 -0.2274  0.1115  0.9568
  455TMC3    C7 6836   1.469   2.012  16.376  0.0029 -0.5023 -0.1336
  455TMC3    C8 6837   1.812   2.338  16.501  0.5071 -0.6992 -0.0333
  455TMC3    O1 6838   1.391   2.105  16.379  0.2365 -0.1942  0.3408
  455TMC3    O2 6839   1.896   2.345  16.591 -0.2529  0.0949  0.4783
  456MPD2     C 6840   4.506   1.848  16.619 -0.3668 -0.6535  0.2147
  456MPD2    C1 6841   4.469   1.974  16.579 -0.7324 -0.7574  0.3059
  456MPD2    C2 6842   4.383   2.049  16.654  0.3189 -0.0538 -0.1913
  456MPD2    C3 6843   4.337   1.998  16.773 -0.5667 -0.3395 -0.1437
  456MPD2    C4 6844   4.364   1.866  16.807 -0.5297  0.3552 -0.0621
  456MPD2    C5 6845   4.452   1.789  16.727  0.2961  0.1170  0.3278
  456MPD2     H 6846   4.353   2.151  16.634 -0.3214 -0.1540  0.2804
  456MPD2    H1 6847   4.326   1.819  16.897  0.0487  0.6988  0.3556
  456MPD2    H2 6848   4.578   1.789  16.564  2.9836  0.8491  3.0151
  456MPD2    H3 6849   4.486   1.692  16.759  3.0992  1.2111  0.6371
  456MPD2     N 6850   4.269   2.090  16.864 -0.1287  0.3555 -0.5049
  456MPD2    H5 6851   4.269   2.186  16.832  0.0130  1.1347  1.8354
  456MPD2    N1 6852   4.538   2.022  16.467 -0.0414 -0.4477  0.2279
  456MPD2    H7 6853   4.616   1.967  16.434  0.8413 -0.0915  1.6697
  457TMC3    C1 6854   4.172   2.149  17.074  0.2414 -0.3715 -0.2768
  457TMC3    C2 6855   4.172   2.281  17.039  0.5228  0.0072  0.5722
  457TMC3    C3 6856   4.126   2.367  17.134 -0.0983  0.2136  0.0638
  457TMC3    C4 6857   4.129   2.101  17.195 -0.2254 -0.2498  0.0478
  457TMC3    C5 6858   4.073   2.193  17.284  0.4923  1.0569 -0.1766
  457TMC3    C6 6859   4.076   2.328  17.254  0.1009 -0.3582  0.7435
  457TMC3     C 6860   4.225   2.045  16.986 -0.1285 -0.3267  0.4360
  457TMC3     O 6861   4.200   1.930  17.019  0.7036 -0.0251 -0.3338
  457TMC3     H 6862   4.233   2.319  16.957  0.2050 -0.9587 -0.1129
  457TMC3    H1 6863   4.123   1.994  17.208 -0.3639 -0.3811 -1.0913
  457TMC3    H2 6864   4.052   2.407  17.324 -0.9450  0.1612 -0.1961
  457TMC3    C7 6865   4.067   2.148  17.420 -0.6019  0.4225 -0.2571
  457TMC3    C8 6866   4.122   2.511  17.107  0.3515 -0.2665 -0.4079
  457TMC3    O1 6867   4.128   2.045  17.443 -0.1531 -0.0899 -0.5620
  457TMC3    O2 6868   4.111   2.588  17.200  0.1565 -0.0421  0.9861
  458MPD2     C 6869   2.817   1.799  12.242  0.1293  0.2733 -0.2184
  458MPD2    C1 6870   2.785   1.687  12.316  0.8021 -0.5307 -0.3947
  458MPD2    C2 6871   2.684   1.606  12.272 -0.2322  0.1758 -0.2939
  458MPD2    C3 6872   2.601   1.648  12.171  0.3480  0.2432  1.1703
  458MPD2    C4 6873   2.629   1.766  12.104 -0.7306 -0.5039  0.2464
  458MPD2    C5 6874   2.738   1.841  12.141 -0.6913  0.4817 -0.1960
  458MPD2     H 6875   2.648   1.524  12.333  0.1795 -1.2539 -1.9619
  458MPD2    H1 6876   2.576   1.808  12.019  1.5051  0.2415 -0.7762
  458MPD2    H2 6877   2.892   1.870  12.274  0.8419 -1.3706  1.7534
  458MPD2    H3 6878   2.764   1.936  12.097  3.7432 -1.2673 -1.3613
  458MPD2     N 6879   2.487   1.572  12.156  0.2175 -0.1832 -0.2687
  458MPD2    H5 6880   2.493   1.481  12.201 -0.2810  0.9871  2.2024
  458MPD2    N1 6881   2.864   1.657  12.427 -0.1309 -0.0844 -0.4518
  458MPD2    H7 6882   2.947   1.713  12.441  0.9719 -1.5367 -1.2001
  459TMC3    C1 6883   2.920   1.566  12.635  0.0815 -0.4170 -1.0638
  459TMC3    C2 6884   3.028   1.649  12.641 -0.8517 -0.5061 -1.1240
  459TMC3    C3 6885   3.073   1.686  12.765 -0.0779  0.2277 -1.1089
  459TMC3    C4 6886   2.870   1.510  12.752 -0.1670 -0.4852 -0.9030
  459TMC3    C5 6887   2.923   1.547  12.873  0.0995 -0.1269 -0.4091
  459TMC3    C6 6888   3.026   1.632  12.877  0.6899 -0.0846 -0.1624
  459TMC3     C 6889   2.832   1.562  12.517  0.0377  0.5425 -0.4548
  459TMC3     O 6890   2.726   1.505  12.535  0.0704  0.0722  0.4178
  459TMC3     H 6891   3.071   1.681  12.547 -0.9710 -0.8043 -1.2794
  459TMC3    H1 6892   2.786   1.441  12.748 -0.8660  0.1297  3.3500
  459TMC3    H2 6893   3.074   1.661  12.969 -2.4145 -2.9197  2.3511
  459TMC3    C7 6894   2.867   1.503  12.996  0.0779 -0.5013 -0.5873
  459TMC3    C8 6895   3.179   1.791  12.766 -0.5611  0.1985 -0.5446
  459TMC3    O1 6896   2.797   1.401  12.984 -0.4180 -0.3953  0.4688
  459TMC3    O2 6897   3.229   1.807  12.654 -0.3005  0.5182 -0.0704
  460MPD2     C 6898   2.176   4.014  10.733  0.2637 -0.1441  0.3678
  460MPD2    C1 6899   2.078   3.918  10.738 -0.5922 -0.1062  1.0430
  460MPD2    C2 6900   1.966   3.932  10.665  0.4094  0.0442  0.1693
  460MPD2    C3 6901   1.944   4.046  10.598 -0.0288  0.6106 -0.3470
  460MPD2    C4 6902   2.036   4.153  10.600 -0.2557  0.1821  0.3599
  460MPD2    C5 6903   2.155   4.133  10.666 -0.6845  0.8356  0.1181
  460MPD2     H 6904   1.895   3.853  10.642 -0.2601  1.4172 -2.4305
  460MPD2    H1 6905   2.019   4.250  10.554 -1.6729 -0.2802 -0.0899
  460MPD2    H2 6906   2.263   4.005  10.796  0.9576 -0.5894 -0.6567
  460MPD2    H3 6907   2.229   4.213  10.670 -0.9234  1.1114 -0.8555
  460MPD2     N 6908   1.822   4.051  10.523  0.4204  0.3220  0.4408
  460MPD2    H5 6909   1.764   3.969  10.524  3.3589 -1.7491  0.5796
  460MPD2    N1 6910   2.097   3.801  10.813 -0.2072  0.3696  0.0155
  460MPD2    H7 6911   2.188   3.785  10.854 -0.4486 -1.4515 -0.1251
  461TMC3    C1 6912   1.650   4.114  10.376  0.9839 -0.2393 -0.2328
  461TMC3    C2 6913   1.622   3.980  10.354  0.8476 -0.3604  0.8261
  461TMC3    C3 6914   1.510   3.942  10.280  0.4385 -0.5206  0.3875
  461TMC3    C4 6915   1.575   4.213  10.309  0.0709 -0.2116  0.2747
  461TMC3    C5 6916   1.474   4.170  10.227 -0.1014 -0.3521 -0.8119
  461TMC3    C6 6917   1.435   4.039  10.219  0.0408  0.4616  0.3483
  461TMC3     C 6918   1.774   4.156  10.445  0.5426  0.5514 -0.2941
  461TMC3     O 6919   1.826   4.263  10.414  0.5017 -0.5892 -0.0608
  461TMC3     H 6920   1.684   3.900  10.393  1.8356  0.3619  0.7418
  461TMC3    H1 6921   1.591   4.317  10.333 -2.5062  0.0972  0.6897
  461TMC3    H2 6922   1.354   4.019  10.150 -1.5324  1.0267  2.0393
  461TMC3    C7 6923   1.406   4.272  10.145 -0.0857  0.0778 -0.4471
  461TMC3    C8 6924   1.506   3.809  10.222 -0.5859 -0.6734 -0.0807
  461TMC3    O1 6925   1.312   4.232  10.081  0.0679 -0.1350  0.2749
  461TMC3    O2 6926   1.613   3.755  10.213 -0.6588 -0.1661  0.2090
  462TMC3    C1 6927   1.504   4.122  17.386 -0.9740  0.5507 -0.6346
  462TMC3    C2 6928   1.489   4.039  17.282  0.2612 -0.4105  0.2262
  462TMC3    C3 6929   1.362   4.015  17.237  0.5911 -0.5813 -0.4121
  462TMC3    C4 6930   1.399   4.165  17.460 -0.0079 -0.1266 -0.2358
  462TMC3    C5 6931   1.274   4.145  17.412 -0.1513 -0.0463 -0.1193
  462TMC3    C6 6932   1.253   4.068  17.303  0.8553  0.6875  0.3170
  462TMC3     C 6933   1.636   4.200  17.401 -0.4593 -0.1558  0.0279
  462TMC3     O 6934   1.735   4.153  17.347  0.8227 -0.2533  0.0363
  462TMC3     H 6935   1.572   4.021  17.214  0.2223 -0.7153  0.2568
  462TMC3    H1 6936   1.412   4.218  17.553 -2.5585 -1.9200  1.1554
  462TMC3    H2 6937   1.152   4.064  17.264  1.5158  1.6769 -1.4739
  462TMC3    C7 6938   1.159   4.181  17.495  0.0195 -0.6295 -0.2691
  462TMC3    C8 6939   1.338   3.966  17.106  0.2472 -0.1863 -0.0916
  462TMC3    O1 6940   1.055   4.126  17.463 -0.1719  0.2706 -0.0366
  462TMC3    O2 6941   1.227   3.976  17.062 -0.0892  0.4248 -0.0356
  463MPD2     C 6942   1.990   3.643   1.526  0.1398 -0.1249 -0.3487
  463MPD2    C1 6943   1.872   3.643   1.596  0.5129 -0.2258  0.3784
  463MPD2    C2 6944   1.872   3.681   1.725  0.2131 -0.0570 -0.3890
  463MPD2    C3 6945   1.989   3.733   1.785  0.0874 -0.0062 -0.0369
  463MPD2    C4 6946   2.103   3.754   1.709 -0.0493  0.9398 -0.7338
  463MPD2    C5 6947   2.101   3.706   1.581 -0.4088 -0.0363  0.2292
  463MPD2     H 6948   1.786   3.652   1.784 -0.0622 -0.2311 -0.8754
  463MPD2    H1 6949   2.193   3.796   1.751  0.3779 -0.7873  0.0472
  463MPD2    H2 6950   2.004   3.606   1.425 -1.0730 -0.1297 -0.5204
  463MPD2    H3 6951   2.186   3.721   1.516 -1.9579  2.3754 -1.2647
  463MPD2     N 6952   2.008   3.770   1.918  0.0568  0.2896 -0.1136
  463MPD2    H5 6953   2.091   3.824   1.940 -0.1545 -0.1553  1.7512
  463MPD2    N1 6954   1.745   3.610   1.543  0.0925  0.6867  0.8226
  463MPD2    H7 6955   1.661   3.611   1.601 -0.1217 -0.2198  0.5263
  464TMC3    C1 6956   1.575   3.564   1.386 -0.4916  0.0929  0.0825
  464TMC3    C2 6957   1.518   3.601   1.265 -0.2552  0.5697  0.1100
  464TMC3    C3 6958   1.392   3.557   1.244 -0.1729  0.3744 -0.3497
  464TMC3    C4 6959   1.512   3.485   1.481 -0.9926  0.1797 -0.0416
  464TMC3    C5 6960   1.394   3.435   1.441  0.6167 -0.2811  0.3815
  464TMC3    C6 6961   1.326   3.471   1.327 -0.1647 -0.3707 -0.8289
  464TMC3     C 6962   1.718   3.598   1.411 -0.9025 -0.4416  0.2306
  464TMC3     O 6963   1.789   3.621   1.314 -0.1180 -0.2850  0.6028
  464TMC3     H 6964   1.567   3.671   1.199  0.5096  1.8709  2.0589
  464TMC3    H1 6965   1.562   3.450   1.570 -1.6893  1.3181  0.8063
  464TMC3    H2 6966   1.226   3.436   1.302 -0.7341  0.1977  0.6320
  464TMC3    C7 6967   1.333   3.324   1.522 -0.5527 -0.5402  0.7546
  464TMC3    C8 6968   1.333   3.568   1.111  0.2910  0.4204  0.4188
  464TMC3    O1 6969   1.333   3.323   1.647 -0.5816 -0.3556 -0.0009
  464TMC3    O2 6970   1.249   3.480   1.095  0.0108 -0.2718  0.2051
  465MPD2     C 6971   3.375   1.482  16.455 -0.3043 -0.0326  0.9555
  465MPD2    C1 6972   3.320   1.569  16.546  0.4881 -0.1077 -0.2088
  465MPD2    C2 6973   3.239   1.669  16.501 -0.1919  0.4784  0.8808
  465MPD2    C3 6974   3.230   1.693  16.364  0.6332  0.1081 -0.6150
  465MPD2    C4 6975   3.300   1.619  16.274 -0.1628  0.2250  0.3836
  465MPD2    C5 6976   3.368   1.504  16.321  0.4303 -0.5707  0.0613
  465MPD2     H 6977   3.194   1.742  16.568 -0.2718 -0.1659  1.5287
  465MPD2    H1 6978   3.309   1.633  16.167 -0.3872  1.7490  0.5641
  465MPD2    H2 6979   3.428   1.391  16.480 -0.4150 -1.0895 -2.6976
  465MPD2    H3 6980   3.422   1.441  16.251  1.7439  0.8003 -0.1656
  465MPD2     N 6981   3.139   1.801  16.327  0.2332 -1.1071  0.0795
  465MPD2    H5 6982   3.119   1.868  16.401  0.7323  1.6242 -2.2794
  465MPD2    N1 6983   3.321   1.548  16.690 -0.2657 -0.3686  0.6267
  465MPD2    H7 6984   3.252   1.602  16.741  1.1260  1.0535  1.0080
  466TMC3    C1 6985   2.842   2.063  16.331 -0.9737  0.2188  0.0635
  466TMC3    C2 6986   2.857   2.171  16.254 -0.1930  0.0978 -0.1864
  466TMC3    C3 6987   2.964   2.166  16.165  0.3886 -0.6356 -0.2925
  466TMC3    C4 6988   2.913   1.950  16.309  0.5069  0.5077 -0.2336
  466TMC3    C5 6989   3.021   1.962  16.224 -0.1450 -0.2321  0.8653
  466TMC3    C6 6990   3.050   2.066  16.153 -0.4783  0.7357  0.1799
  466TMC3     C 6991   2.789   2.083  16.464 -0.0313  0.2930  0.0951
  466TMC3     O 6992   2.824   1.998  16.547  0.5768 -0.0221  0.2345
  466TMC3     H 6993   2.793   2.258  16.255  2.6814  2.1808  2.2555
  466TMC3    H1 6994   2.909   1.863  16.373 -0.3489  0.3871 -0.4506
  466TMC3    H2 6995   3.133   2.075  16.083 -0.3249 -1.3761  0.0955
  466TMC3    C7 6996   3.103   1.846  16.205  0.5190 -0.4670 -0.2428
  466TMC3    C8 6997   3.009   2.295  16.121 -0.5684 -0.5537  0.0330
  466TMC3    O1 6998   3.132   1.809  16.089  0.1718 -0.4596  0.2046
  466TMC3    O2 6999   3.056   2.300  16.009  0.2872 -0.1509  0.0578
  467TMC3    C1 7000   4.562   1.168  13.946 -0.5391  0.0990 -0.7831
  467TMC3    C2 7001   4.499   1.267  13.876 -0.2760  0.0070 -0.2297
  467TMC3    C3 7002   4.369   1.244  13.847 -0.1608  0.2184  0.0464
  467TMC3    C4 7003   4.500   1.058  14.004  0.1920  0.7034  0.6270
  467TMC3    C5 7004   4.360   1.051  13.981  0.7586  0.1363 -0.4368
  467TMC3    C6 7005   4.299   1.142  13.895  0.1667  0.0491  0.1979
  467TMC3     C 7006   4.710   1.158  13.940  0.0313 -0.3056  0.4917
  467TMC3     O 7007   0.032   1.101  14.031  0.0070  0.3854  0.4478
  467TMC3     H 7008   4.540   1.359  13.837  1.3068 -0.6318 -0.0595
  467TMC3    H1 7009   4.556   0.970  14.035  1.7318  0.8563 -1.6851
  467TMC3    H2 7010   4.203   1.128  13.848 -0.3175 -0.4234  1.3130
  467TMC3    C7 7011   4.304   0.917  13.999  0.1664  0.2338 -0.6486
  467TMC3    C8 7012   4.337   1.294  13.708 -0.1097  0.0202 -0.3985
  467TMC3    O1 7013   4.379   0.823  14.017 -0.9652 -0.4367 -0.0003
  467TMC3    O2 7014   4.304   1.410  13.693  0.6013  0.5737 -1.2631
  468MPD2     C 7015   4.074   3.332  10.744  0.5238 -0.0868  0.1516
  468MPD2    C1 7016   4.004   3.375  10.854  1.1544 -0.1442 -0.3980
  468MPD2    C2 7017   3.946   3.278  10.933  0.5026  0.3857 -0.0574
  468MPD2    C3 7018   3.965   3.137  10.921  0.5019  0.1007  0.2192
  468MPD2    C4 7019   4.040   3.102  10.812  0.5526 -0.0566 -0.1498
  468MPD2    C5 7020   4.084   3.196  10.720 -0.7912  0.5119  0.4110
  468MPD2     H 7021   3.888   3.311  11.018 -0.8244  0.5882 -1.0371
  468MPD2    H1 7022   4.071   2.999  10.803 -1.6887 -0.5218 -2.4686
  468MPD2    H2 7023   4.108   3.403  10.670 -2.1831  0.1621 -0.8724
  468MPD2    H3 7024   4.147   3.161  10.639 -0.0821 -0.6505  1.4764
  468MPD2     N 7025   3.908   3.031  10.999  0.0795 -0.0729 -0.3457
  468MPD2    H5 7026   3.935   2.934  10.982  1.4477  0.0578  1.1518
  468MPD2    N1 7027   3.983   3.512  10.884 -0.4195  0.0166  0.3816
  468MPD2    H7 7028   3.914   3.540  10.953 -0.9924 -0.4492 -0.0050
  469TMC3    C1 7029   4.038   3.744  10.894 -0.4659 -0.1190  0.3082
  469TMC3    C2 7030   4.138   3.834  10.871 -0.8024  0.6940 -0.2725
  469TMC3    C3 7031   4.114   3.962  10.920  0.1096  0.2183 -0.4211
  469TMC3    C4 7032   3.922   3.775  10.952 -0.2399 -0.1373  0.1170
  469TMC3    C5 7033   3.902   3.905  10.976  0.6234  0.1172 -0.2493
  469TMC3    C6 7034   4.006   3.996  10.990  0.7359 -0.4434  0.2658
  469TMC3     C 7035   4.054   3.616  10.828 -0.1559 -0.2383 -0.2485
  469TMC3     O 7036   4.145   3.606  10.747 -0.2993 -0.3626  0.2277
  469TMC3     H 7037   4.234   3.791  10.843 -1.1985  0.3428 -1.0819
  469TMC3    H1 7038   3.842   3.703  10.953 -0.9547  0.6671  1.0137
  469TMC3    H2 7039   3.983   4.091  11.037  1.8245 -0.0818  0.0765
  469TMC3    C7 7040   3.765   3.955  10.999  0.5009 -0.2022  0.3421
  469TMC3    C8 7041   4.234   4.009  10.971 -0.0152 -1.4858  0.6924
  469TMC3    O1 7042   3.752   4.061  11.057 -0.0920  0.1045 -0.0109
  469TMC3    O2 7043   4.326   4.026  10.892  0.2029  0.1151 -0.3507
  470TMC3    C1 7044   0.844   0.527   0.890  0.4139  0.6876 -0.5858
  470TMC3    C2 7045   0.879   0.663   0.905  0.2046 -1.1003 -0.3928
  470TMC3    C3 7046   0.856   0.720   1.022 -0.6169 -0.1271  0.1626
  470TMC3    C4 7047   0.788   0.465   0.998 -1.0223 -0.1726  0.9951
  470TMC3    C5 7048   0.764   0.529   1.113  0.4128 -0.0311  0.8337
  470TMC3    C6 7049   0.800   0.657   1.127 -0.2318 -0.2621 -0.5569
  470TMC3     C 7050   0.873   0.440   0.769 -0.2129 -0.3514  0.1403
  470TMC3     O 7051   0.867   0.316   0.773 -0.2402  0.0832  0.4913
  470TMC3     H 7052   0.919   0.712   0.817  1.0178  0.4072  0.8211
  470TMC3    H1 7053   0.756   0.364   0.978 -0.7311  0.4182 -2.4884
  470TMC3    H2 7054   0.777   0.711   1.218 -0.6131 -2.2352  0.5165
  470TMC3    C7 7055   0.706   0.449   1.223 -0.5597 -0.4097 -0.5209
  470TMC3    C8 7056   0.890   0.855   1.040  0.8617  0.2296  0.6012
  470TMC3    O1 7057   0.652   0.342   1.192 -0.8466  0.2753  0.3060
  470TMC3    O2 7058   0.829   0.908   1.132  0.5396 -0.2314 -0.4310
  471MPD2     C 7059   1.339   1.197  17.117 -0.4649  0.2158 -0.3168
  471MPD2    C1 7060   1.405   1.091  17.065  0.5827  0.0587 -0.1798
  471MPD2    C2 7061   1.440   0.993  17.155  0.3255  0.2507 -0.3528
  471MPD2    C3 7062   1.406   1.002  17.286 -0.1446  0.9233  0.6482
  471MPD2    C4 7063   1.330   1.107  17.331  0.0362 -0.1096 -0.1681
  471MPD2    C5 7064   1.305   1.209  17.241  0.5947  0.3216 -0.3319
  471MPD2     H 7065   1.486   0.900  17.123 -0.3132 -1.2422  3.1170
  471MPD2    H1 7066   1.304   1.130  17.434 -0.3322  1.1679 -0.5442
  471MPD2    H2 7067   1.314   1.282  17.054 -0.5984  0.2139 -0.2656
  471MPD2    H3 7068   1.244   1.287  17.283 -0.2380 -1.1436  1.1713
  471MPD2     N 7069   1.411   0.899  17.384  0.1212 -1.2458 -0.0470
  471MPD2    H5 7070   1.374   0.913  17.478 -1.0489  0.7062 -0.8045
  471MPD2    N1 7071   1.437   1.069  16.932  0.0287  0.3140  1.0186
  471MPD2    H7 7072   1.497   0.989  16.912  0.6356  0.6946  1.3219
  472TMC3    C1 7073   1.413   1.063  16.696  0.0635 -0.2260 -0.5310
  472TMC3    C2 7074   1.374   1.129  16.582 -0.0928  0.3267 -0.0887
  472TMC3    C3 7075   1.362   1.059  16.469  0.3939  0.3083  0.2303
  472TMC3    C4 7076   1.428   0.927  16.704 -0.0460 -0.4136  0.6828
  472TMC3    C5 7077   1.408   0.857  16.590  0.4040 -0.2835 -0.5978
  472TMC3    C6 7078   1.384   0.921  16.474 -0.4595  0.8249  0.3171
  472TMC3     C 7079   1.384   1.134  16.819 -0.7125 -0.0712  0.3091
  472TMC3     O 7080   1.312   1.234  16.810  0.2390 -0.1495 -0.0227
  472TMC3     H 7081   1.344   1.233  16.580 -3.0118 -0.4435  2.9238
  472TMC3    H1 7082   1.431   0.876  16.799 -0.3466 -1.3543  0.1875
  472TMC3    H2 7083   1.355   0.875  16.381  3.4653  1.5844 -1.3026
  472TMC3    C7 7084   1.336   0.731  16.616  0.0648 -0.5360  0.1240
  472TMC3    C8 7085   1.258   1.091  16.370 -0.3597  0.1590 -0.2757
  472TMC3    O1 7086   1.333   0.695  16.733 -0.2025 -0.1694  0.1530
  472TMC3    O2 7087   1.295   1.152  16.269  0.2351 -0.3866 -0.2951
  473MPD2     C 7088   0.958   3.195  13.881 -0.2122 -0.4753  0.0023
  473MPD2    C1 7089   0.988   3.322  13.831  0.1968  0.0379 -0.1797
  473MPD2    C2 7090   1.047   3.420  13.917 -0.4839 -0.9199 -0.2171
  473MPD2    C3 7091   1.082   3.379  14.046 -0.0692  0.3362  0.4222
  473MPD2    C4 7092   1.054   3.252  14.093 -0.2884 -0.6236  0.8332
  473MPD2    C5 7093   0.984   3.164  14.012 -0.2708  0.0685  0.1730
  473MPD2     H 7094   1.058   3.522  13.880 -3.0125 -0.1307  1.1704
  473MPD2    H1 7095   1.066   3.224  14.197 -2.2064  0.6026  1.3745
  473MPD2    H2 7096   0.891   3.125  13.832 -2.0998  1.3868 -0.1006
  473MPD2    H3 7097   0.951   3.073  14.060 -0.7765  0.1832  0.0383
  473MPD2     N 7098   1.163   3.453  14.138  1.1144  0.2107  0.4063
  473MPD2    H5 7099   1.173   3.409  14.229 -0.4745 -0.9298  0.0317
  473MPD2    N1 7100   0.967   3.355  13.697 -0.2216  0.6692 -1.2255
  473MPD2    H7 7101   1.012   3.445  13.679  1.7100 -0.5069 -2.2335
  474TMC3    C1 7102   1.280   3.628  14.240 -0.4551 -0.7469 -0.2001
  474TMC3    C2 7103   1.287   3.759  14.257 -0.1570  0.1438 -0.4652
  474TMC3    C3 7104   1.351   3.805  14.368  0.0281  0.2176 -0.3068
  474TMC3    C4 7105   1.330   3.538  14.329 -0.2832  1.2592  0.5600
  474TMC3    C5 7106   1.380   3.586  14.449 -0.4031 -0.1784  0.3065
  474TMC3    C6 7107   1.390   3.719  14.466 -0.1519 -0.0582  0.5595
  474TMC3     C 7108   1.210   3.582  14.121  0.1004 -0.0450  0.3427
  474TMC3     O 7109   1.179   3.672  14.037 -0.4439 -0.0339 -0.0751
  474TMC3     H 7110   1.267   3.827  14.175 -2.3552  1.5229  1.2274
  474TMC3    H1 7111   1.348   3.436  14.296 -2.3070  1.3116 -0.7312
  474TMC3    H2 7112   1.451   3.748  14.550 -1.2011  2.0642  0.5856
  474TMC3    C7 7113   1.438   3.492  14.544  0.1446  0.4395  0.2128
  474TMC3    C8 7114   1.404   3.940  14.358 -0.6225 -0.5327 -0.1423
  474TMC3    O1 7115   1.424   3.374  14.518 -0.6443  0.7199  0.2011
  474TMC3    O2 7116   1.439   3.976  14.244 -0.2270  0.3284 -0.2098
  475MPD2     C 7117   4.438   1.815  10.977  0.2597  0.3626 -0.5578
  475MPD2    C1 7118   4.355   1.803  10.865  0.4443 -0.2488 -0.7016
  475MPD2    C2 7119   4.219   1.784  10.887  0.5321  0.2565  0.6418
  475MPD2    C3 7120   4.171   1.748  11.008 -0.0958  0.2180  0.0779
  475MPD2    C4 7121   4.251   1.766  11.114  0.5806  0.1804  0.5719
  475MPD2    C5 7122   4.381   1.800  11.100 -0.2047 -0.3432 -0.2534
  475MPD2     H 7123   4.144   1.780  10.809  1.1696 -0.7510  0.0877
  475MPD2    H1 7124   4.202   1.739  11.207  0.7787 -1.0229  0.3237
  475MPD2    H2 7125   4.545   1.827  10.974  0.0072  2.1923 -2.5239
  475MPD2    H3 7126   4.437   1.813  11.192 -1.3911 -0.5122  0.4898
  475MPD2     N 7127   4.029   1.732  11.012 -0.4239  0.0260 -0.3798
  475MPD2    H5 7128   3.976   1.739  10.926 -0.4668 -0.8510 -0.4257
  475MPD2    N1 7129   4.402   1.827  10.738  0.1949  0.1800 -0.2907
  475MPD2    H7 7130   4.493   1.871  10.729  0.5322 -0.4198  0.2141
  476TMC3    C1 7131   4.427   1.820  10.509 -0.7085 -0.2293  0.0777
  476TMC3    C2 7132   4.355   1.839  10.396  0.2525  0.0766 -1.3074
  476TMC3    C3 7133   4.424   1.891  10.288  0.3896  0.0486  0.0514
  476TMC3    C4 7134   4.553   1.885  10.523  0.0532  0.0966 -0.2970
  476TMC3    C5 7135   4.604   1.949  10.413 -0.0108  0.3648 -0.2375
  476TMC3    C6 7136   4.553   1.942  10.288 -0.4118  0.5438  0.3742
  476TMC3     C 7137   4.340   1.789  10.624 -0.6272 -0.0889 -0.2033
  476TMC3     O 7138   4.226   1.743  10.608  0.8268 -0.4417  0.8289
  476TMC3     H 7139   4.254   1.800  10.387  0.3383 -0.5175  0.2615
  476TMC3    H1 7140   4.613   1.859  10.610 -1.3552 -0.2632  0.5592
  476TMC3    H2 7141   4.607   1.976  10.201 -0.3812  2.2232  1.0434
  476TMC3    C7 7142   4.726   2.016  10.430 -0.0024 -0.5543  0.2447
  476TMC3    C8 7143   4.368   1.882  10.158  0.3270  0.3663 -0.4250
  476TMC3    O1 7144   0.053   2.034  10.327  0.2215 -0.2907  0.0532
  476TMC3    O2 7145   4.410   1.966  10.081  0.2952  0.1714 -0.3418
  477MPD2     C 7146   2.472   3.485  12.048 -0.0326  0.3139  0.2476
  477MPD2    C1 7147   2.507   3.369  11.979 -0.4538 -0.0458  0.1041
  477MPD2    C2 7148   2.539   3.251  12.053 -0.3100 -0.2303 -0.4347
  477MPD2    C3 7149   2.528   3.252  12.195 -0.0336 -0.3843 -0.0655
  477MPD2    C4 7150   2.476   3.369  12.251 -0.0413  1.0308  0.1667
  477MPD2    C5 7151   2.460   3.484  12.180 -0.0750 -0.1919  0.1504
  477MPD2     H 7152   2.564   3.156  12.007  1.6591  0.4156 -0.6787
  477MPD2    H1 7153   2.452   3.383  12.355 -2.1923 -0.0541 -0.1749
  477MPD2    H2 7154   2.445   3.577  11.997 -0.3665 -1.3810 -2.6157
  477MPD2    H3 7155   2.422   3.573  12.230 -0.1586 -1.2264  1.9167
  477MPD2     N 7156   2.552   3.140  12.285 -0.2243  0.7860 -0.7380
  477MPD2    H5 7157   2.525   3.158  12.381  2.9098  1.6936 -0.0267
  477MPD2    N1 7158   2.503   3.377  11.841 -0.3120 -0.2585  1.0427
  477MPD2    H7 7159   2.473   3.462  11.795  0.1647 -0.1535  0.9240
  478TMC3    C1 7160   2.527   3.304  11.606  0.2348  0.3519 -0.3739
  478TMC3    C2 7161   2.475   3.426  11.559  0.1113  0.3191 -0.6550
  478TMC3    C3 7162   2.426   3.428  11.435 -0.3392 -0.3928 -0.6377
  478TMC3    C4 7163   2.514   3.188  11.536  0.4978  0.2773  0.1222
  478TMC3    C5 7164   2.444   3.189  11.415 -0.2284 -0.6096 -0.8360
  478TMC3    C6 7165   2.403   3.312  11.363  0.1968 -0.6068  0.1814
  478TMC3     C 7166   2.550   3.278  11.749 -0.5090 -0.2867 -0.5743
  478TMC3     O 7167   2.586   3.163  11.780  0.0935  0.0684 -0.6162
  478TMC3     H 7168   2.508   3.516  11.609 -0.9880 -0.0658  0.7791
  478TMC3    H1 7169   2.545   3.093  11.578 -2.4819 -0.9385 -0.4717
  478TMC3    H2 7170   2.376   3.327  11.259 -1.4421  1.5229  0.9140
  478TMC3    C7 7171   2.431   3.071  11.341 -0.1261  0.0392 -0.2908
  478TMC3    C8 7172   2.384   3.560  11.381 -0.6751  0.3307  0.2018
  478TMC3    O1 7173   2.506   2.977  11.376 -0.2549 -0.3701  0.1714
  478TMC3    O2 7174   2.477   3.636  11.362 -0.4332 -0.2763  0.1981
  479MPD2     C 7175   1.142   0.580  15.086  0.3456 -0.7094  0.2034
  479MPD2    C1 7176   1.106   0.479  15.169 -0.3056  0.9034  0.1942
  479MPD2    C2 7177   1.134   0.487  15.306  0.6265  0.9466  0.5207
  479MPD2    C3 7178   1.187   0.603  15.356 -0.5874 -0.2678 -0.3292
  479MPD2    C4 7179   1.232   0.704  15.272  0.6954  0.1610  0.2144
  479MPD2    C5 7180   1.204   0.689  15.139 -0.4189  0.1279 -0.9355
  479MPD2     H 7181   1.103   0.408  15.374  1.2548  2.0808  2.1314
  479MPD2    H1 7182   1.276   0.798  15.305 -1.0359  1.0891 -0.1445
  479MPD2    H2 7183   1.133   0.558  14.981  0.0128  2.1399 -0.3454
  479MPD2    H3 7184   1.242   0.774  15.082  1.4648 -1.2177 -1.6744
  479MPD2     N 7185   1.187   0.642  15.492  0.1088 -0.8369  0.4570
  479MPD2    H5 7186   1.253   0.716  15.514 -0.6160 -0.2358  0.6039
  479MPD2    N1 7187   1.040   0.366  15.109 -0.6869 -0.3385  0.5033
  479MPD2    H7 7188   1.027   0.359  15.008  0.1518 -0.0191  0.3754
  480TMC3    C1 7189   0.796   0.413  15.652 -0.0005 -0.4095 -0.4258
  480TMC3    C2 7190   0.726   0.445  15.538 -0.2883 -0.8060 -0.9069
  480TMC3    C3 7191   0.785   0.527  15.448  0.3486  0.0465  0.1338
  480TMC3    C4 7192   0.930   0.459  15.671 -0.2092 -0.1473 -0.1523
  480TMC3    C5 7193   0.981   0.536  15.572 -0.4930  0.2858 -0.3010
  480TMC3    C6 7194   0.913   0.573  15.464  0.8569 -0.2915 -0.6194
  480TMC3     C 7195   0.720   0.354  15.760  0.2482  0.2258 -0.1840
  480TMC3     O 7196   0.633   0.275  15.734 -0.2071  0.3793 -0.0008
  480TMC3     H 7197   0.617   0.446  15.533 -0.3766 -2.2859  1.0310
  480TMC3    H1 7198   0.989   0.427  15.756 -2.9654 -2.4898  0.9181
  480TMC3    H2 7199   0.946   0.659  15.407  0.4757  0.5100  0.3574
  480TMC3    C7 7200   1.115   0.593  15.599 -0.2638 -0.0511  0.6255
  480TMC3    C8 7201   0.704   0.570  15.334 -0.0744  0.4048 -0.2178
  480TMC3    O1 7202   1.138   0.605  15.718 -0.2523  0.1547  0.1114
  480TMC3    O2 7203   0.584   0.549  15.350 -0.0559 -0.4749  0.5234
  481MPD2     C 7204   2.954   4.477  14.140 -0.5569  0.3253  0.4335
  481MPD2    C1 7205   2.905   4.560  14.231  0.1303 -1.0219  0.1422
  481MPD2    C2 7206   2.898   4.519  14.360 -0.2918  0.6206  0.5551
  481MPD2    C3 7207   2.948   4.396  14.404 -0.0531 -1.0683  0.2712
  481MPD2    C4 7208   3.002   4.316  14.307 -0.7414  0.8632 -0.1102
  481MPD2    C5 7209   3.010   4.358  14.177 -0.6916 -1.0630 -0.0689
  481MPD2     H 7210   2.848   4.591  14.424 -1.9504 -0.0707  0.0532
  481MPD2    H1 7211   3.032   4.219  14.347 -0.1706  0.5239 -1.3821
  481MPD2    H2 7212   2.936   4.497  14.035  0.8206 -0.7617 -0.0089
  481MPD2    H3 7213   3.034   4.293  14.094  3.5762  1.1820 -0.6279
  481MPD2     N 7214   2.943   4.346  14.532 -0.1376 -0.1156 -0.1752
  481MPD2    H5 7215   2.987   4.256  14.545  0.6653  0.4790  1.1717
  481MPD2    N1 7216   2.852   4.682  14.180  0.1966 -0.2187 -0.5441
  481MPD2    H7 7217   2.821   4.679  14.084  1.3612  1.8363 -0.9862
  482TMC3    C1 7218   2.697   0.124  14.169  0.2958  0.2876 -1.0773
  482TMC3    C2 7219   2.599   0.045  14.110  0.1920 -0.6404 -0.6498
  482TMC3    C3 7220   2.497   0.105  14.041  0.0407 -0.1534 -0.1545
  482TMC3    C4 7221   2.697   0.263  14.154 -0.4785  0.2648  0.1651
  482TMC3    C5 7222   2.595   0.317  14.086  0.6865  0.3205  0.3972
  482TMC3    C6 7223   2.493   0.240  14.029  0.4926  0.0449  0.0870
  482TMC3     C 7224   2.801   0.055  14.253 -0.5235  0.2436  0.6359
  482TMC3     O 7225   2.809   0.092  14.368  0.1496 -0.0081 -0.5645
  482TMC3     H 7226   2.605   4.675  14.121 -0.6248 -0.6245 -0.0987
  482TMC3    H1 7227   2.779   0.324  14.190  1.8497 -1.7396 -1.7342
  482TMC3    H2 7228   2.410   0.283  13.974  0.8547 -0.5316 -0.9146
  482TMC3    C7 7229   2.593   0.462  14.061 -0.2491  0.0838  0.2225
  482TMC3    C8 7230   2.397   0.020  13.978  0.2245 -0.2600  0.2506
  482TMC3    O1 7231   2.645   0.547  14.130 -0.4649  0.0791 -0.2672
  482TMC3    O2 7232   2.440   4.647  13.949  0.7035  0.6328  0.7929
  483TMC3    C1 7233   4.499   3.369  17.738 -0.2319  0.5589  0.9120
  483TMC3    C2 7234   4.493   3.501   0.027 -0.6210 -0.2139  0.6655
  483TMC3    C3 7235   4.492   3.529   0.161 -0.5983  0.3865 -1.0080
  483TMC3    C4 7236   4.510   3.263   0.072  0.1729 -0.2108 -0.2969
  483TMC3    C5 7237   4.496   3.297   0.201 -0.4638 -0.3832 -0.0684
  483TMC3    C6 7238   4.483   3.425   0.250  0.5737  0.8762  0.3561
  483TMC3     C 7239   4.485   3.338  17.598 -0.1519 -0.0552 -0.3592
  483TMC3     O 7240   4.491   3.439  17.525 -0.0261  0.2436 -0.0337
  483TMC3     H 7241   4.498   3.585  17.707  3.0543  0.6798  2.0348
  483TMC3    H1 7242   4.538   3.165   0.035 -1.4081 -0.3257 -1.1563
  483TMC3    H2 7243   4.493   3.437   0.357 -0.3640  0.1967  0.5150
  483TMC3    C7 7244   4.553   3.203   0.300  0.0686  0.8762 -0.2214
  483TMC3    C8 7245   4.569   3.638   0.202  0.0900 -0.6570 -0.6909
  483TMC3    O1 7246   4.627   3.257   0.384 -0.1225 -0.1145  0.0630
  483TMC3    O2 7247   4.632   3.700   0.115  0.1593  0.0349 -0.5584
  484MPD2     C 7248   3.267   2.038  13.023  0.0172  0.4354  0.0297
  484MPD2    C1 7249   3.274   1.977  12.906 -0.0778  0.2852  0.0742
  484MPD2    C2 7250   3.369   2.016  12.816  0.1714 -0.8851 -0.4829
  484MPD2    C3 7251   3.466   2.105  12.852 -0.5917 -0.5187  0.1972
  484MPD2    C4 7252   3.453   2.166  12.972 -0.5912  0.5393  0.0862
  484MPD2    C5 7253   3.357   2.133  13.060 -0.4049  0.2752 -0.0812
  484MPD2     H 7254   3.371   1.967  12.720 -0.1754 -1.7225 -0.0659
  484MPD2    H1 7255   3.533   2.231  13.005  0.9482 -0.3918 -1.8082
  484MPD2    H2 7256   3.189   2.005  13.091  0.0693 -0.4390 -0.3286
  484MPD2    H3 7257   3.367   2.180  13.157 -1.2838  0.0954  0.0965
  484MPD2     N 7258   3.580   2.133  12.772  0.0004 -0.4827  0.3217
  484MPD2    H5 7259   3.645   2.203  12.805 -1.3323  0.5370  0.7692
  484MPD2    N1 7260   3.185   1.868  12.882  0.1664 -0.6689 -0.7603
  484MPD2    H7 7261   3.118   1.847  12.955 -0.8490 -0.8579 -1.7382
  485TMC3    C1 7262   3.736   2.128  12.607 -0.3116 -0.0108 -0.3743
  485TMC3    C2 7263   3.828   2.132  12.703  0.0068  0.1522 -0.8975
  485TMC3    C3 7264   3.925   2.219  12.684  0.3938 -0.1517  0.4087
  485TMC3    C4 7265   3.741   2.188  12.487  0.2474  0.1302 -0.1067
  485TMC3    C5 7266   3.835   2.280  12.470 -0.5014 -0.3020  0.4305
  485TMC3    C6 7267   3.920   2.312  12.579  0.1619  0.5267 -0.0792
  485TMC3     C 7268   3.603   2.087  12.645 -0.5223 -0.8408 -0.7026
  485TMC3     O 7269   3.534   2.040  12.561 -0.4455  0.0391  0.3926
  485TMC3     H 7270   3.828   2.068  12.790  1.3918  1.6296  0.1953
  485TMC3    H1 7271   3.666   2.177  12.410  1.2315 -0.9770 -0.9053
  485TMC3    H2 7272   3.997   2.384  12.554  0.2429  0.7257  0.7494
  485TMC3    C7 7273   3.909   2.269  12.349  0.4835  0.6378 -0.3005
  485TMC3    C8 7274   4.060   2.160  12.683  0.1859  0.1822  0.6445
  485TMC3    O1 7275   4.032   2.272  12.361  0.4194  1.0732  0.0461
  485TMC3    O2 7276   4.139   2.219  12.621 -0.2323  0.1558 -0.3980
  486MPD2     C 7277   0.395   0.701  13.142  0.3972 -0.8783  0.2698
  486MPD2    C1 7278   0.478   0.690  13.036  0.1871  0.7110 -0.0843
  486MPD2    C2 7279   0.528   0.809  12.981  0.0364 -0.0808  0.0006
  486MPD2    C3 7280   0.494   0.933  13.027 -0.2256 -0.1779  0.2005
  486MPD2    C4 7281   0.406   0.942  13.128  0.8477 -0.6491 -0.5732
  486MPD2    C5 7282   0.363   0.825  13.183 -0.7640  0.0321  0.0432
  486MPD2     H 7283   0.599   0.800  12.900  1.7608  1.1228  1.3792
  486MPD2    H1 7284   0.343   1.027  13.152  0.0599 -0.3785 -3.6442
  486MPD2    H2 7285   0.351   0.611  13.184  1.6496 -0.8113  1.7413
  486MPD2    H3 7286   0.283   0.835  13.256  0.3589  1.5183  1.0761
  486MPD2     N 7287   0.547   1.045  12.952 -0.1690  0.0364 -0.1739
  486MPD2    H5 7288   0.612   1.021  12.877  0.5261 -1.5571  0.9445
  486MPD2    N1 7289   0.494   0.563  12.980  0.2454 -0.2315 -0.5549
  486MPD2    H7 7290   0.461   0.487  13.039  1.4956 -0.0828  0.3291
  487TMC3    C1 7291   0.556   0.382  12.827 -0.3385 -0.2015 -0.0345
  487TMC3    C2 7292   0.525   0.345  12.701  0.9443  0.1107  0.7620
  487TMC3    C3 7293   0.568   0.219  12.659  0.1265 -0.5183 -0.3291
  487TMC3    C4 7294   0.611   0.299  12.918  0.2519  0.7411  0.7560
  487TMC3    C5 7295   0.637   0.176  12.881  0.1106 -1.0300 -0.0809
  487TMC3    C6 7296   0.622   0.139  12.748  0.3759 -0.4106 -0.5094
  487TMC3     C 7297   0.543   0.526  12.854 -1.1375 -0.2657 -0.5725
  487TMC3     O 7298   0.564   0.599  12.761  0.3909 -0.3854  0.4090
  487TMC3     H 7299   0.488   0.418  12.630 -0.3774  0.5283  1.8689
  487TMC3    H1 7300   0.624   0.333  13.020  1.8202 -1.7966  1.3937
  487TMC3    H2 7301   0.661   0.040  12.725  2.8234  0.1839  0.9960
  487TMC3    C7 7302   0.559   0.093  12.965  0.4327 -0.2381 -0.0635
  487TMC3    C8 7303   0.474   0.148  12.575 -0.7487  0.3626  0.4393
  487TMC3    O1 7304   0.536   0.127  13.078 -0.1946 -0.4939 -0.0612
  487TMC3    O2 7305   0.513   0.039  12.530 -0.3987 -0.5708 -0.5324
  488MPD2     C 7306   0.544   2.122  16.361 -0.3613  0.0168  0.6543
  488MPD2    C1 7307   0.516   2.257  16.391  0.5419  0.4103 -0.7284
  488MPD2    C2 7308   0.413   2.281  16.471  0.1134  0.0577  0.6079
  488MPD2    C3 7309   0.338   2.184  16.525 -0.2091  0.0780 -0.1192
  488MPD2    C4 7310   0.360   2.047  16.493  0.2254 -0.0092  0.4609
  488MPD2    C5 7311   0.471   2.017  16.410  1.0994 -0.0533 -0.4610
  488MPD2     H 7312   0.387   2.386  16.486 -2.9588 -0.3921 -1.7140
  488MPD2    H1 7313   0.295   1.968  16.530  1.5426 -1.2965 -0.0125
  488MPD2    H2 7314   0.634   2.097  16.306  1.3287  0.3024  3.2737
  488MPD2    H3 7315   0.480   1.915  16.374  3.0836  0.9392 -2.8184
  488MPD2     N 7316   0.225   2.226  16.602  0.2872  0.5112 -0.2428
  488MPD2    H5 7317   0.227   2.322  16.634  0.1402  1.2884 -2.5872
  488MPD2    N1 7318   0.583   2.364  16.335 -0.0753  0.6452 -0.2367
  488MPD2    H7 7319   0.586   2.442  16.399 -0.0772  0.1251  0.3970
  489TMC3    C1 7320   0.022   2.216  16.707 -0.1574 -0.1032  0.6735
  489TMC3    C2 7321   0.017   2.348  16.680 -0.0905 -0.8679 -0.1154
  489TMC3    C3 7322   4.711   2.433  16.776  0.8156 -0.1449 -0.5313
  489TMC3    C4 7323   4.706   2.156  16.821  1.3493  0.3464  0.1916
  489TMC3    C5 7324   4.661   2.246  16.920 -0.2909 -0.6442  0.7498
  489TMC3    C6 7325   4.658   2.379  16.894 -0.6945 -0.2472 -0.6162
  489TMC3     C 7326   0.122   2.145  16.641 -0.1572 -0.5772 -0.9225
  489TMC3     O 7327   0.105   2.024  16.625 -0.0523  0.2532 -0.1302
  489TMC3     H 7328   0.038   2.379  16.578  0.6210  1.6141  0.7734
  489TMC3    H1 7329   4.711   2.047  16.824 -1.5497  0.1923 -0.5609
  489TMC3    H2 7330   4.632   2.448  16.973 -1.3727  1.8389 -2.6405
  489TMC3    C7 7331   4.579   2.196  17.033 -0.4995  0.4610  0.7249
  489TMC3    C8 7332   0.068   2.538  16.786 -0.0229  0.7808 -0.9431
  489TMC3    O1 7333   4.499   2.263  17.101  0.2827  0.5086  0.0072
  489TMC3    O2 7334   0.175   2.518  16.725  0.0024 -0.3245 -0.2854
  490MPD2     C 7335   1.253   1.899  17.248  0.0761  0.0269 -0.3888
  490MPD2    C1 7336   1.205   1.834  17.354 -0.9973  0.6753  0.3380
  490MPD2    C2 7337   1.299   1.789  17.450 -0.3772 -0.2933  0.2798
  490MPD2    C3 7338   1.430   1.814  17.443  0.2310  1.0747 -0.5791
  490MPD2    C4 7339   1.477   1.863  17.321  0.2177  0.2157 -0.3483
  490MPD2    C5 7340   1.392   1.905  17.229  0.0536 -0.0907 -0.4663
  490MPD2     H 7341   1.261   1.727  17.531  2.7237 -1.2599  0.9967
  490MPD2    H1 7342   1.585   1.875  17.313  0.4791 -1.2170  1.0235
  490MPD2    H2 7343   1.187   1.939  17.173  1.2410  0.8716 -0.9666
  490MPD2    H3 7344   1.428   1.949  17.137 -1.0971 -0.4723 -1.1041
  490MPD2     N 7345   1.524   1.776  17.543  0.5101  0.3385  0.2506
  490MPD2    H5 7346   1.620   1.791  17.517  0.8616 -2.8088 -0.3172
  490MPD2    N1 7347   1.067   1.808  17.380 -0.5552  0.2480 -0.4884
  490MPD2    H7 7348   1.046   1.735  17.448 -0.8339  0.8342  0.0577
  491TMC3    C1 7349   0.846   1.783  17.352 -0.5360 -1.2474 -0.7273
  491TMC3    C2 7350   0.855   1.736  17.479 -0.0487 -0.0221  0.2806
  491TMC3    C3 7351   0.793   1.611  17.502  0.4851  0.0999  0.4769
  491TMC3    C4 7352   0.788   1.707  17.257  0.3080 -0.1739 -0.0811
  491TMC3    C5 7353   0.736   1.584  17.285 -0.3475 -0.2858 -0.6686
  491TMC3    C6 7354   0.751   1.523  17.407  0.9306  0.2098 -0.6720
  491TMC3     C 7355   0.963   1.852  17.308 -0.0718  0.0039  0.1865
  491TMC3     O 7356   0.954   1.931  17.213  0.1569  0.2907  0.1436
  491TMC3     H 7357   0.913   1.784  17.558  0.1666 -0.8853  0.6437
  491TMC3    H1 7358   0.799   1.742  17.155 -0.0409 -1.4376 -0.5406
  491TMC3    H2 7359   0.694   1.434  17.433  2.2061 -0.9084 -1.6359
  491TMC3    C7 7360   0.659   1.512  17.187  0.8217 -0.1040  0.1435
  491TMC3    C8 7361   0.839   1.546  17.623 -0.1299 -0.0829  0.1416
  491TMC3    O1 7362   0.643   1.395  17.209 -0.4036 -0.3165 -0.1867
  491TMC3    O2 7363   0.824   1.606  17.726  0.1147  0.3137  0.2796
  492MPD2     C 7364   1.992   2.090  11.449 -0.6547 -0.2120 -0.2939
  492MPD2    C1 7365   1.929   1.991  11.370  0.0684 -0.3334  0.3497
  492MPD2    C2 7366   1.842   1.905  11.434 -0.6845 -0.6470 -0.1639
  492MPD2    C3 7367   1.827   1.918  11.577 -0.4882  1.1861 -0.6109
  492MPD2    C4 7368   1.888   2.014  11.646  0.8856  1.1348  0.0378
  492MPD2    C5 7369   1.965   2.110  11.581  0.3748 -0.4702  0.6118
  492MPD2     H 7370   1.794   1.823  11.382 -0.7483 -2.0516  2.1060
  492MPD2    H1 7371   1.864   2.019  11.752 -2.0397  0.6655 -0.6044
  492MPD2    H2 7372   2.048   2.169  11.401 -0.8104 -0.0696 -0.2438
  492MPD2    H3 7373   2.017   2.186  11.637  0.9910 -0.0992 -0.4639
  492MPD2     N 7374   1.740   1.834  11.652 -0.2035  0.3331  0.3376
  492MPD2    H5 7375   1.734   1.842  11.753 -0.1322  1.3934  0.2629
  492MPD2    N1 7376   1.923   2.003  11.229 -0.4482  0.0826  0.0181
  492MPD2    H7 7377   1.961   2.090  11.193  3.7458 -2.1941 -1.0706
  493TMC3    C1 7378   1.869   1.977  11.001 -0.6861 -0.9118 -0.6221
  493TMC3    C2 7379   1.969   2.065  10.968  0.9670 -0.4952  0.6183
  493TMC3    C3 7380   1.974   2.124  10.847 -0.3577  0.6783  0.0229
  493TMC3    C4 7381   1.771   1.954  10.913  0.9033 -0.0969 -0.7463
  493TMC3    C5 7382   1.763   2.029  10.797  0.3093 -0.0160 -0.6167
  493TMC3    C6 7383   1.865   2.115  10.766  0.3266 -0.5951 -0.5143
  493TMC3     C 7384   1.859   1.923  11.138 -0.2129  0.1789  0.2719
  493TMC3     O 7385   1.803   1.813  11.149 -0.2459 -0.0190 -0.0042
  493TMC3     H 7386   2.055   2.083  11.032  1.3575 -1.9990  0.5259
  493TMC3    H1 7387   1.687   1.893  10.945  1.9787  0.2605  2.7192
  493TMC3    H2 7388   1.853   2.177  10.678 -0.9026 -0.2675 -0.1099
  493TMC3    C7 7389   1.645   2.029  10.711 -0.3720  0.5670  0.4007
  493TMC3    C8 7390   2.080   2.219  10.828 -0.7011  0.2902  0.1270
  493TMC3    O1 7391   1.660   2.067  10.596  0.9177  0.1207  0.1877
  493TMC3    O2 7392   2.145   2.252  10.929 -0.1690 -0.0298  0.3317
  494TMC3    C1 7393   1.691   3.085   0.240 -0.9303  0.1928  0.4336
  494TMC3    C2 7394   1.754   3.028   0.347  0.6758 -0.0228  0.1167
  494TMC3    C3 7395   1.890   3.036   0.359  0.0071 -0.6094 -0.7706
  494TMC3    C4 7396   1.763   3.160   0.146 -0.1695  0.1536  0.4026
  494TMC3    C5 7397   1.901   3.182   0.176  0.9874 -0.2114  0.4847
  494TMC3    C6 7398   1.965   3.111   0.276  0.7354 -0.2103  0.7384
  494TMC3     C 7399   1.545   3.097   0.236  0.9393 -0.1450  0.2684
  494TMC3     O 7400   1.487   3.093   0.341 -0.4399  0.2141 -0.0556
  494TMC3     H 7401   1.703   2.994   0.436  2.3688 -0.9625  0.7315
  494TMC3    H1 7402   1.704   3.223   0.080 -0.5636 -0.5501  0.0785
  494TMC3    H2 7403   2.072   3.128   0.284  1.0315 -0.2849 -2.6424
  494TMC3    C7 7404   1.993   3.216   0.075  0.8634  0.1166  0.2862
  494TMC3    C8 7405   1.969   2.917   0.396  0.3405 -0.1907  1.3490
  494TMC3    O1 7406   1.959   3.192  17.707 -0.2185 -0.1594  0.2619
  494TMC3    O2 7407   2.074   2.907   0.332 -0.5792 -1.0371 -0.6587
  495TMC3    C1 7408   1.057   0.404  14.413 -0.2885  0.0775 -0.7000
  495TMC3    C2 7409   1.031   0.506  14.319 -0.0268 -0.3299  0.0014
  495TMC3    C3 7410   0.968   0.617  14.359 -0.0689  0.2251  0.1243
  495TMC3    C4 7411   1.032   0.412  14.546  0.1121  0.2505 -0.0774
  495TMC3    C5 7412   0.961   0.522  14.582 -0.0593 -0.4343 -0.1595
  495TMC3    C6 7413   0.935   0.630  14.495 -0.3549 -0.2668 -0.7213
  495TMC3     C 7414   1.075   0.279  14.346 -0.1238 -0.1627 -0.0007
  495TMC3     O 7415   1.150   0.275  14.246 -0.1352 -0.0286  0.3136
  495TMC3     H 7416   1.059   0.499  14.215  0.4897 -1.7111  0.2233
  495TMC3    H1 7417   1.042   0.330  14.616 -0.1835  0.2353 -0.0515
  495TMC3    H2 7418   0.883   0.721  14.526  0.2983 -0.2267  0.2626
  495TMC3    C7 7419   0.928   0.540  14.721  0.5240  0.2326  0.5664
  495TMC3    C8 7420   0.886   0.694  14.269  0.3152  0.6534 -0.2387
  495TMC3    O1 7421   1.004   0.501  14.809 -0.0381 -0.1608  1.2659
  495TMC3    O2 7422   0.793   0.765  14.316 -0.3369 -0.7967 -0.1331
  496MPD2     C 7423   2.480   1.005  15.624 -0.2705  0.0407 -0.3494
  496MPD2    C1 7424   2.541   0.880  15.650  0.2746 -0.1940 -0.1206
  496MPD2    C2 7425   2.512   0.819  15.769 -0.6027 -0.1805  0.1771
  496MPD2    C3 7426   2.418   0.873  15.859 -0.0538 -0.1582  0.1356
  496MPD2    C4 7427   2.364   0.993  15.831 -1.3212 -0.5243 -0.4604
  496MPD2    C5 7428   2.404   1.066  15.726  0.6482  0.4223 -0.2441
  496MPD2     H 7429   2.555   0.722  15.790 -0.2399  0.0861  0.6589
  496MPD2    H1 7430   2.302   1.040  15.906 -1.1093 -0.5070 -0.2951
  496MPD2    H2 7431   2.515   1.073  15.547 -0.2181 -0.7354 -1.0078
  496MPD2    H3 7432   2.355   1.161  15.708 -1.1610 -0.6099 -0.7899
  496MPD2     N 7433   2.373   0.804  15.980  0.6249  0.6119  0.0494
  496MPD2    H5 7434   2.311   0.852  16.044  1.3392  0.6162  0.7342
  496MPD2    N1 7435   2.628   0.828  15.552 -0.2123 -0.0516 -0.5617
  496MPD2    H7 7436   2.649   0.892  15.476 -1.7379 -1.3475 -2.0779
  497TMC3    C1 7437   2.311   0.625  16.110  0.3985  0.4204 -0.4763
  497TMC3    C2 7438   2.178   0.673  16.120  0.4379  0.0688  0.2158
  497TMC3    C3 7439   2.093   0.616  16.206 -1.0472 -0.4289 -0.1397
  497TMC3    C4 7440   2.360   0.525  16.184 -0.2638 -0.3338  0.0746
  497TMC3    C5 7441   2.265   0.472  16.274 -0.1131  0.0347 -0.0945
  497TMC3    C6 7442   2.133   0.518  16.295  0.1654 -0.1390  0.0130
  497TMC3     C 7443   2.396   0.671  16.003 -0.5551 -0.0658  0.3852
  497TMC3     O 7444   2.454   0.586  15.934  0.1771  0.1827 -0.3879
  497TMC3     H 7445   2.146   0.743  16.043  0.7189  2.4708  2.2823
  497TMC3    H1 7446   2.462   0.489  16.175  0.2841  0.8494  1.4639
  497TMC3    H2 7447   2.063   0.473  16.363  0.4252  0.6835  0.8237
  497TMC3    C7 7448   2.288   0.350  16.345 -0.0669 -0.3456 -0.0262
  497TMC3    C8 7449   1.956   0.642  16.186 -0.2312  0.3934  0.2055
  497TMC3    O1 7450   2.205   0.305  16.419  0.3484 -0.6213  0.7797
  497TMC3    O2 7451   1.918   0.689  16.082  0.5525  0.2093 -0.0336
  498MPD2     C 7452   2.964   1.539   9.463 -0.0604 -0.0548  0.3144
  498MPD2    C1 7453   3.092   1.531   9.522 -0.6379  0.0977  0.1925
  498MPD2    C2 7454   3.104   1.469   9.648 -0.7956 -0.5370  0.4358
  498MPD2    C3 7455   3.001   1.388   9.695  0.6346  0.3732 -0.2915
  498MPD2    C4 7456   2.880   1.383   9.623 -0.3846  0.2675 -0.0049
  498MPD2    C5 7457   2.861   1.460   9.514  0.4285 -0.6698  0.4173
  498MPD2     H 7458   3.201   1.473   9.696 -0.6811  0.4531  0.1284
  498MPD2    H1 7459   2.800   1.320   9.660  0.5099 -0.3988  0.7906
  498MPD2    H2 7460   2.949   1.581   9.365 -1.3321 -0.2676  0.4109
  498MPD2    H3 7461   2.770   1.450   9.456  0.7657  0.4542 -0.3101
  498MPD2     N 7462   3.016   1.322   9.821 -0.3570 -0.3582  0.2610
  498MPD2    H5 7463   3.101   1.330   9.877  0.0838 -3.7724  0.0663
  498MPD2    N1 7464   3.202   1.586   9.461 -0.2684  0.1521 -0.2131
  498MPD2    H7 7465   3.289   1.567   9.510 -0.2262  1.8429  0.3725
  499TMC3    C1 7466   3.348   1.676   9.307 -0.6215  0.1021 -0.0618
  499TMC3    C2 7467   3.372   1.669   9.175  0.1309  0.4567 -0.2056
  499TMC3    C3 7468   3.494   1.714   9.128  0.4716  0.1242  0.6356
  499TMC3    C4 7469   3.441   1.727   9.397 -0.1863 -0.7620 -0.2630
  499TMC3    C5 7470   3.561   1.770   9.352  0.5378  0.1322  0.1730
  499TMC3    C6 7471   3.590   1.762   9.215 -0.5631  0.3663 -0.1548
  499TMC3     C 7472   3.213   1.661   9.342 -0.6189 -0.5724 -0.4086
  499TMC3     O 7473   3.128   1.681   9.255 -0.0172 -0.2076  0.2517
  499TMC3     H 7474   3.296   1.634   9.106 -1.0175  1.7869  0.3818
  499TMC3    H1 7475   3.418   1.738   9.502  2.1361 -0.0616  0.1836
  499TMC3    H2 7476   3.685   1.798   9.178 -0.9467  2.3633  0.7955
  499TMC3    C7 7477   3.653   1.825   9.443 -0.5882  1.0486  0.5965
  499TMC3    C8 7478   3.508   1.712   8.985  0.4200  0.1358  0.2654
  499TMC3    O1 7479   3.608   1.901   9.529 -0.4117 -0.1230  0.0101
  499TMC3    O2 7480   3.411   1.691   8.920  0.4536 -0.1403 -0.0249
  500MPD2     C 7481   0.599   3.443  10.643 -0.6877  0.2663  0.6095
  500MPD2    C1 7482   0.560   3.315  10.670 -0.0938  0.0878 -0.6758
  500MPD2    C2 7483   0.438   3.284  10.616 -0.2769 -0.1298 -0.0271
  500MPD2    C3 7484   0.350   3.375  10.554  0.2935 -0.5160 -0.5869
  500MPD2    C4 7485   0.398   3.505  10.539  0.1479 -1.0555 -0.1990
  500MPD2    C5 7486   0.524   3.541  10.583 -0.4099  0.0491 -0.1714
  500MPD2     H 7487   0.411   3.180  10.628 -1.0552  0.2819  1.8572
  500MPD2    H1 7488   0.330   3.578  10.498  0.3445 -0.8580 -0.1774
  500MPD2    H2 7489   0.695   3.481  10.676 -0.1379  0.0026 -0.6564
  500MPD2    H3 7490   0.547   3.647  10.581 -2.5306  0.5331  1.0571
  500MPD2     N 7491   0.219   3.353  10.528 -0.2189  0.7358 -0.0843
  500MPD2    H5 7492   0.173   3.422  10.470  2.4040  1.9149 -0.7995
  500MPD2    N1 7493   0.635   3.210  10.724 -0.1062  0.5800 -0.2213
  500MPD2    H7 7494   0.593   3.118  10.725  0.1811  0.4519  0.6183
  501TMC3    C1 7495   0.831   3.092  10.763  0.0957  0.1764  0.2239
  501TMC3    C2 7496   0.841   3.030  10.637 -0.1138  0.9104 -0.2872
  501TMC3    C3 7497   0.936   2.933  10.621 -0.2655 -0.5332  0.5249
  501TMC3    C4 7498   0.912   3.062  10.866  0.1143 -0.1546 -0.1355
  501TMC3    C5 7499   1.005   2.964  10.848  0.8919  0.3088 -0.3887
  501TMC3    C6 7500   1.013   2.887  10.734  0.1337 -0.6476  0.8624
  501TMC3     C 7501   0.765   3.217  10.773 -0.0583 -0.3436  0.1758
  501TMC3     O 7502   0.825   3.316  10.816 -0.0281 -0.2412 -0.1302
  501TMC3     H 7503   0.797   3.079  10.551  2.1238  1.2424 -1.2316
  501TMC3    H1 7504   0.898   3.105  10.964  0.4948 -1.1921  0.3786
  501TMC3    H2 7505   1.074   2.797  10.734 -0.1472 -0.8406 -1.1324
  501TMC3    C7 7506   1.140   2.982  10.916  0.6793 -0.0999 -0.9163
  501TMC3    C8 7507   1.017   2.947  10.502 -0.2769 -0.9728 -0.5307
  501TMC3    O1 7508   1.136   3.051  11.019  0.3268  0.2965  0.0646
  501TMC3    O2 7509   1.046   3.066  10.472 -0.0137  1.2033 -0.1563
  502TMC3    C1 7510   0.361   2.092  15.635 -0.9310 -0.4397 -0.0780
  502TMC3    C2 7511   0.348   2.139  15.505 -0.7720 -0.4606  0.3414
  502TMC3    C3 7512   0.227   2.111  15.440  0.5069 -0.0039  0.0140
  502TMC3    C4 7513   0.263   2.022  15.698 -0.2798  0.1336 -0.4933
  502TMC3    C5 7514   0.147   1.997  15.632  0.5168  0.0843  0.7802
  502TMC3    C6 7515   0.127   2.048  15.506  0.5125  0.6685 -0.1429
  502TMC3     C 7516   0.491   2.029  15.634  0.5242 -0.1755 -1.4531
  502TMC3     O 7517   0.586   2.098  15.598 -0.3008  0.1818 -0.4316
  502TMC3     H 7518   0.429   2.200  15.465  0.9063 -1.3756  2.3155
  502TMC3    H1 7519   0.280   1.987  15.799  1.4041 -1.0434 -1.1845
  502TMC3    H2 7520   0.030   2.037  15.459  1.0546 -0.8467 -0.9066
  502TMC3    C7 7521   0.099   1.861  15.650 -0.5903 -0.4258  0.3208
  502TMC3    C8 7522   0.223   2.152  15.297  0.5306  0.2395  0.7709
  502TMC3    O1 7523   0.187   1.787  15.691  0.2822  0.0348 -0.3734
  502TMC3    O2 7524   0.297   2.243  15.260 -0.4670 -0.0365 -0.8005
  503MPD2     C 7525   2.157   2.158  16.873  0.4315 -0.0046  0.0229
  503MPD2    C1 7526   2.234   2.182  16.981 -0.1796  0.3811 -0.2621
  503MPD2    C2 7527   2.290   2.075  17.050 -0.6767 -0.8575 -0.3429
  503MPD2    C3 7528   2.279   1.948  16.993  0.4481  0.8209  0.8488
  503MPD2    C4 7529   2.223   1.928  16.869 -0.0584  0.3817  0.1976
  503MPD2    C5 7530   2.157   2.033  16.818  0.4786  0.0364 -0.2400
  503MPD2     H 7531   2.351   2.095  17.137  0.7446 -0.9767 -1.3109
  503MPD2    H1 7532   2.207   1.829  16.828  1.5644 -0.1302  0.8138
  503MPD2    H2 7533   2.103   2.233  16.817 -0.9049 -1.9228 -1.2783
  503MPD2    H3 7534   2.095   2.014  16.732  1.6751  1.6870 -1.4627
  503MPD2     N 7535   2.329   1.832  17.058  0.6403  0.2981  0.3975
  503MPD2    H5 7536   2.308   1.740  17.022  1.6537 -0.1194  0.8622
  503MPD2    N1 7537   2.250   2.313  17.032 -0.2883  0.4368 -0.2801
  503MPD2    H7 7538   2.281   2.323  17.128 -1.3963 -2.6671  0.4213
  504TMC3    C1 7539   2.422   1.691  17.215 -0.3757 -0.1306 -0.0821
  504TMC3    C2 7540   2.412   1.680  17.352 -0.4171 -0.8377 -0.3590
  504TMC3    C3 7541   2.479   1.574  17.411 -1.3877 -0.0640  0.2436
  504TMC3    C4 7542   2.489   1.602  17.138 -0.2042 -0.4330  0.5068
  504TMC3    C5 7543   2.570   1.509  17.200 -0.0569 -0.8004 -0.1200
  504TMC3    C6 7544   2.561   1.494  17.338 -0.1043  0.0874  0.4036
  504TMC3     C 7545   2.394   1.827  17.175  0.0259 -0.0524  0.5079
  504TMC3     O 7546   2.413   1.911  17.259 -0.4322  0.0777  0.0814
  504TMC3     H 7547   2.358   1.751  17.413  0.2774 -0.3429 -0.3212
  504TMC3    H1 7548   2.503   1.632  17.035 -0.8426  1.3944  0.9579
  504TMC3    H2 7549   2.635   1.430  17.384 -0.9581  0.6128  2.5093
  504TMC3    C7 7550   2.658   1.428  17.114  0.1463  0.6762  0.3196
  504TMC3    C8 7551   2.472   1.551  17.555  0.2874  0.1711  0.0511
  504TMC3    O1 7552   2.633   1.434  16.995 -0.0242 -0.6141  0.5543
  504TMC3    O2 7553   2.422   1.630  17.631 -0.1427  0.4538  0.4884
  505MPD2     C 7554   3.540   0.952  11.113  0.3199  0.1641  0.1530
  505MPD2    C1 7555   3.507   0.827  11.053  0.5891  0.5125 -0.3392
  505MPD2    C2 7556   3.588   0.760  10.956  0.0060  0.5552 -0.2136
  505MPD2    C3 7557   3.707   0.829  10.920  0.4837  0.7466 -0.5126
  505MPD2    C4 7558   3.743   0.951  10.985  0.5787  0.4235  0.1449
  505MPD2    C5 7559   3.656   1.015  11.072  0.0653 -0.5341 -0.1372
  505MPD2     H 7560   3.551   0.670  10.907 -0.1271  0.5798 -0.1597
  505MPD2    H1 7561   3.833   1.005  10.957  0.4621  0.3556 -0.3524
  505MPD2    H2 7562   3.478   1.002  11.187 -0.1824  0.5198 -0.5064
  505MPD2    H3 7563   3.677   1.107  11.126  1.6127 -0.7977 -0.2911
  505MPD2     N 7564   3.796   0.791  10.811  0.3889 -0.1198  0.5306
  505MPD2    H5 7565   3.872   0.855  10.789 -0.9788  1.4450  0.3322
  505MPD2    N1 7566   3.374   0.772  11.083  0.0633 -0.4353  0.5396
  505MPD2    H7 7567   3.302   0.824  11.132  0.1520  1.4336 -1.3315
  506TMC3    C1 7568   3.210   0.605  11.084 -0.0190 -0.0087  0.0118
  506TMC3    C2 7569   3.123   0.703  11.060 -0.2252  0.0846  0.7470
  506TMC3    C3 7570   3.019   0.687  10.973 -1.1682 -0.4508 -0.3075
  506TMC3    C4 7571   3.182   0.481  11.030 -0.1080 -0.1932 -0.0605
  506TMC3    C5 7572   3.070   0.462  10.955  0.9236 -0.3039  0.1121
  506TMC3    C6 7573   2.988   0.567  10.920 -0.0901  0.0577  0.3738
  506TMC3     C 7574   3.348   0.639  11.065  0.2847 -0.5970  0.0808
  506TMC3     O 7575   3.414   0.542  11.025  0.2340  0.7353 -0.0834
  506TMC3     H 7576   3.135   0.804  11.097  1.6020  0.0466  0.2451
  506TMC3    H1 7577   3.243   0.392  11.042  0.7280  0.3514 -0.2953
  506TMC3    H2 7578   2.915   0.543  10.844  1.5602 -0.0682 -1.1687
  506TMC3    C7 7579   3.099   0.387  10.833  0.1138 -0.1227 -0.0970
  506TMC3    C8 7580   2.951   0.811  10.945 -0.2779 -0.2827  0.4564
  506TMC3    O1 7581   3.014   0.319  10.779 -0.9032  0.3008  0.1715
  506TMC3    O2 7582   2.948   0.894  11.032  0.1858  0.4618 -0.4472
  507TMC3    C1 7583   3.623   1.858  15.104  0.5051 -0.4053  0.3761
  507TMC3    C2 7584   3.640   1.770  14.998 -0.1650  0.4096  0.0884
  507TMC3    C3 7585   3.750   1.790  14.917  0.2195 -0.5724  0.9008
  507TMC3    C4 7586   3.704   1.964  15.117  0.4389 -0.0033  0.5710
  507TMC3    C5 7587   3.812   1.982  15.033  0.0078 -0.0939  0.2069
  507TMC3    C6 7588   3.840   1.887  14.938  0.0107  0.9662  1.1492
  507TMC3     C 7589   3.512   1.821  15.199 -0.6128  0.3218 -0.2132
  507TMC3     O 7590   3.412   1.777  15.150  0.7229 -0.0306  0.5600
  507TMC3     H 7591   3.566   1.692  14.980  1.6117 -0.9151 -1.4244
  507TMC3    H1 7592   3.671   2.042  15.185  3.9689  0.0438  2.1918
  507TMC3    H2 7593   3.928   1.889  14.875 -1.0832  1.1793 -0.3560
  507TMC3    C7 7594   3.818   2.109  14.971 -0.4202  0.3791  0.0293
  507TMC3    C8 7595   3.726   1.774  14.773 -0.4589  0.4431  0.0456
  507TMC3    O1 7596   3.849   2.103  14.851 -0.2174  0.2237  0.0406
  507TMC3    O2 7597   3.642   1.695  14.735 -0.2649 -0.5570  0.3295
  508MPD2     C 7598   4.197   3.934  15.951  0.8355 -1.2494 -0.3197
  508MPD2    C1 7599   4.224   4.013  16.059 -0.5546  0.1384 -0.1642
  508MPD2    C2 7600   4.220   4.151  16.041  0.2947  0.4784 -0.2485
  508MPD2    C3 7601   4.192   4.200  15.916  0.0660 -0.3538  0.3480
  508MPD2    C4 7602   4.159   4.117  15.811 -0.8705 -0.5462  0.0940
  508MPD2    C5 7603   4.157   3.981  15.830 -0.6391  0.2961  0.1052
  508MPD2     H 7604   4.238   4.218  16.124  1.6418  0.0767 -0.2096
  508MPD2    H1 7605   4.132   4.160  15.715  2.9190  1.5281 -0.0833
  508MPD2    H2 7606   4.196   3.826  15.954 -1.9559 -1.2079  0.0637
  508MPD2    H3 7607   4.128   3.909  15.754 -2.6037 -1.5087  2.5516
  508MPD2     N 7608   4.198   4.341  15.889  0.6493  0.2932 -0.2510
  508MPD2    H5 7609   4.253   4.398  15.952 -0.1077  0.7259  0.0216
  508MPD2    N1 7610   4.253   3.943  16.178 -0.0410 -0.1052 -0.2630
  508MPD2    H7 7611   4.268   3.843  16.171 -1.5167 -0.2011 -1.9922
  509TMC3    C1 7612   4.165   0.005  15.655 -0.2202  0.1285  1.2750
  509TMC3    C2 7613   4.258   0.060  15.738 -0.2448 -0.2644 -0.3269
  509TMC3    C3 7614   4.316   4.718  15.830 -0.0859  0.2099 -0.7021
  509TMC3    C4 7615   4.116   4.615  15.679  0.9235 -0.1167 -0.0413
  509TMC3    C5 7616   4.190   4.532  15.760 -0.0105 -0.8247  0.7191
  509TMC3    C6 7617   4.291   4.584  15.834 -0.2535  0.7449  0.0589
  509TMC3     C 7618   4.081   0.088  15.571  0.5269 -0.2287 -0.2608
  509TMC3     O 7619   3.960   0.067  15.568 -0.3019 -0.1827  0.1475
  509TMC3     H 7620   4.267   0.167  15.748 -0.8321 -0.2404 -0.0765
  509TMC3    H1 7621   4.024   4.586  15.629 -0.2232 -0.3413  2.2065
  509TMC3    H2 7622   4.347   4.525  15.905 -4.3496 -0.7603  2.0322
  509TMC3    C7 7623   4.132   4.405  15.782 -0.7394  0.3276 -0.8226
  509TMC3    C8 7624   4.444   0.012  15.895 -0.1702  0.1635 -0.5507
  509TMC3    O1 7625   4.046   4.368  15.706 -0.0403  0.1281  0.5377
  509TMC3    O2 7626   4.474   4.689  15.998 -0.1443  0.2709 -0.7129
  510MPD2     C 7627   2.087   1.099  14.879  0.4739 -0.5421  0.2032
  510MPD2    C1 7628   2.120   0.966  14.895  0.2232  0.1345  0.9462
  510MPD2    C2 7629   2.248   0.929  14.868  0.2532 -0.1469  0.7063
  510MPD2    C3 7630   2.341   1.017  14.820 -0.0396 -0.2616  0.7173
  510MPD2    C4 7631   2.311   1.147  14.826 -0.0793  0.4589 -0.1248
  510MPD2    C5 7632   2.190   1.187  14.853  0.0686  0.2914  0.6218
  510MPD2     H 7633   2.279   0.825  14.878  0.1400 -0.3170 -0.7589
  510MPD2    H1 7634   2.374   1.231  14.797 -0.7371  1.1396  0.4395
  510MPD2    H2 7635   1.986   1.128  14.909  1.3181  0.0031  2.5729
  510MPD2    H3 7636   2.170   1.294  14.862 -1.0677  0.1961 -0.7295
  510MPD2     N 7637   2.470   0.978  14.776 -0.3647 -0.4266 -0.8537
  510MPD2    H5 7638   2.479   0.878  14.761  2.1706 -0.3011 -0.1403
  510MPD2    N1 7639   2.027   0.868  14.938  0.3102  0.3150 -0.1690
  510MPD2    H7 7640   2.068   0.778  14.958  0.0076  0.2267  0.0488
  511TMC3    C1 7641   1.829   0.780  15.045  0.0126 -0.2579  0.3999
  511TMC3    C2 7642   1.724   0.813  15.134 -0.2872  0.3571 -0.5742
  511TMC3    C3 7643   1.674   0.713  15.209  0.4552  0.1818  0.1722
  511TMC3    C4 7644   1.865   0.649  15.027  0.2355 -0.6964  0.9265
  511TMC3    C5 7645   1.793   0.550  15.090  0.0574  0.4294  0.1338
  511TMC3    C6 7646   1.696   0.575  15.191  0.4090 -0.2204  0.1574
  511TMC3     C 7647   1.887   0.889  14.961 -0.1107 -0.0067 -0.5055
  511TMC3     O 7648   1.809   0.979  14.934 -0.2818 -0.4732 -0.6413
  511TMC3     H 7649   1.706   0.916  15.164  2.7970  0.7106  0.1225
  511TMC3    H1 7650   1.955   0.624  14.972 -0.8584 -2.9338  0.1513
  511TMC3    H2 7651   1.632   0.503  15.242 -0.1164  2.1104  2.7817
  511TMC3    C7 7652   1.799   0.424  15.029  0.1492 -0.0901  0.1868
  511TMC3    C8 7653   1.571   0.745  15.309 -0.0664  0.3316  0.2807
  511TMC3    O1 7654   1.892   0.396  14.953 -0.0884 -0.5124 -0.0269
  511TMC3    O2 7655   1.516   0.852  15.298  0.2051 -0.3301 -0.5200
  512TMC3    C1 7656   1.356   0.548  13.497  0.3209 -0.1710  0.5083
  512TMC3    C2 7657   1.440   0.499  13.596  0.1707  1.0997  0.5842
  512TMC3    C3 7658   1.554   0.430  13.559 -0.4942 -0.3923  0.8040
  512TMC3    C4 7659   1.390   0.536  13.368  0.0217  0.0822  0.3173
  512TMC3    C5 7660   1.495   0.459  13.341  0.9296 -0.8798  0.5612
  512TMC3    C6 7661   1.587   0.406  13.431  0.0667  0.0966 -0.3343
  512TMC3     C 7662   1.254   0.645  13.539 -0.7819 -0.0145 -0.2421
  512TMC3     O 7663   1.273   0.705  13.646  0.6116 -0.1921 -0.5457
  512TMC3     H 7664   1.409   0.510  13.699  1.3489  0.5282  0.9970
  512TMC3    H1 7665   1.336   0.574  13.282 -0.4720 -0.6742  0.2898
  512TMC3    H2 7666   1.686   0.369  13.406  1.4506  4.2109 -1.0990
  512TMC3    C7 7667   1.519   0.438  13.203  0.0261 -0.3433  0.0140
  512TMC3    C8 7668   1.632   0.374  13.667  0.5506 -0.2770 -0.2053
  512TMC3    O1 7669   1.510   0.543  13.139  0.2409  0.1138 -0.1722
  512TMC3    O2 7670   1.705   0.274  13.658 -0.3059 -0.4385 -0.5364
  513MPD2     C 7671   3.571   1.274  13.462  0.3287  0.4007  0.4181
  513MPD2    C1 7672   3.526   1.149  13.418  0.2109 -0.2071  0.5226
  513MPD2    C2 7673   3.516   1.047  13.509  0.4211  0.2771  0.7656
  513MPD2    C3 7674   3.571   1.068  13.636 -0.5295  0.4232 -1.0757
  513MPD2    C4 7675   3.629   1.187  13.673  0.0691  0.0303  0.2120
  513MPD2    C5 7676   3.631   1.292  13.585  0.6408 -0.3639  0.4083
  513MPD2     H 7677   3.474   0.950  13.483 -0.6404  1.1467 -0.7154
  513MPD2    H1 7678   3.661   1.198  13.776 -1.6881 -0.0148  0.7639
  513MPD2    H2 7679   3.586   1.349  13.384 -2.0527 -0.2180 -0.6178
  513MPD2    H3 7680   3.680   1.382  13.621  0.7441  0.7713 -2.5130
  513MPD2     N 7681   3.579   0.959  13.720  0.1529 -0.1235  0.4025
  513MPD2    H5 7682   3.526   0.878  13.688 -0.0029  0.4699 -0.8105
  513MPD2    N1 7683   3.481   1.145  13.289  0.1411  0.3012 -0.6085
  513MPD2    H7 7684   3.506   1.220  13.226 -2.1177 -0.4132 -2.3527
  514TMC3    C1 7685   3.385   1.055  13.092  0.3471 -0.0233  0.1870
  514TMC3    C2 7686   3.484   1.098  13.010  0.2734 -0.4494  0.1643
  514TMC3    C3 7687   3.509   1.029  12.891  0.1353 -0.4071 -0.3058
  514TMC3    C4 7688   3.300   0.951  13.057  0.3939  0.3249 -0.0783
  514TMC3    C5 7689   3.346   0.870  12.953 -0.3168  0.3338  0.0946
  514TMC3    C6 7690   3.444   0.912  12.864 -0.6713  1.0440 -0.6969
  514TMC3     C 7691   3.420   1.043  13.234  0.2044 -0.3688 -0.7209
  514TMC3     O 7692   3.382   0.940  13.284 -0.3930  0.2582 -0.6142
  514TMC3     H 7693   3.542   1.185  13.041  1.3305 -1.2716  0.5051
  514TMC3    H1 7694   3.220   0.908  13.117  0.4816 -0.3866 -0.4703
  514TMC3    H2 7695   3.479   0.843  12.788 -1.2668 -2.1631  1.9494
  514TMC3    C7 7696   3.360   0.727  12.989  0.2507 -0.4141  0.0788
  514TMC3    C8 7697   3.621   1.077  12.812  0.4621  1.1174 -0.0877
  514TMC3    O1 7698   3.390   0.655  12.894  0.1132  0.0380 -0.3168
  514TMC3    O2 7699   3.670   1.181  12.858  0.0165  0.6503  0.2483
  515MPD2     C 7700   0.951   2.376  14.564 -0.4092 -0.0141 -0.0988
  515MPD2    C1 7701   1.052   2.283  14.553 -0.2467  0.5724 -0.6933
  515MPD2    C2 7702   1.160   2.291  14.639  0.3065 -0.3348  0.2107
  515MPD2    C3 7703   1.177   2.400  14.732 -0.0564  0.1602 -0.0676
  515MPD2    C4 7704   1.079   2.503  14.720 -0.2916  0.1232  0.3266
  515MPD2    C5 7705   0.968   2.488  14.639 -0.1963 -0.3318  0.8756
  515MPD2     H 7706   1.243   2.221  14.631 -0.0548 -0.8565  1.1041
  515MPD2    H1 7707   1.096   2.595  14.776 -0.1210  1.3746 -1.7630
  515MPD2    H2 7708   0.855   2.373  14.515 -1.3783  0.5635  1.7556
  515MPD2    H3 7709   0.891   2.564  14.642  0.1304  0.0434 -0.3072
  515MPD2     N 7710   1.292   2.414  14.818  0.5104 -0.3351 -0.6392
  515MPD2    H5 7711   1.306   2.499  14.873 -0.2606  0.1059 -1.1260
  515MPD2    N1 7712   1.050   2.168  14.470 -0.0348 -1.2942  0.4881
  515MPD2    H7 7713   1.137   2.115  14.465 -0.2750 -1.8650  2.5614
  516TMC3    C1 7714   0.975   2.012  14.314 -0.3799 -0.6853 -0.1469
  516TMC3    C2 7715   0.915   1.988  14.188 -0.0956  0.6330 -0.1195
  516TMC3    C3 7716   0.913   1.862  14.146  0.3605 -0.9971  0.0156
  516TMC3    C4 7717   1.029   1.912  14.389 -0.4424 -0.0886  0.1172
  516TMC3    C5 7718   1.007   1.781  14.351 -0.2770  0.4284 -0.1129
  516TMC3    C6 7719   0.958   1.762  14.226  0.1918  0.4001  0.5447
  516TMC3     C 7720   0.953   2.137  14.380 -0.4273  0.4409 -0.1419
  516TMC3     O 7721   0.854   2.202  14.345 -0.4815 -0.0848 -0.1602
  516TMC3     H 7722   0.904   2.069  14.116 -0.6162  1.2213  0.6222
  516TMC3    H1 7723   1.075   1.927  14.486 -1.3017  0.0245  0.5080
  516TMC3    H2 7724   0.966   1.659  14.194  1.1749  0.7822 -0.4165
  516TMC3    C7 7725   1.048   1.669  14.442 -0.1745  1.0772  0.1545
  516TMC3    C8 7726   0.906   1.845  14.003 -0.0998 -1.2173 -0.5494
  516TMC3    O1 7727   1.103   1.708  14.548  0.4438 -0.1854  0.1914
  516TMC3    O2 7728   0.815   1.904  13.944  0.7491 -0.2942  0.0381
  517MPD2     C 7729   0.498   3.586  17.352 -0.0666 -0.0168  0.0282
  517MPD2    C1 7730   0.612   3.572  17.423 -0.6812 -0.7317 -0.2581
  517MPD2    C2 7731   0.625   3.635  17.543 -0.0434  0.6962 -0.2367
  517MPD2    C3 7732   0.524   3.698  17.600 -0.1665  0.0454 -0.4834
  517MPD2    C4 7733   0.404   3.694  17.535  0.2088 -0.9095 -0.3656
  517MPD2    C5 7734   0.391   3.638  17.419  0.4927  0.5017 -0.2213
  517MPD2     H 7735   0.719   3.616  17.592  0.5130  2.3475 -0.6542
  517MPD2    H1 7736   0.314   3.735  17.579  1.1667 -0.5864  1.3079
  517MPD2    H2 7737   0.485   3.533  17.259 -2.0700 -0.5770  0.6112
  517MPD2    H3 7738   0.294   3.644  17.371  0.0153  1.6371  0.8870
  517MPD2     N 7739   0.532   3.749  17.727 -0.0541  0.0566  0.4702
  517MPD2    H5 7740   0.450   3.788   0.022 -0.8065 -0.6465 -0.3095
  517MPD2    N1 7741   0.727   3.503  17.377  0.2513  0.2031 -0.0390
  517MPD2    H7 7742   0.811   3.495  17.434  0.1118  2.1262  0.4253
  518TMC3    C1 7743   0.862   3.369  17.231  0.3347  0.3351 -0.2645
  518TMC3    C2 7744   0.842   3.251  17.166 -0.5276  0.5346  0.2651
  518TMC3    C3 7745   0.935   3.153  17.186 -0.4153  0.3412  0.2407
  518TMC3    C4 7746   0.970   3.394  17.317  0.0675  0.2639  0.5726
  518TMC3    C5 7747   1.062   3.294  17.325 -0.4412  0.9668  0.0810
  518TMC3    C6 7748   1.046   3.172  17.265 -0.3847 -0.5855 -0.8726
  518TMC3     C 7749   0.741   3.446  17.253  0.2024  0.1694 -0.0734
  518TMC3     O 7750   0.661   3.441  17.164 -0.1683 -0.4550 -0.4868
  518TMC3     H 7751   0.762   3.246  17.093  0.3058  0.2737 -0.6348
  518TMC3    H1 7752   0.984   3.488  17.367 -1.6316  1.6187 -1.4689
  518TMC3    H2 7753   1.113   3.089  17.286  0.8810  0.1269 -2.0527
  518TMC3    C7 7754   1.188   3.329  17.394  0.0217  0.3563  0.0149
  518TMC3    C8 7755   0.891   3.016  17.185 -0.2261  0.2586  0.8213
  518TMC3    O1 7756   1.180   3.395  17.498  0.0197 -0.2725  0.6079
  518TMC3    O2 7757   0.969   2.924  17.183 -0.6966 -0.7570  0.0954
  519MPD2     C 7758   2.349   2.062  14.644  0.3781 -0.5922 -0.2667
  519MPD2    C1 7759   2.343   2.036  14.507 -0.5879 -0.8971 -0.1303
  519MPD2    C2 7760   2.435   1.938  14.451  0.4679 -0.1382 -0.5697
  519MPD2    C3 7761   2.521   1.864  14.531  0.1955 -0.0361 -0.0655
  519MPD2    C4 7762   2.518   1.888  14.666 -0.0525 -0.8316 -0.3420
  519MPD2    C5 7763   2.437   1.985  14.721  0.4583  0.0170 -0.6332
  519MPD2     H 7764   2.419   1.910  14.348  0.5068 -0.6956 -0.4265
  519MPD2    H1 7765   2.579   1.821  14.726 -0.3012 -0.7263  0.0307
  519MPD2    H2 7766   2.271   2.124  14.686  0.3504 -0.8661  0.0844
  519MPD2    H3 7767   2.430   1.998  14.828  1.3507  1.5866 -0.7629
  519MPD2     N 7768   2.600   1.759  14.478  0.0831  0.6097  0.1433
  519MPD2    H5 7769   2.677   1.732  14.539  0.1685  2.6359  0.9145
  519MPD2    N1 7770   2.256   2.108  14.421  0.1245 -0.1774  0.1597
  519MPD2    H7 7771   2.188   2.168  14.467  0.6263  1.8735 -1.8402
  520TMC3    C1 7772   2.679   1.599  14.322  0.7773 -0.3308 -0.2301
  520TMC3    C2 7773   2.635   1.533  14.208  0.1750  0.2800  0.1181
  520TMC3    C3 7774   2.727   1.499  14.110  0.0124  0.1688 -0.5088
  520TMC3    C4 7775   2.811   1.613  14.355 -0.5924 -0.3262 -0.0598
  520TMC3    C5 7776   2.902   1.570  14.258  0.0102  0.4129 -0.0664
  520TMC3    C6 7777   2.858   1.513  14.143  0.9709  0.4146 -0.0801
  520TMC3     C 7778   2.583   1.704  14.359  0.8203  0.0381 -0.6219
  520TMC3     O 7779   2.483   1.706  14.285 -0.0672  0.5061 -0.5113
  520TMC3     H 7780   2.532   1.502  14.196  0.2638  0.2661 -0.6196
  520TMC3    H1 7781   2.843   1.664  14.445 -1.6482 -0.7701  0.5771
  520TMC3    H2 7782   2.926   1.483  14.065  2.7305  0.8556  1.2879
  520TMC3    C7 7783   3.047   1.588  14.277 -0.2835  0.6827  0.0017
  520TMC3    C8 7784   2.693   1.531  13.971  0.1067  0.2081  0.1820
  520TMC3    O1 7785   3.081   1.586  14.395  0.0695 -0.1332 -0.6618
  520TMC3    O2 7786   2.783   1.536  13.885 -0.1400  0.3257 -0.0090
  521MPD2     C 7787   3.182   4.394   0.037 -0.1413 -0.0118 -0.6499
  521MPD2    C1 7788   3.144   4.365  17.655  0.1366 -0.6369  0.1264
  521MPD2    C2 7789   3.246   4.318  17.572 -0.0534  0.2324  0.4246
  521MPD2    C3 7790   3.378   4.293  17.622 -0.6844 -0.0846 -0.6735
  521MPD2    C4 7791   3.412   4.320   0.004 -0.7107 -0.2806 -0.2274
  521MPD2    C5 7792   3.314   4.373   0.082  0.1280  0.3753 -0.0844
  521MPD2     H 7793   3.225   4.286  17.471 -0.9104  0.7536  0.4342
  521MPD2    H1 7794   3.514   4.309   0.041 -0.4387  0.1774 -0.8432
  521MPD2    H2 7795   3.114   4.424   0.116 -0.1119 -0.8587 -0.2936
  521MPD2    H3 7796   3.336   4.396   0.185  0.5063 -0.6030  0.0487
  521MPD2     N 7797   3.482   4.250  17.526 -0.5076 -0.4152 -0.1717
  521MPD2    H5 7798   3.464   4.248  17.426 -1.9962 -1.1142  0.1080
  521MPD2    N1 7799   3.020   4.398  17.606 -0.4788 -0.3400 -0.2145
  521MPD2    H7 7800   2.948   4.431  17.669 -0.6168  0.7238 -0.9205
  522TMC3    C1 7801   3.689   4.180  17.450  0.2846 -0.2663 -0.3222
  522TMC3    C2 7802   3.799   4.094  17.455  0.2242 -0.4049  0.2854
  522TMC3    C3 7803   3.878   4.093  17.346 -0.0465  0.3901 -0.1284
  522TMC3    C4 7804   3.664   4.270  17.346  0.1573 -0.6697 -0.1058
  522TMC3    C5 7805   3.751   4.263  17.236 -0.1991  0.0743  0.9009
  522TMC3    C6 7806   3.856   4.174  17.235  0.1408 -0.0077  0.3553
  522TMC3     C 7807   3.601   4.195  17.563  0.0138 -0.2419  0.6589
  522TMC3     O 7808   3.620   4.138  17.668 -0.0061 -0.0949  0.0512
  522TMC3     H 7809   3.819   4.037  17.545  2.2975 -0.4930 -0.2361
  522TMC3    H1 7810   3.593   4.353  17.348 -0.3382 -1.0845 -0.3757
  522TMC3    H2 7811   3.922   4.172  17.149 -0.4421 -2.1346 -0.0430
  522TMC3    C7 7812   3.755   4.360  17.135 -0.4472  1.2447  0.2728
  522TMC3    C8 7813   3.982   3.996  17.350 -0.2796  0.9314  0.1023
  522TMC3    O1 7814   3.868   4.401  17.120 -0.0195 -0.2527 -0.4431
  522TMC3    O2 7815   3.984   3.912  17.438  0.6548  0.0278 -0.4333
  523MPD2     C 7816   1.474   4.630  10.139 -0.7416  0.3017  0.1733
  523MPD2    C1 7817   1.409   4.519  10.105  0.2361  0.0181 -0.4685
  523MPD2    C2 7818   1.292   4.524  10.025  0.3855 -0.7827 -0.2917
  523MPD2    C3 7819   1.237   4.638   9.978 -0.5018 -0.3625  0.7513
  523MPD2    C4 7820   1.304   0.016  10.022 -0.0875 -0.4495 -1.1981
  523MPD2    C5 7821   1.420   0.012  10.094 -0.2012 -0.1364  0.1044
  523MPD2     H 7822   1.255   4.426   9.995 -0.2455  0.4919 -3.6985
  523MPD2    H1 7823   1.268   0.114   9.995 -0.9388  0.2497  2.4652
  523MPD2    H2 7824   1.562   4.644  10.200 -0.1663  0.5518 -0.7122
  523MPD2    H3 7825   1.468   0.107  10.116 -1.4927  0.7136 -0.7076
  523MPD2     N 7826   1.121   4.650   9.889 -0.2773 -0.4321  0.0934
  523MPD2    H5 7827   1.091   0.003   9.854 -0.7014 -0.9110 -0.8093
  523MPD2    N1 7828   1.462   4.397  10.160 -0.4971 -0.0401 -0.0187
  523MPD2    H7 7829   1.539   4.408  10.225  0.5419  0.5217 -1.3253
  524TMC3    C1 7830   0.920   4.592   9.792  0.1033  0.4764 -0.4448
  524TMC3    C2 7831   0.847   4.502   9.717 -1.0667 -0.0863  0.7323
  524TMC3    C3 7832   0.726   4.539   9.661  0.4255 -0.4344 -0.3607
  524TMC3    C4 7833   0.877   4.721   9.809  0.4277  0.0965  0.4778
  524TMC3    C5 7834   0.752   0.006   9.761 -0.8549 -0.0619  0.4054
  524TMC3    C6 7835   0.677   4.660   9.690 -0.9490  0.0467 -0.7477
  524TMC3     C 7836   1.051   4.543   9.842 -0.1647 -0.1274 -0.6801
  524TMC3     O 7837   1.077   4.423   9.856  0.1817 -0.1766  0.2981
  524TMC3     H 7838   0.864   4.395   9.722  2.8108  0.4321 -1.1374
  524TMC3    H1 7839   0.928   0.047   9.880 -0.3101 -0.2505  1.3183
  524TMC3    H2 7840   0.578   4.692   9.659  0.5843  4.3450 -1.2149
  524TMC3    C7 7841   0.697   0.127   9.824 -0.3105  0.0431  0.0995
  524TMC3    C8 7842   0.646   4.437   9.595 -0.1083  0.4645  0.3546
  524TMC3    O1 7843   0.749   0.151   9.932  0.2046 -0.5799 -0.2097
  524TMC3    O2 7844   0.552   4.483   9.531  0.6148 -0.7000  0.3983
  525MPD2     C 7845   4.056   1.608  14.487 -0.4118 -0.7958 -0.3134
  525MPD2    C1 7846   4.094   1.619  14.618 -0.1399  0.0989 -0.1518
  525MPD2    C2 7847   4.105   1.746  14.677 -0.2329  0.2732  0.7285
  525MPD2    C3 7848   4.089   1.860  14.594 -0.7993  0.3591 -0.3088
  525MPD2    C4 7849   4.051   1.850  14.461 -0.4966  0.2607 -0.6374
  525MPD2    C5 7850   4.038   1.721  14.409  0.6768  0.4166  0.4383
  525MPD2     H 7851   4.148   1.752  14.776  0.1623 -0.2092  0.5917
  525MPD2    H1 7852   4.053   1.931  14.390  1.2886  2.1679  1.5824
  525MPD2    H2 7853   4.036   1.514  14.438 -2.2063 -0.3946 -0.3414
  525MPD2    H3 7854   4.020   1.697  14.305 -0.3554 -1.4038  1.0465
  525MPD2     N 7855   4.117   1.990  14.639  0.2693 -0.2912  0.3472
  525MPD2    H5 7856   4.103   2.059  14.566 -0.4218 -2.4403 -1.5639
  525MPD2    N1 7857   4.151   1.511  14.690  0.4235  0.1053  0.2554
  525MPD2    H7 7858   4.189   1.538  14.780  1.8332 -1.1615  0.0372
  526TMC3    C1 7859   4.231   1.300  14.738 -0.0550 -0.0570 -0.0711
  526TMC3    C2 7860   4.150   1.282  14.853 -1.1113 -0.9972 -0.7137
  526TMC3    C3 7861   4.208   1.222  14.961  0.5557  0.3368 -0.0909
  526TMC3    C4 7862   4.363   1.260  14.725 -0.2593 -0.2106  0.1081
  526TMC3    C5 7863   4.418   1.214  14.839 -0.0280  0.5387 -0.1553
  526TMC3    C6 7864   4.343   1.189  14.957  0.2758  0.2589  0.0969
  526TMC3     C 7865   4.186   1.391  14.636  0.6771 -0.0968  0.2695
  526TMC3     O 7866   4.215   1.363  14.520  0.2194  0.9752 -0.1514
  526TMC3     H 7867   4.047   1.315  14.864 -0.9873 -0.8320 -0.0552
  526TMC3    H1 7868   4.426   1.293  14.643  0.2704 -1.5632 -0.0391
  526TMC3    H2 7869   4.390   1.126  15.032 -1.2315 -2.1933 -1.0195
  526TMC3    C7 7870   4.555   1.153  14.840  0.4283 -0.0303 -0.7056
  526TMC3    C8 7871   4.142   1.154  15.072  0.7004  0.7227  0.4562
  526TMC3    O1 7872   4.610   1.154  14.947  0.2110  0.0073  0.2111
  526TMC3    O2 7873   4.211   1.134  15.171  0.1799  0.5238  0.0076
  527MPD2     C 7874   2.180   4.235   1.343 -0.8469 -0.0824 -0.6004
  527MPD2    C1 7875   2.135   4.107   1.352  0.3755  0.2694 -0.4425
  527MPD2    C2 7876   2.198   4.006   1.284 -0.4076  0.1316  0.2151
  527MPD2    C3 7877   2.303   4.039   1.217  0.3979  0.4072  0.4121
  527MPD2    C4 7878   2.350   4.170   1.212  0.3792  0.5610 -0.2624
  527MPD2    C5 7879   2.283   4.274   1.267  0.5308  0.6403  0.4170
  527MPD2     H 7880   2.159   3.905   1.288 -1.0192  0.3218 -0.9329
  527MPD2    H1 7881   2.432   4.203   1.149  0.2080  1.6347  0.0833
  527MPD2    H2 7882   2.122   4.306   1.401  1.8145  0.4044  1.4869
  527MPD2    H3 7883   2.311   4.378   1.257  0.2103  0.5371 -1.5714
  527MPD2     N 7884   2.372   3.931   1.153 -0.0054  0.9831 -0.0436
  527MPD2    H5 7885   2.343   3.834   1.164  1.1577  0.8245  1.5511
  527MPD2    N1 7886   2.018   4.078   1.428 -1.0401  0.9675  0.3027
  527MPD2    H7 7887   1.993   3.980   1.415  2.3643  0.0732  0.7153
  528TMC3    C1 7888   1.873   4.062   1.621  0.0697  0.7072  0.5891
  528TMC3    C2 7889   1.880   4.074   1.757 -0.6361  0.6751  0.6290
  528TMC3    C3 7890   1.765   4.052   1.824  0.3683 -0.4599 -0.0496
  528TMC3    C4 7891   1.764   4.007   1.554 -0.3206  0.3167 -0.5195
  528TMC3    C5 7892   1.653   3.971   1.631 -0.5956  0.3055  0.7934
  528TMC3    C6 7893   1.652   3.996   1.771  0.0530 -0.2837 -0.3108
  528TMC3     C 7894   1.978   4.143   1.545 -0.2256  0.1213 -0.4418
  528TMC3     O 7895   2.043   4.225   1.602 -0.0539 -0.3649  0.0525
  528TMC3     H 7896   1.966   4.118   1.806 -1.5502 -0.2257  3.0519
  528TMC3    H1 7897   1.764   3.999   1.446 -2.8892 -2.2940 -0.3282
  528TMC3    H2 7898   1.554   3.999   1.817 -0.2011 -1.2722 -0.7818
  528TMC3    C7 7899   1.527   3.936   1.567 -0.1522  0.6614  0.0431
  528TMC3    C8 7900   1.777   4.081   1.968  0.0738  0.2218  0.1875
  528TMC3    O1 7901   1.515   3.964   1.450  0.0890 -0.2443 -0.0554
  528TMC3    O2 7902   1.866   4.161   2.006 -0.0076 -0.4699  0.5766
  529MPD2     C 7903   3.724   2.174   0.605  0.2908  0.6412  0.0583
  529MPD2    C1 7904   3.824   2.260   0.655 -0.1813 -0.0837 -0.5135
  529MPD2    C2 7905   3.823   2.391   0.614 -0.4077  0.8842 -0.3368
  529MPD2    C3 7906   3.730   2.443   0.523 -0.2857  0.2968 -0.0342
  529MPD2    C4 7907   3.643   2.355   0.457 -0.1771 -0.2630  0.7623
  529MPD2    C5 7908   3.641   2.221   0.498  0.2000  0.5745 -0.1520
  529MPD2     H 7909   3.893   2.464   0.651  0.6116 -0.4119  0.2941
  529MPD2    H1 7910   3.582   2.398   0.378  2.1165  1.4068 -0.0831
  529MPD2    H2 7911   3.717   2.067   0.624 -1.9666  1.1379  2.1131
  529MPD2    H3 7912   3.566   2.158   0.451 -0.3786  1.1390  0.0170
  529MPD2     N 7913   3.725   2.585   0.486 -0.1905  1.0436 -0.4096
  529MPD2    H5 7914   3.647   2.608   0.426  0.3314  0.5674 -1.2774
  529MPD2    N1 7915   3.918   2.229   0.752 -0.0371  0.1144 -0.2876
  529MPD2    H7 7916   3.995   2.293   0.763  0.7940 -1.3067  2.1873
  530TMC3    C1 7917   4.050   2.077   0.882  0.2553 -0.1856  0.5217
  530TMC3    C2 7918   4.118   2.190   0.936  0.8426 -0.7561 -0.0171
  530TMC3    C3 7919   4.231   2.163   1.005 -0.1357  0.1313 -0.5609
  530TMC3    C4 7920   4.078   1.947   0.915  0.3816  0.3590  0.3720
  530TMC3    C5 7921   4.197   1.929   0.978 -0.3546 -0.5978  0.8543
  530TMC3    C6 7922   4.274   2.038   1.020  0.4153  0.2478 -0.2398
  530TMC3     C 7923   3.939   2.100   0.794 -0.7386  0.2148 -0.6460
  530TMC3     O 7924   3.878   2.000   0.759  0.1983  0.3437  0.1729
  530TMC3     H 7925   4.083   2.290   0.914 -1.7771 -1.7993 -0.6353
  530TMC3    H1 7926   4.024   1.861   0.879  1.4525  0.8816 -2.4681
  530TMC3    H2 7927   4.351   2.009   1.091  1.1252 -0.8689 -1.4587
  530TMC3    C7 7928   4.259   1.800   0.997  0.0440  0.1123 -0.6332
  530TMC3    C8 7929   4.313   2.272   1.062 -0.0625  0.1273  0.7496
  530TMC3    O1 7930   4.383   1.798   0.988 -0.4442  0.1529 -0.3693
  530TMC3    O2 7931   4.253   2.377   1.069 -0.3549 -0.4127 -0.4751
  531MPD2     C 7932   3.500   0.384  13.336 -0.5850  0.5228  0.0214
  531MPD2    C1 7933   3.498   0.496  13.399 -0.7045  0.0341 -0.7523
  531MPD2    C2 7934   3.451   0.597  13.321 -0.6132  0.7397  0.1626
  531MPD2    C3 7935   3.427   0.592  13.182 -0.1996 -0.8747  1.4102
  531MPD2    C4 7936   3.445   0.475  13.122 -0.6781 -0.7238  0.0812
  531MPD2    C5 7937   3.480   0.372  13.200  0.5742  0.3575  0.2718
  531MPD2     H 7938   3.418   0.692  13.363  1.1622  1.6418 -0.5074
  531MPD2    H1 7939   3.422   0.454  13.018  0.6061 -1.3306 -0.0904
  531MPD2    H2 7940   3.524   0.292  13.388 -2.2187 -0.9709 -1.8560
  531MPD2    H3 7941   3.486   0.275  13.152 -1.1695 -0.3786  1.5575
  531MPD2     N 7942   3.375   0.711  13.125 -0.4020  0.4510  0.4940
  531MPD2    H5 7943   3.365   0.782  13.196 -2.5851  2.1997 -1.5730
  531MPD2    N1 7944   3.518   0.495  13.539 -1.1412 -0.0239  0.0843
  531MPD2    H7 7945   3.550   0.406  13.577 -1.1162 -1.6959 -3.8212
  532TMC3    C1 7946   3.589   0.604  13.741 -0.5434  0.0930 -0.6529
  532TMC3    C2 7947   3.563   0.719  13.811 -0.5634 -0.1178 -0.5380
  532TMC3    C3 7948   3.662   0.797  13.865 -0.5446 -0.1981 -0.3441
  532TMC3    C4 7949   3.715   0.552  13.749  0.3238 -0.1998 -0.0900
  532TMC3    C5 7950   3.814   0.620  13.814 -0.5232 -0.1982  0.3281
  532TMC3    C6 7951   3.796   0.747  13.854  0.9831 -0.3079  0.0450
  532TMC3     C 7952   3.520   0.612  13.608  1.0136  0.0087 -0.0004
  532TMC3     O 7953   3.492   0.726  13.568  0.1404 -0.4341 -0.1261
  532TMC3     H 7954   3.465   0.762  13.793 -0.3782  0.9501  0.9520
  532TMC3    H1 7955   3.729   0.461  13.692  0.5269 -0.9976  1.2253
  532TMC3    H2 7956   3.883   0.792  13.900  1.6393 -1.0828 -0.4463
  532TMC3    C7 7957   3.951   0.582  13.807 -0.3316  0.4026 -0.6305
  532TMC3    C8 7958   3.657   0.937  13.835 -0.3194  0.1229 -0.4796
  532TMC3    O1 7959   4.037   0.669  13.785  1.1242  0.0276 -0.2470
  532TMC3    O2 7960   3.743   1.007  13.884 -0.4136  0.1382  0.4635
  533TMC3    C1 7961   4.201   2.167  14.771 -0.0079  0.5172 -0.0810
  533TMC3    C2 7962   4.326   2.190  14.725 -0.2378  0.1046  0.2304
  533TMC3    C3 7963   4.420   2.263  14.801 -0.4660 -1.2722 -0.6316
  533TMC3    C4 7964   4.168   2.221  14.893  0.1174 -0.6132 -0.5833
  533TMC3    C5 7965   4.270   2.272  14.971  0.0841 -1.6382  0.1660
  533TMC3    C6 7966   4.396   2.292  14.926  0.0118  0.1600  0.1394
  533TMC3     C 7967   4.140   2.035  14.766 -0.0349  0.1933  0.2783
  533TMC3     O 7968   4.149   1.975  14.872  0.6462  0.2041  0.2283
  533TMC3     H 7969   4.348   2.165  14.622 -2.2112 -2.4714  0.4219
  533TMC3    H1 7970   4.072   2.210  14.943 -0.4431  2.3380 -1.0096
  533TMC3    H2 7971   4.471   2.335  14.991 -1.7889  2.0451  0.9839
  533TMC3    C7 7972   4.252   2.257  15.114 -0.0151 -0.7104 -0.5083
  533TMC3    C8 7973   4.537   2.306  14.734  0.2958 -0.1438 -0.1376
  533TMC3    O1 7974   4.344   2.202  15.174 -0.0286  0.0320  0.3169
  533TMC3    O2 7975   4.578   2.235  14.645 -0.1301  0.0683  0.2274
  534MPD2     C 7976   1.050   3.243   1.543 -0.0228  0.5621 -0.3647
  534MPD2    C1 7977   1.141   3.188   1.451  0.5770 -0.1374 -0.5070
  534MPD2    C2 7978   1.092   3.093   1.363 -0.5730 -0.0174 -0.5083
  534MPD2    C3 7979   0.965   3.038   1.376 -0.2495  0.3167 -0.0008
  534MPD2    C4 7980   0.879   3.098   1.461  0.0697 -0.3968 -1.1546
  534MPD2    C5 7981   0.921   3.206   1.537  0.3642 -0.0086 -0.2671
  534MPD2     H 7982   1.167   3.047   1.299 -0.6537  1.9259 -2.0058
  534MPD2    H1 7983   0.774   3.070   1.462  0.9404 -3.6506  0.5714
  534MPD2    H2 7984   1.072   3.318   1.618  0.4732  0.6349 -0.5843
  534MPD2    H3 7985   0.854   3.264   1.600 -0.2971 -0.0938 -0.9008
  534MPD2     N 7986   0.913   2.943   1.287 -0.0005  0.0432 -0.1890
  534MPD2    H5 7987   0.813   2.939   1.273  0.1282 -1.9292 -0.5421
  534MPD2    N1 7988   1.278   3.229   1.437  0.1458 -0.4580  0.0980
  534MPD2    H7 7989   1.316   3.218   1.344  0.2213 -0.2002  0.1003
  535TMC3    C1 7990   0.929   2.765   1.131  0.5575  0.1111  0.0781
  535TMC3    C2 7991   0.788   2.753   1.127  0.2516  1.1268  0.2190
  535TMC3    C3 7992   0.737   2.692   1.011  0.3373  0.3267 -0.0947
  535TMC3    C4 7993   1.005   2.700   1.037 -0.2320 -0.2998 -0.6225
  535TMC3    C5 7994   0.948   2.638   0.928 -0.8107 -0.5379 -0.4087
  535TMC3    C6 7995   0.810   2.642   0.909 -0.2080 -0.1860  0.0849
  535TMC3     C 7996   0.997   2.860   1.210  0.2041 -0.2889 -1.1528
  535TMC3     O 7997   1.117   2.847   1.218 -0.0977  0.4541  0.1952
  535TMC3     H 7998   0.727   2.776   1.214 -0.4195 -1.1087  0.3219
  535TMC3    H1 7999   1.112   2.703   1.056 -0.5165 -1.0026  1.0956
  535TMC3    H2 8000   0.762   2.582   0.832  2.3160 -1.2458 -0.6787
  535TMC3    C7 8001   1.033   2.635   0.805 -0.3087  0.0201  0.4358
  535TMC3    C8 8002   0.591   2.663   1.000 -0.0475 -0.3746 -0.2918
  535TMC3    O1 8003   1.157   2.631   0.832 -0.3310 -0.1855  0.1691
  535TMC3    O2 8004   0.554   2.576   0.921 -0.3640  0.4419  0.2174
  536MPD2     C 8005   0.780   1.198  16.271 -0.1410  0.3404 -0.1453
  536MPD2    C1 8006   0.679   1.109  16.281  0.2083  0.4523 -0.0824
  536MPD2    C2 8007   0.609   1.080  16.158  0.3804 -0.1343  0.2131
  536MPD2    C3 8008   0.649   1.146  16.035  0.0813  0.5579 -0.5266
  536MPD2    C4 8009   0.748   1.245  16.044 -0.1940  0.4904 -0.6821
  536MPD2    C5 8010   0.814   1.267  16.160 -0.0155  0.2051 -0.2470
  536MPD2     H 8011   0.537   1.000  16.147 -1.4708  1.3963  1.3293
  536MPD2    H1 8012   0.771   1.302  15.954 -0.1693  2.9291  0.8854
  536MPD2    H2 8013   0.837   1.223  16.360  0.6872 -1.1773 -0.2364
  536MPD2    H3 8014   0.888   1.346  16.167 -0.4651  0.5171  1.0405
  536MPD2     N 8015   0.600   1.122  15.912  0.3250  0.0132  0.6819
  536MPD2    H5 8016   0.641   1.178  15.838 -1.2232 -0.7498 -0.7770
  536MPD2    N1 8017   0.631   1.067  16.407  0.6714 -0.0824  0.2252
  536MPD2    H7 8018   0.681   1.113  16.483  0.0844  0.9406 -0.0163
  537TMC3    C1 8019   0.498   0.938  16.562 -0.4824 -0.2768 -0.1472
  537TMC3    C2 8020   0.523   1.033  16.660  1.0363 -0.1981 -0.6646
  537TMC3    C3 8021   0.461   1.021  16.777  0.7548 -0.4082  0.2882
  537TMC3    C4 8022   0.420   0.824  16.598  0.1857  0.1330 -0.1653
  537TMC3    C5 8023   0.379   0.800  16.730 -0.1598 -0.8182 -0.6136
  537TMC3    C6 8024   0.394   0.904  16.817 -0.0833  0.6133  0.7544
  537TMC3     C 8025   0.526   0.968  16.416 -0.1881  0.3245  0.8959
  537TMC3     O 8026   0.497   0.881  16.340  0.3148  0.0667 -0.6711
  537TMC3     H 8027   0.584   1.118  16.632 -0.3298  0.4700 -1.6482
  537TMC3    H1 8028   0.398   0.756  16.516  0.1040 -0.4725  0.3561
  537TMC3    H2 8029   0.344   0.906  16.914  0.2682  1.3504  0.9189
  537TMC3    C7 8030   0.320   0.675  16.777 -0.6958 -0.2360  0.1091
  537TMC3    C8 8031   0.452   1.123  16.866  0.0452  0.0145 -0.2784
  537TMC3    O1 8032   0.270   0.606  16.689 -0.1012 -0.3619 -0.3408
  537TMC3    O2 8033   0.496   1.104  16.979  0.3225  0.3310  0.0002
  538TMC3    C1 8034   1.804   4.281  11.156 -0.0688 -0.8254  0.3450
  538TMC3    C2 8035   1.937   4.276  11.170  0.1089 -0.2689 -0.1401
  538TMC3    C3 8036   2.015   4.264  11.058 -0.7117 -0.1756  0.0872
  538TMC3    C4 8037   1.743   4.271  11.031 -0.3811  0.8997 -0.0586
  538TMC3    C5 8038   1.819   4.263  10.920  0.1556 -0.2824  0.3903
  538TMC3    C6 8039   1.958   4.266  10.931 -0.6183 -0.7729  0.3492
  538TMC3     C 8040   1.713   4.276  11.269 -0.0289 -1.0626 -0.9264
  538TMC3     O 8041   1.594   4.280  11.241  0.8854  0.0884 -0.1443
  538TMC3     H 8042   1.986   4.294  11.265  1.0378 -0.7339 -0.5319
  538TMC3    H1 8043   1.636   4.281  11.020 -0.6277 -1.2991  0.4053
  538TMC3    H2 8044   2.021   4.262  10.843 -1.7638 -1.0130 -0.4551
  538TMC3    C7 8045   1.749   4.289  10.801 -0.1506 -0.2455  0.2419
  538TMC3    C8 8046   2.159   4.294  11.076  0.0056 -0.4100 -0.3753
  538TMC3    O1 8047   1.636   4.236  10.791  0.2866  0.9737  0.5015
  538TMC3    O2 8048   2.204   4.285  11.184 -0.3901  0.1637 -0.2091
  539MPD2     C 8049   2.272   3.775  11.238 -0.3054 -0.2453 -0.7997
  539MPD2    C1 8050   2.195   3.694  11.312 -0.3837  0.3418  0.6192
  539MPD2    C2 8051   2.059   3.714  11.322  0.3554 -0.0154  0.1447
  539MPD2    C3 8052   2.003   3.819  11.258 -0.0863  0.4890  0.1966
  539MPD2    C4 8053   2.085   3.907  11.188  1.0120  0.3062  0.2302
  539MPD2    C5 8054   2.222   3.885  11.176  0.0849  0.3836  0.1518
  539MPD2     H 8055   1.999   3.638  11.370  0.5025 -0.5742 -0.5609
  539MPD2    H1 8056   2.039   3.991  11.138 -0.5057 -0.2604  0.6470
  539MPD2    H2 8057   2.377   3.752  11.222 -0.4395 -1.2884 -0.2420
  539MPD2    H3 8058   2.286   3.945  11.113  1.8156  0.3687  1.8872
  539MPD2     N 8059   1.871   3.860  11.266  0.0529 -0.2678 -0.1855
  539MPD2    H5 8060   1.843   3.939  11.209 -2.1045 -0.4393  0.6315
  539MPD2    N1 8061   2.252   3.577  11.366  0.1681 -0.4672 -0.2095
  539MPD2    H7 8062   2.195   3.504  11.407 -0.1276 -1.1319 -1.7996
  540TMC3    C1 8063   1.656   3.908  11.354 -0.1961  0.1033 -0.2384
  540TMC3    C2 8064   1.603   3.932  11.230 -0.5575 -0.1656 -0.4424
  540TMC3    C3 8065   1.468   3.956  11.218  0.3230 -0.0669  0.2965
  540TMC3    C4 8066   1.577   3.909  11.466 -0.8940 -0.0011 -0.2623
  540TMC3    C5 8067   1.439   3.935  11.448  0.1728 -0.0352 -0.4053
  540TMC3    C6 8068   1.388   3.968  11.325 -0.6280  0.3900 -0.6444
  540TMC3     C 8069   1.779   3.822  11.357  0.2496  0.2699 -0.3257
  540TMC3     O 8070   1.805   3.767  11.464 -0.3555  0.3500  0.1101
  540TMC3     H 8071   1.665   3.916  11.143 -3.3036 -2.6419 -1.9452
  540TMC3    H1 8072   1.607   3.864  11.560 -1.0328  0.8793  0.2012
  540TMC3    H2 8073   1.280   3.976  11.313 -0.7373  1.6480  1.3063
  540TMC3    C7 8074   1.358   3.958  11.564  0.8762  0.6945 -0.0803
  540TMC3    C8 8075   1.405   3.926  11.089 -0.3976  0.3654 -0.3912
  540TMC3    O1 8076   1.241   3.991  11.547 -0.7420 -0.5451  0.4601
  540TMC3    O2 8077   1.290   3.963  11.065  0.2394 -0.0127 -0.6620
  541MPD2     C 8078   4.527   0.636  13.191  0.6793  0.0418 -0.1589
  541MPD2    C1 8079   4.585   0.560  13.101  0.4550 -0.0377 -0.5460
  541MPD2    C2 8080   4.694   0.611  13.035 -0.1198 -0.2226  0.1221
  541MPD2    C3 8081   0.001   0.738  13.062 -0.3915  0.2186  0.1192
  541MPD2    C4 8082   4.682   0.815  13.157 -0.8490  0.1105 -0.7361
  541MPD2    C5 8083   4.572   0.763  13.225  0.1819  0.2541  0.8957
  541MPD2     H 8084   4.736   0.558  12.950  0.7472 -0.9177  0.9761
  541MPD2    H1 8085   4.733   0.909  13.176 -0.1053 -0.5616  0.5651
  541MPD2    H2 8086   4.449   0.593  13.252  2.1073 -0.1381  1.5458
  541MPD2    H3 8087   4.527   0.812  13.311 -2.1117  0.4678 -0.4360
  541MPD2     N 8088   0.110   0.807  12.992 -0.0107 -0.4674 -0.3424
  541MPD2    H5 8089   0.126   0.905  13.013 -1.3188 -0.1754 -0.7194
  541MPD2    N1 8090   4.545   0.426  13.067  0.4286 -0.2933 -0.4010
  541MPD2    H7 8091   4.603   0.378  12.999 -3.2809 -2.0256 -2.3221
  542TMC3    C1 8092   0.251   0.847  12.809 -0.4320  0.8985  0.1965
  542TMC3    C2 8093   0.315   0.780  12.708 -0.1697 -0.7872  0.3249
  542TMC3    C3 8094   0.342   0.856  12.595 -0.6114  0.3660 -0.4178
  542TMC3    C4 8095   0.211   0.979  12.799 -0.1774 -0.9233 -0.3006
  542TMC3    C5 8096   0.231   1.048  12.683 -0.0640 -0.1951 -0.1095
  542TMC3    C6 8097   0.300   0.987  12.577  0.0724  0.5005 -0.1441
  542TMC3     C 8098   0.168   0.754  12.878  0.0810  0.0592  0.4071
  542TMC3     O 8099   0.177   0.637  12.847  0.5561  0.1808 -0.1038
  542TMC3     H 8100   0.345   0.677  12.718  0.4093 -0.5801  0.7245
  542TMC3    H1 8101   0.168   1.025  12.887 -0.2688  0.0428 -0.8517
  542TMC3    H2 8102   0.324   1.045  12.489  0.6009  0.1578 -0.2211
  542TMC3    C7 8103   0.192   1.186  12.674 -0.1476  0.1243  0.9191
  542TMC3    C8 8104   0.384   0.791  12.473 -0.5895 -0.5418 -0.2877
  542TMC3    O1 8105   0.197   1.245  12.783 -0.1200  0.2013  0.1962
  542TMC3    O2 8106   0.335   0.835  12.366  0.4170  0.5281  0.3679
  543TMC3    C1 8107   3.805   0.968  17.167  0.2351 -0.1341 -0.3852
  543TMC3    C2 8108   3.843   0.869  17.250 -0.6657  0.9666 -0.5233
  543TMC3    C3 8109   3.809   0.869  17.380 -0.3333  0.8574 -0.5883
  543TMC3    C4 8110   3.743   1.082  17.215  0.9627  0.5465  0.4096
  543TMC3    C5 8111   3.716   1.079  17.347 -1.0222  0.1441  0.2858
  543TMC3    C6 8112   3.747   0.982  17.436 -0.3221 -0.3761  0.4949
  543TMC3     C 8113   3.873   0.976  17.037 -0.5894 -0.7860 -0.6699
  543TMC3     O 8114   3.994   0.965  17.034 -0.5661  0.1329  0.3965
  543TMC3     H 8115   3.899   0.782  17.219 -0.0164  0.9990  0.5627
  543TMC3    H1 8116   3.730   1.165  17.146  0.1199 -0.2953 -0.4481
  543TMC3    H2 8117   3.724   0.988  17.542  0.6873  1.9728  0.5782
  543TMC3    C7 8118   3.627   1.177  17.403  0.1103  1.1582  0.1233
  543TMC3    C8 8119   3.860   0.760  17.467 -0.4547  0.2997  0.7960
  543TMC3    O1 8120   3.565   1.143  17.504  0.6143 -0.0362 -0.1979
  543TMC3    O2 8121   3.951   0.687  17.425  0.3286  0.3589 -0.4720
  544MPD2     C 8122   3.826   0.450   0.127  0.7713  0.8655 -0.3112
  544MPD2    C1 8123   3.934   0.458   0.039 -0.7360 -0.0176  0.3383
  544MPD2    C2 8124   3.914   0.545  17.682 -0.3753  0.5175  0.1641
  544MPD2    C3 8125   3.817   0.649  17.683 -0.3471  0.6922  0.4959
  544MPD2    C4 8126   3.721   0.635   0.026  1.4680  0.0392 -0.0872
  544MPD2    C5 8127   3.721   0.531   0.114  0.4916  0.4387 -0.6488
  544MPD2     H 8128   3.987   0.547  17.602  1.6443  1.9153  2.0374
  544MPD2    H1 8129   3.632   0.696   0.017  1.3322 -0.1419  0.0465
  544MPD2    H2 8130   3.837   0.380   0.209 -1.4195 -0.0946 -0.8369
  544MPD2    H3 8131   3.629   0.517   0.169  0.0511  2.5742 -0.8452
  544MPD2     N 8132   3.789   0.742  17.579 -0.1997 -0.6568 -0.0540
  544MPD2    H5 8133   3.705   0.798  17.590  1.6939  2.1362  0.2707
  544MPD2    N1 8134   4.058   0.387   0.067  0.1463 -0.0943 -0.9230
  544MPD2    H7 8135   4.060   0.327   0.148  1.3275 -0.4814 -1.2455
  545TMC3    C1 8136   4.253   0.285   0.036  0.0226  0.3523 -0.1250
  545TMC3    C2 8137   4.320   0.221  17.689  0.3032  0.8307 -0.1974
  545TMC3    C3 8138   4.390   0.110  17.729  0.2406 -0.2782  0.8367
  545TMC3    C4 8139   4.266   0.268   0.172  0.7437  0.1028 -0.1738
  545TMC3    C5 8140   4.341   0.157   0.203 -0.1568 -0.5123 -0.2746
  545TMC3    C6 8141   4.396   0.070   0.112 -0.2675 -0.4118  0.1943
  545TMC3     C 8142   4.162   0.376  17.734  0.1647 -0.7349 -0.0354
  545TMC3     O 8143   4.196   0.436  17.634  0.2686 -0.2845  0.3465
  545TMC3     H 8144   4.306   0.248  17.585 -2.0383 -0.1942 -0.1502
  545TMC3    H1 8145   4.210   0.318   0.250  2.1305  1.3529  0.0127
  545TMC3    H2 8146   4.461   4.727   0.143 -1.1323  0.1612  3.5296
  545TMC3    C7 8147   4.349   0.113   0.334  0.0634 -0.4626 -0.1449
  545TMC3    C8 8148   4.493   0.041  17.650 -0.2796 -0.0873 -1.0072
  545TMC3    O1 8149   4.336   4.737   0.382  0.0113 -0.4366 -0.0727
  545TMC3    O2 8150   4.535   4.674  17.702 -0.0493 -0.0256  0.5582
  546MPD2     C 8151   0.514   1.697  17.649  0.1871 -0.1636 -0.4860
  546MPD2    C1 8152   0.474   1.669  17.516  0.5617 -0.4954 -0.5084
  546MPD2    C2 8153   0.476   1.769  17.426  0.4518  0.8275 -0.7081
  546MPD2    C3 8154   0.549   1.889  17.457  0.3679 -0.5053 -0.0635
  546MPD2    C4 8155   0.603   1.912  17.580  0.2267 -0.0202 -0.3932
  546MPD2    C5 8156   0.577   1.815  17.679  0.4152  0.0077  0.0693
  546MPD2     H 8157   0.435   1.753  17.327 -3.5536 -1.2581  1.3181
  546MPD2    H1 8158   0.660   1.998  17.611  1.0674 -0.4330 -0.8001
  546MPD2    H2 8159   0.519   1.619  17.724 -0.6211  0.7858  0.5655
  546MPD2    H3 8160   0.614   1.829   0.032 -0.8501 -0.3708  0.5905
  546MPD2     N 8161   0.576   1.988  17.357  1.3131  0.2502  0.7942
  546MPD2    H5 8162   0.619   2.074  17.387 -1.2463  1.3373  1.3278
  546MPD2    N1 8163   0.408   1.543  17.490  0.0310 -0.9610 -0.0185
  546MPD2    H7 8164   0.453   1.468  17.543  1.0193 -1.8272 -2.1002
  547TMC3    C1 8165   0.295   1.375  17.376  0.4868 -0.1637 -0.4741
  547TMC3    C2 8166   0.260   1.326  17.246 -0.2172  0.6721 -0.0078
  547TMC3    C3 8167   0.236   1.193  17.231  0.1779 -0.5124  0.3373
  547TMC3    C4 8168   0.290   1.293  17.486  0.4223 -0.6775 -0.4104
  547TMC3    C5 8169   0.272   1.155  17.461 -0.2630 -0.4187  0.3388
  547TMC3    C6 8170   0.243   1.109  17.333  0.5854  0.0189 -0.1664
  547TMC3     C 8171   0.324   1.515  17.390  0.0417 -0.1538 -0.0988
  547TMC3     O 8172   0.257   1.595  17.328  0.3902 -1.1511  0.4246
  547TMC3     H 8173   0.267   1.398  17.166 -1.9101  0.3046 -0.4907
  547TMC3    H1 8174   0.300   1.328  17.588 -0.1359  1.1629 -0.9960
  547TMC3    H2 8175   0.196   1.012  17.326 -0.0649  0.1492  2.2737
  547TMC3    C7 8176   0.226   1.084  17.576  0.2861  0.2870  0.1677
  547TMC3    C8 8177   0.173   1.165  17.101  0.0735 -0.2365 -0.5518
  547TMC3    O1 8178   0.202   1.147  17.677 -0.8159  0.3956 -0.4541
  547TMC3    O2 8179   0.157   1.254  17.017 -0.4476  0.2203  0.0858
  548MPD2     C 8180   0.550   2.494  12.663  0.3612  0.3078 -0.3061
  548MPD2    C1 8181   0.494   2.369  12.674  0.0915  0.4875 -0.3707
  548MPD2    C2 8182   0.574   2.262  12.711 -0.1313 -0.1789  0.4107
  548MPD2    C3 8183   0.708   2.285  12.731 -0.2198  0.0245 -0.0187
  548MPD2    C4 8184   0.761   2.411  12.718  0.0956 -0.0914  0.6775
  548MPD2    C5 8185   0.684   2.514  12.682  0.4814  0.4598 -0.0386
  548MPD2     H 8186   0.528   2.165  12.726  1.3971 -0.9267  0.2305
  548MPD2    H1 8187   0.862   2.430  12.753 -0.3948  3.8173 -0.0386
  548MPD2    H2 8188   0.489   2.582  12.647  2.2701  1.3286 -1.9455
  548MPD2    H3 8189   0.730   2.612  12.679  0.3290  0.4738 -2.2511
  548MPD2     N 8190   0.793   2.173  12.758  0.1777  0.5192 -0.3821
  548MPD2    H5 8191   0.737   2.089  12.771 -0.3483  0.8032 -0.7939
  548MPD2    N1 8192   0.357   2.340  12.664 -0.6102 -0.7123  0.6140
  548MPD2    H7 8193   0.325   2.250  12.697 -0.7252 -1.0942 -0.5435
  549TMC3    C1 8194   0.140   2.352  12.596  0.0168 -0.4187 -0.3670
  549TMC3    C2 8195   0.046   2.420  12.520  0.1432 -0.0455  0.7595
  549TMC3    C3 8196   4.673   2.344  12.480  0.4404  0.1191  0.6109
  549TMC3    C4 8197   0.111   2.236  12.662  0.1832  0.8629  0.0314
  549TMC3    C5 8198   4.731   2.175  12.632  0.3883  0.0738  0.3411
  549TMC3    C6 8199   4.642   2.221  12.537  0.5549  0.3567 -0.1751
  549TMC3     C 8200   0.262   2.423  12.617  0.0135  0.1986  0.1595
  549TMC3     O 8201   0.274   2.531  12.564 -0.0648  0.3890  0.6517
  549TMC3     H 8202   0.071   2.512  12.468 -1.2335  0.9002  1.7721
  549TMC3    H1 8203   0.159   2.200  12.752 -0.0215 -1.4885 -0.7886
  549TMC3    H2 8204   4.544   2.177  12.520  0.3866  0.9913 -0.8309
  549TMC3    C7 8205   4.701   2.056  12.711  0.3217 -0.3746 -0.0230
  549TMC3    C8 8206   4.588   2.400  12.374  0.2923  0.2026  0.1711
  549TMC3    O1 8207   4.581   2.026  12.711  0.3135 -0.0326 -0.3504
  549TMC3    O2 8208   4.469   2.373  12.369  0.4096 -0.1711 -0.2913
  550TMC3    C1 8209   4.014   4.674  12.016  0.4634  0.0754 -0.7837
  550TMC3    C2 8210   4.011   0.006  12.133  0.3260  0.4437 -0.3868
  550TMC3    C3 8211   4.123   0.061  12.185 -0.2841  0.0438  0.0479
  550TMC3    C4 8212   4.127   4.689  11.934 -0.1686  0.3920 -0.5590
  550TMC3    C5 8213   4.237   0.003  11.988 -0.1169  0.2188  0.5625
  550TMC3    C6 8214   4.237   0.051  12.112  0.0611 -0.3937 -0.5779
  550TMC3     C 8215   3.887   4.652  11.957 -0.4026 -0.0913  0.6472
  550TMC3     O 8216   3.809   4.580  12.018 -0.0653 -0.1552  0.2982
  550TMC3     H 8217   3.918   0.016  12.187 -0.3214 -0.0063 -1.4107
  550TMC3    H1 8218   4.130   4.648  11.833 -0.0345 -0.4861 -0.2002
  550TMC3    H2 8219   4.329   0.080  12.161 -0.9094 -0.9308  1.5349
  550TMC3    C7 8220   4.364   4.707  11.929  0.4398  0.3355  0.7423
  550TMC3    C8 8221   4.119   0.173  12.275 -0.9052  0.2126  0.4836
  550TMC3    O1 8222   4.366   4.596  11.872 -0.5249  0.4535  0.1708
  550TMC3    O2 8223   4.220   0.243  12.269  0.4173  0.2294  0.2339
  551TMC3    C1 8224   1.485   2.654  13.392 -0.8516  0.3061 -0.2601
  551TMC3    C2 8225   1.603   2.652  13.319 -0.1008 -0.7093  0.0113
  551TMC3    C3 8226   1.717   2.692  13.388 -0.5324  0.5494  0.0126
  551TMC3    C4 8227   1.484   2.700  13.523  0.0887 -0.2170 -0.3744
  551TMC3    C5 8228   1.600   2.724  13.589 -0.0830 -0.4562 -0.5126
  551TMC3    C6 8229   1.723   2.726  13.525 -0.3311  0.5245 -0.4193
  551TMC3     C 8230   1.355   2.647  13.323 -0.4340 -0.2425  0.3440
  551TMC3     O 8231   1.258   2.620  13.391 -0.4161  0.5312 -0.1371
  551TMC3     H 8232   1.606   2.628  13.213  0.2547 -1.4616  0.1901
  551TMC3    H1 8233   1.390   2.704  13.577 -1.4514 -0.9698 -2.9796
  551TMC3    H2 8234   1.816   2.749  13.575 -0.7817  0.8206  0.2768
  551TMC3    C7 8235   1.600   2.761  13.729  0.4132  0.0980 -0.0727
  551TMC3    C8 8236   1.829   2.716  13.304 -0.2631  0.3134  0.2340
  551TMC3    O1 8237   1.710   2.773  13.780 -0.3715  0.2931 -0.4458
  551TMC3    O2 8238   1.838   2.666  13.191 -0.4254  0.5773 -0.1661
  552MPD2     C 8239   3.317   0.430  13.892 -0.0916 -0.0900  0.7216
  552MPD2    C1 8240   3.378   0.309  13.893 -0.7684 -0.8577 -0.1309
  552MPD2    C2 8241   3.492   0.288  13.965  0.2039 -0.3825 -0.1612
  552MPD2    C3 8242   3.537   0.389  14.046 -0.2541  0.0258  0.5070
  552MPD2    C4 8243   3.468   0.504  14.064  0.7242 -0.3710  0.0565
  552MPD2    C5 8244   3.374   0.525  13.970  1.1614 -0.1131 -0.2504
  552MPD2     H 8245   3.543   0.193  13.957  0.2706 -0.2274 -1.6188
  552MPD2    H1 8246   3.500   0.589  14.123  0.2653 -0.8329  0.9625
  552MPD2    H2 8247   3.228   0.445  13.831  0.6908  2.1465  0.1620
  552MPD2    H3 8248   3.328   0.623  13.956  0.9897 -0.1947 -0.2644
  552MPD2     N 8249   3.659   0.378  14.124  0.0669 -0.7028  0.0507
  552MPD2    H5 8250   3.669   0.437  14.206  1.1910 -0.6007 -0.1486
  552MPD2    N1 8251   3.332   0.197  13.817  0.0672  0.1242 -0.2650
  552MPD2    H7 8252   3.369   0.106  13.840 -1.2300 -0.8585 -2.1347
  553TMC3    C1 8253   3.211   0.070  13.683  0.9092 -0.1684  0.7849
  553TMC3    C2 8254   3.225   0.027  13.553  0.3081 -0.4796 -0.0815
  553TMC3    C3 8255   3.245   4.636  13.517  0.7095 -0.0434  0.4440
  553TMC3    C4 8256   3.203   4.721  13.787 -0.0602  0.1147 -0.4332
  553TMC3    C5 8257   3.230   4.589  13.743  0.2105  0.0540  0.0705
  553TMC3    C6 8258   3.256   4.545  13.613  0.9928 -0.2566  0.3567
  553TMC3     C 8259   3.244   0.201  13.711  0.4761 -0.2070 -0.0906
  553TMC3     O 8260   3.199   0.288  13.638  0.2742  0.1224 -0.5973
  553TMC3     H 8261   3.233   0.102  13.475 -0.0473 -0.7451 -0.3743
  553TMC3    H1 8262   3.183   0.006  13.891  1.1254  1.3531 -0.4769
  553TMC3    H2 8263   3.298   4.448  13.590  1.0706 -0.1423  0.0259
  553TMC3    C7 8264   3.268   4.492  13.849 -0.2547  0.3973  0.3253
  553TMC3    C8 8265   3.329   4.610  13.403  0.2272 -1.0991 -0.1190
  553TMC3    O1 8266   3.221   4.522  13.958 -0.3100  0.2365 -0.5419
  553TMC3    O2 8267   3.373   4.712  13.350 -0.0817 -0.2729  0.4836
  554TMC3    C1 8268   0.606   3.951  11.539 -0.3992  0.2288  0.3316
  554TMC3    C2 8269   0.487   3.928  11.476 -0.3037 -0.1673 -0.5170
  554TMC3    C3 8270   0.451   4.005  11.370 -0.1062 -0.1287  0.5845
  554TMC3    C4 8271   0.691   4.044  11.489  0.1344  0.8125  0.0034
  554TMC3    C5 8272   0.644   4.115  11.383  0.3004 -0.1271 -0.2232
  554TMC3    C6 8273   0.523   4.104  11.325 -0.1360 -0.4713 -1.1235
  554TMC3     C 8274   0.613   3.902  11.676 -0.1547  0.3132  0.5200
  554TMC3     O 8275   0.508   3.887  11.737  0.0395  0.3527 -0.9350
  554TMC3     H 8276   0.423   3.847  11.509  0.8592 -1.1608 -0.6750
  554TMC3    H1 8277   0.783   4.071  11.538 -0.5284 -0.6357  2.0909
  554TMC3    H2 8278   0.507   4.169  11.240 -0.3106  0.1052 -0.6597
  554TMC3    C7 8279   0.739   4.161  11.289 -0.4000  0.8363 -0.5432
  554TMC3    C8 8280   0.360   3.952  11.274 -0.0742  0.2838  0.7557
  554TMC3    O1 8281   0.727   4.130  11.171  0.2586 -0.0681 -1.1293
  554TMC3    O2 8282   0.330   4.021  11.180  0.3860 -0.8803 -0.3475
  555TMC3    C1 8283   4.710   3.129  14.903  0.1091  0.7294  0.0054
  555TMC3    C2 8284   0.015   3.240  14.970 -0.0435 -0.2172  0.6924
  555TMC3    C3 8285   0.038   3.226  15.099 -0.0911 -0.8631 -0.0636
  555TMC3    C4 8286   4.706   3.006  14.962 -0.3474  0.0433  0.7306
  555TMC3    C5 8287   4.717   3.002  15.097 -0.1752  0.4404  0.1303
  555TMC3    C6 8288   0.010   3.113  15.168 -0.4365 -0.4619 -0.8105
  555TMC3     C 8289   4.672   3.139  14.762 -0.7123  0.2129  0.2910
  555TMC3     O 8290   4.683   3.053  14.678 -0.0678  0.4745  0.4975
  555TMC3     H 8291   0.035   3.335  14.922  1.6066  0.2816  2.3799
  555TMC3    H1 8292   4.655   2.927  14.908  1.6403 -0.5884 -0.2162
  555TMC3    H2 8293   0.015   3.103  15.276 -3.0122  3.2065 -0.3585
  555TMC3    C7 8294   4.683   2.883  15.161 -0.0794 -0.3802 -0.4453
  555TMC3    C8 8295   0.084   3.342  15.172 -0.0673 -0.5678 -1.0671
  555TMC3    O1 8296   4.619   2.886  15.265  0.2884  0.2351 -0.1939
  555TMC3    O2 8297   0.067   3.450  15.119  0.3667  0.2672  0.0044
  556MPD2     C 8298   2.645   0.616  11.159  0.0555 -0.2781 -0.3254
  556MPD2    C1 8299   2.718   0.496  11.168 -0.2801 -0.0828 -0.4995
  556MPD2    C2 8300   2.738   0.416  11.059 -0.6033 -0.2062  0.3883
  556MPD2    C3 8301   2.691   0.452  10.934 -0.4195 -0.2488  0.4630
  556MPD2    C4 8302   2.633   0.572  10.930 -0.3405  0.0355 -0.3340
  556MPD2    C5 8303   2.604   0.649  11.035  0.2477  0.5077 -0.9073
  556MPD2     H 8304   2.791   0.321  11.066 -1.2235 -0.5528  0.3204
  556MPD2    H1 8305   2.595   0.610  10.835 -0.6216  0.0332 -0.2212
  556MPD2    H2 8306   2.631   0.683  11.243 -3.1606  2.2888 -2.9561
  556MPD2    H3 8307   2.540   0.736  11.027  2.9930  2.3992 -2.2166
  556MPD2     N 8308   2.712   0.356  10.825  0.4417  0.1190  0.6338
  556MPD2    H5 8309   2.764   0.273  10.849  0.6358  0.0990  0.1245
  556MPD2    N1 8310   2.771   0.459  11.291  0.1612  0.8000 -0.0637
  556MPD2    H7 8311   2.843   0.387  11.290 -0.7387 -0.1063  0.2729
  557TMC3    C1 8312   2.673   0.247  10.626 -0.1738 -0.2285  0.1800
  557TMC3    C2 8313   2.656   0.258  10.487 -0.2285 -0.3692 -0.1268
  557TMC3    C3 8314   2.614   0.141  10.419  0.0192  0.3371  0.1506
  557TMC3    C4 8315   2.650   0.128  10.693 -0.4619 -0.2416 -0.4927
  557TMC3    C5 8316   2.609   0.017  10.623 -0.4583  0.3873  0.5337
  557TMC3    C6 8317   2.573   0.026  10.494  0.0592  0.1962  0.0411
  557TMC3     C 8318   2.653   0.370  10.699  0.3300  0.0203  1.1404
  557TMC3     O 8319   2.589   0.457  10.648  0.2035 -0.2786  0.2568
  557TMC3     H 8320   2.656   0.355  10.439 -0.6529  0.4348  1.5035
  557TMC3    H1 8321   2.663   0.121  10.801 -1.9404 -1.6806 -0.4111
  557TMC3    H2 8322   2.526   4.682  10.442 -0.1693 -0.6642  1.6042
  557TMC3    C7 8323   2.533   4.662  10.695  0.8417 -0.6194 -1.0904
  557TMC3    C8 8324   2.556   0.177  10.293  1.1141  0.5343  0.0697
  557TMC3    O1 8325   2.416   4.659  10.660 -0.4277 -0.0393  0.1967
  557TMC3    O2 8326   2.586   0.286  10.242 -0.0170  0.5218 -0.0832
  558TMC3    C1 8327   0.019   3.260  10.551 -0.0854 -0.0524  0.0912
  558TMC3    C2 8328   4.663   3.217  10.641  0.0402  1.2915 -0.1084
  558TMC3    C3 8329   4.561   3.143  10.587 -0.0647  0.5009 -1.3887
  558TMC3    C4 8330   0.009   3.233  10.419 -0.2573 -0.5034 -0.5015
  558TMC3    C5 8331   4.644   3.157  10.368 -0.9180 -0.3317 -0.4305
  558TMC3    C6 8332   4.549   3.114  10.453 -0.5945 -0.3547  0.3559
  558TMC3     C 8333   0.150   3.266  10.600 -1.2437 -0.3825  0.1527
  558TMC3     O 8334   0.176   3.199  10.700  0.5579  0.6680  0.2658
  558TMC3     H 8335   4.669   3.240  10.746 -0.0340  0.1366  0.1424
  558TMC3    H1 8336   0.089   3.262  10.352  0.6019 -1.2919  0.1943
  558TMC3    H2 8337   4.473   3.042  10.427  0.6551 -0.6653 -2.4588
  558TMC3    C7 8338   4.619   3.147  10.222  0.3723 -0.5577 -0.5670
  558TMC3    C8 8339   4.506   3.034  10.664  0.7889  0.5422 -0.3445
  558TMC3    O1 8340   4.679   3.228  10.155 -0.0606 -0.2400  0.2861
  558TMC3    O2 8341   4.382   3.015  10.659  0.2771  0.6823 -0.3473
  559MPD2     C 8342   0.451   3.290  11.083  0.0302  1.2937  0.1079
  559MPD2    C1 8343   0.428   3.210  11.199  0.0630  0.0365 -0.6900
  559MPD2    C2 8344   0.534   3.188  11.289 -0.6816  0.3611 -0.3206
  559MPD2    C3 8345   0.667   3.238  11.255 -0.4517  0.1063  0.4534
  559MPD2    C4 8346   0.680   3.312  11.144 -0.9539 -0.3364 -0.9399
  559MPD2    C5 8347   0.573   3.342  11.061  0.4466  0.2243 -0.0033
  559MPD2     H 8348   0.513   3.134  11.380 -0.2170  0.6942 -0.0177
  559MPD2    H1 8349   0.776   3.349  11.109 -0.3915 -0.5470  0.3732
  559MPD2    H2 8350   0.372   3.308  11.012  0.9971  1.6116 -0.8749
  559MPD2    H3 8351   0.580   3.396  10.967 -2.9272  0.4592 -0.1010
  559MPD2     N 8352   0.782   3.195  11.324  0.0435 -0.2004  0.3482
  559MPD2    H5 8353   0.757   3.125  11.393  1.4356 -0.6548  0.3952
  559MPD2    N1 8354   0.298   3.158  11.216 -0.2846 -0.6177 -0.0691
  559MPD2    H7 8355   0.230   3.174  11.142 -1.2658  0.5688  1.0958
  560TMC3    C1 8356   0.999   3.165  11.390  0.2234 -0.3449 -0.5342
  560TMC3    C2 8357   0.954   3.053  11.449 -1.0399 -0.7500  0.4710
  560TMC3    C3 8358   1.042   2.982  11.525 -0.1307 -0.1810  0.5901
  560TMC3    C4 8359   1.132   3.210  11.398  0.3515 -0.7835 -0.2763
  560TMC3    C5 8360   1.217   3.143  11.478 -0.3434 -0.0396  0.1902
  560TMC3    C6 8361   1.167   3.032  11.546 -0.2952 -0.2381  0.2208
  560TMC3     C 8362   0.912   3.241  11.309 -0.3684  0.3635  0.4271
  560TMC3     O 8363   0.966   3.339  11.254 -0.1857 -0.0875 -0.4390
  560TMC3     H 8364   0.861   3.005  11.421 -0.9558  0.1285 -1.3087
  560TMC3    H1 8365   1.170   3.295  11.342 -0.9251  0.0533  0.1410
  560TMC3    H2 8366   1.241   2.975  11.601 -0.0125 -1.3066 -1.2712
  560TMC3    C7 8367   1.337   3.210  11.524 -0.4562  0.0320 -0.4821
  560TMC3    C8 8368   1.031   2.849  11.485  0.0228 -0.2430 -0.1979
  560TMC3    O1 8369   1.368   3.184  11.639  0.3011  0.1673  0.3279
  560TMC3    O2 8370   0.925   2.793  11.513 -0.9753  0.2837 -0.0297
  561TMC3    C1 8371   2.770   2.222  11.369 -0.3962 -0.3030 -0.1796
  561TMC3    C2 8372   2.719   2.195  11.496 -0.0692 -0.2134 -0.5535
  561TMC3    C3 8373   2.730   2.287  11.600  0.5747 -0.1336 -0.2594
  561TMC3    C4 8374   2.819   2.348  11.336  0.3038  1.2322  0.5060
  561TMC3    C5 8375   2.827   2.430  11.441 -0.2205  0.7675  0.2728
  561TMC3    C6 8376   2.784   2.408  11.567 -0.1814 -0.3015  0.1014
  561TMC3     C 8377   2.758   2.126  11.256  0.6928 -0.7098  0.5146
  561TMC3     O 8378   2.689   2.021  11.270 -0.2311  0.1198  0.3853
  561TMC3     H 8379   2.682   2.094  11.507 -1.6927  0.2866 -1.4613
  561TMC3    H1 8380   2.853   2.388  11.242 -2.5153 -0.6690 -1.3325
  561TMC3    H2 8381   2.793   2.476  11.650  0.4966  0.8146 -0.8929
  561TMC3    C7 8382   2.847   2.564  11.417  0.7752 -0.1505 -0.0287
  561TMC3    C8 8383   2.682   2.246  11.728 -0.9087 -0.0918 -0.2450
  561TMC3    O1 8384   2.788   2.651  11.484 -0.1161 -0.1564 -0.4819
  561TMC3    O2 8385   2.602   2.152  11.728 -0.3300  1.2456 -0.0437
  562TMC3    C1 8386   3.814   4.054  16.133 -0.2462 -0.3054 -0.6695
  562TMC3    C2 8387   3.704   4.120  16.074  0.6912  0.4584 -0.8194
  562TMC3    C3 8388   3.673   4.083  15.949  0.2210 -0.2172 -0.5923
  562TMC3    C4 8389   3.866   3.942  16.067  0.6568  0.6032  0.4290
  562TMC3    C5 8390   3.816   3.906  15.946  0.6654 -0.4327 -0.4931
  562TMC3    C6 8391   3.719   3.974  15.883  0.7133  0.4269  0.6171
  562TMC3     C 8392   3.856   4.086  16.274  0.2598 -0.3457  0.5407
  562TMC3     O 8393   3.919   4.006  16.340  0.3010  0.5377 -0.2782
  562TMC3     H 8394   3.648   4.197  16.125  0.9985  1.2261 -1.6324
  562TMC3    H1 8395   3.939   3.882  16.120 -1.0469 -2.9738 -1.2390
  562TMC3    H2 8396   3.692   3.953  15.781  1.2075 -0.1161  0.5982
  562TMC3    C7 8397   3.887   3.805  15.876  0.0917  0.5361  0.7510
  562TMC3    C8 8398   3.553   4.142  15.907 -0.7176  0.2988  0.7489
  562TMC3    O1 8399   3.875   3.810  15.755 -0.3445 -0.4181 -0.4540
  562TMC3    O2 8400   3.478   4.193  15.986  0.6439  0.4155  0.0184
  563MPD2     C 8401   1.583   0.268  15.920  0.5774 -0.2620 -1.2088
  563MPD2    C1 8402   1.572   0.229  16.048  0.5449  0.6775 -0.0411
  563MPD2    C2 8403   1.688   0.189  16.112 -0.2202  0.9968 -0.3313
  563MPD2    C3 8404   1.807   0.184  16.051 -0.5356  0.5852 -0.2124
  563MPD2    C4 8405   1.820   0.213  15.919  0.6992 -0.5338 -0.0272
  563MPD2    C5 8406   1.704   0.259  15.860  0.8059  0.3036  0.1625
  563MPD2     H 8407   1.683   0.174  16.219  1.7462  2.8367  0.0234
  563MPD2    H1 8408   1.913   0.223  15.865 -0.0691 -1.3962 -1.5278
  563MPD2    H2 8409   1.492   0.302  15.870 -0.2928 -0.3233  0.3233
  563MPD2    H3 8410   1.708   0.294  15.757 -1.4760 -1.3939 -0.5202
  563MPD2     N 8411   1.913   0.151  16.146 -0.3644  0.0923  1.0041
  563MPD2    H5 8412   1.884   0.132  16.241 -2.1888  1.5150  0.7329
  563MPD2    N1 8413   1.463   0.223  16.130 -0.3423 -0.5173 -0.5402
  563MPD2    H7 8414   1.475   0.177  16.220  0.9213 -1.1686 -1.0401
  564TMC3    C1 8415   1.232   0.223  16.191 -0.8202  0.0720  0.1126
  564TMC3    C2 8416   1.117   0.159  16.149  0.0776 -0.9873 -0.2496
  564TMC3    C3 8417   1.074   0.050  16.220 -0.5050 -0.4032 -0.4281
  564TMC3    C4 8418   1.293   0.185  16.315 -0.1955 -0.7514 -0.5773
  564TMC3    C5 8419   1.249   0.071  16.377  0.2337 -0.3078  0.4006
  564TMC3    C6 8420   1.128   0.015  16.339 -0.8920  0.7247  0.2671
  564TMC3     C 8421   1.336   0.268  16.097  1.2481 -0.3172  0.2682
  564TMC3     O 8422   1.290   0.331  16.001 -0.3335  0.2704  0.2774
  564TMC3     H 8423   1.072   0.182  16.053 -2.4140 -2.7914  0.4645
  564TMC3    H1 8424   1.383   0.231  16.355  0.4110 -0.5834 -2.1441
  564TMC3    H2 8425   1.091   4.667  16.395 -1.6498 -0.2657 -1.7381
  564TMC3    C7 8426   1.366   4.719  16.361  0.0705  0.0709 -0.4286
  564TMC3    C8 8427   1.017   4.670  16.153 -0.5960 -0.6132  0.6813
  564TMC3    O1 8428   1.474   0.038  16.354  0.5358  0.4442 -0.0541
  564TMC3    O2 8429   1.002   4.565  16.216  0.1557  0.4471  0.2305
  565TMC3    C1 8430   2.210   1.597  10.388 -0.2156 -0.3936  0.2563
  565TMC3    C2 8431   2.198   1.520  10.504  0.2749 -0.4726 -0.0330
  565TMC3    C3 8432   2.075   1.461  10.530  0.5217 -0.5615 -0.1271
  565TMC3    C4 8433   2.096   1.611  10.301 -0.1963  0.0518  0.2606
  565TMC3    C5 8434   1.981   1.550  10.334  0.0747  0.1562 -0.0969
  565TMC3    C6 8435   1.967   1.465  10.442  0.0947 -0.5539  0.6861
  565TMC3     C 8436   2.328   1.677  10.357 -0.3107 -0.0051 -0.0061
  565TMC3     O 8437   2.310   1.750  10.262 -0.2899  0.2504  0.0087
  565TMC3     H 8438   2.282   1.510  10.572 -0.2089 -1.1704  0.4698
  565TMC3    H1 8439   2.102   1.674  10.213  0.0270 -0.9380 -0.4321
  565TMC3    H2 8440   1.865   1.458  10.477  0.1673  2.1754  1.5238
  565TMC3    C7 8441   1.888   1.511  10.231  0.2859 -0.1057  0.3314
  565TMC3    C8 8442   2.056   1.384  10.651  0.2221 -0.6628  0.1470
  565TMC3    O1 8443   1.841   1.397  10.235 -0.0748  0.1227 -0.2556
  565TMC3    O2 8444   2.146   1.385  10.732 -0.2643 -0.1359 -0.1448
  566MPD2     C 8445   3.511   3.466  14.222 -0.4967 -0.3868  0.2229
  566MPD2    C1 8446   3.598   3.379  14.165 -0.1703 -0.2011 -0.1463
  566MPD2    C2 8447   3.548   3.308  14.060  0.3019 -0.1430  0.3809
  566MPD2    C3 8448   3.423   3.324  14.010  0.1325 -0.1563 -0.6763
  566MPD2    C4 8449   3.342   3.415  14.072  0.8253  0.8817  0.4225
  566MPD2    C5 8450   3.383   3.478  14.184  0.1416  0.4819  0.0109
  566MPD2     H 8451   3.612   3.240  14.005 -1.9226 -1.3251 -0.7506
  566MPD2    H1 8452   3.245   3.435  14.027  0.2672  1.6460  1.9654
  566MPD2    H2 8453   3.543   3.528  14.305  0.1288  0.2224 -0.4745
  566MPD2    H3 8454   3.309   3.539  14.234 -0.3647 -0.7354  0.7648
  566MPD2     N 8455   3.390   3.270  13.882  0.7255  0.5653 -0.7928
  566MPD2    H5 8456   3.466   3.210  13.850 -1.5613 -1.5266 -2.2922
  566MPD2    N1 8457   3.735   3.386  14.205  0.5444 -0.3867 -0.2523
  566MPD2    H7 8458   3.765   3.461  14.267  2.3592 -2.0061  0.8286
  567TMC3    C1 8459   3.968   3.321  14.189  0.5412 -0.0977  0.6913
  567TMC3    C2 8460   4.015   3.414  14.104 -0.1805 -0.5355  0.2964
  567TMC3    C3 8461   4.149   3.417  14.075 -0.2721  1.0070  0.0820
  567TMC3    C4 8462   4.054   3.236  14.248 -0.0083 -1.1601 -0.5381
  567TMC3    C5 8463   4.190   3.255  14.225 -0.7776  0.0866  0.2954
  567TMC3    C6 8464   4.244   3.346  14.147  0.0878 -0.3040  0.2323
  567TMC3     C 8465   3.828   3.288  14.181 -0.3301  0.0983 -1.0137
  567TMC3     O 8466   3.797   3.173  14.154 -0.2506 -0.1871  0.3685
  567TMC3     H 8467   3.950   3.471  14.040 -0.1013  0.0192  0.7032
  567TMC3    H1 8468   4.014   3.152  14.303  2.1902 -0.0282  2.7799
  567TMC3    H2 8469   4.351   3.347  14.128  0.0628  1.4063  0.1773
  567TMC3    C7 8470   4.275   3.175  14.301 -0.0062  0.1660  0.3978
  567TMC3    C8 8471   4.184   3.490  13.946 -0.2219 -0.2392  0.2109
  567TMC3    O1 8472   4.375   3.128  14.248 -0.3523  0.6486  0.0927
  567TMC3    O2 8473   4.110   3.578  13.900  0.8799 -0.1615  0.2142
  568MPD2     C 8474   1.505   3.374  16.309  0.6163  0.8881 -0.1269
  568MPD2    C1 8475   1.427   3.437  16.402 -0.1561  0.3552 -0.3558
  568MPD2    C2 8476   1.353   3.544  16.365 -0.8658  0.3569  0.3549
  568MPD2    C3 8477   1.354   3.594  16.237  0.2353  0.3429  0.1904
  568MPD2    C4 8478   1.442   3.535  16.151  0.1868  0.8655  0.2268
  568MPD2    C5 8479   1.522   3.431  16.188 -0.2884  0.5967 -0.4787
  568MPD2     H 8480   1.291   3.600  16.434  0.6859  1.1029  1.1505
  568MPD2    H1 8481   1.442   3.566  16.047 -2.0344  0.5034  0.1037
  568MPD2    H2 8482   1.557   3.283  16.336  1.1940  0.5334 -2.4591
  568MPD2    H3 8483   1.582   3.370  16.122 -0.3257  1.2316 -1.0971
  568MPD2     N 8484   1.266   3.700  16.199  0.6985  0.7646 -0.3779
  568MPD2    H5 8485   1.192   3.727  16.263  0.4663  2.5097 -1.3950
  568MPD2    N1 8486   1.430   3.390  16.531  0.1588  0.3427  0.1856
  568MPD2    H7 8487   1.495   3.314  16.549  1.3058  1.0888 -0.7999
  569TMC3    C1 8488   1.136   3.837  16.060  0.5139 -0.1317 -0.2439
  569TMC3    C2 8489   1.049   3.859  16.168 -0.3392 -0.1835  0.5564
  569TMC3    C3 8490   0.945   3.942  16.145 -0.2097  0.5505  0.4818
  569TMC3    C4 8491   1.115   3.898  15.935  0.7930 -0.4277 -0.7694
  569TMC3    C5 8492   1.006   3.977  15.920  0.2853 -0.4006  0.6115
  569TMC3    C6 8493   0.918   3.997  16.025  0.6552  0.1368 -0.2106
  569TMC3     C 8494   1.253   3.759  16.074 -0.1534 -0.5432  0.0869
  569TMC3     O 8495   1.338   3.760  15.984  0.1034 -0.4022 -0.0714
  569TMC3     H 8496   1.058   3.821  16.269  0.7570  0.0076  0.5279
  569TMC3    H1 8497   1.184   3.891  15.852 -1.2169 -1.9350 -2.3035
  569TMC3    H2 8498   0.841   4.073  16.017  0.6029  0.2773  1.7116
  569TMC3    C7 8499   1.046   4.097  15.849  0.1605  0.8626 -0.6176
  569TMC3    C8 8500   0.901   4.020  16.257  0.9211  0.6278 -0.3967
  569TMC3    O1 8501   1.118   4.089  15.751  0.0622 -0.2773  0.4895
  569TMC3    O2 8502   0.784   4.057  16.247 -0.1513 -0.3863 -0.0299
  570TMC3    C1 8503   0.755   2.484  16.225 -0.0896 -0.2366  0.1774
  570TMC3    C2 8504   0.836   2.497  16.108  0.4905 -0.2789  0.2438
  570TMC3    C3 8505   0.911   2.606  16.099 -0.1071 -0.2826 -0.3875
  570TMC3    C4 8506   0.754   2.584  16.322  0.1766  0.4519 -0.4015
  570TMC3    C5 8507   0.825   2.698  16.297  0.2066 -0.1250 -0.3234
  570TMC3    C6 8508   0.904   2.709  16.186  0.0806  0.4760  0.4144
  570TMC3     C 8509   0.683   2.355  16.242 -0.5520  0.2700  0.1177
  570TMC3     O 8510   0.694   2.269  16.159  0.6217 -0.0668  0.7608
  570TMC3     H 8511   0.824   2.428  16.025 -1.8129  1.6328 -1.0001
  570TMC3    H1 8512   0.704   2.568  16.417  1.0886 -3.1357 -0.5193
  570TMC3    H2 8513   0.952   2.797  16.144  3.0453 -1.5789 -0.5172
  570TMC3    C7 8514   0.796   2.816  16.381 -0.0115 -0.2201 -0.0660
  570TMC3    C8 8515   1.028   2.588  16.022 -0.3848 -0.0766 -0.2380
  570TMC3    O1 8516   0.755   2.798  16.496 -0.1475 -0.1697  0.0400
  570TMC3    O2 8517   1.114   2.669  16.043 -0.2058 -0.1249 -0.3021
  571MPD2     C 8518   3.141   3.643   0.127 -0.4359 -0.1006 -0.0968
  571MPD2    C1 8519   3.228   3.650   0.231  0.3971  0.0793  0.2065
  571MPD2    C2 8520   3.186   3.726   0.342 -0.6743  0.0922  0.4713
  571MPD2    C3 8521   3.072   3.804   0.342  0.1454  0.8474 -1.3614
  571MPD2    C4 8522   2.994   3.808   0.228  0.4106 -0.5219  0.6807
  571MPD2    C5 8523   3.032   3.723   0.124  0.2871 -0.2522 -0.6375
  571MPD2     H 8524   3.254   3.733   0.427 -1.3527 -0.7721  1.0864
  571MPD2    H1 8525   2.907   3.874   0.222  1.0039  0.3561  1.6821
  571MPD2    H2 8526   3.161   3.576   0.045  1.2367 -0.9703  1.0277
  571MPD2    H3 8527   2.965   3.709   0.039  1.9491 -4.1317 -1.3207
  571MPD2     N 8528   3.025   3.877   0.453 -0.4114 -0.2789  0.3974
  571MPD2    H5 8529   2.939   3.928   0.435 -0.3779  0.5379  2.5183
  571MPD2    N1 8530   3.352   3.587   0.212 -0.6888 -0.1161 -0.2247
  571MPD2    H7 8531   3.367   3.551   0.119  2.9429  1.6684 -0.3310
  572TMC3    C1 8532   2.996   3.950   0.671 -0.4661  0.0333  0.6279
  572TMC3    C2 8533   2.998   3.925   0.805  0.4023  0.5153  0.5539
  572TMC3    C3 8534   2.925   4.007   0.890 -0.9108 -0.2596 -0.4614
  572TMC3    C4 8535   2.938   4.064   0.614 -0.1527  0.3538 -0.2064
  572TMC3    C5 8536   2.873   4.145   0.699  0.6944  0.0116  0.3274
  572TMC3    C6 8537   2.854   4.116   0.831 -0.2497 -0.0381  0.5796
  572TMC3     C 8538   3.063   3.858   0.584 -0.5294  0.2192 -0.8711
  572TMC3     O 8539   3.128   3.772   0.638 -0.2383 -0.3994  0.2054
  572TMC3     H 8540   3.011   3.824   0.841  1.2472  1.0412  1.7181
  572TMC3    H1 8541   2.965   4.099   0.515 -3.4616 -1.2916 -1.6882
  572TMC3    H2 8542   2.791   4.178   0.894 -0.7589  2.3293 -2.2762
  572TMC3    C7 8543   2.808   4.269   0.641  0.0015  0.2933 -0.4460
  572TMC3    C8 8544   2.900   3.965   1.027 -0.3569 -0.0555  0.5237
  572TMC3    O1 8545   2.802   4.268   0.520 -0.0194 -0.0699  0.1372
  572TMC3    O2 8546   2.927   3.849   1.055 -1.0188  0.2068 -0.3774
  573MPD2     C 8547   4.694   0.185   0.640 -0.5488 -0.2550 -0.3181
  573MPD2    C1 8548   4.730   0.232   0.765  0.0283  0.1077 -0.1062
  573MPD2    C2 8549   0.049   0.360   0.765  0.0107  0.0505 -0.4634
  573MPD2    C3 8550   0.063   0.442   0.656  0.6519 -0.3655 -0.9134
  573MPD2    C4 8551   0.031   0.388   0.536 -0.4909 -0.5111 -0.4402
  573MPD2    C5 8552   4.722   0.259   0.529  0.1772 -0.0395 -1.1244
  573MPD2     H 8553   0.081   0.410   0.856  1.1566 -0.2920 -0.6799
  573MPD2    H1 8554   0.053   0.447   0.448 -1.0815  2.2538  1.2529
  573MPD2    H2 8555   4.647   0.088   0.623 -2.8327  0.4521  1.9112
  573MPD2    H3 8556   4.697   0.217   0.432 -0.4349 -1.5023 -0.3252
  573MPD2     N 8557   0.114   0.575   0.657 -0.0714 -0.4352  0.5315
  573MPD2    H5 8558   0.140   0.614   0.567 -0.4876 -0.6010  0.3384
  573MPD2    N1 8559   4.690   0.170   0.884  0.2727  0.0098 -0.2975
  573MPD2    H7 8560   4.644   0.081   0.871 -0.8216 -0.0012  3.8183
  574TMC3    C1 8561   0.037   0.646   0.884  0.1480 -0.4703 -0.0873
  574TMC3    C2 8562   4.642   0.613   0.860 -0.4236 -0.1252 -0.1036
  574TMC3    C3 8563   4.562   0.584   0.967  0.4290  0.7426 -0.3605
  574TMC3    C4 8564   0.076   0.677   1.010 -0.0859 -0.2471 -0.1943
  574TMC3    C5 8565   4.730   0.649   1.114  0.1461  0.0078  0.2570
  574TMC3    C6 8566   4.606   0.591   1.095  0.4039 -0.6518 -0.4408
  574TMC3     C 8567   0.119   0.671   0.761 -0.1122  0.2378 -0.1968
  574TMC3     O 8568   0.185   0.771   0.763  0.5774 -0.2283 -0.0540
  574TMC3     H 8569   4.614   0.598   0.756  0.6021  3.1933 -0.8599
  574TMC3    H1 8570   0.177   0.717   1.009 -0.1933  0.0929  1.4432
  574TMC3    H2 8571   4.546   0.557   1.179  1.7394 -0.3891  0.6235
  574TMC3    C7 8572   0.006   0.729   1.231  0.4205  0.0273  0.3898
  574TMC3    C8 8573   4.450   0.490   0.946 -0.4173 -0.5752 -1.0027
  574TMC3    O1 8574   4.661   0.720   1.321  0.2768  0.4984 -0.1656
  574TMC3    O2 8575   4.420   0.423   1.045  0.6785  0.3971  0.9660
  575TMC3    C1 8576   2.159   1.020  11.480  0.3890 -0.1774  0.6339
  575TMC3    C2 8577   2.043   1.001  11.549  0.4852  0.6228 -0.3503
  575TMC3    C3 8578   1.918   1.015  11.492  0.3013 -0.1907  0.5436
  575TMC3    C4 8579   2.148   1.059  11.344  0.3739  0.6406  0.7539
  575TMC3    C5 8580   2.020   1.067  11.284 -0.3389 -0.1633  0.6554
  575TMC3    C6 8581   1.909   1.053  11.359 -0.1653 -1.0637 -0.2266
  575TMC3     C 8582   2.293   1.027  11.546 -0.6604  0.3544  0.8442
  575TMC3     O 8583   2.305   0.976  11.656  0.1713  0.1698 -0.4380
  575TMC3     H 8584   2.061   0.994  11.656 -0.4675  1.3576 -0.1379
  575TMC3    H1 8585   2.227   1.058  11.270  1.5796 -0.5567  2.0452
  575TMC3    H2 8586   1.817   1.082  11.309  1.5300  1.2168 -1.9879
  575TMC3    C7 8587   2.013   1.131  11.149 -0.1812  0.0166 -0.1455
  575TMC3    C8 8588   1.792   1.010  11.558 -0.5011 -0.2017 -0.0093
  575TMC3    O1 8589   2.114   1.180  11.107 -0.2048 -0.5372  0.0520
  575TMC3    O2 8590   1.703   1.066  11.506 -0.4360  0.3701  0.0725
  576MPD2     C 8591   2.251   2.997  12.841 -0.1473  0.3162  0.8601
  576MPD2    C1 8592   2.320   3.088  12.768  0.5109  0.1386 -0.3087
  576MPD2    C2 8593   2.287   3.221  12.784 -0.0932  0.1666 -0.2501
  576MPD2    C3 8594   2.207   3.268  12.889  0.1790 -0.1158  0.3832
  576MPD2    C4 8595   2.136   3.173  12.963  0.5144 -0.3438  0.5721
  576MPD2    C5 8596   2.156   3.040  12.936  0.1726 -0.1650  0.0727
  576MPD2     H 8597   2.345   3.298  12.734 -0.5516  0.1286 -0.8427
  576MPD2    H1 8598   2.060   3.194  13.037 -0.2602  0.4857 -0.4481
  576MPD2    H2 8599   2.261   2.891  12.822 -1.4442  0.0950  1.4320
  576MPD2    H3 8600   2.089   2.967  12.981 -0.7514 -0.1187 -1.2219
  576MPD2     N 8601   2.183   3.406  12.907 -0.3119  0.5378  0.0050
  576MPD2    H5 8602   2.222   3.471  12.839  0.7593 -1.1000 -0.9305
  576MPD2    N1 8603   2.426   3.046  12.675 -0.8208  1.0687 -0.0684
  576MPD2    H7 8604   2.454   3.105  12.598 -0.3083  4.1365  2.4497
  577TMC3    C1 8605   2.546   2.890  12.561 -0.5548 -0.4929  0.1723
  577TMC3    C2 8606   2.542   2.754  12.536 -0.9306 -0.0919 -0.3941
  577TMC3    C3 8607   2.596   2.713  12.415 -0.0402 -0.4934 -0.0409
  577TMC3    C4 8608   2.597   2.988  12.479 -0.1644  0.1097  0.2034
  577TMC3    C5 8609   2.645   2.944  12.359  0.4846 -0.4197 -0.4823
  577TMC3    C6 8610   2.653   2.808  12.329  0.1995  0.2220 -0.8285
  577TMC3     C 8611   2.479   2.922  12.681 -0.0399 -0.3334  0.0075
  577TMC3     O 8612   2.476   2.838  12.771  0.0169  0.5684  0.3970
  577TMC3     H 8613   2.487   2.685  12.599  0.4617 -1.5167 -0.7255
  577TMC3    H1 8614   2.599   3.090  12.514  0.4734  0.2038 -0.0987
  577TMC3    H2 8615   2.683   2.784  12.227  1.7833 -0.9592 -0.0940
  577TMC3    C7 8616   2.634   3.036  12.249 -0.1072  0.4207 -0.4699
  577TMC3    C8 8617   2.589   2.576  12.371 -0.4556 -0.6561 -0.1789
  577TMC3    O1 8618   2.672   2.993  12.137 -0.7714  0.0839  0.4312
  577TMC3    O2 8619   2.566   2.498  12.463 -0.7185  0.2703 -0.7092
  578MPD2     C 8620   4.123   2.573   0.091  0.3325  0.0424 -0.1898
  578MPD2    C1 8621   4.228   2.487   0.074 -0.4173 -0.4158 -0.2245
  578MPD2    C2 8622   4.305   2.462   0.186 -1.0258 -0.1254  0.5024
  578MPD2    C3 8623   4.272   2.515   0.311  0.5188 -0.1515 -0.2140
  578MPD2    C4 8624   4.162   2.598   0.327  0.0882  0.6962 -0.6214
  578MPD2    C5 8625   4.091   2.627   0.213  0.2549  0.2628  0.2437
  578MPD2     H 8626   4.392   2.397   0.186  0.5174  1.9355  0.6733
  578MPD2    H1 8627   4.126   2.639   0.421  2.1991  3.9766 -1.2221
  578MPD2    H2 8628   4.058   2.607   0.011 -1.0219 -2.0271  0.0408
  578MPD2    H3 8629   3.999   2.684   0.226  0.5328  0.8247 -0.2172
  578MPD2     N 8630   4.356   2.489   0.418 -0.0258 -0.2849  0.2035
  578MPD2    H5 8631   4.429   2.423   0.393 -0.6451 -0.5843 -0.7836
  578MPD2    N1 8632   4.253   2.446  17.686  0.1311 -0.1673  0.1799
  578MPD2    H7 8633   4.195   2.480  17.609  1.7669  0.8121 -0.6116
  579TMC3    C1 8634   4.473   2.522   0.622  1.2227  0.5140  0.1507
  579TMC3    C2 8635   4.519   2.610   0.717 -0.5909  0.1971  0.3497
  579TMC3    C3 8636   4.605   2.563   0.809  0.7313 -0.3647 -0.3993
  579TMC3    C4 8637   4.503   2.387   0.631  0.6774  0.0659 -0.6659
  579TMC3    C5 8638   4.582   2.343   0.735  0.4243  0.6538 -0.4041
  579TMC3    C6 8639   4.651   2.431   0.814  0.2831  0.1678 -0.3285
  579TMC3     C 8640   4.357   2.558   0.542 -0.5994 -0.4970 -0.5552
  579TMC3     O 8641   4.303   2.668   0.563 -0.0185 -0.2401 -0.3360
  579TMC3     H 8642   4.493   2.715   0.708 -0.6854  0.3146  1.9536
  579TMC3    H1 8643   4.469   2.313   0.559 -0.1210 -0.5674  0.3653
  579TMC3    H2 8644   4.728   2.393   0.880  1.5955  0.0581 -1.9183
  579TMC3    C7 8645   4.633   2.205   0.730 -0.1600  0.0311 -0.4715
  579TMC3    C8 8646   4.674   2.664   0.884  0.3271 -0.3344 -0.7218
  579TMC3    O1 8647   0.016   2.195   0.760  0.0488 -0.3937 -0.4559
  579TMC3    O2 8648   4.612   2.769   0.898 -0.0115 -0.5419 -0.2754
  580TMC3    C1 8649   0.057   2.077  12.071 -0.0771  0.0912 -0.0540
  580TMC3    C2 8650   0.034   2.062  11.939 -1.0869 -0.9909 -0.4415
  580TMC3    C3 8651   0.063   1.936  11.887 -0.0667 -0.3261  0.7282
  580TMC3    C4 8652   0.094   1.981  12.153 -0.4837  0.2581 -0.8565
  580TMC3    C5 8653   0.110   1.856  12.105 -0.1794  0.1012  0.1241
  580TMC3    C6 8654   0.100   1.838  11.970 -0.9916 -0.8058 -0.2807
  580TMC3     C 8655   0.105   2.211  12.098 -0.6613  0.1904  0.0232
  580TMC3     O 8656   0.055   2.303  12.033  0.0967 -0.1425  0.0033
  580TMC3     H 8657   0.022   2.147  11.873 -0.6411  0.2009  1.0055
  580TMC3    H1 8658   0.102   2.001  12.260  2.9969 -0.0770 -1.0405
  580TMC3    H2 8659   0.125   1.746  11.918  0.3784 -0.4951 -0.1831
  580TMC3    C7 8660   0.169   1.754  12.191  0.2653 -0.6666  0.6575
  580TMC3    C8 8661   0.162   1.956  11.784 -0.2903  0.1302  0.5507
  580TMC3    O1 8662   0.206   1.791  12.301 -0.3005  0.2265 -0.4046
  580TMC3    O2 8663   0.128   1.967  11.666 -0.3636 -0.0880  0.1223
  581MPD2     C 8664   2.545   1.467  14.779  0.4421  0.6061  0.5777
  581MPD2    C1 8665   2.468   1.491  14.893 -0.4081 -0.7142  0.1199
  581MPD2    C2 8666   2.340   1.537  14.880 -0.0692 -0.0166 -0.0075
  581MPD2    C3 8667   2.287   1.559  14.749 -0.2084 -1.4136  0.1064
  581MPD2    C4 8668   2.364   1.532  14.641 -0.4277 -0.0601 -0.3293
  581MPD2    C5 8669   2.495   1.496  14.655  0.1004 -0.8542  0.0289
  581MPD2     H 8670   2.288   1.558  14.973 -1.1014 -1.6565 -0.2128
  581MPD2    H1 8671   2.319   1.553  14.545  0.0605  0.7763 -0.3691
  581MPD2    H2 8672   2.647   1.434  14.792 -0.0618 -0.9407  0.5677
  581MPD2    H3 8673   2.561   1.485  14.570 -0.0789 -0.6889 -0.1290
  581MPD2     N 8674   2.161   1.598  14.723  0.3717 -1.0027  0.1643
  581MPD2    H5 8675   2.133   1.607  14.626  0.3401  1.1202  0.3583
  581MPD2    N1 8676   2.541   1.472  15.016  0.4611  0.6001  0.2899
  581MPD2    H7 8677   2.640   1.456  14.997  1.4609  3.1832  3.3344
  582TMC3    C1 8678   2.592   1.420  15.229 -0.4531  0.1279 -0.7420
  582TMC3    C2 8679   2.589   1.446  15.362 -0.0478  0.0580  0.1903
  582TMC3    C3 8680   2.639   1.347  15.442 -0.7661 -0.5925  0.2241
  582TMC3    C4 8681   2.633   1.293  15.179  0.6553 -0.4147 -0.6013
  582TMC3    C5 8682   2.680   1.204  15.270 -0.6778 -0.2063 -0.5926
  582TMC3    C6 8683   2.696   1.229  15.399  0.0246 -0.2130  0.1715
  582TMC3     C 8684   2.501   1.483  15.144 -0.0430  0.1248  0.2810
  582TMC3     O 8685   2.395   1.526  15.186  0.2556  0.3489 -0.5227
  582TMC3     H 8686   2.526   1.523  15.405  1.7743  1.6526  0.0139
  582TMC3    H1 8687   2.629   1.252  15.079  1.4556 -1.9931  0.0044
  582TMC3    H2 8688   2.725   1.149  15.465 -2.2539 -1.8222 -0.8040
  582TMC3    C7 8689   2.598   1.087  15.265 -0.5794  0.1021 -0.3949
  582TMC3    C8 8690   2.623   1.377  15.590  0.1224 -0.5098  0.3083
  582TMC3    O1 8691   2.642   0.980  15.310  0.0127 -0.8024 -0.5203
  582TMC3    O2 8692   2.548   1.471  15.617 -0.2069  0.3129 -0.3403
  583MPD2     C 8693   2.611   2.826  16.613  0.3837 -0.0924  0.0183
  583MPD2    C1 8694   2.591   2.947  16.554  0.0190 -0.3637 -0.4499
  583MPD2    C2 8695   2.544   3.055  16.627  0.1157 -0.2492  0.6089
  583MPD2    C3 8696   2.519   3.046  16.762 -0.4319 -0.4375  0.4865
  583MPD2    C4 8697   2.543   2.924  16.818  0.9275  0.5787 -0.2138
  583MPD2    C5 8698   2.586   2.819  16.750 -0.5986  0.3282  1.6312
  583MPD2     H 8699   2.543   3.153  16.579 -1.5335 -0.1888  0.7604
  583MPD2    H1 8700   2.522   2.912  16.924  0.4469 -0.7824 -0.4617
  583MPD2    H2 8701   2.650   2.739  16.562  0.1651 -0.6766  0.8481
  583MPD2    H3 8702   2.600   2.721  16.795  2.2558  0.1017  0.2512
  583MPD2     N 8703   2.481   3.169  16.835  0.2970  0.3230 -0.3658
  583MPD2    H5 8704   2.481   3.251  16.775 -1.2700  0.8688  0.3567
  583MPD2    N1 8705   2.633   2.967  16.422  0.1856  0.5974  0.2364
  583MPD2    H7 8706   2.637   3.064  16.392  1.5121  0.6998  0.7575
  584TMC3    C1 8707   2.463   3.303  17.033  0.4400  0.6373  0.2795
  584TMC3    C2 8708   2.435   3.412  16.958  0.2332  0.0479 -0.1734
  584TMC3    C3 8709   2.406   3.533  17.014  0.1713 -0.7716  0.5442
  584TMC3    C4 8710   2.433   3.307  17.166 -0.6915 -0.6171  0.4936
  584TMC3    C5 8711   2.382   3.427  17.221 -0.6458  0.7286  0.7977
  584TMC3    C6 8712   2.377   3.547  17.150  0.1751 -0.4837  0.8588
  584TMC3     C 8713   2.482   3.173  16.970 -0.3305  0.3018  0.2054
  584TMC3     O 8714   2.481   3.084  17.057 -0.3355  0.1766 -0.1785
  584TMC3     H 8715   2.440   3.413  16.849 -2.3144 -0.2018 -0.2892
  584TMC3    H1 8716   2.443   3.219  17.229 -0.9540 -1.8438 -1.1616
  584TMC3    H2 8717   2.328   3.634  17.190  1.1112 -0.1852  1.3593
  584TMC3    C7 8718   2.408   3.455  17.361  0.2021  0.0079 -0.1176
  584TMC3    C8 8719   2.436   3.653  16.940  0.3634 -0.5192 -0.3328
  584TMC3    O1 8720   2.480   3.552  17.377 -0.3736  0.2894 -0.0143
  584TMC3    O2 8721   2.417   3.651  16.819 -0.0915 -0.2614 -0.1207
  585MPD2     C 8722   1.554   2.119   0.602  0.1808  0.9158  0.4470
  585MPD2    C1 8723   1.602   2.154   0.485  0.4201 -0.5350  0.5948
  585MPD2    C2 8724   1.643   2.056   0.397 -0.4147  0.7273  0.0026
  585MPD2    C3 8725   1.631   1.924   0.429  0.0233 -0.5942  0.1283
  585MPD2    C4 8726   1.586   1.885   0.554 -0.3359  0.0677  0.6466
  585MPD2    C5 8727   1.546   1.984   0.643  0.2488  0.7308  0.1792
  585MPD2     H 8728   1.688   2.080   0.301  0.4391  1.9893  0.7115
  585MPD2    H1 8729   1.578   1.783   0.592 -0.4260 -0.2952 -0.3492
  585MPD2    H2 8730   1.510   2.189   0.671 -2.1917 -0.5904  0.4782
  585MPD2    H3 8731   1.517   1.948   0.741  0.8958 -3.2731 -1.0914
  585MPD2     N 8732   1.671   1.838   0.332  0.2617  0.1559 -0.0540
  585MPD2    H5 8733   1.690   1.873   0.239 -0.8250  0.2427 -0.2373
  585MPD2    N1 8734   1.612   2.293   0.452 -0.3228  0.2476  0.3398
  585MPD2    H7 8735   1.558   2.356   0.510  1.3814  0.4068  1.7819
  586TMC3    C1 8736   1.673   1.640   0.221  0.1549 -0.3799 -0.1173
  586TMC3    C2 8737   1.773   1.578   0.168 -0.8584  0.2101 -0.4395
  586TMC3    C3 8738   1.791   1.586   0.033  0.1020  0.1089 -0.4693
  586TMC3    C4 8739   1.575   1.703   0.145 -0.8245 -0.0091 -0.4899
  586TMC3    C5 8740   1.589   1.702   0.013 -0.0622 -1.1140 -0.3117
  586TMC3    C6 8741   1.700   1.641  17.700 -0.5284 -0.5341  0.5375
  586TMC3     C 8742   1.696   1.702   0.348  0.5407 -0.7581  0.4024
  586TMC3     O 8743   1.720   1.640   0.452  0.4206  0.0620 -0.6996
  586TMC3     H 8744   1.847   1.539   0.236  0.3431  2.0814 -0.6755
  586TMC3    H1 8745   1.487   1.742   0.196  0.3108  0.8852  0.7974
  586TMC3    H2 8746   1.708   1.648  17.592 -0.0524  1.9620  0.7381
  586TMC3    C7 8747   1.484   1.746  17.672  0.3397  0.0735 -0.2940
  586TMC3    C8 8748   1.891   1.504  17.724 -0.2164 -0.1341 -0.4969
  586TMC3    O1 8749   1.380   1.772  17.730  0.0539 -0.4096 -0.1261
  586TMC3    O2 8750   1.920   1.400   0.034 -0.6793 -0.2092  0.0397
  587TMC3    C1 8751   4.118   0.644  16.418  0.8532 -0.7516  0.2211
  587TMC3    C2 8752   4.031   0.722  16.350  0.6225  1.1965 -0.2135
  587TMC3    C3 8753   4.076   0.832  16.285  0.6039  0.1373 -0.8975
  587TMC3    C4 8754   4.247   0.654  16.397  0.2414 -0.1782 -0.3834
  587TMC3    C5 8755   4.290   0.771  16.338 -0.0259 -0.2971  0.5902
  587TMC3    C6 8756   4.207   0.862  16.280 -0.9940 -0.1685 -0.2677
  587TMC3     C 8757   4.071   0.543  16.513 -0.1233 -0.0206 -0.1096
  587TMC3     O 8758   4.155   0.483  16.578 -0.0304  0.3310 -0.6700
  587TMC3     H 8759   3.928   0.691  16.333  0.7454  0.8933 -0.3861
  587TMC3    H1 8760   4.316   0.590  16.451  0.8668 -0.4547 -1.4976
  587TMC3    H2 8761   4.248   0.952  16.236 -0.8987 -0.0953 -0.0280
  587TMC3    C7 8762   4.426   0.816  16.386  0.3507  0.6712  0.7422
  587TMC3    C8 8763   3.992   0.916  16.200 -0.2683 -0.2574  0.2494
  587TMC3    O1 8764   4.456   0.795  16.503 -0.5248 -0.3869  0.1624
  587TMC3    O2 8765   4.055   0.993  16.128  0.2762 -0.3354  0.0355
  588TMC3    C1 8766   1.853   3.769   9.962  0.2670  0.0365  0.0259
  588TMC3    C2 8767   1.811   3.640   9.969 -0.4557 -0.9257  0.2237
  588TMC3    C3 8768   1.893   3.542  10.017 -0.2391  0.5160  0.8162
  588TMC3    C4 8769   1.980   3.804  10.009 -0.9796  0.1040 -0.2539
  588TMC3    C5 8770   2.061   3.697  10.053  0.1702 -0.1345  0.8130
  588TMC3    C6 8771   2.016   3.564  10.064  0.6850  0.3986  0.3401
  588TMC3     C 8772   1.757   3.879   9.940 -0.4310 -0.0697  0.2768
  588TMC3     O 8773   1.678   3.874   9.842 -0.1900 -0.1198 -0.3373
  588TMC3     H 8774   1.713   3.614   9.930 -1.5943  1.0749  1.7510
  588TMC3    H1 8775   2.007   3.909  10.000 -1.3995  0.5420  3.5829
  588TMC3    H2 8776   2.073   3.483  10.109  0.6930 -0.6346 -1.5006
  588TMC3    C7 8777   2.175   3.735  10.139 -0.5844 -0.7847  0.0571
  588TMC3    C8 8778   1.834   3.411  10.036 -0.3393 -0.3104 -0.6551
  588TMC3    O1 8779   2.194   3.652  10.230  0.4496  0.0396 -0.5074
  588TMC3    O2 8780   1.712   3.408  10.052 -0.2664  0.4521 -0.4258
  589TMC3    C1 8781   0.754   1.678   1.328 -0.2872 -0.3966 -0.2902
  589TMC3    C2 8782   0.859   1.725   1.401 -0.4066  0.9725 -0.2702
  589TMC3    C3 8783   0.973   1.648   1.416 -0.4112 -0.5224  0.3006
  589TMC3    C4 8784   0.759   1.553   1.262 -0.1806  0.8945  0.1990
  589TMC3    C5 8785   0.874   1.478   1.274 -0.2395 -0.0760 -1.0680
  589TMC3    C6 8786   0.981   1.528   1.348 -0.1216  0.0570 -0.6301
  589TMC3     C 8787   0.624   1.747   1.323  0.4630 -0.0393  0.1699
  589TMC3     O 8788   0.532   1.688   1.264  0.5194 -0.1240  0.3887
  589TMC3     H 8789   0.858   1.829   1.432  1.2947  1.3047 -1.2910
  589TMC3    H1 8790   0.684   1.542   1.186  0.9592  2.9002 -1.2282
  589TMC3    H2 8791   1.070   1.467   1.365  0.4268  0.9717 -0.2162
  589TMC3    C7 8792   0.894   1.372   1.176  0.3563  0.1743  0.5758
  589TMC3    C8 8793   1.081   1.715   1.480 -0.1351 -0.6847  0.9669
  589TMC3    O1 8794   0.806   1.339   1.100 -0.6277 -0.5590 -0.0886
  589TMC3    O2 8795   1.046   1.815   1.543  0.3573  0.6164  0.4213
  590MPD2     C 8796   0.203   3.914  16.706  0.5185  0.0303 -0.6060
  590MPD2    C1 8797   0.139   3.939  16.588 -0.8131 -0.1469  0.0960
  590MPD2    C2 8798   0.196   4.012  16.486 -0.0405 -0.5960 -0.2149
  590MPD2    C3 8799   0.325   4.068  16.509 -0.2238  0.0589 -1.0372
  590MPD2    C4 8800   0.395   4.030  16.623 -0.1148 -0.2638  0.1032
  590MPD2    C5 8801   0.335   3.959  16.726 -0.2460 -0.0232 -0.1932
  590MPD2     H 8802   0.148   4.040  16.393 -0.2104  0.0311  0.0593
  590MPD2    H1 8803   0.501   4.050  16.632  0.0091 -0.2008 -1.5122
  590MPD2    H2 8804   0.164   3.860  16.792 -0.4208  1.9853  0.1973
  590MPD2    H3 8805   0.397   3.922  16.807  0.7059 -0.4429 -1.1050
  590MPD2     N 8806   0.388   4.142  16.407  0.5945  0.1641 -0.1508
  590MPD2    H5 8807   0.340   4.137  16.317 -0.1923  1.3332  0.1983
  590MPD2    N1 8808   0.001   3.898  16.588 -0.1755 -0.2086 -0.5768
  590MPD2    H7 8809   4.708   3.844  16.669  3.1769 -0.5156  0.4953
  591TMC3    C1 8810   0.534   4.300  16.308  0.0346 -0.3507 -0.4134
  591TMC3    C2 8811   0.531   4.243  16.189 -0.7187 -0.0895 -0.5373
  591TMC3    C3 8812   0.584   4.313  16.081 -0.2776  0.6678  0.1307
  591TMC3    C4 8813   0.576   4.427  16.330 -0.7707 -0.5097  0.3665
  591TMC3    C5 8814   0.625   4.504  16.223 -0.6023 -0.5211  0.1889
  591TMC3    C6 8815   0.629   4.443  16.096 -0.1478 -0.5291 -0.7549
  591TMC3     C 8816   0.502   4.217  16.420 -0.4027  0.4998 -0.0716
  591TMC3     O 8817   0.553   4.261  16.524  0.2018 -0.1366  0.0719
  591TMC3     H 8818   0.503   4.139  16.179  0.4532 -0.3450 -1.0948
  591TMC3    H1 8819   0.570   4.475  16.427  0.4117 -0.4838  0.4322
  591TMC3    H2 8820   0.689   4.498  16.024 -0.3165  1.9836  1.0013
  591TMC3    C7 8821   0.640   4.648  16.254 -0.8416  0.3796  0.2962
  591TMC3    C8 8822   0.601   4.241  15.955  0.3782 -0.5078 -0.9409
  591TMC3    O1 8823   0.652   4.673  16.376 -0.0764 -0.0508  0.8039
  591TMC3    O2 8824   0.605   4.118  15.958  0.5592 -0.8721 -0.1500
  592MPD2     C 8825   1.189   1.813  11.689 -0.3814 -0.1926  0.5605
  592MPD2    C1 8826   1.161   1.806  11.822  0.6693 -0.1160 -0.1001
  592MPD2    C2 8827   1.076   1.706  11.867 -0.0539 -0.1866  0.4098
  592MPD2    C3 8828   1.015   1.619  11.786  0.1536  0.0090 -0.7650
  592MPD2    C4 8829   1.035   1.629  11.652  0.0029  0.0885 -0.9682
  592MPD2    C5 8830   1.128   1.722  11.610 -0.0591 -0.7510  0.6100
  592MPD2     H 8831   1.043   1.698  11.970 -0.3874 -1.6501  0.1982
  592MPD2    H1 8832   0.990   1.562  11.581  1.8356 -2.1410 -0.0219
  592MPD2    H2 8833   1.256   1.887  11.648 -0.8391  0.1759  0.4812
  592MPD2    H3 8834   1.149   1.718  11.504  0.0435  1.7009  0.5349
  592MPD2     N 8835   0.921   1.535  11.846 -0.1016  0.3076 -0.1467
  592MPD2    H5 8836   0.909   1.531  11.947  0.0222  0.3698 -0.1303
  592MPD2    N1 8837   1.218   1.913  11.895  0.1608  0.0905 -0.2448
  592MPD2    H7 8838   1.272   1.976  11.837 -0.2556  0.2247 -0.4822
  593TMC3    C1 8839   1.271   2.054  12.083  0.0346 -0.1003  0.0533
  593TMC3    C2 8840   1.233   2.075  12.220  0.0327  0.2349  0.1930
  593TMC3    C3 8841   1.304   2.174  12.283 -0.3102 -0.0543  0.6235
  593TMC3    C4 8842   1.360   2.133  12.015 -0.0919  1.0602  0.3690
  593TMC3    C5 8843   1.424   2.231  12.087  1.2096 -0.2492 -0.3986
  593TMC3    C6 8844   1.391   2.260  12.217 -0.7582  0.0128 -0.1601
  593TMC3     C 8845   1.189   1.947  12.021  0.4592  0.0372 -0.3397
  593TMC3     O 8846   1.099   1.901  12.092 -0.1767 -0.2743 -0.3347
  593TMC3     H 8847   1.158   2.016  12.271 -0.6441  0.7734 -0.1914
  593TMC3    H1 8848   1.367   2.137  11.907 -3.6320  0.3759  0.1117
  593TMC3    H2 8849   1.425   2.348  12.270 -0.3528  0.3079 -0.9088
  593TMC3    C7 8850   1.509   2.326  12.015 -0.0343  0.0326 -0.3607
  593TMC3    C8 8851   1.276   2.210  12.425 -0.2322 -0.0778 -0.7746
  593TMC3    O1 8852   1.485   2.338  11.896 -0.1708  0.3568 -0.1010
  593TMC3    O2 8853   1.183   2.148  12.479 -0.3533  0.0742  1.2719
  594MPD2     C 8854   4.382   0.164  13.930 -0.3758  0.5803  0.3353
  594MPD2    C1 8855   4.358   0.240  14.042  0.4932 -0.6179  1.0974
  594MPD2    C2 8856   4.441   0.350  14.068  0.2123 -0.2223  0.2984
  594MPD2    C3 8857   4.537   0.388  13.975  0.3421 -0.2575  0.8390
  594MPD2    C4 8858   4.555   0.307  13.860  0.3530  0.5044 -0.1390
  594MPD2    C5 8859   4.486   0.194  13.847  0.7043  0.1705  0.0177
  594MPD2     H 8860   4.446   0.408  14.160  2.6241 -1.2476  0.7996
  594MPD2    H1 8861   4.638   0.324  13.792  0.6411 -0.4992 -0.0467
  594MPD2    H2 8862   4.321   0.076  13.911 -0.6808  0.5599  1.4471
  594MPD2    H3 8863   4.501   0.118  13.772 -0.5632  1.2454 -1.3409
  594MPD2     N 8864   4.635   0.485  14.015 -0.1093 -0.5976  0.3030
  594MPD2    H5 8865   4.631   0.524  14.109  0.1081 -1.7550  0.7855
  594MPD2    N1 8866   4.245   0.208  14.121  0.5316 -0.7231 -0.1140
  594MPD2    H7 8867   4.178   0.142  14.084 -0.8361  0.2595  0.5944
  595TMC3    C1 8868   0.269   0.756  14.043  0.0295 -0.2718  0.1711
  595TMC3    C2 8869   0.198   0.667  13.970  0.7903  0.5717 -0.0340
  595TMC3    C3 8870   0.062   0.647  14.000  0.2198  0.1756  0.6879
  595TMC3    C4 8871   0.219   0.807  14.156 -0.4987 -0.4146  0.1621
  595TMC3    C5 8872   0.084   0.787  14.180 -0.1094  0.5727 -0.6213
  595TMC3    C6 8873   0.001   0.715  14.102  0.2501  0.7729 -0.4740
  595TMC3     C 8874   0.410   0.752  14.051 -0.3168 -0.4126 -0.0014
  595TMC3     O 8875   0.464   0.814  14.143  0.3611  0.0888 -0.5964
  595TMC3     H 8876   0.237   0.616  13.883 -1.1819  0.9469 -1.1272
  595TMC3    H1 8877   0.272   0.879  14.217 -2.0089  0.4109  0.5030
  595TMC3    H2 8878   4.634   0.729  14.125  0.3986  2.0923 -0.5769
  595TMC3    C7 8879   0.034   0.851  14.300  0.0202  0.6995 -0.2233
  595TMC3    C8 8880   4.734   0.537  13.936 -0.1980  0.2861 -0.3380
  595TMC3    O1 8881   4.666   0.905  14.294 -0.4354 -0.1549  0.2194
  595TMC3    O2 8882   0.025   0.519  13.819  0.1559 -0.4158  0.1160
  596MPD2     C 8883   3.368   2.758  16.659 -0.7486 -0.1641  0.1652
  596MPD2    C1 8884   3.396   2.880  16.594 -0.0577  0.7442 -0.8466
  596MPD2    C2 8885   3.450   2.871  16.464  0.4729  0.2085  0.2733
  596MPD2    C3 8886   3.440   2.758  16.383  0.3262  0.2249 -0.0756
  596MPD2    C4 8887   3.388   2.642  16.445  0.2891  0.4953 -0.5866
  596MPD2    C5 8888   3.362   2.646  16.577 -0.9856  0.0028 -0.0225
  596MPD2     H 8889   3.486   2.966  16.426 -0.8060  0.8083  0.5730
  596MPD2    H1 8890   3.382   2.552  16.384 -2.2444  0.3705 -0.1834
  596MPD2    H2 8891   3.349   2.745  16.765  0.9888 -0.1088  0.4935
  596MPD2    H3 8892   3.334   2.551  16.621  0.9725 -1.3883 -1.8302
  596MPD2     N 8893   3.457   2.758  16.245 -0.6752  0.7467 -0.4795
  596MPD2    H5 8894   3.451   2.667  16.202 -1.3039  0.4285  0.2918
  596MPD2    N1 8895   3.409   3.004  16.645 -0.1769  0.0369 -0.1714
  596MPD2    H7 8896   3.442   3.069  16.575 -2.0272 -0.0041 -1.0710
  597TMC3    C1 8897   3.344   3.185  16.784  0.3763  0.2458 -0.1210
  597TMC3    C2 8898   3.438   3.264  16.717  0.5814  0.7675  0.2241
  597TMC3    C3 8899   3.404   3.391  16.724 -0.1390  0.1544 -0.2425
  597TMC3    C4 8900   3.224   3.230  16.824  0.3091 -0.0073  0.3271
  597TMC3    C5 8901   3.200   3.361  16.826 -0.1661  0.2055 -0.2676
  597TMC3    C6 8902   3.295   3.452  16.782 -0.1418 -0.0791 -0.5137
  597TMC3     C 8903   3.357   3.042  16.766  0.4388  0.3658 -0.7516
  597TMC3     O 8904   3.301   2.971  16.847 -0.3780 -0.2318  0.4854
  597TMC3     H 8905   3.532   3.232  16.672 -0.7270 -1.1916 -1.1550
  597TMC3    H1 8906   3.146   3.167  16.865  1.0854 -1.4905 -0.4901
  597TMC3    H2 8907   3.290   3.561  16.779 -0.4586 -0.1457 -2.3120
  597TMC3    C7 8908   3.092   3.419  16.907  0.0809  0.2062 -0.2194
  597TMC3    C8 8909   3.479   3.470  16.634  0.3445 -0.1101  0.3352
  597TMC3    O1 8910   3.013   3.334  16.942 -0.1469 -0.0843 -0.0298
  597TMC3    O2 8911   3.495   3.430  16.517  0.0289  0.1949  0.2132
  598TMC3    C1 8912   1.274   4.436  15.373 -0.2561 -0.5529  0.7621
  598TMC3    C2 8913   1.287   4.299  15.383 -0.9732 -0.2717 -0.4812
  598TMC3    C3 8914   1.346   4.233  15.275 -0.0166 -0.6555 -0.2466
  598TMC3    C4 8915   1.317   4.508  15.266  0.3908  0.6003 -0.2250
  598TMC3    C5 8916   1.375   4.441  15.165  0.9091 -0.1348 -0.5828
  598TMC3    C6 8917   1.390   4.302  15.165 -0.3080 -0.9646 -0.1626
  598TMC3     C 8918   1.277   4.520  15.490 -0.7893 -0.9257  0.1323
  598TMC3     O 8919   1.241   4.636  15.479  0.0968 -0.2176  0.7175
  598TMC3     H 8920   1.248   4.250  15.471  0.7570 -0.6674  0.0559
  598TMC3    H1 8921   1.320   4.615  15.278  0.6584  0.4352  1.2229
  598TMC3    H2 8922   1.453   4.262  15.086 -1.5600 -0.8797 -1.2006
  598TMC3    C7 8923   1.470   4.515  15.081 -0.4206  0.7316 -0.3684
  598TMC3    C8 8924   1.330   4.087  15.274 -0.4662  0.6407  0.0587
  598TMC3    O1 8925   1.536   4.450  14.998  0.1138 -0.2721 -0.3499
  598TMC3    O2 8926   1.334   4.040  15.161 -0.0127  0.4101 -0.2129
  599MPD2     C 8927   1.861   1.978  16.040 -0.4741  0.2664 -0.6112
  599MPD2    C1 8928   1.760   1.901  15.986  0.9109 -0.2868  0.1727
  599MPD2    C2 8929   1.624   1.932  15.989 -0.2628 -0.2616  0.1488
  599MPD2    C3 8930   1.588   2.058  16.041  0.7988  0.0073 -0.5080
  599MPD2    C4 8931   1.694   2.139  16.092  0.3243  0.3058  0.6874
  599MPD2    C5 8932   1.827   2.097  16.099  0.1872 -0.2326  0.3021
  599MPD2     H 8933   1.549   1.867  15.946 -0.4991 -2.2351  3.5830
  599MPD2    H1 8934   1.671   2.233  16.142 -1.1880  0.1936  0.2145
  599MPD2    H2 8935   1.965   1.946  16.047 -0.4124  0.6911  0.4531
  599MPD2    H3 8936   1.912   2.154  16.135 -0.5063  1.6406 -1.0296
  599MPD2     N 8937   1.454   2.106  16.034 -0.5042 -0.9466  0.4357
  599MPD2    H5 8938   1.443   2.191  16.089 -0.2592 -1.3562  1.1062
  599MPD2    N1 8939   1.801   1.777  15.936  0.0623 -0.0752 -0.1346
  599MPD2    H7 8940   1.900   1.759  15.950  0.5780  2.8238  0.0044
  600TMC3    C1 8941   1.219   2.088  16.024  0.0384  0.3371 -0.4133
  600TMC3    C2 8942   1.112   2.032  15.963  0.3062 -0.5031 -0.0588
  600TMC3    C3 8943   0.990   2.048  16.016 -0.2260  0.4050  0.2696
  600TMC3    C4 8944   1.204   2.153  16.139  0.0022 -0.4773 -0.3222
  600TMC3    C5 8945   1.080   2.165  16.195 -0.1918  0.8549 -0.6660
  600TMC3    C6 8946   0.974   2.107  16.138  0.6037  0.5489 -0.1445
  600TMC3     C 8947   1.350   2.035  15.991  0.7950  0.0735 -0.2571
  600TMC3     O 8948   1.351   1.953  15.901  0.0734 -0.2567  0.1829
  600TMC3     H 8949   1.128   1.980  15.869 -0.1403  1.6330 -1.3263
  600TMC3    H1 8950   1.291   2.191  16.189 -0.6849  0.1805  0.3719
  600TMC3    H2 8951   0.875   2.119  16.181  0.5887  2.1051 -0.6226
  600TMC3    C7 8952   1.056   2.257  16.303  0.3676  0.6097  0.2761
  600TMC3    C8 8953   0.880   1.978  15.964  0.8298 -0.3731  0.5002
  600TMC3    O1 8954   0.944   2.278  16.340  0.4109  0.7348 -0.5662
  600TMC3    O2 8955   0.906   1.898  15.876  0.2824  0.7710 -0.1942
  601MPD2     C 8956   2.682   0.032   0.655 -0.2555  0.2654  0.2678
  601MPD2    C1 8957   2.689   4.675   0.548 -0.3122 -0.0289  0.6284
  601MPD2    C2 8958   2.714   4.540   0.575  0.1115  0.0462  0.6303
  601MPD2    C3 8959   2.754   4.508   0.706 -0.3126 -0.2713  0.2092
  601MPD2    C4 8960   2.753   4.601   0.810  0.5376  0.2641 -0.3843
  601MPD2    C5 8961   2.716   4.731   0.784 -0.0615 -0.1864 -0.2525
  601MPD2     H 8962   2.702   4.468   0.495 -0.3677  0.1432  0.6110
  601MPD2    H1 8963   2.788   4.578   0.910  2.9007  0.0588 -1.2738
  601MPD2    H2 8964   2.661   0.136   0.636 -2.1639 -0.3229 -0.8710
  601MPD2    H3 8965   2.711   0.052   0.875 -0.0381 -0.4481 -0.0837
  601MPD2     N 8966   2.798   4.372   0.730  0.2855  0.0553  0.4256
  601MPD2    H5 8967   2.835   4.353   0.822 -1.8411 -2.2292  0.7858
  601MPD2    N1 8968   2.655   4.711   0.413  0.5254  0.4000 -0.1891
  601MPD2    H7 8969   2.650   4.632   0.349 -1.0481  0.0528  0.3743
  602TMC3    C1 8970   2.643   0.094   0.208  0.3499  0.3383 -0.2579
  602TMC3    C2 8971   2.580   0.200   0.145 -0.1822 -0.2473 -0.7893
  602TMC3    C3 8972   2.557   0.198   0.010  0.5567  0.3670  0.5037
  602TMC3    C4 8973   2.698   4.737   0.136 -0.3950 -0.2616  0.1878
  602TMC3    C5 8974   2.695   0.010  17.748  0.0268 -0.1084  0.7916
  602TMC3    C6 8975   2.610   0.092  17.686  0.5175  0.1415 -0.1222
  602TMC3     C 8976   2.642   0.099   0.357 -0.4195  0.1898  0.1898
  602TMC3     O 8977   2.625   0.208   0.415 -0.1947 -0.2868  0.0377
  602TMC3     H 8978   2.545   0.278   0.212 -0.2065 -1.0348  0.1173
  602TMC3    H1 8979   2.747   4.658   0.191 -4.4809  0.2933  4.6567
  602TMC3    H2 8980   2.594   0.092  17.579  0.8613 -2.6636 -0.1546
  602TMC3    C7 8981   2.829   4.730  17.695 -0.3171  0.5707 -0.6646
  602TMC3    C8 8982   2.585   0.320  17.693 -0.5513 -0.0636 -0.1485
  602TMC3    O1 8983   2.906   4.653   0.005  0.1282  0.8418  0.0014
  602TMC3    O2 8984   2.686   0.306  17.625 -0.0301 -0.1823 -0.5318
  603TMC3    C1 8985   1.639   1.349  11.281 -0.9032 -0.0479  0.3542
  603TMC3    C2 8986   1.677   1.345  11.409 -0.5545 -0.0187 -0.0393
  603TMC3    C3 8987   1.807   1.386  11.434 -0.0937  0.2894 -0.2897
  603TMC3    C4 8988   1.711   1.390  11.174 -0.2141  0.6753 -0.6208
  603TMC3    C5 8989   1.840   1.430  11.206  0.4241  0.3390 -0.0213
  603TMC3    C6 8990   1.894   1.430  11.339  0.2472  0.2244 -0.1935
  603TMC3     C 8991   1.526   1.268  11.240 -0.4633 -0.0582  0.1266
  603TMC3     O 8992   1.462   1.305  11.145 -0.0794 -1.0728 -0.4021
  603TMC3     H 8993   1.609   1.312  11.488 -2.8262 -2.2764 -2.9376
  603TMC3    H1 8994   1.666   1.383  11.076 -0.0730 -0.0456 -0.6399
  603TMC3    H2 8995   1.977   1.495  11.365  0.9512 -0.8864  0.3309
  603TMC3    C7 8996   1.925   1.494  11.104  0.0371  0.2780  0.0011
  603TMC3    C8 8997   1.858   1.361  11.567 -0.5135  0.6877  0.2495
  603TMC3    O1 8998   2.044   1.505  11.124  0.0551 -0.1619 -0.1130
  603TMC3    O2 8999   1.783   1.334  11.662 -0.6589  0.4391  0.0376
  604MPD2     C 9000   2.259   3.922  15.959 -0.0794 -0.1605  0.0194
  604MPD2    C1 9001   2.271   4.057  15.958 -0.5839 -0.5720  0.2272
  604MPD2    C2 9002   2.357   4.124  15.870 -0.0061 -0.3330  0.7945
  604MPD2    C3 9003   2.449   4.053  15.793  0.3009 -0.3906 -0.0567
  604MPD2    C4 9004   2.442   3.916  15.802  0.6535 -0.0905 -0.0791
  604MPD2    C5 9005   2.341   3.858  15.871  0.4620 -0.2500  0.5202
  604MPD2     H 9006   2.342   4.231  15.863 -0.0708 -0.4641 -1.0916
  604MPD2    H1 9007   2.511   3.851  15.748  0.5602 -0.1677 -0.1064
  604MPD2    H2 9008   2.194   3.876  16.032 -0.1530  1.2210  0.8207
  604MPD2    H3 9009   2.331   3.750  15.863  5.2299 -0.6990  0.5949
  604MPD2     N 9010   2.538   4.120  15.711 -0.6871  0.2915  0.1393
  604MPD2    H5 9011   2.521   4.220  15.701  2.1229  0.8261  0.7576
  604MPD2    N1 9012   2.192   4.128  16.053  0.2156  0.1410  0.1528
  604MPD2    H7 9013   2.143   4.074  16.124 -0.3187  0.7048  0.2161
  605TMC3    C1 9014   2.108   4.272  16.191  0.0507  0.6299 -0.4000
  605TMC3    C2 9015   2.181   4.233  16.301 -0.5400 -0.6881 -0.0924
  605TMC3    C3 9016   2.152   4.286  16.425 -0.1506 -0.2241  0.6539
  605TMC3    C4 9017   2.010   4.359  16.210  0.1343 -0.1508 -0.7705
  605TMC3    C5 9018   1.972   4.389  16.337 -0.5851 -0.8567 -0.3186
  605TMC3    C6 9019   2.041   4.364  16.453 -0.7297  0.0696 -0.1967
  605TMC3     C 9020   2.165   4.262  16.062 -0.2435  0.8666 -0.2556
  605TMC3     O 9021   2.166   4.350  15.979  0.1571 -0.3646 -0.1768
  605TMC3     H 9022   2.268   4.173  16.280  0.8343  0.5489  2.0628
  605TMC3    H1 9023   1.963   4.406  16.125  3.3201  1.7746 -1.4940
  605TMC3    H2 9024   2.004   4.398  16.548 -0.1738 -0.4484  0.2081
  605TMC3    C7 9025   1.839   4.444  16.351  0.9364  0.0843  0.6809
  605TMC3    C8 9026   2.272   4.294  16.507 -0.5405 -0.0520 -0.7817
  605TMC3    O1 9027   1.821   4.525  16.439 -0.3137  0.4026  0.1732
  605TMC3    O2 9028   2.368   4.231  16.471 -0.3800 -0.0432  0.3367
  606TMC3    C1 9029   3.112   3.157  17.343 -0.1864  0.0497 -0.7074
  606TMC3    C2 9030   3.078   3.130  17.470  0.5960  0.3123  0.6156
  606TMC3    C3 9031   3.106   3.002  17.515  0.5958  0.0825 -0.1618
  606TMC3    C4 9032   3.173   3.066  17.260 -0.2727 -0.3649  0.0758
  606TMC3    C5 9033   3.197   2.939  17.307 -0.8118  0.7067 -0.4615
  606TMC3    C6 9034   3.160   2.903  17.431  0.3966  0.2166  0.2520
  606TMC3     C 9035   3.127   3.298  17.310  0.0963  0.4414  0.0356
  606TMC3     O 9036   3.059   3.383  17.373 -0.8102  0.2227 -0.1151
  606TMC3     H 9037   3.053   3.218  17.528  2.1176  0.2099  1.4256
  606TMC3    H1 9038   3.179   3.089  17.155  1.1789 -1.4361 -0.0735
  606TMC3    H2 9039   3.188   2.807  17.474 -2.5305 -1.3460 -1.3623
  606TMC3    C7 9040   3.250   2.844  17.217  1.2545  0.5081  0.0474
  606TMC3    C8 9041   3.128   2.978  17.666 -0.3964 -0.1408  0.1339
  606TMC3    O1 9042   3.336   2.875  17.135  0.0419 -0.0337 -0.2784
  606TMC3    O2 9043   3.193   2.878  17.694  0.2212  0.1857  0.4396
  607MPD2     C 9044   1.194   1.136  11.613  0.0168 -0.3786 -0.2004
  607MPD2    C1 9045   1.172   1.216  11.724  0.2423 -0.8719 -0.7691
  607MPD2    C2 9046   1.105   1.162  11.831 -0.0376  1.1891 -0.1529
  607MPD2    C3 9047   1.074   1.031  11.845  0.5244 -0.7317 -0.5465
  607MPD2    C4 9048   1.101   0.948  11.735 -0.0715  0.5898 -0.2020
  607MPD2    C5 9049   1.151   1.010  11.618  0.1228  0.1271 -0.5355
  607MPD2     H 9050   1.101   1.218  11.924 -1.5349  0.8550 -0.0184
  607MPD2    H1 9051   1.067   0.846  11.723 -1.0797  1.0654 -1.4774
  607MPD2    H2 9052   1.230   1.171  11.517 -0.5870 -0.3011 -0.3937
  607MPD2    H3 9053   1.177   0.950  11.531  1.2177 -1.1527  0.6843
  607MPD2     N 9054   1.052   0.984  11.973 -0.1140 -0.4673 -0.1061
  607MPD2    H5 9055   1.057   1.058  12.042 -0.8135  0.9177 -1.5504
  607MPD2    N1 9056   1.222   1.347  11.740  0.9082  0.5046 -0.2376
  607MPD2    H7 9057   1.209   1.399  11.826  1.5167  1.0556 -0.4785
  608TMC3    C1 9058   1.383   1.526  11.707 -1.1176  0.6640 -0.4281
  608TMC3    C2 9059   1.372   1.549  11.842 -0.3459  0.3869 -0.6664
  608TMC3    C3 9060   1.471   1.631  11.893 -0.5813 -0.8922  0.1797
  608TMC3    C4 9061   1.476   1.580  11.633 -0.0024  0.0725 -0.0858
  608TMC3    C5 9062   1.567   1.670  11.691 -0.0875 -0.4133 -0.1021
  608TMC3    C6 9063   1.565   1.694  11.824  0.8784  0.1156 -0.0680
  608TMC3     C 9064   1.313   1.406  11.652 -0.5478 -0.0090 -0.3196
  608TMC3     O 9065   1.363   1.355  11.554 -0.1697 -0.0120  0.3547
  608TMC3     H 9066   1.285   1.527  11.902  1.1064 -2.0511  0.5316
  608TMC3    H1 9067   1.464   1.572  11.526 -1.2239 -1.7539  0.1825
  608TMC3    H2 9068   1.644   1.732  11.888 -1.0246  0.9315  1.7798
  608TMC3    C7 9069   1.647   1.745  11.600 -0.3402 -0.5124 -0.0795
  608TMC3    C8 9070   1.466   1.640  12.036  0.6633 -0.0774 -0.9313
  608TMC3    O1 9071   1.618   1.735  11.481  0.3410 -0.4077 -0.2006
  608TMC3    O2 9072   1.477   1.750  12.094  0.0961  0.2133  0.7512
  609TMC3    C1 9073   4.208   4.583   9.106 -0.3625  0.1863 -0.2692
  609TMC3    C2 9074   4.182   4.604   8.970 -0.3422  0.3970 -0.3140
  609TMC3    C3 9075   4.264   4.530   8.887 -0.1557 -0.0865  0.7162
  609TMC3    C4 9076   4.287   4.488   9.162  0.4298  0.4591  0.0672
  609TMC3    C5 9077   4.361   4.415   9.075 -0.7776 -0.1797  0.0769
  609TMC3    C6 9078   4.351   4.441   8.941 -0.5635  0.6677 -0.5440
  609TMC3     C 9079   4.142   4.656   9.216  0.5357 -0.0179 -0.2848
  609TMC3     O 9080   4.164   4.617   9.327  0.1260 -0.0057  0.0965
  609TMC3     H 9081   4.107   4.677   8.938  1.3372  2.4025  0.3205
  609TMC3    H1 9082   4.321   4.486   9.265 -1.5534  1.3302  0.7292
  609TMC3    H2 9083   4.431   4.405   8.877 -0.7251  0.5781 -0.6942
  609TMC3    C7 9084   4.473   4.352   9.125  0.6157  0.5527 -0.0268
  609TMC3    C8 9085   4.297   4.576   8.756  0.2287  0.1000 -0.6575
  609TMC3    O1 9086   4.533   4.422   9.209  0.1939 -0.0450 -0.1629
  609TMC3    O2 9087   4.396   4.527   8.697 -0.1283 -1.0263 -0.5902
  610TMC3    C1 9088   1.544   1.157  12.707  0.7747  0.2109  0.1299
  610TMC3    C2 9089   1.561   1.209  12.582  0.1695  0.4604 -0.3082
  610TMC3    C3 9090   1.694   1.215  12.541 -0.2098  0.6080 -0.0358
  610TMC3    C4 9091   1.651   1.118  12.786  1.0677  0.1703  0.1603
  610TMC3    C5 9092   1.774   1.153  12.746  0.6808 -0.6006 -0.3528
  610TMC3    C6 9093   1.803   1.199  12.623 -0.0894 -0.3683  0.0117
  610TMC3     C 9094   1.411   1.128  12.746 -0.5034  1.4872 -0.0179
  610TMC3     O 9095   1.325   1.143  12.658 -0.2064 -0.0245 -0.1253
  610TMC3     H 9096   1.480   1.228  12.512  0.8835  1.0376 -0.9793
  610TMC3    H1 9097   1.646   1.064  12.880 -0.6941 -0.0046 -0.0465
  610TMC3    H2 9098   1.906   1.204  12.590 -1.3069  0.3960 -3.6393
  610TMC3    C7 9099   1.879   1.090  12.829 -1.0334 -0.6246 -0.1071
  610TMC3    C8 9100   1.710   1.248  12.405  0.1203 -0.1513  0.1872
  610TMC3    O1 9101   1.849   0.991  12.892  0.0957 -0.6605  0.4998
  610TMC3    O2 9102   1.793   1.333  12.377  0.3181 -0.2298 -0.1547
  611MPD2     C 9103   0.938   1.517  10.657  0.9062  0.0453 -0.0232
  611MPD2    C1 9104   0.965   1.452  10.541 -0.4139 -0.2900  0.2544
  611MPD2    C2 9105   1.076   1.488  10.462  0.9583  0.7362 -1.0438
  611MPD2    C3 9106   1.165   1.580  10.522 -0.1690 -0.2277 -0.1335
  611MPD2    C4 9107   1.139   1.638  10.648 -0.7170  0.2197 -0.2907
  611MPD2    C5 9108   1.021   1.605  10.711  1.0090 -0.3413  0.2837
  611MPD2     H 9109   1.111   1.420  10.386 -0.0627 -1.2927  0.3083
  611MPD2    H1 9110   1.212   1.702  10.695  0.4832 -1.5875  0.3193
  611MPD2    H2 9111   0.852   1.483  10.714  0.3565  2.7976  0.7415
  611MPD2    H3 9112   1.014   1.651  10.809  0.9326  2.3469 -0.9808
  611MPD2     N 9113   1.294   1.604  10.467  0.0329 -0.2826  0.5499
  611MPD2    H5 9114   1.358   1.652  10.530  0.6300 -2.3630  1.5616
  611MPD2    N1 9115   0.877   1.346  10.512 -0.2220  0.5865  0.2158
  611MPD2    H7 9116   0.807   1.326  10.582 -1.1185  2.6384 -0.0973
  612TMC3    C1 9117   1.443   1.652  10.299 -0.5173  0.7789  0.2338
  612TMC3    C2 9118   1.541   1.659  10.398  0.1600  0.6055 -0.6252
  612TMC3    C3 9119   1.645   1.750  10.371  0.1573  0.2757 -0.7228
  612TMC3    C4 9120   1.448   1.707  10.175 -0.7506 -0.1779  0.5146
  612TMC3    C5 9121   1.558   1.784  10.153 -0.1212 -0.4198 -0.4244
  612TMC3    C6 9122   1.655   1.811  10.250  0.0626  0.6601  0.0452
  612TMC3     C 9123   1.319   1.583  10.333 -0.0449 -0.4703  0.8966
  612TMC3     O 9124   1.241   1.555  10.243 -0.1539  0.1841  0.0516
  612TMC3     H 9125   1.537   1.593  10.484  2.3252  2.0410  0.5684
  612TMC3    H1 9126   1.371   1.700  10.099 -1.3159  0.5006  1.0264
  612TMC3    H2 9127   1.732   1.887  10.236  1.2437 -0.5868 -0.2531
  612TMC3    C7 9128   1.558   1.882  10.043 -0.0668  0.0679  0.2774
  612TMC3    C8 9129   1.741   1.799  10.466  0.2352 -0.5201 -0.4709
  612TMC3    O1 9130   1.657   1.955  10.042 -0.9129  0.1497  0.1214
  612TMC3    O2 9131   1.830   1.870  10.427 -0.1529  0.3608 -0.6095
  613MPD2     C 9132   0.216   3.509  16.457 -0.7490 -0.2798  0.2853
  613MPD2    C1 9133   0.221   3.393  16.388  0.8248  0.2283  0.0672
  613MPD2    C2 9134   0.107   3.317  16.375  1.2044 -0.2944  0.2235
  613MPD2    C3 9135   4.723   3.357  16.437  0.0192 -0.0755  0.2678
  613MPD2    C4 9136   4.724   3.469  16.515  0.4270  0.0577 -0.1094
  613MPD2    C5 9137   0.102   3.550  16.521 -0.3357 -0.0441  0.3660
  613MPD2     H 9138   0.109   3.224  16.319  0.6529 -1.1251  1.5901
  613MPD2    H1 9139   4.644   3.495  16.583 -1.3903 -0.4178 -2.0659
  613MPD2    H2 9140   0.310   3.562  16.458 -0.5806 -0.5610 -0.3939
  613MPD2    H3 9141   0.109   3.638  16.584  2.3743  0.1580 -0.2172
  613MPD2     N 9142   4.614   3.278  16.424  0.1954 -0.2745 -0.6124
  613MPD2    H5 9143   4.638   3.192  16.376  0.2517 -0.0768 -0.9371
  613MPD2    N1 9144   0.334   3.364  16.313 -0.0076 -0.2406 -0.4708
  613MPD2    H7 9145   0.405   3.435  16.295 -1.3030  0.8756 -1.1082
  614TMC3    C1 9146   0.449   3.259  16.147 -0.0091  0.1887 -0.2935
  614TMC3    C2 9147   0.477   3.133  16.104 -0.1766  0.1537  0.7901
  614TMC3    C3 9148   0.485   3.109  15.969  0.6160 -0.9651 -0.4515
  614TMC3    C4 9149   0.437   3.360  16.057 -0.0582  0.4100 -0.0871
  614TMC3    C5 9150   0.443   3.329  15.923 -0.2957  0.6915  0.0796
  614TMC3    C6 9151   0.478   3.206  15.875 -0.0426  0.4535  0.2350
  614TMC3     C 9152   0.352   3.246  16.244  0.2783 -0.1107  0.4450
  614TMC3     O 9153   0.311   3.133  16.274  0.6706  0.1592  0.0670
  614TMC3     H 9154   0.490   3.044  16.165  2.4375  1.1075  1.6209
  614TMC3    H1 9155   0.414   3.463  16.081  2.3514  0.4080  2.3069
  614TMC3    H2 9156   0.477   3.184  15.769 -0.6886 -3.2249  1.0011
  614TMC3    C7 9157   0.416   3.431  15.819  0.0845  0.4515  0.2069
  614TMC3    C8 9158   0.396   2.999  15.926 -0.5281 -0.0117 -0.9291
  614TMC3    O1 9159   0.451   3.547  15.838 -0.2308 -0.4627  0.1626
  614TMC3    O2 9160   0.385   2.965  15.810 -0.1770  0.1109 -0.8351
  615MPD2     C 9161   4.035   4.711  16.120 -0.1505 -0.1398  0.1710
  615MPD2    C1 9162   4.017   0.075  16.025 -0.0048 -0.3767  0.1822
  615MPD2    C2 9163   3.927   0.051  15.922 -0.1101 -1.4733  0.6391
  615MPD2    C3 9164   3.869   4.659  15.898  0.3077 -0.8007 -0.1504
  615MPD2    C4 9165   3.899   4.559  15.990  0.1132 -0.0101  0.3743
  615MPD2    C5 9166   3.978   4.586  16.099  0.0843  0.0294 -0.4148
  615MPD2     H 9167   3.911   0.129  15.849  0.7666 -1.6183  0.2864
  615MPD2    H1 9168   3.860   4.459  15.975  1.9267 -0.7555  0.6422
  615MPD2    H2 9169   4.102   4.720  16.205 -0.6871  3.1517  0.2505
  615MPD2    H3 9170   3.990   4.505  16.171 -1.7966 -1.0847 -1.3672
  615MPD2     N 9171   3.788   4.642  15.792  0.0904  0.6406 -0.7820
  615MPD2    H5 9172   3.786   4.717  15.723  1.6821 -0.2718 -1.8301
  615MPD2    N1 9173   4.075   0.202  16.037  0.0095  0.1484  0.0147
  615MPD2    H7 9174   4.062   0.275  15.968 -1.9268  0.8414  1.1070
  616TMC3    C1 9175   4.186   0.383  16.138  0.0033 -0.0306 -0.2961
  616TMC3    C2 9176   4.315   0.424  16.121  0.1501 -0.6779 -0.7657
  616TMC3    C3 9177   4.336   0.551  16.080 -0.0142 -0.0792  0.3895
  616TMC3    C4 9178   4.082   0.465  16.096 -0.4810 -1.0225 -0.1210
  616TMC3    C5 9179   4.107   0.593  16.054  0.1237 -0.3922 -0.1370
  616TMC3    C6 9180   4.237   0.644  16.046 -0.4687 -0.2586 -0.2327
  616TMC3     C 9181   4.156   0.239  16.137 -0.0978  0.1160 -0.6679
  616TMC3     O 9182   4.220   0.174  16.220 -0.6820 -0.0907  0.2984
  616TMC3     H 9183   4.395   0.356  16.147 -0.8022 -1.3418  0.3946
  616TMC3    H1 9184   3.980   0.430  16.088 -1.0846  0.7870 -0.3876
  616TMC3    H2 9185   4.253   0.747  16.018  3.0894 -0.5749  0.6360
  616TMC3    C7 9186   3.999   0.657  15.979  0.7961 -0.0745 -0.2237
  616TMC3    C8 9187   4.464   0.590  16.023  0.3510 -0.0084 -0.0285
  616TMC3    O1 9188   3.890   0.650  16.032 -0.2931  0.4863  0.1539
  616TMC3    O2 9189   4.463   0.652  15.919 -0.4177 -0.3291 -0.1098
  617MPD2     C 9190   2.309   2.578  13.376  0.0822  0.4673 -0.5572
  617MPD2    C1 9191   2.300   2.643  13.492 -0.4829 -0.9077  0.5429
  617MPD2    C2 9192   2.199   2.613  13.585  0.0279 -0.1182 -0.1809
  617MPD2    C3 9193   2.106   2.512  13.557  0.2547  0.5826  0.3600
  617MPD2    C4 9194   2.123   2.443  13.438  0.8213  0.8349 -0.4038
  617MPD2    C5 9195   2.218   2.480  13.343  0.2347  0.0118 -0.5261
  617MPD2     H 9196   2.202   2.663  13.681 -0.4507  0.2049 -0.3370
  617MPD2    H1 9197   2.070   2.351  13.414  1.4621  0.5151 -0.5996
  617MPD2    H2 9198   2.390   2.594  13.306  0.2247 -1.0413 -0.7554
  617MPD2    H3 9199   2.236   2.431  13.248  1.8378  1.4393 -0.9368
  617MPD2     N 9200   1.996   2.479  13.639 -0.1546 -0.1627 -0.1600
  617MPD2    H5 9201   1.936   2.401  13.612 -0.0340  0.2437 -1.6103
  617MPD2    N1 9202   2.391   2.741  13.522  0.7634 -0.5976  0.4997
  617MPD2    H7 9203   2.438   2.786  13.444 -0.4712  1.2734  0.8061
  618TMC3    C1 9204   2.524   2.885  13.624 -0.2537  0.3322  0.0892
  618TMC3    C2 9205   2.637   2.881  13.700 -0.4204 -0.5427 -0.2198
  618TMC3    C3 9206   2.729   2.985  13.691  0.3466 -0.5171 -0.2023
  618TMC3    C4 9207   2.504   2.978  13.526  0.0025 -0.4929 -0.2703
  618TMC3    C5 9208   2.603   3.072  13.510 -0.1397  0.1463 -0.2325
  618TMC3    C6 9209   2.713   3.085  13.598  0.5928  0.2109  0.2557
  618TMC3     C 9210   2.430   2.775  13.645  0.3567  0.2036  0.5039
  618TMC3     O 9211   2.417   2.720  13.755  0.3270  0.1297  1.0116
  618TMC3     H 9212   2.640   2.815  13.786  0.0274 -1.8628 -1.2461
  618TMC3    H1 9213   2.422   2.986  13.455  1.0806  0.7280 -1.3857
  618TMC3    H2 9214   2.782   3.162  13.564 -0.7059  1.4753  0.4901
  618TMC3    C7 9215   2.593   3.160  13.395 -0.2173  0.5768  0.2021
  618TMC3    C8 9216   2.862   2.949  13.722  0.5000  0.1798 -0.1238
  618TMC3    O1 9217   2.492   3.232  13.392  0.6317 -0.0229  0.0317
  618TMC3    O2 9218   2.950   3.036  13.729 -0.6470  0.2691 -0.0661
  619MPD2     C 9219   3.852   3.904  13.578  0.6849  0.1486  0.4493
  619MPD2    C1 9220   3.800   4.031  13.553  0.0967  0.2940 -0.3459
  619MPD2    C2 9221   3.675   4.065  13.578  0.8479  0.6807  0.4729
  619MPD2    C3 9222   3.583   3.965  13.614 -0.5365 -0.2178  0.1717
  619MPD2    C4 9223   3.624   3.841  13.649 -1.2084  0.0376 -0.4089
  619MPD2    C5 9224   3.759   3.814  13.633  0.4369 -0.3066  0.0737
  619MPD2     H 9225   3.634   4.161  13.551  1.8578  0.3008 -2.3841
  619MPD2    H1 9226   3.550   3.767  13.678 -0.8550  0.6966  2.1862
  619MPD2    H2 9227   3.954   3.868  13.570  0.8266  0.9053 -1.2251
  619MPD2    H3 9228   3.791   3.715  13.663 -0.0841 -0.8485 -1.2034
  619MPD2     N 9229   3.442   3.982  13.629 -0.0256  0.1557 -0.2920
  619MPD2    H5 9230   3.387   3.903  13.661  0.8877 -0.4460 -0.2045
  619MPD2    N1 9231   3.885   4.134  13.510 -0.1212 -0.1006 -0.0024
  619MPD2    H7 9232   3.979   4.115  13.474  0.0627 -3.4088  2.1752
  620TMC3    C1 9233   3.943   4.368  13.483  0.0305 -0.3481 -0.4197
  620TMC3    C2 9234   3.925   4.377  13.344  0.6105  0.2009  0.4191
  620TMC3    C3 9235   3.938   4.501  13.291 -0.2895 -0.8395 -0.3231
  620TMC3    C4 9236   3.952   4.479  13.562 -0.0547  0.6436  0.5958
  620TMC3    C5 9237   3.988   4.593  13.505 -0.4378 -0.0531  0.0993
  620TMC3    C6 9238   3.987   4.600  13.374  0.2708  0.0868  0.1100
  620TMC3     C 9239   3.869   4.265  13.550  0.2713 -0.0663 -0.4113
  620TMC3     O 9240   3.804   4.302  13.644 -0.2391  0.2408 -0.3738
  620TMC3     H 9241   3.884   4.291  13.293 -0.7674  0.2496  1.4481
  620TMC3    H1 9242   3.935   4.478  13.669 -0.6423  0.3075  0.5001
  620TMC3    H2 9243   4.001   4.699  13.331  1.7933 -0.0792  0.2277
  620TMC3    C7 9244   3.996   4.710  13.590 -0.7833 -0.5893  0.1214
  620TMC3    C8 9245   3.819   4.549  13.221 -0.2435 -0.2192  0.0944
  620TMC3    O1 9246   3.936   4.714  13.693 -0.0691  0.4118  1.1830
  620TMC3    O2 9247   3.766   4.649  13.265  0.2358 -0.1661 -0.0640
  621MPD2     C 9248   4.269   4.360   9.577  0.1348  0.2930 -0.0651
  621MPD2    C1 9249   4.212   4.356   9.700  0.6317  0.1140  0.3765
  621MPD2    C2 9250   4.292   4.379   9.812 -0.0448  0.5927  0.6177
  621MPD2    C3 9251   4.424   4.404   9.797  0.0261 -0.0605 -0.0588
  621MPD2    C4 9252   4.482   4.393   9.669 -0.0178  0.6851  0.3748
  621MPD2    C5 9253   4.402   4.380   9.557 -0.4663  0.3743 -0.5086
  621MPD2     H 9254   4.249   4.382   9.911  1.8886  0.8046  1.4431
  621MPD2    H1 9255   4.585   4.425   9.657  0.0645 -0.0864 -1.0492
  621MPD2    H2 9256   4.208   4.361   9.488 -1.9605 -0.1255  1.3526
  621MPD2    H3 9257   4.441   4.388   9.456 -1.7002  0.3655 -0.9942
  621MPD2     N 9258   4.498   4.455   9.905 -0.2353 -0.0445 -0.5280
  621MPD2    H5 9259   4.452   4.484   9.991 -1.5193  0.1519 -1.2882
  621MPD2    N1 9260   4.071   4.353   9.727  0.1677  0.3779  0.1798
  621MPD2    H7 9261   4.044   4.360   9.824 -0.9215 -1.9976  0.0701
  622TMC3    C1 9262   3.835   4.327   9.665  0.4272 -0.8216 -0.2567
  622TMC3    C2 9263   3.785   4.304   9.787  0.5017 -0.5173 -0.3005
  622TMC3    C3 9264   3.657   4.253   9.800  0.3399 -0.1425  0.7024
  622TMC3    C4 9265   3.752   4.306   9.561 -0.1102 -0.3340 -0.5646
  622TMC3    C5 9266   3.618   4.282   9.574 -0.5099 -0.4174 -0.3034
  622TMC3    C6 9267   3.567   4.260   9.696  0.0609 -0.2277 -0.4181
  622TMC3     C 9268   3.973   4.346   9.624 -0.0097 -0.5164  0.0405
  622TMC3     O 9269   3.993   4.375   9.504 -0.1204  0.5261  0.0814
  622TMC3     H 9270   3.844   4.321   9.876 -1.5017 -2.4203  1.3893
  622TMC3    H1 9271   3.797   4.311   9.463  0.4367 -0.4190 -0.3154
  622TMC3    H2 9272   3.471   4.211   9.711  1.2015 -2.1483  0.5898
  622TMC3    C7 9273   3.546   4.243   9.458  0.3806  0.0694  0.1649
  622TMC3    C8 9274   3.623   4.149   9.898  0.4045  0.5662 -0.2114
  622TMC3    O1 9275   3.611   4.214   9.359  0.0138 -0.1244  0.2169
  622TMC3    O2 9276   3.537   4.064   9.872  0.0072 -0.1425  0.2233
  623MPD2     C 9277   2.733   0.036  16.023  0.1698  0.2932  0.0764
  623MPD2    C1 9278   2.675   4.713  16.128  0.2559 -0.4886 -0.2061
  623MPD2    C2 9279   2.749   4.644  16.221 -0.0267  0.8106 -0.0214
  623MPD2    C3 9280   2.886   4.640  16.209  0.0100 -0.0019  0.2280
  623MPD2    C4 9281   2.949   4.689  16.097  0.1098 -0.1415  0.2675
  623MPD2    C5 9282   2.871   0.013  16.005 -0.3669 -0.8091  0.1515
  623MPD2     H 9283   2.709   4.612  16.316  0.1222  0.9964  0.1050
  623MPD2    H1 9284   3.057   4.684  16.084  0.2056  0.5751  0.8304
  623MPD2    H2 9285   2.679   0.094  15.949 -1.2050 -1.1534 -0.0411
  623MPD2    H3 9286   2.908   0.057  15.913  2.0208 -0.9337  1.0548
  623MPD2     N 9287   2.947   4.563  16.308  0.0967 -0.5559 -0.1367
  623MPD2    H5 9288   2.878   4.516  16.365 -0.5300 -0.8527 -1.1493
  623MPD2    N1 9289   2.534   4.724  16.144  0.2487  0.3094 -0.0899
  623MPD2    H7 9290   2.490   0.065  16.099 -1.0021  0.1998  0.9422
  624TMC3    C1 9291   3.122   4.499  16.674 -0.0487  0.7455 -0.3167
  624TMC3    C2 9292   3.008   4.441  16.713 -0.6281  0.0490  0.2245
  624TMC3    C3 9293   2.938   4.391  16.609  0.1836 -0.4359  0.0767
  624TMC3    C4 9294   3.160   4.518  16.543  0.0173 -0.1125 -0.3596
  624TMC3    C5 9295   3.083   4.456  16.443  0.1724  0.5449 -0.2351
  624TMC3    C6 9296   2.971   4.389  16.477 -0.0587  0.6563 -0.4094
  624TMC3     C 9297   3.231   4.508  16.778  0.2961 -0.3113  0.0253
  624TMC3     O 9298   3.205   4.471  16.888 -0.0331  0.1032  0.2531
  624TMC3     H 9299   2.974   4.431  16.815 -0.5156  1.8734  0.4552
  624TMC3    H1 9300   3.242   4.584  16.517 -0.9680  1.2083 -0.1426
  624TMC3    H2 9301   2.918   4.337  16.398 -0.8230 -0.7513  1.0109
  624TMC3    C7 9302   3.079   4.535  16.321  0.0387  0.4858  0.4417
  624TMC3    C8 9303   2.791   4.403  16.619  0.2106  0.1140  0.9433
  624TMC3    O1 9304   3.175   4.599  16.277  0.4307  0.4023  0.1887
  624TMC3    O2 9305   2.745   4.386  16.507  0.3199 -0.4200  0.4534
  625MPD2     C 9306   2.861   1.160   0.919  0.0440  0.0841 -0.1555
  625MPD2    C1 9307   2.950   1.225   0.846  0.4938  1.1564 -0.3436
  625MPD2    C2 9308   3.083   1.206   0.869  0.2726 -0.3641  0.2479
  625MPD2    C3 9309   3.129   1.115   0.961  0.7414  0.1362  0.2621
  625MPD2    C4 9310   3.033   1.055   1.041 -0.9839  0.1496 -0.7368
  625MPD2    C5 9311   2.901   1.064   1.010 -0.0149 -0.0538  0.6713
  625MPD2     H 9312   3.147   1.264   0.804  1.0588 -1.7207 -0.1977
  625MPD2    H1 9313   3.062   0.999   1.129 -0.0055 -0.8588 -1.6989
  625MPD2    H2 9314   2.752   1.164   0.919  0.0554  0.4705 -0.0076
  625MPD2    H3 9315   2.819   1.009   1.057 -2.1675  0.0013 -3.0624
  625MPD2     N 9316   3.269   1.089   0.976 -0.3949 -0.2427  0.2769
  625MPD2    H5 9317   3.338   1.142   0.923  1.3491 -0.7976  1.9843
  625MPD2    N1 9318   2.912   1.327   0.754  1.2581  0.4637  0.1582
  625MPD2    H7 9319   2.978   1.395   0.718 -0.5383  0.6984 -2.6316
  626TMC3    C1 9320   2.759   1.455   0.621  0.1751  0.0512 -0.0965
  626TMC3    C2 9321   2.677   1.445   0.511  0.8764  0.0341 -0.1375
  626TMC3    C3 9322   2.613   1.554   0.465  0.0906  0.2684  0.7251
  626TMC3    C4 9323   2.788   1.575   0.682 -0.8197 -0.3674  0.2466
  626TMC3    C5 9324   2.740   1.686   0.616  0.9751  0.5011 -0.3012
  626TMC3    C6 9325   2.647   1.677   0.513 -1.4676  0.5236 -0.5881
  626TMC3     C 9326   2.781   1.335   0.706  0.1014 -0.6707  0.7876
  626TMC3     O 9327   2.685   1.265   0.698 -0.5928  0.0587 -0.2666
  626TMC3     H 9328   2.673   1.348   0.461  0.1023  0.3564 -0.7077
  626TMC3    H1 9329   2.856   1.579   0.766  0.8389  1.3169 -1.1691
  626TMC3    H2 9330   2.591   1.755   0.462  1.5857  1.8387 -1.9569
  626TMC3    C7 9331   2.739   1.805   0.697  0.2602  0.0558 -0.2812
  626TMC3    C8 9332   2.545   1.541   0.336  0.3433  0.5403 -0.2536
  626TMC3    O1 9333   2.795   1.811   0.804 -0.4583  0.2609  0.5960
  626TMC3    O2 9334   2.562   1.634   0.254  0.4511  0.1283 -0.1296
  627MPD2     C 9335   1.595   1.481  14.313  0.0947  0.0747  0.0428
  627MPD2    C1 9336   1.640   1.447  14.439  0.6902  0.1039 -0.1606
  627MPD2    C2 9337   1.616   1.315  14.484 -0.3962  0.0104 -0.3865
  627MPD2    C3 9338   1.556   1.227  14.403  0.0802 -0.1834  0.2878
  627MPD2    C4 9339   1.512   1.269  14.276 -0.4519  0.2728 -0.4598
  627MPD2    C5 9340   1.531   1.394  14.229 -0.2495 -1.0766  0.2947
  627MPD2     H 9341   1.643   1.279  14.583 -2.2017  1.7971  0.7562
  627MPD2    H1 9342   1.444   1.209  14.217 -0.0382 -1.5186  0.8714
  627MPD2    H2 9343   1.620   1.579  14.274 -2.1751  0.4953 -0.3409
  627MPD2    H3 9344   1.508   1.418  14.126 -0.1490  0.5472  0.6497
  627MPD2     N 9345   1.546   1.091  14.445  0.2175 -0.4182 -0.0164
  627MPD2    H5 9346   1.579   1.070  14.539  0.4957 -0.5137 -0.1363
  627MPD2    N1 9347   1.711   1.535  14.525  0.7510  0.2469  0.5728
  627MPD2    H7 9348   1.758   1.492  14.604 -1.0561  2.3912  2.8295
  628TMC3    C1 9349   1.808   1.731  14.604 -0.0617  0.4811 -0.1046
  628TMC3    C2 9350   1.893   1.651  14.677  0.4013 -0.0081  0.0585
  628TMC3    C3 9351   1.974   1.722  14.763  0.7311 -0.8313  0.1547
  628TMC3    C4 9352   1.799   1.867  14.606 -0.0806 -0.2539  0.2844
  628TMC3    C5 9353   1.888   1.930  14.693 -0.1243 -0.8281  0.2704
  628TMC3    C6 9354   1.973   1.858  14.771  0.2627  0.5636 -0.9515
  628TMC3     C 9355   1.716   1.674  14.507 -0.1443  0.4275  0.2355
  628TMC3     O 9356   1.634   1.746  14.454  0.3390 -0.8620 -0.3459
  628TMC3     H 9357   1.911   1.549  14.645  0.6731 -0.5033  1.8270
  628TMC3    H1 9358   1.732   1.916  14.536  0.9236  1.1821  0.3195
  628TMC3    H2 9359   2.062   1.907  14.809  1.1208 -0.6931 -1.3401
  628TMC3    C7 9360   1.918   2.074  14.667 -0.6032 -0.0181 -0.0404
  628TMC3    C8 9361   2.085   1.655  14.819 -0.9197 -0.3079  0.1148
  628TMC3    O1 9362   2.016   2.116  14.729 -1.1146 -0.6319 -0.0992
  628TMC3    O2 9363   2.114   1.705  14.927  0.6350 -0.5971 -0.2111
  629MPD2     C 9364   0.219   0.693  16.032  0.2368 -0.6806 -0.6484
  629MPD2    C1 9365   0.196   0.614  16.141 -0.0161  0.5479  0.4275
  629MPD2    C2 9366   0.071   0.558  16.160 -0.7105 -0.2450 -0.4197
  629MPD2    C3 9367   4.705   0.602  16.077  0.2445 -0.3784 -0.2992
  629MPD2    C4 9368   4.731   0.689  15.975 -0.2956 -0.1309 -0.7053
  629MPD2    C5 9369   0.116   0.734  15.949 -0.1544  0.4123 -0.9714
  629MPD2     H 9370   0.054   0.492  16.244 -0.2753  0.7724  0.4687
  629MPD2    H1 9371   4.658   0.745  15.919 -0.2162 -0.6083 -1.2895
  629MPD2    H2 9372   0.315   0.742  16.021  0.0160  0.7467  3.8214
  629MPD2    H3 9373   0.134   0.808  15.872 -0.4570  0.9432 -0.5331
  629MPD2     N 9374   4.572   0.563  16.108 -0.2074  0.3269 -0.7371
  629MPD2    H5 9375   4.559   0.516  16.197  0.1848  1.0202 -0.3149
  629MPD2    N1 9376   0.307   0.598  16.230  0.0750 -0.1523 -0.0598
  629MPD2    H7 9377   0.382   0.664  16.215  1.2506 -1.2645  0.9064
  630TMC3    C1 9378   0.442   0.499  16.397 -0.4434  0.3494 -0.0832
  630TMC3    C2 9379   0.543   0.585  16.361  0.3395 -0.4613  0.0001
  630TMC3    C3 9380   0.650   0.615  16.451  0.4837 -0.6603 -0.3792
  630TMC3    C4 9381   0.452   0.421  16.507 -0.1456 -0.1366  0.1017
  630TMC3    C5 9382   0.560   0.444  16.584 -0.3016  0.0870 -0.3196
  630TMC3    C6 9383   0.660   0.536  16.560  0.5553 -0.8208  0.5282
  630TMC3     C 9384   0.317   0.496  16.324 -0.4356  1.0878 -0.5645
  630TMC3     O 9385   0.237   0.410  16.363 -0.4943 -0.3159  0.0115
  630TMC3     H 9386   0.543   0.642  16.269 -1.2109  0.5446  0.6099
  630TMC3    H1 9387   0.367   0.370  16.552 -1.0663  1.2518 -0.0527
  630TMC3    H2 9388   0.748   0.540  16.624  1.7239 -1.6093 -1.0135
  630TMC3    C7 9389   0.568   0.382  16.713 -0.6072  0.1639  0.2870
  630TMC3    C8 9390   0.768   0.677  16.411  0.6352 -0.6210  0.3083
  630TMC3    O1 9391   0.628   0.447  16.793 -0.4674  0.4430  0.2546
  630TMC3    O2 9392   0.862   0.668  16.487 -0.4166 -0.0960 -0.0272
  631MPD2     C 9393   2.785   0.077  15.503  0.7461 -0.1566  0.0531
  631MPD2    C1 9394   2.876   0.170  15.451  0.3317 -0.1511  0.3481
  631MPD2    C2 9395   3.010   0.135  15.478 -0.6725 -0.8348 -0.8068
  631MPD2    C3 9396   3.058   0.024  15.539  0.0323 -0.8150 -1.1019
  631MPD2    C4 9397   2.961   4.664  15.572  0.2977 -0.3066 -0.2382
  631MPD2    C5 9398   2.826   4.693  15.561  0.4020  0.2310  0.3705
  631MPD2     H 9399   3.089   0.206  15.457 -1.8745 -0.2409 -3.3092
  631MPD2    H1 9400   2.991   4.569  15.615  2.8723 -0.0696 -1.4987
  631MPD2    H2 9401   2.679   0.094  15.493  0.5893 -2.9284 -2.7039
  631MPD2    H3 9402   2.746   4.625  15.587 -0.6657  1.1038 -0.6475
  631MPD2     N 9403   3.196   0.014  15.550 -0.3723  0.4371 -0.1690
  631MPD2    H5 9404   3.258   0.075  15.498 -1.5715 -0.6737 -2.9226
  631MPD2    N1 9405   2.844   0.288  15.390  0.6694 -0.1017  0.3961
  631MPD2    H7 9406   2.745   0.312  15.391  0.6665 -0.1770  1.8002
  632TMC3    C1 9407   2.864   0.503  15.304 -0.1034 -0.5658 -0.5057
  632TMC3    C2 9408   2.768   0.536  15.399  0.0066 -0.5411  0.3562
  632TMC3    C3 9409   2.755   0.669  15.430 -0.4139  0.1411  0.4193
  632TMC3    C4 9410   2.947   0.588  15.238 -0.1843  0.8520 -0.5178
  632TMC3    C5 9411   2.920   0.720  15.260  0.2767 -0.5236 -0.8158
  632TMC3    C6 9412   2.832   0.763  15.365  0.6059 -0.1149 -0.3394
  632TMC3     C 9413   2.929   0.376  15.330  0.7969 -0.5234 -0.0384
  632TMC3     O 9414   3.049   0.370  15.303 -0.2771  0.1535 -0.6440
  632TMC3     H 9415   2.703   0.464  15.447  2.0982 -2.7923 -0.2085
  632TMC3    H1 9416   3.014   0.554  15.160 -0.1038  0.7223 -0.3947
  632TMC3    H2 9417   2.830   0.859  15.414  1.2780 -0.5448  0.5203
  632TMC3    C7 9418   3.018   0.812  15.222  0.5362 -0.3994  0.9545
  632TMC3    C8 9419   2.672   0.699  15.543 -0.3555  0.2374  0.6060
  632TMC3    O1 9420   3.046   0.895  15.310  0.8053  0.0589  0.3098
  632TMC3    O2 9421   2.653   0.603  15.620  0.5336  0.4872  0.4306
  633MPD2     C 9422   2.885   2.825  17.295 -0.5959  0.1532 -0.2660
  633MPD2    C1 9423   2.849   2.745  17.188  0.0722  0.1173 -0.2860
  633MPD2    C2 9424   2.809   2.617  17.212  0.1033 -0.2180 -0.0610
  633MPD2    C3 9425   2.794   2.561  17.342 -0.4139 -0.1519  0.0363
  633MPD2    C4 9426   2.845   2.638  17.440  0.0039 -0.3941  0.1832
  633MPD2    C5 9427   2.880   2.770  17.417 -0.4734 -0.1900  0.3271
  633MPD2     H 9428   2.786   2.555  17.126  0.7730 -0.5285 -0.0197
  633MPD2    H1 9429   2.865   2.591  17.535 -1.8824 -0.7010  0.4248
  633MPD2    H2 9430   2.914   2.929  17.285 -1.7665  0.3333 -1.9527
  633MPD2    H3 9431   2.916   2.839  17.491  1.7305 -0.6440 -0.3251
  633MPD2     N 9432   2.760   2.427  17.363 -0.0908 -0.3458 -0.3079
  633MPD2    H5 9433   2.774   2.382  17.453 -0.9905  0.6836  0.3560
  633MPD2    N1 9434   2.859   2.786  17.055 -0.1887  0.3834  0.0211
  633MPD2    H7 9435   2.843   2.720  16.979 -0.7175  0.6613 -0.1133
  634TMC3    C1 9436   2.914   2.936  16.879 -0.8263  0.7024 -0.0436
  634TMC3    C2 9437   2.964   2.839  16.795  0.0516  0.2072 -0.0679
  634TMC3    C3 9438   2.989   2.873  16.664 -0.1431 -0.8197  0.4677
  634TMC3    C4 9439   2.882   3.064  16.825  0.4854 -0.3374  0.2307
  634TMC3    C5 9440   2.912   3.089  16.690  0.1805 -0.0075 -0.1551
  634TMC3    C6 9441   2.959   2.996  16.606 -0.4225  0.1764 -0.7681
  634TMC3     C 9442   2.886   2.916  17.025 -0.2628 -0.4409  0.1063
  634TMC3     O 9443   2.891   3.023  17.092  0.0448  0.0451 -0.5108
  634TMC3     H 9444   3.000   2.748  16.841  0.0637  0.2999  0.1097
  634TMC3    H1 9445   2.859   3.148  16.890 -1.0674 -2.6741  2.6973
  634TMC3    H2 9446   2.986   3.032  16.508  3.4810  0.9343  0.5589
  634TMC3    C7 9447   2.864   3.209  16.626  0.2656 -0.5807  0.0985
  634TMC3    C8 9448   3.023   2.765  16.574  0.1473 -0.6767  0.6743
  634TMC3    O1 9449   2.857   3.212  16.505  0.2839 -0.3193 -0.2376
  634TMC3    O2 9450   2.988   2.654  16.611 -0.0530  0.8744  0.3568
  635TMC3    C1 9451   3.579   3.525   0.237 -0.1537  0.3822 -0.2090
  635TMC3    C2 9452   3.694   3.597   0.265  0.6083  0.0842  0.6892
  635TMC3    C3 9453   3.798   3.593   0.180  0.6605 -0.7303 -0.2616
  635TMC3    C4 9454   3.572   3.450   0.120 -0.1106 -0.1438  0.5071
  635TMC3    C5 9455   3.679   3.452   0.038  0.2731 -0.2579  0.2032
  635TMC3    C6 9456   3.791   3.528   0.063  0.5150  0.0680 -0.3046
  635TMC3     C 9457   3.461   3.573   0.302  0.2961 -0.0693 -0.1301
  635TMC3     O 9458   3.472   3.638   0.410  0.6080 -0.1423 -0.2002
  635TMC3     H 9459   3.704   3.648   0.360  2.9480  0.8254  0.0365
  635TMC3    H1 9460   3.485   3.397   0.086  0.3876  0.1272 -1.1640
  635TMC3    H2 9461   3.875   3.536  17.745 -0.3708 -2.6991 -1.7468
  635TMC3    C7 9462   3.690   3.347  17.689  0.4669 -0.9261  0.7383
  635TMC3    C8 9463   3.898   3.695   0.206 -0.2084 -0.8483 -0.3871
  635TMC3    O1 9464   3.618   3.255  17.706 -0.0527  0.2821 -0.5086
  635TMC3    O2 9465   3.901   3.742   0.321 -0.0025  0.5742  0.4700
  636MPD2     C 9466   4.040   3.549  15.794  0.2676  0.7807 -0.3305
  636MPD2    C1 9467   4.004   3.585  15.921 -1.0550 -0.5510 -0.0785
  636MPD2    C2 9468   4.042   3.491  16.022 -0.6311 -0.3193 -0.7981
  636MPD2    C3 9469   4.111   3.377  16.007 -0.0657  0.1766 -0.2563
  636MPD2    C4 9470   4.137   3.340  15.879 -0.0033  0.0758  0.0367
  636MPD2    C5 9471   4.098   3.425  15.780 -0.1362  0.3400  0.1464
  636MPD2     H 9472   4.021   3.517  16.125 -0.3321  1.0029 -1.0738
  636MPD2    H1 9473   4.181   3.246  15.848  2.0509  1.1957 -0.4059
  636MPD2    H2 9474   3.998   3.599  15.707  2.6567  2.9508 -0.2219
  636MPD2    H3 9475   4.098   3.388  15.678 -2.0137 -2.2084  1.0869
  636MPD2     N 9476   4.162   3.304  16.118 -0.3899 -0.3303  0.3488
  636MPD2    H5 9477   4.159   3.355  16.205 -1.3020  0.9567 -0.4394
  636MPD2    N1 9478   3.930   3.702  15.959 -0.1750 -0.1312  0.3810
  636MPD2    H7 9479   3.895   3.705  16.054  1.5392  3.0419  0.9123
  637TMC3    C1 9480   4.286   3.138  16.232 -0.1164  0.3553 -0.2445
  637TMC3    C2 9481   4.311   3.228  16.332  0.0525 -0.4346 -0.0083
  637TMC3    C3 9482   4.399   3.194  16.433  0.1248 -0.6522  0.0018
  637TMC3    C4 9483   4.355   3.018  16.225 -0.4928 -0.0204  0.6783
  637TMC3    C5 9484   4.448   2.991  16.324 -0.6098  0.6926  0.0509
  637TMC3    C6 9485   4.461   3.074  16.429 -0.5079 -0.8464 -0.2164
  637TMC3     C 9486   4.229   3.181  16.109 -1.2959  0.0832 -0.3311
  637TMC3     O 9487   4.239   3.103  16.013  0.3876  0.3769 -0.4939
  637TMC3     H 9488   4.282   3.333  16.331 -0.0088 -0.4745 -2.6002
  637TMC3    H1 9489   4.341   2.946  16.144 -0.0770  0.5098  0.1323
  637TMC3    H2 9490   4.530   3.061  16.512 -1.2316  0.7499  0.6298
  637TMC3    C7 9491   4.580   2.970  16.274 -0.2467 -0.6834 -0.4954
  637TMC3    C8 9492   4.487   3.308  16.464  0.5178 -0.3589 -0.0806
  637TMC3    O1 9493   4.666   3.047  16.308  0.4303 -0.3607  0.9398
  637TMC3    O2 9494   4.438   3.413  16.494  0.5452 -0.2380  0.0998
  638MPD2     C 9495   3.965   2.358  15.312 -0.3269 -0.2537 -0.0662
  638MPD2    C1 9496   4.063   2.277  15.272  0.1029 -0.5249  0.3625
  638MPD2    C2 9497   4.081   2.149  15.320 -0.1028  0.6406  0.0839
  638MPD2    C3 9498   3.982   2.104  15.404 -0.0185 -0.3525 -0.0298
  638MPD2    C4 9499   3.884   2.189  15.457 -0.1769 -0.1772  0.7892
  638MPD2    C5 9500   3.872   2.308  15.401  0.4612 -0.2791  0.1787
  638MPD2     H 9501   4.143   2.076  15.268 -0.5291  1.9150 -2.2058
  638MPD2    H1 9502   3.819   2.156  15.537 -2.7920  1.3627 -0.6900
  638MPD2    H2 9503   3.956   2.459  15.273 -2.7124 -0.6124 -0.4557
  638MPD2    H3 9504   3.791   2.367  15.442  1.5464  1.1542  0.2762
  638MPD2     N 9505   3.989   1.966  15.432  0.2441 -0.1876 -0.0292
  638MPD2    H5 9506   4.070   1.910  15.408 -0.4953  0.3081 -3.6383
  638MPD2    N1 9507   4.137   2.332  15.161 -0.6143  0.4833 -0.0249
  638MPD2    H7 9508   4.104   2.420  15.123 -1.2889 -0.1604 -0.9387
  639TMC3    C1 9509   3.920   1.743  15.485 -0.0986 -0.1704 -0.9135
  639TMC3    C2 9510   3.828   1.656  15.437 -0.3174  0.2243  0.3777
  639TMC3    C3 9511   3.871   1.534  15.393  0.0776 -0.0765  0.2208
  639TMC3    C4 9512   4.057   1.714  15.494 -0.1357  0.4167 -0.2617
  639TMC3    C5 9513   4.092   1.584  15.462 -0.6679  0.1213  0.3191
  639TMC3    C6 9514   4.003   1.498  15.412 -0.4160 -0.4624  0.1601
  639TMC3     C 9515   3.884   1.888  15.473  0.4355 -0.1884 -0.4941
  639TMC3     O 9516   3.766   1.923  15.466 -0.1064  0.0307 -0.4069
  639TMC3     H 9517   3.730   1.694  15.413  0.7894  2.5276 -0.5425
  639TMC3    H1 9518   4.119   1.789  15.541 -0.7178  0.3526  0.6079
  639TMC3    H2 9519   4.044   1.405  15.374  0.4448 -0.3290  0.7582
  639TMC3    C7 9520   4.218   1.523  15.494  0.7377  0.2691  0.6660
  639TMC3    C8 9521   3.825   1.492  15.262 -0.2648  0.5878  0.0525
  639TMC3    O1 9522   4.233   1.407  15.506 -0.0555 -1.0750  0.2744
  639TMC3    O2 9523   3.907   1.463  15.176 -0.4170  0.5995  0.1544
  640MPD2     C 9524   4.472   0.898  10.050 -0.1364 -0.4543  0.2552
  640MPD2    C1 9525   4.389   0.842   9.964  1.0637 -0.4221  1.2776
  640MPD2    C2 9526   4.265   0.897   9.934 -0.6452 -0.4928  0.2539
  640MPD2    C3 9527   4.226   1.010   9.991  0.5764  0.6366  0.4064
  640MPD2    C4 9528   4.312   1.073  10.080  0.3364  0.1399  0.7449
  640MPD2    C5 9529   4.429   1.010  10.107 -0.1471 -0.0706 -0.3750
  640MPD2     H 9530   4.196   0.859   9.859 -1.2710  1.5665 -0.2074
  640MPD2    H1 9531   4.288   1.156  10.146  1.6083 -0.2390  1.7009
  640MPD2    H2 9532   4.570   0.856  10.070  0.8953  1.2059 -1.3234
  640MPD2    H3 9533   4.493   1.062  10.178 -0.2912 -1.1099  0.5197
  640MPD2     N 9534   4.096   1.066   9.973  0.5411 -0.0899  0.2711
  640MPD2    H5 9535   4.085   1.159  10.013 -0.3225 -0.0898  0.0402
  640MPD2    N1 9536   4.423   0.709   9.922  0.3171 -0.0280 -0.2457
  640MPD2    H7 9537   4.516   0.678   9.949  0.7955  1.5623 -0.0543
  641TMC3    C1 9538   4.423   0.518   9.771  0.1037  0.5589 -0.4789
  641TMC3    C2 9539   4.508   0.446   9.851 -0.4686 -0.2704 -0.4081
  641TMC3    C3 9540   4.567   0.344   9.788 -0.7617  0.0656  0.3389
  641TMC3    C4 9541   4.381   0.480   9.644  0.1514 -0.3556 -0.3869
  641TMC3    C5 9542   4.436   0.369   9.592  0.2700 -0.4274  0.4062
  641TMC3    C6 9543   4.528   0.298   9.662 -0.1484 -0.4220  0.2427
  641TMC3     C 9544   4.357   0.640   9.826  0.6835  0.3835  0.5461
  641TMC3     O 9545   4.241   0.648   9.780  0.5505 -0.1586 -0.0103
  641TMC3     H 9546   4.537   0.474   9.951 -2.0292 -1.7130  0.4316
  641TMC3    H1 9547   4.311   0.542   9.589  0.6797  1.9282  1.5256
  641TMC3    H2 9548   4.593   0.226   9.616  0.3679 -0.3711  0.8867
  641TMC3    C7 9549   4.402   0.345   9.449  0.4437  0.2955  0.2190
  641TMC3    C8 9550   4.691   0.295   9.841  0.3556  0.3303 -0.4061
  641TMC3    O1 9551   4.341   0.437   9.395  0.1826 -0.5989 -0.3177
  641TMC3    O2 9552   0.009   0.380   9.911 -0.1273  0.0445 -0.1452
  642TMC3    C1 9553   0.978   2.031  12.794  0.9756 -0.4774  0.4646
  642TMC3    C2 9554   1.115   2.026  12.826  0.1565  0.2933 -0.6688
  642TMC3    C3 9555   1.177   1.901  12.794 -0.1270 -0.5569 -0.2055
  642TMC3    C4 9556   0.919   1.925  12.728  0.3206 -0.0608 -0.4739
  642TMC3    C5 9557   0.987   1.805  12.717 -0.4030 -0.1845  0.6063
  642TMC3    C6 9558   1.118   1.792  12.742  0.0968  0.8027  0.3083
  642TMC3     C 9559   0.921   2.170  12.785 -0.4156  0.1303 -1.7040
  642TMC3     O 9560   1.000   2.258  12.810 -0.5030  0.0100 -0.3003
  642TMC3     H 9561   1.163   2.110  12.874 -0.3230  0.6574 -0.8182
  642TMC3    H1 9562   0.818   1.919  12.689  0.2006  1.2781 -0.4003
  642TMC3    H2 9563   1.170   1.698  12.728 -1.8327 -0.5842  2.5541
  642TMC3    C7 9564   0.924   1.700  12.644 -0.0830 -0.3788  0.4935
  642TMC3    C8 9565   1.320   1.885  12.811 -0.9182  0.5219 -0.3978
  642TMC3    O1 9566   0.828   1.721  12.571  0.9536 -0.2132  0.4047
  642TMC3    O2 9567   1.377   1.827  12.715  0.5983 -0.1466 -0.1642
  643TMC3    C1 9568   0.048   1.029   0.579  0.3033 -0.0291  0.0433
  643TMC3    C2 9569   4.649   1.033   0.598  0.5676 -0.6112 -0.1215
  643TMC3    C3 9570   4.574   0.933   0.537  0.4065 -0.3624  0.6785
  643TMC3    C4 9571   0.109   0.927   0.515  0.2465  0.3406 -0.4458
  643TMC3    C5 9572   0.036   0.822   0.467 -0.0993 -0.0665 -0.4113
  643TMC3    C6 9573   4.637   0.827   0.476  0.7303 -0.2583 -0.0628
  643TMC3     C 9574   0.106   1.159   0.552 -0.1497 -0.2615  0.0695
  643TMC3     O 9575   0.036   1.242   0.499 -0.4646  0.2252 -0.5452
  643TMC3     H 9576   4.602   1.123   0.637  0.4409 -1.5112  1.8131
  643TMC3    H1 9577   0.216   0.916   0.502  0.4964 -1.0030  2.7740
  643TMC3    H2 9578   4.576   0.757   0.420  1.0285 -0.5392 -0.0385
  643TMC3    C7 9579   0.096   0.746   0.363 -1.0005 -0.0551  0.5698
  643TMC3    C8 9580   4.458   0.976   0.472 -0.1219 -0.5754 -1.3133
  643TMC3    O1 9581   0.182   0.661   0.389 -0.2573 -0.2009 -0.1701
  643TMC3    O2 9582   4.371   0.897   0.433  0.1642 -0.2187  0.6439
  644MPD2     C 9583   4.211   1.018   9.522 -0.4155 -0.0197  0.0939
  644MPD2    C1 9584   4.325   1.018   9.592 -0.0789  0.0731  0.5283
  644MPD2    C2 9585   4.352   1.132   9.657 -0.9911 -0.9402  0.0798
  644MPD2    C3 9586   4.283   1.246   9.651 -0.7718 -0.0401  0.1357
  644MPD2    C4 9587   4.175   1.245   9.571  0.4626 -0.1896 -0.3624
  644MPD2    C5 9588   4.138   1.131   9.510 -0.0169  0.0536  0.1210
  644MPD2     H 9589   4.442   1.138   9.718 -1.2770  0.9917  0.2821
  644MPD2    H1 9590   4.120   1.335   9.544  0.5755  0.0954  0.3655
  644MPD2    H2 9591   4.186   0.928   9.467  1.1461  0.2922 -1.1148
  644MPD2    H3 9592   4.049   1.135   9.448  0.0648 -0.0709 -0.0049
  644MPD2     N 9593   4.332   1.369   9.710  0.1366 -0.5059  0.3594
  644MPD2    H5 9594   4.416   1.364   9.767 -0.9841  0.1018  2.0634
  644MPD2    N1 9595   4.405   0.899   9.578 -0.5942 -0.0750  0.3789
  644MPD2    H7 9596   4.369   0.827   9.516 -0.4396  0.6826 -0.5758
  645TMC3    C1 9597   4.376   1.598   9.749  0.1703  0.3704  0.0610
  645TMC3    C2 9598   4.450   1.563   9.860 -0.3353 -0.9079  0.2635
  645TMC3    C3 9599   4.538   1.652   9.913  0.0186  0.3341  0.3205
  645TMC3    C4 9600   4.384   1.727   9.700  0.0677 -0.8393 -0.0717
  645TMC3    C5 9601   4.457   1.816   9.765 -0.2969  0.5564 -0.1980
  645TMC3    C6 9602   4.537   1.788   9.875  0.2969  0.4568 -0.4335
  645TMC3     C 9603   4.286   1.501   9.683 -0.2254 -0.6160 -0.3936
  645TMC3     O 9604   4.199   1.531   9.604 -0.3979  0.6051  0.6901
  645TMC3     H 9605   4.441   1.464   9.905  3.9148 -1.5170 -0.2196
  645TMC3    H1 9606   4.342   1.749   9.603 -1.1029 -0.7706  0.4440
  645TMC3    H2 9607   4.600   1.860   9.926  0.1263 -0.6811  1.3857
  645TMC3    C7 9608   4.459   1.950   9.717  0.7303  0.4165  0.4712
  645TMC3    C8 9609   4.606   1.620  10.035  0.1310 -0.6857  0.0707
  645TMC3    O1 9610   4.455   1.960   9.593  0.3470 -0.0950 -0.0226
  645TMC3    O2 9611   4.559   1.533  10.102 -0.2583 -0.3581  0.2363
  646MPD2     C 9612   4.382   0.814  14.487 -0.2774  0.0735 -0.6665
  646MPD2    C1 9613   4.342   0.858  14.616 -0.4491  0.2555 -0.4122
  646MPD2    C2 9614   4.231   0.939  14.620  0.2889  0.4319  0.6408
  646MPD2    C3 9615   4.174   0.985  14.504 -0.0807  0.3562  0.2915
  646MPD2    C4 9616   4.213   0.941  14.379 -0.3801  0.3064  0.5252
  646MPD2    C5 9617   4.311   0.846  14.369 -0.0564 -0.0621 -0.8595
  646MPD2     H 9618   4.186   0.969  14.714 -0.5635  1.5997 -0.1484
  646MPD2    H1 9619   4.161   0.972  14.289 -1.7837 -1.0133  0.8705
  646MPD2    H2 9620   4.471   0.756  14.466 -1.6020 -2.0110 -0.4571
  646MPD2    H3 9621   4.340   0.804  14.274 -0.7293 -0.2523 -0.9846
  646MPD2     N 9622   4.069   1.083  14.525 -0.1949  0.6470  0.7267
  646MPD2    H5 9623   4.034   1.119  14.613 -1.8631 -0.5647  0.5658
  646MPD2    N1 9624   4.406   0.808  14.730 -0.5291  0.8795 -0.6751
  646MPD2    H7 9625   4.481   0.741  14.721 -0.1804  1.2488 -0.5006
  647TMC3    C1 9626   4.437   0.748  14.950 -0.4706  0.0501 -1.1179
  647TMC3    C2 9627   4.372   0.727  15.075  0.2900  0.4900 -0.2232
  647TMC3    C3 9628   4.451   0.689  15.183  0.0275 -0.1977  0.2092
  647TMC3    C4 9629   4.575   0.742  14.939 -0.3706 -0.3787 -0.4769
  647TMC3    C5 9630   4.646   0.700  15.048  0.1405 -0.2835  0.3110
  647TMC3    C6 9631   4.580   0.662  15.166 -0.3828 -0.6614  0.8179
  647TMC3     C 9632   4.364   0.825  14.859 -0.5367 -0.3101  0.1224
  647TMC3     O 9633   4.269   0.888  14.903 -0.6036 -0.4592 -0.7064
  647TMC3     H 9634   4.264   0.726  15.073  0.2798  2.1566 -0.8495
  647TMC3    H1 9635   4.617   0.759  14.840  4.2810 -0.8560  1.4511
  647TMC3    H2 9636   4.635   0.627  15.253 -0.2880 -3.3764 -0.3172
  647TMC3    C7 9637   0.036   0.629  15.028 -0.0040  0.1724 -0.7394
  647TMC3    C8 9638   4.388   0.597  15.277 -0.3298  0.0017 -0.3728
  647TMC3    O1 9639   0.112   0.616  15.127 -0.9132 -0.1363  0.0029
  647TMC3    O2 9640   4.465   0.510  15.314  0.2094 -0.4293  0.6088
  648TMC3    C1 9641   3.444   2.840  16.024  0.3202  0.0317 -0.4173
  648TMC3    C2 9642   3.516   2.733  15.967 -0.4790  0.1096 -0.0145
  648TMC3    C3 9643   3.516   2.734  15.833 -0.5324  0.3923 -0.2384
  648TMC3    C4 9644   3.398   2.948  15.951  0.1454  0.1566 -0.2541
  648TMC3    C5 9645   3.412   2.947  15.814 -0.0919 -0.3347 -0.5502
  648TMC3    C6 9646   3.484   2.844  15.754  0.1157  0.0195 -0.6199
  648TMC3     C 9647   3.453   2.870  16.165 -0.8016  0.1048  0.3688
  648TMC3     O 9648   3.417   2.982  16.201 -0.5270 -0.5842 -0.4533
  648TMC3     H 9649   3.567   2.652  16.020 -0.0662  0.4953  0.1779
  648TMC3    H1 9650   3.340   3.025  16.000  2.0196 -0.1097  2.4023
  648TMC3    H2 9651   3.506   2.845  15.648 -2.1989  0.3321 -1.0948
  648TMC3    C7 9652   3.401   3.067  15.732  0.8472 -0.8467  0.0985
  648TMC3    C8 9653   3.602   2.634  15.782 -0.2095 -0.1152  0.4429
  648TMC3    O1 9654   3.455   3.071  15.618 -0.1355 -0.4876 -0.0838
  648TMC3    O2 9655   3.699   2.672  15.710 -0.1425  0.0410  0.1608
  649TMC3    C1 9656   2.643   4.444  12.809 -0.2640 -0.0003 -0.2250
  649TMC3    C2 9657   2.775   4.425  12.791 -0.0290  0.4442 -0.1506
  649TMC3    C3 9658   2.847   4.378  12.899  0.0408 -0.3406  0.2787
  649TMC3    C4 9659   2.593   4.432  12.936  0.5067 -0.3803 -0.5196
  649TMC3    C5 9660   2.669   4.379  13.033  0.4919 -0.6921 -0.0485
  649TMC3    C6 9661   2.799   4.347  13.013  0.4494 -0.1895 -1.1045
  649TMC3     C 9662   2.558   4.497  12.704  0.1713 -0.6157  0.1223
  649TMC3     O 9663   2.442   4.514  12.729 -0.1722 -0.5782 -0.3269
  649TMC3     H 9664   2.818   4.437  12.693  1.3832 -4.1195 -0.0853
  649TMC3    H1 9665   2.491   4.450  12.967  0.5226 -1.1199 -0.0206
  649TMC3    H2 9666   2.856   4.309  13.097 -1.3082 -0.6941 -0.1444
  649TMC3    C7 9667   2.612   4.356  13.169  0.4900  0.8065  0.0873
  649TMC3    C8 9668   2.991   4.390  12.901 -0.1574 -0.0089  0.2519
  649TMC3    O1 9669   2.523   4.435  13.192  0.4904  0.7612  0.6952
  649TMC3    O2 9670   3.051   4.331  12.987 -0.3492 -0.0076  0.0276
  650TMC3    C1 9671   0.565   1.279  12.892 -0.5621 -0.0107 -0.1171
  650TMC3    C2 9672   0.528   1.411  12.928  0.4250 -0.3455 -0.2175
  650TMC3    C3 9673   0.533   1.517  12.841 -0.4056 -0.2278  0.4283
  650TMC3    C4 9674   0.581   1.260  12.753 -0.9266  0.6486  1.0783
  650TMC3    C5 9675   0.583   1.370  12.668  0.0332 -0.7611  0.2124
  650TMC3    C6 9676   0.572   1.496  12.711 -0.1148 -0.2633 -0.4314
  650TMC3     C 9677   0.522   1.174  12.984  0.0806 -0.0276  0.3516
  650TMC3     O 9678   0.476   1.219  13.089  0.5092  0.0281  0.3338
  650TMC3     H 9679   0.517   1.432  13.033 -2.1574 -0.2359 -0.5290
  650TMC3    H1 9680   0.608   1.163  12.711  0.6195  2.5646 -2.3547
  650TMC3    H2 9681   0.579   1.580  12.642  0.9255  0.7002  0.8453
  650TMC3    C7 9682   0.524   1.330  12.539  0.0027 -0.0135 -0.3192
  650TMC3    C8 9683   0.444   1.631  12.845  0.0954  0.0409 -0.1863
  650TMC3    O1 9684   0.507   1.209  12.520 -0.2931 -0.1207 -0.0892
  650TMC3    O2 9685   0.480   1.728  12.775 -0.4264 -0.9295 -0.6087
  651MPD2     C 9686   4.201   2.483  11.334 -0.0606 -0.3844 -0.3862
  651MPD2    C1 9687   4.175   2.618  11.342  0.9164  0.6233  0.1495
  651MPD2    C2 9688   4.269   2.699  11.392  0.9191  0.3300 -0.1758
  651MPD2    C3 9689   4.395   2.659  11.398  0.2042  0.7135  0.1990
  651MPD2    C4 9690   4.432   2.526  11.385  0.5648  0.2284 -0.0706
  651MPD2    C5 9691   4.330   2.438  11.355 -0.8677 -0.0272 -0.3869
  651MPD2     H 9692   4.235   2.795  11.429 -0.2249  0.0563 -0.5356
  651MPD2    H1 9693   4.539   2.508  11.396  0.0527 -3.6834 -1.3339
  651MPD2    H2 9694   4.119   2.415  11.316  0.5051 -1.0867 -0.3176
  651MPD2    H3 9695   4.356   2.332  11.355 -1.8193 -0.2714  0.4567
  651MPD2     N 9696   4.492   2.766  11.408  0.3452  0.6692  0.5370
  651MPD2    H5 9697   4.450   2.858  11.416 -1.5300 -0.0450 -1.1062
  651MPD2    N1 9698   4.049   2.680  11.321  0.1615 -0.2814  0.1041
  651MPD2    H7 9699   4.046   2.779  11.346  0.7931 -0.4153  0.7192
  652TMC3    C1 9700   0.119   3.042  11.310  0.4619 -0.5056  0.1291
  652TMC3    C2 9701   0.073   2.928  11.365 -0.0187 -0.1165  0.2096
  652TMC3    C3 9702   4.676   2.894  11.360 -0.3788  0.1508  0.4250
  652TMC3    C4 9703   0.029   3.126  11.243  0.4527  0.5852 -0.7797
  652TMC3    C5 9704   4.636   3.096  11.248 -0.4840  0.7075  0.1302
  652TMC3    C6 9705   4.591   2.981  11.296 -0.5443  0.1836  0.4539
  652TMC3     C 9706   0.261   3.072  11.316 -0.1651  0.4684 -0.7529
  652TMC3     O 9707   0.334   3.012  11.392 -0.6803  0.1096 -0.3840
  652TMC3     H 9708   0.139   2.858  11.415 -1.9682 -1.4796  0.8466
  652TMC3    H1 9709   0.065   3.225  11.218  1.2919  0.3599 -0.4678
  652TMC3    H2 9710   4.485   2.966  11.279 -0.5746  0.6161  0.2655
  652TMC3    C7 9711   4.548   3.155  11.146  0.0766  0.2512 -0.2112
  652TMC3    C8 9712   4.628   2.762  11.394  0.2956 -0.8856 -0.0119
  652TMC3    O1 9713   4.448   3.096  11.115  0.1442 -0.3203 -0.0792
  652TMC3    O2 9714   4.703   2.670  11.395 -0.0062 -0.0413  0.6601
  653MPD2     C 9715   2.691   2.980  17.642  0.1614  0.3703  0.4486
  653MPD2    C1 9716   2.655   3.060  17.534  0.4790 -0.2395  0.2414
  653MPD2    C2 9717   2.582   3.009  17.435  0.6050 -0.3254 -0.3251
  653MPD2    C3 9718   2.543   2.875  17.435  0.0858  0.5979 -0.4339
  653MPD2    C4 9719   2.588   2.797  17.540  0.1053  0.1865 -0.2869
  653MPD2    C5 9720   2.655   2.851  17.644  0.1824 -0.2382 -0.8148
  653MPD2     H 9721   2.545   3.065  17.349 -1.2745 -0.4109  0.4163
  653MPD2    H1 9722   2.575   2.690  17.543 -1.7144  0.3714 -1.5104
  653MPD2    H2 9723   2.751   3.023  17.722 -0.7150  1.5437  0.4642
  653MPD2    H3 9724   2.692   2.783  17.719 -1.0181 -0.3364 -0.3125
  653MPD2     N 9725   2.471   2.827  17.332  0.4775 -0.6685  0.4738
  653MPD2    H5 9726   2.458   2.884  17.249 -1.9929 -1.0977  0.5563
  653MPD2    N1 9727   2.694   3.196  17.534 -0.4432  0.5548  0.2127
  653MPD2    H7 9728   2.646   3.261  17.473 -1.3239 -0.8521 -0.5962
  654TMC3    C1 9729   2.360   2.687  17.187 -0.1510 -0.4612  0.5601
  654TMC3    C2 9730   2.331   2.803  17.126 -0.2149 -0.5092  0.2493
  654TMC3    C3 9731   2.253   2.784  17.018  0.6312  0.1922 -0.5832
  654TMC3    C4 9732   2.344   2.557  17.137  0.0726 -0.4225 -0.6667
  654TMC3    C5 9733   2.267   2.546  17.022 -0.4532  0.1635  0.0851
  654TMC3    C6 9734   2.220   2.661  16.969  0.4662  0.0278 -0.2774
  654TMC3     C 9735   2.431   2.697  17.312 -0.8045 -0.0586  0.1607
  654TMC3     O 9736   2.445   2.591  17.376 -0.2848 -0.9066  0.2654
  654TMC3     H 9737   2.336   2.907  17.154 -0.5904 -0.0793 -1.2937
  654TMC3    H1 9738   2.390   2.471  17.185 -0.1035 -0.6734 -0.9428
  654TMC3    H2 9739   2.147   2.658  16.889 -0.9417 -2.4412  1.1103
  654TMC3    C7 9740   2.222   2.423  16.956  0.6251 -0.2506 -0.6110
  654TMC3    C8 9741   2.167   2.895  16.991 -0.6543  0.8441  0.3586
  654TMC3    O1 9742   2.177   2.446  16.843 -0.6620 -0.4952  0.5233
  654TMC3    O2 9743   2.142   2.968  17.086  0.2806 -0.5704 -0.4291
  655MPD2     C 9744   3.912   3.101  15.718  0.3812 -0.3537  0.4632
  655MPD2    C1 9745   3.820   3.172  15.649 -0.1508 -0.4879 -0.5268
  655MPD2    C2 9746   3.808   3.132  15.514 -0.0674 -0.1240 -0.0818
  655MPD2    C3 9747   3.875   3.015  15.457  0.1936 -0.1787  0.7046
  655MPD2    C4 9748   3.974   2.957  15.537 -0.0948  0.1927  1.1990
  655MPD2    C5 9749   3.995   3.006  15.660 -0.9009 -0.3581 -0.5801
  655MPD2     H 9750   3.730   3.188  15.464  0.4853  0.4223 -0.3403
  655MPD2    H1 9751   4.028   2.869  15.504  2.2987  2.6571 -1.4559
  655MPD2    H2 9752   3.941   3.142  15.815  0.9570  2.8692 -1.0700
  655MPD2    H3 9753   4.075   2.979  15.728 -1.9775  1.4326  1.4187
  655MPD2     N 9754   3.850   2.972  15.321 -0.4556 -0.4793  0.2156
  655MPD2    H5 9755   3.912   2.897  15.294 -1.4301 -1.4326  0.6340
  655MPD2    N1 9756   3.756   3.288  15.690  0.1916 -0.1488 -0.1318
  655MPD2    H7 9757   3.716   3.346  15.617  1.0774  0.7924  0.1161
  656TMC3    C1 9758   3.702   3.458  15.848 -0.0155  0.5776 -0.0360
  656TMC3    C2 9759   3.642   3.487  15.967 -0.0328  0.1753 -0.0926
  656TMC3    C3 9760   3.563   3.589  15.984 -0.7247  0.6267  0.2787
  656TMC3    C4 9761   3.689   3.538  15.740 -0.2623  0.6547  0.7901
  656TMC3    C5 9762   3.600   3.642  15.754  0.0545 -0.1005 -0.3136
  656TMC3    C6 9763   3.541   3.677  15.872 -0.1428  0.2030 -0.1426
  656TMC3     C 9764   3.748   3.320  15.826  0.7631 -0.5138  0.1590
  656TMC3     O 9765   3.778   3.253  15.921 -0.1422  0.5274  0.2088
  656TMC3     H 9766   3.651   3.423  16.054  0.9107 -0.3956 -0.6130
  656TMC3    H1 9767   3.755   3.539  15.655 -0.1388  1.0867  0.8903
  656TMC3    H2 9768   3.465   3.754  15.884 -1.4122 -0.9647 -0.6899
  656TMC3    C7 9769   3.576   3.716  15.629 -0.0957 -0.4587 -0.6303
  656TMC3    C8 9770   3.468   3.585  16.091  0.3186  0.1069 -0.3621
  656TMC3    O1 9771   3.608   3.660  15.524 -0.1238  0.2311  0.0429
  656TMC3    O2 9772   3.426   3.696  16.118 -0.5450 -0.4068  0.1666
  657TMC3    C1 9773   2.691   2.863  14.606  0.4702  0.0260  0.1763
  657TMC3    C2 9774   2.737   2.903  14.727 -0.3766 -0.1890 -0.2150
  657TMC3    C3 9775   2.656   2.981  14.800  0.1323  0.0645  0.4100
  657TMC3    C4 9776   2.566   2.895  14.561 -0.1629 -0.0367  0.3779
  657TMC3    C5 9777   2.491   2.978  14.641 -0.3389  0.0107  0.4127
  657TMC3    C6 9778   2.537   3.029  14.758  0.8297  0.6675  0.1606
  657TMC3     C 9779   2.748   2.755  14.543 -0.0255  0.3759  0.5125
  657TMC3     O 9780   2.736   2.756  14.421  0.4671  0.7930 -0.0943
  657TMC3     H 9781   2.838   2.880  14.760  0.2858  1.8705 -0.8020
  657TMC3    H1 9782   2.529   2.854  14.467 -1.1222 -1.1672  1.2525
  657TMC3    H2 9783   2.483   3.106  14.812  0.4337  0.1375  0.5162
  657TMC3    C7 9784   2.370   3.046  14.590  0.9750 -0.2112  0.0899
  657TMC3    C8 9785   2.687   3.020  14.934  0.8676 -0.0116 -0.1593
  657TMC3    O1 9786   2.354   3.039  14.467  0.2822 -0.1949 -0.3230
  657TMC3    O2 9787   2.632   3.115  14.982 -0.3734 -0.2011 -0.2766
  658MPD2     C 9788   4.274   2.853  14.698  0.1548 -0.4521 -0.6446
  658MPD2    C1 9789   4.168   2.943  14.709  0.8133 -0.2926 -0.0240
  658MPD2    C2 9790   4.157   3.043  14.615 -1.1286  0.8898 -0.1246
  658MPD2    C3 9791   4.249   3.050  14.514 -0.5117  0.1550 -0.3220
  658MPD2    C4 9792   4.362   2.967  14.514  0.5134  0.7857  0.0539
  658MPD2    C5 9793   4.367   2.866  14.605  0.5038 -0.1330 -0.3121
  658MPD2     H 9794   4.069   3.105  14.596  0.7659  2.6513 -3.2135
  658MPD2    H1 9795   4.443   2.978  14.443  2.1729 -0.0467  1.8081
  658MPD2    H2 9796   4.294   2.772  14.767  0.8676 -0.1560 -0.5037
  658MPD2    H3 9797   4.459   2.812  14.623 -0.0570 -0.6672  0.9294
  658MPD2     N 9798   4.215   3.144  14.418 -0.1378  0.2256  0.2068
  658MPD2    H5 9799   4.131   3.196  14.442  1.3729  3.5600 -1.7807
  658MPD2    N1 9800   4.067   2.922  14.808  0.0089 -0.2117  0.9264
  658MPD2    H7 9801   4.082   2.844  14.871  0.1208 -0.1155  1.0158
  659TMC3    C1 9802   3.846   2.920  14.905 -0.9538  0.0545  0.2082
  659TMC3    C2 9803   3.862   2.912  15.041  0.0866  0.2736  0.6942
  659TMC3    C3 9804   3.746   2.935  15.113 -0.3944  0.0654  0.1042
  659TMC3    C4 9805   3.730   2.948  14.847 -0.7096 -0.3978  0.2531
  659TMC3    C5 9806   3.615   2.959  14.921  0.5780 -0.2363 -0.0237
  659TMC3    C6 9807   3.616   2.947  15.059 -0.3202 -0.1258 -0.0570
  659TMC3     C 9808   3.950   2.988  14.821 -0.7728 -0.5405  0.2825
  659TMC3     O 9809   3.906   3.069  14.742 -0.8751 -1.0117  0.4431
  659TMC3     H 9810   3.959   2.924  15.088  1.3074  1.7867 -2.1911
  659TMC3    H1 9811   3.719   2.961  14.739 -0.0768  0.4976  0.2927
  659TMC3    H2 9812   3.526   2.963  15.116  1.0303 -0.1677  2.0811
  659TMC3    C7 9813   3.484   3.000  14.860 -0.2732  0.8006  0.2682
  659TMC3    C8 9814   3.743   3.002  15.244  0.2678  0.4175 -0.0575
  659TMC3    O1 9815   3.420   3.065  14.939  0.5015 -0.3686  0.5073
  659TMC3    O2 9816   3.651   3.079  15.264 -0.0703  0.2268  0.1759
  660MPD2     C 9817   2.461   2.031  13.085 -0.0855  0.0361  0.2997
  660MPD2    C1 9818   2.323   2.038  13.106 -0.1436 -0.7372 -0.2138
  660MPD2    C2 9819   2.261   1.922  13.150  0.1968  0.6510  0.6396
  660MPD2    C3 9820   2.336   1.803  13.164 -0.3957  1.1173 -0.7443
  660MPD2    C4 9821   2.472   1.799  13.151 -0.5950 -0.1641  0.2026
  660MPD2    C5 9822   2.538   1.916  13.126 -0.0278 -0.4555  0.3611
  660MPD2     H 9823   2.156   1.925  13.176 -0.4351  2.3533 -2.0878
  660MPD2    H1 9824   2.530   1.708  13.165  0.9585  0.8429  0.2667
  660MPD2    H2 9825   2.500   2.130  13.062 -0.8965  0.3114  0.1111
  660MPD2    H3 9826   2.647   1.914  13.121 -0.0397  1.2265 -0.9143
  660MPD2     N 9827   2.274   1.677  13.197  0.1362  0.4002  0.1637
  660MPD2    H5 9828   2.332   1.594  13.205  0.1568  0.4153  0.1719
  660MPD2    N1 9829   2.252   2.157  13.084 -0.1501  0.2730  0.0843
  660MPD2    H7 9830   2.307   2.238  13.056  1.8470 -1.1437 -0.0389
  661TMC3    C1 9831   2.070   2.301  13.047  0.9971 -0.5478 -0.7864
  661TMC3    C2 9832   2.131   2.335  12.936 -0.0294  0.1772  0.0146
  661TMC3    C3 9833   2.052   2.410  12.845 -0.1007 -0.1151 -0.2431
  661TMC3    C4 9834   1.936   2.319  13.074  0.3611  0.1276  0.1826
  661TMC3    C5 9835   1.863   2.389  12.978 -0.3383  0.2387 -0.4133
  661TMC3    C6 9836   1.920   2.441  12.865  0.2936 -0.4563  0.1545
  661TMC3     C 9837   2.116   2.172  13.091 -0.2010 -0.1041 -0.0868
  661TMC3     O 9838   2.024   2.092  13.114  0.2800  0.6313  1.0630
  661TMC3     H 9839   2.237   2.321  12.914 -0.6370 -0.6105 -2.3988
  661TMC3    H1 9840   1.881   2.280  13.158  1.1901 -2.4960 -0.5078
  661TMC3    H2 9841   1.867   2.468  12.774  0.9847 -1.6421 -0.6104
  661TMC3    C7 9842   1.713   2.365  12.972 -0.5043  0.1145 -0.1623
  661TMC3    C8 9843   2.123   2.465  12.733  0.4077 -0.4455  0.4077
  661TMC3    O1 9844   1.650   2.391  13.078  0.1627 -0.0973 -0.3952
  661TMC3    O2 9845   2.224   2.411  12.696  0.5582 -0.3430 -0.2175
  662MPD2     C 9846   2.147   1.338  17.292 -0.3738  0.6109  0.3707
  662MPD2    C1 9847   2.113   1.272  17.411 -0.0564  0.0654  0.5032
  662MPD2    C2 9848   2.045   1.341  17.509  0.4898  0.6107  0.2871
  662MPD2    C3 9849   2.007   1.471  17.498  0.1547 -0.4499 -0.1119
  662MPD2    C4 9850   2.045   1.541  17.385  0.1341 -0.1846 -0.7334
  662MPD2    C5 9851   2.114   1.470  17.282  0.3251 -0.0029  0.6798
  662MPD2     H 9852   2.004   1.287  17.593 -0.9724 -0.4675 -1.1089
  662MPD2    H1 9853   2.019   1.642  17.358 -0.8660 -0.1181  0.5003
  662MPD2    H2 9854   2.196   1.299  17.204 -0.5543  0.6713  0.2425
  662MPD2    H3 9855   2.130   1.519  17.186  0.2045 -0.2892  0.5135
  662MPD2     N 9856   1.925   1.542  17.596  0.5962  0.6894  0.3335
  662MPD2    H5 9857   1.900   1.635  17.564 -0.0675 -0.3424 -2.1564
  662MPD2    N1 9858   2.114   1.134  17.416 -0.8728 -0.1663  0.4294
  662MPD2    H7 9859   2.075   1.087  17.497 -0.5364 -1.1904  0.0054
  663TMC3    C1 9860   2.156   0.912  17.363 -0.8518 -0.3033  0.2601
  663TMC3    C2 9861   2.061   0.887  17.455  0.1508 -0.1325  0.0468
  663TMC3    C3 9862   2.061   0.772  17.523  0.6779  0.0811 -0.4885
  663TMC3    C4 9863   2.265   0.834  17.345  0.2215  0.7727  0.2273
  663TMC3    C5 9864   2.272   0.726  17.431  0.3965  0.7467  0.6025
  663TMC3    C6 9865   2.177   0.693  17.523 -0.5896 -0.7366  0.4006
  663TMC3     C 9866   2.169   1.052  17.320  0.2137 -0.8052 -0.5070
  663TMC3     O 9867   2.243   1.077  17.222  0.4241 -0.0203 -0.7320
  663TMC3     H 9868   1.971   0.947  17.449  0.1726 -0.0951  0.0973
  663TMC3    H1 9869   2.339   0.847  17.267 -0.4023 -1.3224 -0.7030
  663TMC3    H2 9870   2.179   0.596  17.573 -1.5255 -1.1961 -0.4495
  663TMC3    C7 9871   2.338   0.608  17.370  0.1126 -0.1939  0.0670
  663TMC3    C8 9872   2.029   0.814  17.657 -0.6171  0.0793  0.5218
  663TMC3    O1 9873   2.441   0.639  17.307  0.1017 -0.1334 -0.6160
  663TMC3    O2 9874   2.027   0.935  17.674 -0.3125 -0.2506  0.3150
  664MPD2     C 9875   0.303   4.669   0.051 -0.7393  0.5425  0.7530
  664MPD2    C1 9876   0.367   0.049   0.074  0.3832  0.3520  0.0090
  664MPD2    C2 9877   0.375   0.090   0.205 -0.3042  0.6185  0.1575
  664MPD2    C3 9878   0.315   0.015   0.309  0.4744  0.4715 -0.8980
  664MPD2    C4 9879   0.245   4.630   0.273 -0.0008  0.1610 -0.7090
  664MPD2    C5 9880   0.240   4.596   0.147  0.7591 -0.7255  0.0672
  664MPD2     H 9881   0.423   0.182   0.236 -2.2615  0.7542  2.7929
  664MPD2    H1 9882   0.186   4.568   0.339  0.1590  0.8169  0.0447
  664MPD2    H2 9883   0.288   4.636  17.697 -0.3079 -0.5253  1.0321
  664MPD2    H3 9884   0.192   4.506   0.111  0.1865 -0.9076  1.2845
  664MPD2     N 9885   0.324   0.065   0.444 -0.3261 -0.4825  0.2505
  664MPD2    H5 9886   0.353   0.161   0.451  0.7981 -0.6551 -1.8738
  664MPD2    N1 9887   0.424   0.133  17.729 -0.5605 -0.1466 -0.0402
  664MPD2    H7 9888   0.484   0.209   0.014 -1.1500  0.9713 -1.5088
  665TMC3    C1 9889   0.299   0.071   0.680 -0.3243 -0.5633 -0.2438
  665TMC3    C2 9890   0.254   0.014   0.796  1.0400 -0.0471  0.2905
  665TMC3    C3 9891   0.311   0.052   0.908  0.0640 -0.3388 -0.9260
  665TMC3    C4 9892   0.383   0.184   0.680 -0.4497 -0.6823  0.5121
  665TMC3    C5 9893   0.404   0.240   0.802 -0.3350  0.4122 -0.1964
  665TMC3    C6 9894   0.384   0.170   0.917  0.6514 -0.3136 -0.0498
  665TMC3     C 9895   0.279   4.733   0.551 -0.0327  0.2835 -0.3987
  665TMC3     O 9896   0.217   4.631   0.560 -0.4580  0.1484  0.3744
  665TMC3     H 9897   0.182   4.670   0.793 -2.2770  2.8734  0.6337
  665TMC3    H1 9898   0.419   0.230   0.588 -1.8085 -2.7594 -1.0630
  665TMC3    H2 9899   0.411   0.203   1.017  0.7297  1.0792 -0.5271
  665TMC3    C7 9900   0.452   0.379   0.805  0.4446  0.4970 -0.5877
  665TMC3    C8 9901   0.263   4.727   1.031  0.6007 -0.0396  0.6770
  665TMC3    O1 9902   0.488   0.431   0.702  0.3997 -0.3897  0.4558
  665TMC3    O2 9903   0.269   0.070   1.124  0.2521 -0.4049 -0.7360
  666TMC3    C1 9904   4.690   4.468  10.035 -0.4718  0.3323  0.3165
  666TMC3    C2 9905   0.067   4.403  10.062  0.3630  0.5753  0.5960
  666TMC3    C3 9906   0.151   4.463  10.154  0.3576  0.3271  0.6022
  666TMC3    C4 9907   4.665   4.595  10.079 -0.0822 -0.2712  0.2433
  666TMC3    C5 9908   0.023   4.654  10.152  0.5089  0.0619 -0.2815
  666TMC3    C6 9909   0.141   4.588  10.197  0.5614  0.2155  0.1167
  666TMC3     C 9910   4.636   4.439   9.906  0.6255 -0.4398 -0.3631
  666TMC3     O 9911   4.714   4.381   9.833  0.1791 -0.3497  0.2149
  666TMC3     H 9912   0.076   4.298  10.039 -1.0461  0.3868  0.9169
  666TMC3    H1 9913   4.580   4.648  10.037  0.5223  0.1863 -0.3876
  666TMC3    H2 9914   0.190   4.622  10.287  2.0148  1.2034 -1.0466
  666TMC3    C7 9915   0.008   0.061  10.180  0.2373  0.5032 -0.3740
  666TMC3    C8 9916   0.227   4.378  10.249 -0.5673 -0.6816  0.0116
  666TMC3    O1 9917   4.634   0.104  10.166 -0.0503  0.3023 -0.1699
  666TMC3    O2 9918   0.174   4.270  10.270 -0.4830  0.3448  0.4071
  667MPD2     C 9919   1.186   4.246  14.329  0.3156 -0.1095  0.2189
  667MPD2    C1 9920   1.157   4.244  14.469 -0.1710 -0.4337 -0.3770
  667MPD2    C2 9921   1.100   4.120  14.517  0.0561  1.0312 -0.5670
  667MPD2    C3 9922   1.062   4.022  14.430 -0.0110  0.4629 -0.0432
  667MPD2    C4 9923   1.082   4.039  14.295 -0.3325 -0.5237 -0.6228
  667MPD2    C5 9924   1.152   4.141  14.245  0.4061  0.0746  0.2310
  667MPD2     H 9925   1.081   4.117  14.623 -0.2680 -1.7601 -0.7121
  667MPD2    H1 9926   1.056   3.961  14.225 -1.0734 -0.9640  0.1337
  667MPD2    H2 9927   1.222   4.341  14.293 -1.7475  0.2419 -0.8934
  667MPD2    H3 9928   1.168   4.160  14.140 -1.0700  0.3355  0.0513
  667MPD2     N 9929   0.982   3.904  14.468 -0.0542  0.3419  0.4806
  667MPD2    H5 9930   0.948   3.849  14.390  0.1372  1.3801 -0.3367
  667MPD2    N1 9931   1.165   4.345  14.562 -0.2813 -0.0731 -0.9449
  667MPD2    H7 9932   1.124   4.331  14.654 -0.4264  2.0352 -0.6838
  668TMC3    C1 9933   1.135   4.567  14.626 -0.0135  0.5913  0.8269
  668TMC3    C2 9934   1.191   4.686  14.651  0.0010 -0.0118  0.4139
  668TMC3    C3 9935   1.113   0.041  14.708 -0.3587 -1.3076  0.3474
  668TMC3    C4 9936   1.003   4.538  14.648  0.4587  0.5036  0.1987
  668TMC3    C5 9937   0.926   4.637  14.698 -0.3021  0.7366  0.2286
  668TMC3    C6 9938   0.982   0.017  14.733  0.6066  0.3689  0.6489
  668TMC3     C 9939   1.211   4.475  14.545 -0.5140  0.2455 -0.1416
  668TMC3     O 9940   1.297   4.512  14.466 -0.7221  0.6799  0.2721
  668TMC3     H 9941   1.299   4.697  14.639 -0.0567 -1.7502 -1.8343
  668TMC3    H1 9942   0.954   4.453  14.602 -1.5059  0.5913  2.1365
  668TMC3    H2 9943   0.926   0.091  14.789 -1.8645 -1.3642  0.4613
  668TMC3    C7 9944   0.814   4.598  14.775  0.9505  0.0703  0.4822
  668TMC3    C8 9945   1.181   0.139  14.785  0.1769 -0.2083 -0.2483
  668TMC3    O1 9946   0.797   4.480  14.800  0.2584 -0.1794  0.1182
  668TMC3    O2 9947   1.111   0.181  14.875  0.4997 -0.6916  0.2916
  669TMC3    C1 9948   3.906   0.283  14.416 -0.4729 -0.8357  0.6676
  669TMC3    C2 9949   3.817   0.290  14.313 -0.5513  0.5853 -0.1547
  669TMC3    C3 9950   3.861   0.276  14.186 -0.4367  0.4410 -0.5469
  669TMC3    C4 9951   4.041   0.269  14.400 -0.1507  0.3494 -0.6912
  669TMC3    C5 9952   4.078   0.255  14.267 -0.6150 -0.0032  0.1126
  669TMC3    C6 9953   3.993   0.270  14.157 -0.0337 -0.0881 -0.2421
  669TMC3     C 9954   3.859   0.226  14.541 -0.6746  0.8171 -0.2780
  669TMC3     O 9955   3.760   0.154  14.520  0.0269 -0.3192 -0.4231
  669TMC3     H 9956   3.710   0.288  14.330 -0.7380 -0.9078 -1.4760
  669TMC3    H1 9957   4.118   0.265  14.476  1.8153 -0.1807 -2.7166
  669TMC3    H2 9958   4.026   0.251  14.056 -0.1879 -0.5538 -0.2035
  669TMC3    C7 9959   4.218   0.263  14.241 -0.3340  0.0589  0.6045
  669TMC3    C8 9960   3.769   0.303  14.080 -0.3046  0.4645  0.2164
  669TMC3    O1 9961   4.283   0.333  14.320 -0.5577  0.6626 -0.1382
  669TMC3    O2 9962   3.797   0.258  13.966  0.2405 -0.3655 -0.0227
  670MPD2     C 9963   2.389   2.089  13.446  0.5186  0.1648 -0.2351
  670MPD2    C1 9964   2.434   2.211  13.511 -0.4732  0.5629 -1.0464
  670MPD2    C2 9965   2.369   2.252  13.623  0.0202  0.3707  0.0761
  670MPD2    C3 9966   2.272   2.170  13.684 -0.0125  0.1445 -0.8172
  670MPD2    C4 9967   2.241   2.054  13.622  0.5355 -0.8123  0.4572
  670MPD2    C5 9968   2.294   2.015  13.509 -0.1500  1.0617 -0.0469
  670MPD2     H 9969   2.392   2.350  13.663 -0.8953  0.8092 -0.4607
  670MPD2    H1 9970   2.160   1.993  13.661  0.1469 -0.5704  0.0300
  670MPD2    H2 9971   2.430   2.048  13.355  1.3855  0.8639 -0.1580
  670MPD2    H3 9972   2.262   1.926  13.457  0.8241  0.5531  0.2336
  670MPD2     N 9973   2.224   2.207  13.812  0.1110 -0.6049  0.0878
  670MPD2    H5 9974   2.264   2.291  13.852 -0.8428  0.1805 -0.6071
  670MPD2    N1 9975   2.538   2.292  13.459 -0.8465 -0.3427  0.2269
  670MPD2    H7 9976   2.566   2.375  13.512 -0.5562 -0.3893  0.1480
  671TMC3    C1 9977   2.069   2.207  14.001  0.0661 -0.1212  0.3668
  671TMC3    C2 9978   2.159   2.226  14.101 -0.1084 -0.4905  0.1318
  671TMC3    C3 9979   2.152   2.179  14.227  0.0349 -0.0058  0.4330
  671TMC3    C4 9980   1.945   2.173  14.048 -0.2698 -0.1789 -0.4571
  671TMC3    C5 9981   1.935   2.123  14.173 -0.3584 -0.1505  0.0018
  671TMC3    C6 9982   2.035   2.123  14.266 -0.0886  0.5720 -0.0683
  671TMC3     C 9983   2.107   2.158  13.869  0.4066  0.1954 -0.0484
  671TMC3     O 9984   2.031   2.066  13.823  0.0338 -0.3322  0.5293
  671TMC3     H 9985   2.259   2.237  14.063  0.4377 -1.1349  1.3811
  671TMC3    H1 9986   1.879   2.148  13.966  1.6857 -1.1261 -1.7314
  671TMC3    H2 9987   2.021   2.094  14.370 -2.0990 -2.3335 -1.1328
  671TMC3    C7 9988   1.839   2.017  14.184  0.7471 -0.9905  0.0919
  671TMC3    C8 9989   2.266   2.118  14.284  0.4027 -0.0470 -0.2367
  671TMC3    O1 9990   1.891   1.909  14.217  1.0505 -0.2519  0.3415
  671TMC3    O2 9991   2.351   2.080  14.204 -0.4455  0.0957  0.5648
  672MPD2     C 9992   2.675   2.895   0.256 -0.0031 -0.7488  0.3340
  672MPD2    C1 9993   2.739   2.792   0.321  0.6682  1.1604 -0.6862
  672MPD2    C2 9994   2.862   2.810   0.391  0.1261 -0.1123  0.0966
  672MPD2    C3 9995   2.926   2.929   0.379 -0.1300  0.7142  0.2101
  672MPD2    C4 9996   2.859   3.032   0.310 -0.4697  0.8252 -0.2219
  672MPD2    C5 9997   2.740   3.013   0.253  0.2117 -1.0097  0.1760
  672MPD2     H 9998   2.909   2.728   0.445 -0.6691 -0.4520  0.2848
  672MPD2    H1 9999   2.883   3.138   0.299 -1.1395  0.8867 -1.1180
  672MPD2    H210000   2.577   2.876   0.213 -1.0126 -1.4593  2.9660
  672MPD2    H310001   2.688   3.101   0.219  1.4988 -1.0750 -1.9048
  672MPD2     N10002   3.045   2.962   0.451  0.1358  0.4663 -0.6071
  672MPD2    H510003   3.075   3.058   0.456  0.4907  0.3675 -0.8744
  672MPD2    N110004   2.671   2.669   0.314 -0.0778  0.1657 -0.0313
  672MPD2    H710005   2.571   2.662   0.298 -0.4411 -0.0849  2.3157
  673TMC3    C110006   2.644   2.441   0.351  0.5535 -0.0545  0.0797
  673TMC3    C210007   2.700   2.317   0.337 -0.1150  0.0292 -0.2237
  673TMC3    C310008   2.621   2.210   0.363  0.0330 -0.3583  0.0723
  673TMC3    C410009   2.512   2.458   0.386  0.2496 -0.8495  0.0804
  673TMC3    C510010   2.436   2.344   0.393  0.2602 -0.5810 -0.4620
  673TMC3    C610011   2.487   2.216   0.380  0.2831 -0.1777  0.0256
  673TMC3     C10012   2.734   2.553   0.339 -0.2947  0.4967 -0.2240
  673TMC3     O10013   2.856   2.534   0.329 -0.0491  0.1525 -0.4366
  673TMC3     H10014   2.798   2.315   0.290 -0.7375 -1.1569 -1.4912
  673TMC3    H110015   2.475   2.556   0.415  0.0887 -0.3357 -1.8404
  673TMC3    H210016   2.429   2.129   0.409 -0.2978 -0.1198 -0.9887
  673TMC3    C710017   2.303   2.362   0.444  0.0199  0.0570  0.0458
  673TMC3    C810018   2.678   2.081   0.365  0.1595 -0.2334  0.7018
  673TMC3    O110019   2.256   2.270   0.507 -0.3559 -0.8233 -0.1099
  673TMC3    O210020   2.612   1.976   0.348  0.1199  0.1335  0.7915
  674MPD2     C10021   2.154   2.517  17.485  0.0181  0.3291 -0.0747
  674MPD2    C110022   2.117   2.411  17.567  0.1413  1.4598  0.4940
  674MPD2    C210023   2.051   2.436  17.685 -0.6054  0.0039 -0.4976
  674MPD2    C310024   2.012   2.567  17.708  0.9797  0.1591 -0.4664
  674MPD2    C410025   2.046   2.665  17.622 -0.0420  0.0604  0.6486
  674MPD2    C510026   2.125   2.647  17.512 -0.2015  0.3411  0.8735
  674MPD2     H10027   2.011   2.351  17.740 -4.0833  2.1232  0.2593
  674MPD2    H110028   2.012   2.763  17.652  0.4147 -0.3209  2.3919
  674MPD2    H210029   2.205   2.506  17.390 -0.1261 -0.7731 -0.0260
  674MPD2    H310030   2.151   2.720  17.436 -1.1042 -1.2528 -0.9427
  674MPD2     N10031   1.932   2.575   0.076 -0.3612  1.0562  0.0841
  674MPD2    H510032   1.921   2.492   0.134  0.3375  1.4198  0.7376
  674MPD2    N110033   2.153   2.275  17.541  0.0874  0.6775  0.0376
  674MPD2    H710034   2.154   2.209  17.619 -1.1974 -1.6390 -1.9005
  675TMC3    C110035   2.278   2.107  17.459 -0.7825 -1.2991  0.2539
  675TMC3    C210036   2.189   2.019  17.511  0.1566 -0.3102 -0.7516
  675TMC3    C310037   2.244   1.930  17.605 -0.3236  0.5011 -0.6807
  675TMC3    C410038   2.402   2.123  17.518  0.1092  0.1483  0.4798
  675TMC3    C510039   2.447   2.034  17.610  0.1019  0.5660 -0.1748
  675TMC3    C610040   2.372   1.923  17.641  0.2893 -0.4580  0.9242
  675TMC3     C10041   2.216   2.230  17.428  0.4115  0.5803 -0.1409
  675TMC3     O10042   2.212   2.279  17.316  0.1477  0.0355 -0.1365
  675TMC3     H10043   2.086   2.019  17.477 -0.1434  2.0295  0.1730
  675TMC3    H110044   2.473   2.201  17.493 -0.9071  1.2185  0.9408
  675TMC3    H210045   2.409   1.860  17.721  1.0644 -1.8367 -0.5241
  675TMC3    C710046   2.582   2.048  17.667  0.5691  0.0174  0.4036
  675TMC3    C810047   2.152   1.869  17.691  0.2140 -0.0051 -0.0608
  675TMC3    O110048   2.622   1.948  17.721 -0.5660  0.8451 -0.2599
  675TMC3    O210049   2.038   1.916  17.691  0.0528 -0.1045 -0.3645
  676MPD2     C10050   0.640   0.996  11.173 -0.7621 -0.5082 -0.2996
  676MPD2    C110051   0.526   0.949  11.230  0.7189 -0.1092 -0.1200
  676MPD2    C210052   0.491   0.817  11.210  0.7456  0.2791  0.4124
  676MPD2    C310053   0.573   0.742  11.131 -0.5090 -0.3621 -0.4816
  676MPD2    C410054   0.695   0.791  11.077  0.1353 -0.4648  0.7677
  676MPD2    C510055   0.727   0.920  11.108 -0.2058 -0.3006 -0.3930
  676MPD2     H10056   0.388   0.786  11.223  1.3178 -1.6619  0.2319
  676MPD2    H110057   0.770   0.734  11.023 -0.6765  0.0871 -0.9358
  676MPD2    H210058   0.685   1.093  11.189 -1.6384  0.0084 -0.9752
  676MPD2    H310059   0.818   0.972  11.079 -0.7436  0.0181 -1.5484
  676MPD2     N10060   0.541   0.611  11.086  0.3261 -0.3028 -0.1188
  676MPD2    H510061   0.619   0.572  11.034  0.2147 -0.3409 -0.2568
  676MPD2    N110062   0.427   1.032  11.298  0.2078 -0.0003 -0.0862
  676MPD2    H710063   0.354   0.978  11.344  0.3284  0.5755  0.7873
  677TMC3    C110064   0.327   1.235  11.379  0.5575 -0.6293 -0.8465
  677TMC3    C210065   0.208   1.161  11.389 -0.1425  0.0473  0.9630
  677TMC3    C310066   0.108   1.226  11.454 -0.1862  0.1211 -0.1945
  677TMC3    C410067   0.349   1.361  11.438 -0.5698  0.3180 -0.3458
  677TMC3    C510068   0.247   1.413  11.511 -0.1414  0.5034  0.0113
  677TMC3    C610069   0.128   1.341  11.525 -0.0727 -0.1343 -1.0221
  677TMC3     C10070   0.443   1.165  11.315 -0.5116  0.0495  0.8153
  677TMC3     O10071   0.531   1.237  11.282  0.0607  0.3343  0.2688
  677TMC3     H10072   0.183   1.072  11.333  1.9691  1.1266 -1.7308
  677TMC3    H110073   0.453   1.389  11.455 -0.1728 -1.2259 -0.2435
  677TMC3    H210074   0.042   1.383  11.575  1.6452  2.2796 -0.0641
  677TMC3    C710075   0.286   1.479  11.635 -0.2958  0.3716 -0.4298
  677TMC3    C810076   4.726   1.158  11.465 -0.3283  0.0557 -0.3837
  677TMC3    O110077   0.209   1.458  11.730 -0.1717  0.3256 -0.3142
  677TMC3    O210078   4.653   1.170  11.369  0.0529 -0.0462  0.6784
  678MPD2     C10079   1.540   1.749   1.734 -0.2107 -0.0756  0.5056
  678MPD2    C110080   1.541   1.642   1.643 -0.1920 -0.7855  0.4171
  678MPD2    C210081   1.426   1.621   1.557 -0.1192 -0.3022 -0.2170
  678MPD2    C310082   1.311   1.690   1.567  0.1618  0.5521  0.2315
  678MPD2    C410083   1.307   1.783   1.672 -0.4881 -0.2404  0.2567
  678MPD2    C510084   1.416   1.818   1.740  0.4711 -0.6137 -0.4676
  678MPD2     H10085   1.433   1.545   1.480 -0.9889  0.8094 -1.3990
  678MPD2    H110086   1.217   1.839   1.693 -0.8798 -1.2979  1.4112
  678MPD2    H210087   1.625   1.783   1.792 -0.8165 -1.3227  2.1225
  678MPD2    H310088   1.405   1.897   1.814 -0.1338 -0.3534 -0.8323
  678MPD2     N10089   1.203   1.655   1.480  0.5000  0.2794 -0.5850
  678MPD2    H510090   1.223   1.585   1.409  1.1531  0.3658 -0.4855
  678MPD2    N110091   1.645   1.551   1.618  0.8415 -0.3258 -0.1620
  678MPD2    H710092   1.636   1.482   1.544  2.1796 -0.4186 -0.2369
  679TMC3    C110093   1.985   1.254   1.653  0.1918 -0.4324 -0.2097
  679TMC3    C210094   1.920   1.367   1.702 -0.3557 -0.1463 -0.0161
  679TMC3    C310095   1.850   1.448   1.612  0.4739 -0.0824  0.2508
  679TMC3    C410096   1.985   1.232   1.517 -0.2627  0.4262 -0.9535
  679TMC3    C510097   1.911   1.319   1.429  0.2700 -0.0362  0.2137
  679TMC3    C610098   1.838   1.428   1.482 -0.1862 -0.4233 -0.8811
  679TMC3     C10099   2.012   1.139   1.734  0.1670 -0.4118 -0.5358
  679TMC3     O10100   2.052   1.040   1.673 -0.3336 -0.0406  0.2948
  679TMC3     H10101   1.904   1.389   1.806  0.2209 -1.3844  0.3378
  679TMC3    H110102   2.033   1.147   1.471  0.5982  0.0409  0.6412
  679TMC3    H210103   1.782   1.491   1.414  0.0083 -2.3222 -2.8208
  679TMC3    C710104   1.925   1.312   1.285 -0.0500  0.2985  0.3207
  679TMC3    C810105   1.771   1.552   1.673  0.1613 -0.6738 -0.2173
  679TMC3    O110106   1.823   1.349   1.220 -0.0803 -0.5884 -0.1039
  679TMC3    O210107   1.793   1.600   1.784 -0.2638  0.0319  0.4673
  680MPD2     C10108   1.936   4.663  13.779 -0.6026  0.1531 -0.1825
  680MPD2    C110109   2.038   4.585  13.815  0.5639  0.0148  0.7579
  680MPD2    C210110   2.155   4.633  13.864 -0.0458  0.0323  0.3388
  680MPD2    C310111   2.165   0.037  13.891  0.3718 -0.2762  0.5651
  680MPD2    C410112   2.059   0.121  13.859 -0.6127 -0.1403  0.4685
  680MPD2    C510113   1.953   0.061  13.795 -0.2354  0.6879 -0.0372
  680MPD2     H10114   2.230   4.559  13.889 -0.7746 -0.3998  1.2136
  680MPD2    H110115   2.054   0.228  13.870 -2.7241 -0.2060  0.2192
  680MPD2    H210116   1.838   4.626  13.752 -1.3699 -0.0540  2.8247
  680MPD2    H310117   1.873   0.123  13.758 -0.6191 -0.3527 -0.9574
  680MPD2     N10118   2.284   0.092  13.942  0.4491  0.1014  0.0080
  680MPD2    H510119   2.273   0.191  13.959 -1.3347 -0.5526  2.8656
  680MPD2    N110120   2.031   4.446  13.810  0.1028 -0.0088 -0.2726
  680MPD2    H710121   2.113   4.398  13.847  0.5192 -0.2016 -1.4230
  681TMC3    C110122   1.954   4.238  13.773 -0.2851 -0.3226  0.5948
  681TMC3    C210123   1.866   4.147  13.815  0.4163 -0.9057  0.0826
  681TMC3    C310124   1.887   4.018  13.772 -0.3942  0.2824 -0.0429
  681TMC3    C410125   2.070   4.205  13.708  0.3028 -0.4609 -0.6289
  681TMC3    C510126   2.091   4.070  13.674 -0.1785 -0.7032  0.1451
  681TMC3    C610127   2.000   3.979  13.703  0.4294 -1.3255  1.3578
  681TMC3     C10128   1.919   4.377  13.773  0.3768  0.0491 -0.1290
  681TMC3     O10129   1.807   4.411  13.739  0.9346 -0.8700  0.5787
  681TMC3     H10130   1.773   4.177  13.862 -1.4261 -1.7216 -3.0274
  681TMC3    H110131   2.140   4.283  13.680  0.9256 -1.1895 -1.1046
  681TMC3    H210132   1.999   3.876  13.667  0.8977 -0.3449 -1.4341
  681TMC3    C710133   2.215   4.030  13.607 -0.3203 -0.3443  0.0448
  681TMC3    C810134   1.814   3.920  13.841  0.1869  0.5976  0.0190
  681TMC3    O110135   2.241   3.914  13.601  0.1167 -0.0074  0.0176
  681TMC3    O210136   1.793   3.810  13.790  0.1427 -0.1042 -0.3857
  682MPD2     C10137   4.303   1.301  10.630 -0.8250 -0.4122 -0.5343
  682MPD2    C110138   4.266   1.186  10.686 -0.2252  0.6187 -0.0450
  682MPD2    C210139   4.222   1.186  10.818  0.4470 -0.0671  0.3159
  682MPD2    C310140   4.213   1.309  10.884 -0.3594 -0.2085  0.4698
  682MPD2    C410141   4.255   1.426  10.822  0.5881  0.0662  0.0086
  682MPD2    C510142   4.297   1.420  10.696 -0.3089 -0.0840 -0.1911
  682MPD2     H10143   4.229   1.091  10.869  0.1468 -0.3968 -0.2628
  682MPD2    H110144   4.269   1.522  10.871 -2.4128 -0.5967  2.1157
  682MPD2    H210145   4.343   1.301  10.529  3.2669  0.1345  1.0756
  682MPD2    H310146   4.341   1.505  10.645  2.3591 -1.0461  0.5370
  682MPD2     N10147   4.165   1.315  11.019 -0.0193  0.2814 -0.7314
  682MPD2    H510148   4.161   1.405  11.065  0.7280 -0.2389  0.3384
  682MPD2    N110149   4.300   1.057  10.630  0.1152 -0.2159 -0.8387
  682MPD2    H710150   4.289   0.981  10.696  0.5255  0.2296 -0.2601
  683TMC3    C110151   4.033   1.373  11.400  0.2364 -0.5225  0.9163
  683TMC3    C210152   3.918   1.326  11.449  0.2777  0.1806 -0.3912
  683TMC3    C310153   3.868   1.229  11.365  0.6718 -0.2989  0.6135
  683TMC3    C410154   4.097   1.344  11.290  0.4895  0.5068  0.1282
  683TMC3    C510155   4.043   1.247  11.215  0.4369  0.1660  0.1724
  683TMC3    C610156   3.928   1.181  11.254  0.1772  0.5412 -0.3149
  683TMC3     C10157   4.110   1.445  11.504  0.3410  0.5380  0.4405
  683TMC3     O10158   4.048   1.510  11.585  0.6454  0.0027 -0.4469
  683TMC3     H10159   3.874   1.365  11.540 -1.7877  0.5287 -1.5484
  683TMC3    H110160   4.187   1.403  11.275  2.3953 -1.5715  3.3984
  683TMC3    H210161   3.887   1.098  11.197  0.2035  0.1913  0.1731
  683TMC3    C710162   4.084   1.219  11.076  0.2772  0.1522  0.5354
  683TMC3    C810163   3.763   1.153  11.427 -0.4333  0.9526 -0.9490
  683TMC3    O110164   4.043   1.116  11.026  0.2781  0.0862 -0.1878
  683TMC3    O210165   3.723   1.191  11.534  0.2381 -0.1637  0.4554
  684MPD2     C10166   2.047   0.113  16.802  0.2770 -0.0197  0.5671
  684MPD2    C110167   2.042   0.173  16.681 -0.1665  0.9458  0.1038
  684MPD2    C210168   2.016   0.309  16.678  1.1035  0.5210  0.0124
  684MPD2    C310169   2.008   0.391  16.790  0.4378  0.7007  0.8802
  684MPD2    C410170   2.017   0.325  16.912 -0.5960 -0.2816 -0.3682
  684MPD2    C510171   2.024   0.188  16.914 -0.0460 -0.5104  0.5858
  684MPD2     H10172   2.027   0.359  16.582 -0.7468 -0.3916 -0.6829
  684MPD2    H110173   2.014   0.376  17.008 -0.0543 -2.5114  0.8475
  684MPD2    H210174   2.055   0.005  16.805  1.5230  0.1189  2.4962
  684MPD2    H310175   2.031   0.137  17.009  0.3399 -0.9086  0.3464
  684MPD2     N10176   1.985   0.532  16.790 -0.4394 -0.6158  0.1606
  684MPD2    H510177   1.986   0.582  16.878 -0.8402 -0.7957  0.2647
  684MPD2    N110178   2.060   0.107  16.554 -0.5345 -0.0827  0.2296
  684MPD2    H710179   2.086   0.173  16.482 -1.3638 -1.3978 -1.2736
  685TMC3    C110180   2.138   4.695  16.404  0.2621 -0.4358 -0.0538
  685TMC3    C210181   2.063   0.027  16.317 -0.1810  0.5463 -0.3689
  685TMC3    C310182   2.118   0.068  16.200 -0.2610  0.0622  0.1840
  685TMC3    C410183   2.267   4.662  16.372 -0.6768 -0.4778  0.8280
  685TMC3    C510184   2.320   4.702  16.250 -0.5570  0.5444  0.5146
  685TMC3    C610185   2.247   0.040  16.165 -0.2974 -0.5961 -0.3120
  685TMC3     C10186   2.108   4.713  16.540  0.4951  0.5781 -0.4649
  685TMC3     O10187   2.110   4.619  16.617  0.3191  0.0266  0.1952
  685TMC3     H10188   1.956   0.027  16.329 -0.0665 -1.1929  0.7550
  685TMC3    H110189   2.333   4.619  16.447  0.7728 -0.0341 -0.1831
  685TMC3    H210190   2.280   0.078  16.069  0.1669 -1.5085 -0.5089
  685TMC3    C710191   2.458   4.649  16.229  0.1414 -0.1369  0.0605
  685TMC3    C810192   2.039   0.134  16.102 -0.4999  0.2473 -0.6039
  685TMC3    O110193   2.488   4.544  16.282  0.7564  0.3255  0.0116
  685TMC3    O210194   2.087   0.141  15.992 -0.1846 -0.3276 -0.0873
  686MPD2     C10195   3.586   0.434  15.766  0.4211 -0.1639  0.4757
  686MPD2    C110196   3.593   0.291  15.784  0.1334 -0.1792  0.0992
  686MPD2    C210197   3.604   0.215  15.670 -0.6658 -0.3125  0.1641
  686MPD2    C310198   3.611   0.270  15.543 -0.0387 -0.5993  0.7123
  686MPD2    C410199   3.592   0.406  15.532  0.2914  0.3991 -0.6031
  686MPD2    C510200   3.585   0.488  15.637 -0.6854  0.3549 -0.0031
  686MPD2     H10201   3.621   0.109  15.686 -0.7250 -0.2302  0.7776
  686MPD2    H110202   3.577   0.456  15.436  1.2928  1.5879 -0.1463
  686MPD2    H210203   3.566   0.493  15.855 -0.4231  0.7036 -0.2901
  686MPD2    H310204   3.585   0.595  15.623  2.8754  0.4345  0.4175
  686MPD2     N10205   3.637   0.205  15.421 -0.0060  0.1998 -0.9485
  686MPD2    H510206   3.636   0.275  15.348  0.2267  0.5421 -0.6210
  686MPD2    N110207   3.578   0.250  15.918  0.0688 -0.1231  0.4776
  686MPD2    H710208   3.586   0.314  15.996 -1.7387 -0.5616  1.0267
  687TMC3    C110209   3.598   4.714  15.470 -0.1076 -0.5991  0.7810
  687TMC3    C210210   3.463   4.729  15.494 -0.3263  0.0427  0.8417
  687TMC3    C310211   3.410   4.673  15.604 -0.1379  0.2086 -0.0829
  687TMC3    C410212   3.676   4.632  15.548 -0.0171 -0.2473 -0.5999
  687TMC3    C510213   3.614   4.555  15.650  0.4675 -0.4140  0.3840
  687TMC3    C610214   3.488   4.594  15.685 -0.0783  0.1267 -0.8868
  687TMC3     C10215   3.664   0.072  15.388  0.2924  0.2226  0.0376
  687TMC3     O10216   3.737   0.030  15.301 -0.5173 -0.9765 -0.1235
  687TMC3     H10217   3.404   0.045  15.420 -0.4172  0.0880  0.9476
  687TMC3    H110218   3.781   4.621  15.525  0.3226 -0.3725  1.0000
  687TMC3    H210219   3.441   4.539  15.766 -0.6624  0.7454 -0.8018
  687TMC3    C710220   3.690   4.539  15.774  0.0081 -0.9682 -0.7673
  687TMC3    C810221   3.264   4.665  15.629 -0.5243  0.3677  0.1113
  687TMC3    O110222   3.643   4.465  15.859  0.2669 -0.4250 -0.0142
  687TMC3    O210223   3.221   4.603  15.729  0.5227  0.0293 -0.2027
  688MPD2     C10224   2.875   3.799  17.150 -0.6495 -0.1400 -0.8248
  688MPD2    C110225   2.876   3.662  17.178  0.4442 -0.5450  1.2479
  688MPD2    C210226   2.942   3.578  17.087  0.1107  0.2282 -0.5116
  688MPD2    C310227   3.000   3.628  16.973  0.9894  0.0127 -0.1829
  688MPD2    C410228   2.986   3.759  16.939  0.4310  0.5326 -0.1631
  688MPD2    C510229   2.926   3.840  17.031 -1.1400 -0.4093  0.4948
  688MPD2     H10230   2.944   3.474  17.117 -0.8930  0.1216 -0.8397
  688MPD2    H110231   3.015   3.804  16.845  0.2817  0.2884 -0.3261
  688MPD2    H210232   2.834   3.878  17.211  0.3940 -0.9114  0.8740
  688MPD2    H310233   2.911   3.946  17.010 -0.9205  0.0106  2.3903
  688MPD2     N10234   3.062   3.547  16.877  0.2820  0.5446 -0.0343
  688MPD2    H510235   3.107   3.593  16.799  0.6970 -0.3639 -0.3331
  688MPD2    N110236   2.816   3.609  17.298  0.2426  0.7134 -0.5603
  688MPD2    H710237   2.810   3.510  17.318  0.3165  1.0588  1.1687
  689TMC3    C110238   2.731   3.609  17.512 -0.9794 -0.8638 -0.1636
  689TMC3    C210239   2.720   3.679  17.634  0.0161  0.1623 -0.5040
  689TMC3    C310240   2.724   3.602   0.002 -0.6949  0.0330  0.0048
  689TMC3    C410241   2.753   3.475  17.507  0.3760  0.3430  0.6242
  689TMC3    C510242   2.745   3.403  17.628 -0.8883  0.1820  0.3113
  689TMC3    C610243   2.736   3.465  17.748  0.2067  0.1616  0.3130
  689TMC3     C10244   2.768   3.689  17.399  0.8390  0.1411  0.2173
  689TMC3     O10245   2.778   3.811  17.417 -0.0388  0.2466 -0.3925
  689TMC3     H10246   2.718   3.787  17.630  0.0411  0.1717 -0.2113
  689TMC3    H110247   2.783   3.414  17.423  1.0277  1.9165 -0.2991
  689TMC3    H210248   2.757   3.415   0.093 -1.0495  1.0900  1.0914
  689TMC3    C710249   2.768   3.258  17.629 -0.1458  0.1925 -0.2598
  689TMC3    C810250   2.693   3.652   0.134 -0.1513  0.2486 -0.0782
  689TMC3    O110251   2.848   3.218  17.714  0.2499  0.0010  0.1234
  689TMC3    O210252   2.695   3.583   0.231  0.5493  0.0480  0.0057
  690MPD2     C10253   0.850   0.843  15.682 -1.0770  0.3582  0.6540
  690MPD2    C110254   0.777   0.878  15.567 -0.4879  0.2227 -0.5146
  690MPD2    C210255   0.840   0.943  15.465 -0.5400 -0.1983  0.2853
  690MPD2    C310256   0.974   0.973  15.468  0.8838 -0.5609 -0.5662
  690MPD2    C410257   1.047   0.935  15.581  0.2177  0.3741  0.7098
  690MPD2    C510258   0.985   0.870  15.681 -0.6287 -0.2253 -0.3318
  690MPD2     H10259   0.789   0.988  15.380  1.6845 -0.3056 -1.1259
  690MPD2    H110260   1.156   0.937  15.584  0.2044  0.8459  0.8957
  690MPD2    H210261   0.813   0.800  15.774 -0.5109  0.8066  1.0908
  690MPD2    H310262   1.047   0.830  15.761 -1.5630 -2.8490 -0.9057
  690MPD2     N10263   1.030   1.039  15.351 -0.3276  1.0354  0.9210
  690MPD2    H510264   0.967   1.059  15.274  0.0740 -1.4491 -0.0481
  690MPD2    N110265   0.639   0.848  15.561 -0.0967 -0.7996  0.2268
  690MPD2    H710266   0.593   0.862  15.471 -0.0101 -0.9742  0.1553
  691TMC3    C110267   0.447   0.723  15.598  0.5411  0.6386 -0.0672
  691TMC3    C210268   0.359   0.806  15.537  0.2323  0.5289  0.1233
  691TMC3    C310269   0.225   0.760  15.525 -0.5416  0.3772  0.8547
  691TMC3    C410270   0.405   0.601  15.642  0.5809 -0.9577 -0.4710
  691TMC3    C510271   0.275   0.567  15.651 -0.0271 -0.7212  0.0219
  691TMC3    C610272   0.180   0.648  15.593  0.2306  0.1226  0.1393
  691TMC3     C10273   0.572   0.771  15.654  0.5522 -0.3003  0.2509
  691TMC3     O10274   0.605   0.729  15.763  0.3332 -0.4258  0.0970
  691TMC3     H10275   0.374   0.910  15.511  3.0208  0.4802  1.5165
  691TMC3    H110276   0.476   0.536  15.690  0.2362 -0.3431  0.8814
  691TMC3    H210277   0.074   0.632  15.609  0.1607  0.7051  0.2744
  691TMC3    C710278   0.237   0.460  15.734  0.4044 -0.0736 -0.1058
  691TMC3    C810279   0.138   0.842  15.448 -0.0513 -0.2229  0.5753
  691TMC3    O110280   0.330   0.419  15.805 -0.0925 -0.0222  0.3270
  691TMC3    O210281   0.201   0.915  15.365  0.1557  0.2098  0.2739
  692TMC3    C110282   1.810   1.570  15.832 -0.3643 -0.1363 -0.2286
  692TMC3    C210283   1.940   1.566  15.862  0.0908 -0.5282 -0.5165
  692TMC3    C310284   2.013   1.447  15.854  0.0459 -0.5848 -1.4349
  692TMC3    C410285   1.743   1.459  15.812  1.3448 -0.2961  0.2884
  692TMC3    C510286   1.808   1.340  15.792 -0.5415 -0.3709  0.5157
  692TMC3    C610287   1.943   1.338  15.800 -0.2163 -0.3397 -0.1470
  692TMC3     C10288   1.731   1.687  15.853 -0.2948  0.0413 -0.1662
  692TMC3     O10289   1.612   1.692  15.825  0.3592 -0.1691 -0.8573
  692TMC3     H10290   2.008   1.647  15.838 -1.0168  0.0317 -1.7387
  692TMC3    H110291   1.636   1.465  15.797  1.1929 -0.9206  1.1190
  692TMC3    H210292   2.002   1.248  15.795  0.6463  0.2057  0.3611
  692TMC3    C710293   1.742   1.218  15.841 -0.9130  0.0641 -0.2207
  692TMC3    C810294   2.050   1.414  15.992  0.4750 -0.4251  0.6856
  692TMC3    O110295   1.639   1.193  15.780  0.5482  0.0072 -0.2810
  692TMC3    O210296   2.048   1.294  16.023 -0.1175  0.6864  0.1077
  693MPD2     C10297   1.598   4.627  10.449  0.9217  0.0899 -0.4065
  693MPD2    C110298   1.532   4.522  10.501 -0.1627  0.8883  0.0810
  693MPD2    C210299   1.605   4.440  10.592 -0.2636  0.1888  0.3958
  693MPD2    C310300   1.738   4.463  10.629 -0.6363 -0.0321  0.2868
  693MPD2    C410301   1.803   4.568  10.565 -0.3731  0.0164  0.0095
  693MPD2    C510302   1.728   4.647  10.487  0.1406  0.0518  0.7274
  693MPD2     H10303   1.550   4.363  10.645 -0.2701  0.6201  1.0080
  693MPD2    H110304   1.909   4.585  10.576  0.1213 -3.5631  0.8367
  693MPD2    H210305   1.537   4.701  10.398 -2.2440 -2.1194  0.2011
  693MPD2    H310306   1.773   4.737  10.448 -0.1430 -1.9445 -4.1201
  693MPD2     N10307   1.806   4.393  10.729  0.4217  0.0104 -0.0339
  693MPD2    H510308   1.901   4.420  10.754  0.8998 -0.2269 -1.5833
  693MPD2    N110309   1.390   4.511  10.479  0.8248 -0.2343  0.3411
  693MPD2    H710310   1.333   4.587  10.442  0.3484 -1.1364 -0.7838
  694TMC3    C110311   1.170   4.438  10.520  0.2075  0.5563 -0.1373
  694TMC3    C210312   1.092   4.331  10.489  0.2504 -0.0266 -0.1552
  694TMC3    C310313   0.978   4.326  10.555  0.3556  0.6172  0.1366
  694TMC3    C410314   1.153   4.514  10.632  0.0844  0.0808  0.6223
  694TMC3    C510315   1.033   4.498  10.698 -0.1540 -0.1734  0.1804
  694TMC3    C610316   0.941   4.404  10.661  0.2421  0.4132  0.3552
  694TMC3     C10317   1.310   4.398  10.508  0.3249 -0.0425 -0.2220
  694TMC3     O10318   1.347   4.282  10.525 -0.9248 -0.2896  0.3637
  694TMC3     H10319   1.113   4.259  10.411 -1.1146  1.6300 -2.0447
  694TMC3    H110320   1.221   4.597  10.648 -2.6376  1.6958  3.8008
  694TMC3    H210321   0.837   4.411  10.691  0.2928  1.5200  0.2773
  694TMC3    C710322   1.021   4.545  10.831  0.0962  0.1999 -0.3091
  694TMC3    C810323   0.880   4.231  10.505 -0.2916  0.2580 -0.3555
  694TMC3    O110324   1.060   4.661  10.853  0.1556  0.4329 -0.0118
  694TMC3    O210325   0.816   4.160  10.584 -0.3557 -0.2333  0.1210
  695MPD2     C10326   2.574   1.642  13.726 -0.0303 -0.0540  0.9644
  695MPD2    C110327   2.506   1.596  13.839 -0.8765 -0.1877 -0.4036
  695MPD2    C210328   2.370   1.571  13.830 -0.5898 -0.6345 -0.5228
  695MPD2    C310329   2.302   1.594  13.714 -0.7565  0.8811  0.0421
  695MPD2    C410330   2.371   1.645  13.600  0.0542  0.2043  0.0528
  695MPD2    C510331   2.501   1.687  13.614  0.4635  0.0419 -0.5461
  695MPD2     H10332   2.315   1.524  13.910 -0.1753 -1.1177 -0.5250
  695MPD2    H110333   2.322   1.665  13.505 -1.2806  0.2382  0.7426
  695MPD2    H210334   2.679   1.669  13.729 -0.5381  1.7253  2.8846
  695MPD2    H310335   2.557   1.724  13.529 -0.9047  2.0223 -0.5697
  695MPD2     N10336   2.165   1.570  13.719  0.0354 -0.0942  0.5202
  695MPD2    H510337   2.124   1.533  13.804 -3.3849  0.3127 -0.9774
  695MPD2    N110338   2.564   1.556  13.962 -0.6633  0.1042  0.3584
  695MPD2    H710339   2.512   1.533  14.045  1.1447  0.4905  1.6015
  696TMC3    C110340   1.941   1.534  13.637 -0.1474  0.3480  0.3642
  696TMC3    C210341   1.906   1.475  13.755 -0.1190  0.1580 -0.4111
  696TMC3    C310342   1.775   1.461  13.785 -0.3482  0.0615  0.2222
  696TMC3    C410343   1.846   1.574  13.547 -0.6748  0.2254  0.2836
  696TMC3    C510344   1.719   1.545  13.572  0.5010  0.0663  0.5358
  696TMC3    C610345   1.686   1.478  13.689  0.3667 -0.5405 -0.0200
  696TMC3     C10346   2.075   1.599  13.614 -0.2050 -0.8095 -0.7940
  696TMC3     O10347   2.094   1.642  13.500 -0.1636  0.7165  0.1386
  696TMC3     H10348   1.977   1.454  13.835  0.4899 -0.3247 -1.0757
  696TMC3    H110349   1.876   1.611  13.450 -0.7513 -0.9653 -0.1914
  696TMC3    H210350   1.582   1.448  13.697  0.6952 -1.4679  0.7277
  696TMC3    C710351   1.622   1.630  13.516 -0.2715 -0.5745  0.1954
  696TMC3    C810352   1.741   1.533  13.910  0.4978 -0.4094 -0.1370
  696TMC3    O110353   1.507   1.592  13.537 -0.3505 -0.2329  0.3783
  696TMC3    O210354   1.819   1.543  14.005 -0.2787 -0.0330 -0.6859
  697MPD2     C10355   1.656   3.340  15.810  0.9159  0.3794  0.1977
  697MPD2    C110356   1.707   3.288  15.700  0.7105 -0.0428  0.1761
  697MPD2    C210357   1.748   3.378  15.605 -1.0335 -0.0846  0.0007
  697MPD2    C310358   1.747   3.511  15.616 -0.3951  0.3341 -1.1194
  697MPD2    C410359   1.711   3.560  15.742  0.3331  0.2395 -0.9606
  697MPD2    C510360   1.660   3.473  15.842 -0.2002 -0.0863  0.6453
  697MPD2     H10361   1.777   3.346  15.505  1.2197 -0.2936  0.7288
  697MPD2    H110362   1.696   3.666  15.759  1.5917  0.1369  0.7989
  697MPD2    H210363   1.612   3.271  15.882 -1.7140  2.5520  0.6634
  697MPD2    H310364   1.616   3.506  15.935 -1.6271  2.0209 -0.7882
  697MPD2     N10365   1.805   3.585  15.508  0.1597  1.0093 -0.1075
  697MPD2    H510366   1.819   3.529  15.424  2.0675  0.3022  0.6885
  697MPD2    N110367   1.703   3.146  15.685  0.5258  0.4221  0.4409
  697MPD2    H710368   1.674   3.093  15.767  3.0047 -0.4611  0.7406
  698TMC3    C110369   1.865   3.762  15.381 -0.5292 -0.4432  0.2575
  698TMC3    C210370   1.926   3.885  15.377 -0.1676 -0.3553  0.2666
  698TMC3    C310371   1.978   3.932  15.263 -0.1387 -0.5543 -0.3545
  698TMC3    C410372   1.837   3.697  15.265 -0.0438 -0.4487 -0.6657
  698TMC3    C510373   1.898   3.736  15.150 -0.2283 -0.0769  0.5593
  698TMC3    C610374   1.974   3.853  15.148 -0.2830 -0.0270 -0.0957
  698TMC3     C10375   1.817   3.721  15.503  0.1829 -0.3585 -0.5862
  698TMC3     O10376   1.803   3.793  15.601  0.2780 -0.0051 -0.5598
  698TMC3     H10377   1.937   3.942  15.468 -4.1065  1.7425 -0.5310
  698TMC3    H110378   1.770   3.611  15.262 -1.6049  0.8068 -1.5520
  698TMC3    H210379   2.023   3.870  15.053 -2.3632 -0.9963 -1.3383
  698TMC3    C710380   1.845   3.686  15.023 -0.1194 -0.1081  0.1024
  698TMC3    C810381   2.046   4.063  15.258 -0.2140  0.0048 -0.1091
  698TMC3    O110382   1.845   3.750  14.921 -0.0687 -0.2902 -0.7393
  698TMC3    O210383   2.022   4.140  15.351  0.1198 -0.0088 -0.5687
  699TMC3    C110384   2.124   1.506  13.191 -0.1983  0.1090  0.1575
  699TMC3    C210385   2.184   1.427  13.284  0.1269 -0.2193  0.0736
  699TMC3    C310386   2.112   1.314  13.317 -0.0198  0.4192 -0.4125
  699TMC3    C410387   2.015   1.466  13.122 -0.6382 -0.3163  0.5354
  699TMC3    C510388   1.950   1.350  13.145  0.1997  0.4151  1.1548
  699TMC3    C610389   1.996   1.280  13.249  0.0210 -0.6334 -0.3997
  699TMC3     C10390   2.146   1.647  13.190 -0.3353 -0.0272  0.1476
  699TMC3     O10391   2.045   1.714  13.192 -0.5949 -0.4627 -0.2177
  699TMC3     H10392   2.268   1.468  13.338  1.0893 -1.1712 -0.7076
  699TMC3    H110393   1.984   1.532  13.041  1.1699 -0.0152  0.0761
  699TMC3    H210394   1.942   1.192  13.283  0.1590 -0.8993 -0.8757
  699TMC3    C710395   1.809   1.346  13.109 -0.2633  0.4681  0.0655
  699TMC3    C810396   2.141   1.248  13.442  0.5856 -0.6332 -0.7690
  699TMC3    O110397   1.743   1.278  13.190 -0.4227  0.0314 -0.0047
  699TMC3    O210398   2.069   1.155  13.466 -0.2688 -0.1020  0.2492
  700TMC3    C110399   0.588   3.940  17.232 -0.3402 -0.0335 -0.5360
  700TMC3    C210400   0.709   3.875  17.211 -1.3270  0.2952 -0.1452
  700TMC3    C310401   0.805   3.869  17.313  0.3337 -0.0405 -0.2367
  700TMC3    C410402   0.557   3.988  17.358  0.4235  0.4040  0.9924
  700TMC3    C510403   0.650   3.980  17.453  0.1005  0.8318  0.2834
  700TMC3    C610404   0.774   3.923  17.438  0.0325 -0.1343  0.7101
  700TMC3     C10405   0.531   4.007  17.109 -0.4832  0.2123  0.1906
  700TMC3     O10406   0.426   3.961  17.063  0.4783  0.4934 -0.2855
  700TMC3     H10407   0.734   3.837  17.113 -0.6601 -0.4420  0.3147
  700TMC3    H110408   0.464   4.043  17.365 -0.7694 -1.3116 -1.4339
  700TMC3    H210409   0.840   3.924  17.524 -2.0176 -0.4149  2.2732
  700TMC3    C710410   0.630   4.047  17.576 -0.5594  0.4604 -0.1901
  700TMC3    C810411   0.926   3.800  17.274  0.1045  0.2898 -0.6615
  700TMC3    O110412   0.729   4.085  17.636  0.1052 -0.0766 -0.3235
  700TMC3    O210413   0.928   3.757  17.162 -0.5758  0.4775 -0.2663
  701TMC3    C110414   0.956   2.684  15.652  0.0598  0.8324 -0.1536
  701TMC3    C210415   0.972   2.610  15.535  0.2946 -0.1650  0.1224
  701TMC3    C310416   1.079   2.632  15.458 -0.5253 -0.0813  0.5726
  701TMC3    C410417   1.052   2.779  15.687 -0.4922  0.1191 -0.5051
  701TMC3    C510418   1.153   2.810  15.596  1.1077 -0.2483  0.2349
  701TMC3    C610419   1.170   2.732  15.484 -0.0785  0.5083 -0.2391
  701TMC3     C10420   0.830   2.681  15.730 -0.2263  0.0031 -0.0996
  701TMC3     O10421   0.832   2.751  15.831 -0.4028  0.3312 -0.2120
  701TMC3     H10422   0.901   2.535  15.502  1.2009 -1.5543  1.3710
  701TMC3    H110423   1.043   2.838  15.777 -1.5874  3.1703 -2.5852
  701TMC3    H210424   1.240   2.761  15.407  3.2948 -1.7785  1.9467
  701TMC3    C710425   1.188   2.952  15.592 -0.2700  0.3687  0.4137
  701TMC3    C810426   1.099   2.547  15.339 -0.0918 -0.4910  0.7611
  701TMC3    O110427   1.191   3.002  15.481  0.0115 -0.0512  0.2404
  701TMC3    O210428   1.216   2.549  15.305 -0.0435  0.6168 -0.1833
  702MPD2     C10429   0.616   0.363  10.463 -0.7139 -0.6095 -0.2283
  702MPD2    C110430   0.606   0.454  10.564  0.1696 -0.0595 -0.2166
  702MPD2    C210431   0.613   0.590  10.537  0.0477  0.2625 -0.1251
  702MPD2    C310432   0.644   0.635  10.410 -0.0990 -0.0379 -0.1535
  702MPD2    C410433   0.662   0.542  10.306  0.0653 -0.3893  0.7639
  702MPD2    C510434   0.645   0.410  10.335  0.0450 -0.4112 -0.0267
  702MPD2     H10435   0.602   0.656  10.622  0.1880 -1.1695  1.0082
  702MPD2    H110436   0.675   0.583  10.207  0.4099  0.1252  1.0205
  702MPD2    H210437   0.588   0.260  10.479 -0.0283 -0.8890 -0.8180
  702MPD2    H310438   0.631   0.344  10.250  2.7420 -0.7873 -0.1498
  702MPD2     N10439   0.651   0.776  10.376 -0.4165 -0.1719  0.1317
  702MPD2    H510440   0.645   0.799  10.277  0.8253  1.7179  0.4854
  702MPD2    N110441   0.573   0.412  10.698 -0.0655  0.7434  0.0670
  702MPD2    H710442   0.548   0.484  10.765  2.7221 -0.5358  2.5039
  703TMC3    C110443   0.628   0.999  10.417 -0.0774  0.3260  0.7621
  703TMC3    C210444   0.539   1.016  10.316  0.0990  0.2492 -0.0047
  703TMC3    C310445   0.533   1.137  10.261  0.0425  0.3940  0.3811
  703TMC3    C410446   0.718   1.099  10.468 -0.2039 -0.1951  0.3579
  703TMC3    C510447   0.725   1.210  10.385 -0.0398 -1.0053  0.7471
  703TMC3    C610448   0.633   1.232  10.286 -0.2211 -0.7276 -0.2861
  703TMC3     C10449   0.654   0.873  10.469  0.6852 -0.1048  0.6581
  703TMC3     O10450   0.702   0.867  10.580  0.4369 -0.3457  0.2962
  703TMC3     H10451   0.465   0.942  10.285  1.8371 -1.0152 -1.1831
  703TMC3    H110452   0.791   1.074  10.543 -0.4202 -0.7353  0.3899
  703TMC3    H210453   0.648   1.318  10.221 -1.2314 -0.7600 -0.5638
  703TMC3    C710454   0.839   1.309  10.388  0.1916 -0.0180 -0.4189
  703TMC3    C810455   0.406   1.183  10.227  0.5129 -0.1585  0.5478
  703TMC3    O110456   0.875   1.354  10.283  0.0746  0.2478  0.5460
  703TMC3    O210457   0.401   1.274  10.142 -0.4095  0.3701 -0.3863
  704TMC3    C110458   2.784   3.650  12.583  0.3562  0.2746  0.1342
  704TMC3    C210459   2.901   3.662  12.524 -0.8716  0.6413 -0.1697
  704TMC3    C310460   3.015   3.619  12.592  0.7774  0.0873  0.6528
  704TMC3    C410461   2.775   3.603  12.709  1.2331  0.2921  0.1826
  704TMC3    C510462   2.881   3.560  12.777  0.0234 -0.1033  0.7016
  704TMC3    C610463   3.007   3.570  12.721  0.7827  0.2447 -0.4756
  704TMC3     C10464   2.664   3.717  12.534 -0.0388  0.1831  0.1030
  704TMC3     O10465   2.568   3.717  12.612  0.0059 -0.3485  0.5160
  704TMC3     H10466   2.902   3.699  12.422 -2.8017  1.1801  0.0104
  704TMC3    H110467   2.675   3.583  12.747  1.5325 -0.5353  0.5398
  704TMC3    H210468   3.093   3.525  12.770 -1.9234 -2.7715  1.5216
  704TMC3    C710469   2.867   3.439  12.856  0.5019 -0.5322 -0.4547
  704TMC3    C810470   3.119   3.566  12.507 -0.3877 -0.5880 -0.1328
  704TMC3    O110471   2.971   3.371  12.873  0.2616 -0.2294  0.1069
  704TMC3    O210472   3.196   3.487  12.559 -0.3494 -0.0421  0.2517
  705MPD2     C10473   2.157   1.146  16.829  0.4205  0.0136  0.2756
  705MPD2    C110474   2.109   1.264  16.777  0.2501 -0.1774  0.2027
  705MPD2    C210475   1.986   1.311  16.817 -1.0396 -0.2260 -0.0696
  705MPD2    C310476   1.903   1.245  16.911 -0.1050  0.5013 -0.3064
  705MPD2    C410477   1.959   1.135  16.959 -0.2202  0.6693  0.4334
  705MPD2    C510478   2.076   1.078  16.913 -0.5215 -0.2290  0.6160
  705MPD2     H10479   1.950   1.403  16.774 -2.2246  0.5132  2.5537
  705MPD2    H110480   1.913   1.084  17.043 -2.9216  1.1230 -0.7602
  705MPD2    H210481   2.258   1.118  16.804  0.2225  0.8600 -1.4646
  705MPD2    H310482   2.122   0.997  16.967  2.0511  1.2414  0.6573
  705MPD2     N10483   1.775   1.288  16.955  0.6786  0.0182  0.7155
  705MPD2    H510484   1.724   1.246  17.031  0.0457  0.3819  0.4878
  705MPD2    N110485   2.187   1.328  16.683  0.0033  0.1414 -0.8142
  705MPD2    H710486   2.265   1.270  16.653  0.4280 -0.4341  1.3376
  706TMC3    C110487   2.346   1.431  16.305 -0.0736  0.4793 -0.2111
  706TMC3    C210488   2.364   1.564  16.270  0.4053  0.3148 -0.1837
  706TMC3    C310489   2.323   1.657  16.366 -0.1934 -0.3233 -0.2066
  706TMC3    C410490   2.290   1.388  16.424  0.0098  0.4460 -1.0395
  706TMC3    C510491   2.260   1.486  16.517 -0.6817  0.6273  0.3660
  706TMC3    C610492   2.268   1.615  16.484  0.2652  0.0820  0.2212
  706TMC3     C10493   2.424   1.325  16.235 -0.4552  0.5513 -0.1897
  706TMC3     O10494   2.430   1.217  16.290  0.3949  0.5952 -0.5065
  706TMC3     H10495   2.405   1.598  16.176  0.7109  1.6303  0.4238
  706TMC3    H110496   2.281   1.282  16.441  1.9845  0.1587 -1.7544
  706TMC3    H210497   2.247   1.687  16.562  0.6947 -3.9770  4.0734
  706TMC3    C710498   2.167   1.455  16.632  0.6708  0.5961  0.9563
  706TMC3    C810499   2.312   1.800  16.332  0.2821 -0.0542  0.3174
  706TMC3    O110500   2.097   1.549  16.672 -0.3853 -0.5245 -0.3610
  706TMC3    O210501   2.307   1.834  16.214  0.1930 -0.5790  0.1875
  707TMC3    C110502   3.802   4.301   1.289  0.0042  0.0539 -0.1275
  707TMC3    C210503   3.798   4.340   1.423 -0.5434 -0.1297 -0.7684
  707TMC3    C310504   3.696   4.420   1.458  0.4719  0.1546 -0.0447
  707TMC3    C410505   3.693   4.340   1.205  0.1033  0.7105 -0.6824
  707TMC3    C510506   3.590   4.414   1.251 -0.1734  0.5283  0.7066
  707TMC3    C610507   3.585   4.448   1.389  0.0551  0.7373  0.3267
  707TMC3     C10508   3.924   4.357   1.234  0.1281 -0.5399 -0.1831
  707TMC3     O10509   3.981   4.430   1.314 -0.0861 -0.1381  0.1079
  707TMC3     H10510   3.888   4.320   1.481 -0.1589  0.7623 -1.0585
  707TMC3    H110511   3.699   4.301   1.104  0.3216 -0.7043 -0.1229
  707TMC3    H210512   3.504   4.503   1.434 -0.7919 -0.7075  0.5824
  707TMC3    C710513   3.468   4.420   1.179  0.6704  0.3174  0.2748
  707TMC3    C810514   3.708   4.497   1.582 -0.4462  0.0153  0.3621
  707TMC3    O110515   3.389   4.494   1.233  0.3659 -0.1123 -0.1728
  707TMC3    O210516   3.616   4.565   1.627  0.1546  0.3407  0.6770
  708MPD2     C10517   0.512   4.123  13.632 -0.1312 -0.2533  1.0878
  708MPD2    C110518   0.398   4.186  13.684 -0.1860  0.2177  0.0869
  708MPD2    C210519   0.394   4.224  13.817 -0.1483 -0.0551  0.4593
  708MPD2    C310520   0.504   4.186  13.897 -0.3091 -0.0498 -0.2931
  708MPD2    C410521   0.618   4.130  13.838 -0.9086  0.0250  0.2744
  708MPD2    C510522   0.615   4.089  13.712  0.1109  0.5589  0.2275
  708MPD2     H10523   0.305   4.267  13.862  0.0152 -0.9610  1.6588
  708MPD2    H110524   0.709   4.112  13.895 -1.5038 -0.1246  1.1767
  708MPD2    H210525   0.493   4.074  13.537  1.6316 -1.4624  1.3595
  708MPD2    H310526   0.693   4.028  13.668  0.3073  0.8806  0.1317
  708MPD2     N10527   0.503   4.195  14.036  0.2104 -0.1294 -0.5747
  708MPD2    H510528   0.592   4.183  14.082 -0.4823  0.5205  0.9406
  708MPD2    N110529   0.297   4.209  13.587  0.1622  0.4245  0.0857
  708MPD2    H710530   0.321   4.201  13.489 -0.9819  1.8979 -0.3089
  709TMC3    C110531   0.081   4.305  13.526 -0.3330  0.9229 -0.3845
  709TMC3    C210532   0.125   4.394  13.428 -0.0638  0.2552 -0.2957
  709TMC3    C310533   0.034   4.482  13.381  0.2333  0.1654 -0.0320
  709TMC3    C410534   4.692   4.319  13.574  0.6784  0.1304  0.0726
  709TMC3    C510535   4.609   4.421  13.545 -0.1415  0.4779  0.6708
  709TMC3    C610536   4.649   4.506  13.444  1.1234  0.1380 -0.4109
  709TMC3     C10537   0.165   4.240  13.621 -0.1879 -0.4830 -0.0627
  709TMC3     O10538   0.117   4.234  13.731 -0.0040  0.5051  0.1301
  709TMC3     H10539   0.230   4.394  13.398  0.0874  0.8468  0.2399
  709TMC3    H110540   4.652   4.237  13.634  0.1601 -0.6435 -1.3400
  709TMC3    H210541   4.586   4.584  13.404 -2.4617 -1.8573  1.2954
  709TMC3    C710542   4.577   4.492  13.670 -0.6576  0.5745 -0.8509
  709TMC3    C810543   0.050   4.528  13.246 -0.2081 -1.1334 -0.3293
  709TMC3    O110544   4.493   4.586  13.660 -0.1815  0.0232 -0.0328
  709TMC3    O210545   4.688   4.519  13.172 -0.3147  0.1721 -0.1657
  710TMC3    C110546   1.601   1.327   0.460  0.2106  0.8490 -0.8283
  710TMC3    C210547   1.643   1.228   0.380 -0.3030 -0.0416  0.3861
  710TMC3    C310548   1.721   1.137   0.427 -0.4029 -0.2362  0.0611
  710TMC3    C410549   1.654   1.346   0.586  0.7679 -0.5016 -0.6053
  710TMC3    C510550   1.751   1.251   0.623  0.4471  0.7655  0.0916
  710TMC3    C610551   1.788   1.147   0.541 -0.6492  0.2968  0.4856
  710TMC3     C10552   1.469   1.383   0.424  0.3608  0.2717  0.1931
  710TMC3     O10553   1.402   1.321   0.341  0.3880  0.2541  0.2223
  710TMC3     H10554   1.586   1.205   0.290 -1.9452  3.0614  0.6096
  710TMC3    H110555   1.626   1.431   0.647  2.7326  0.0988 -0.5513
  710TMC3    H210556   1.864   1.075   0.570  0.1258  0.5136 -0.9635
  710TMC3    C710557   1.823   1.271   0.753  0.3642 -1.1375 -0.3317
  710TMC3    C810558   1.759   1.027   0.334 -0.4921  0.1750 -0.3342
  710TMC3    O110559   1.752   1.337   0.828 -0.2021 -0.1817 -0.2611
  710TMC3    O210560   1.755   1.052   0.215 -0.5297 -0.3982  0.3398
  711TMC3    C110561   1.497   2.360  14.914 -0.0444  0.6634  0.2195
  711TMC3    C210562   1.475   2.370  15.051  0.1873  0.7413 -0.3835
  711TMC3    C310563   1.585   2.327  15.133 -0.2262 -0.5450  0.3802
  711TMC3    C410564   1.612   2.295  14.875  0.2231  0.1184  0.2576
  711TMC3    C510565   1.700   2.249  14.959 -0.2993 -0.1877 -0.0105
  711TMC3    C610566   1.701   2.285  15.088  0.0990 -0.5557 -0.2470
  711TMC3     C10567   1.392   2.323  14.826 -0.1796 -0.2283  0.1405
  711TMC3     O10568   1.420   2.233  14.751 -0.0199 -0.3702 -0.0139
  711TMC3     H10569   1.381   2.397  15.098 -0.3702 -1.5511 -0.1760
  711TMC3    H110570   1.632   2.277  14.770  4.8861  0.0955  1.1777
  711TMC3    H210571   1.780   2.257  15.157 -1.8503  1.2812  2.7528
  711TMC3    C710572   1.716   2.108  14.943  0.1304  0.4252  0.0731
  711TMC3    C810573   1.554   2.307  15.281  0.5381 -0.0447 -1.0894
  711TMC3    O110574   1.806   2.066  15.013 -0.3294  0.3685  0.7315
  711TMC3    O210575   1.439   2.285  15.320 -0.2225 -0.4748  0.1804
  712MPD2     C10576   2.872   3.619  14.149  0.1017  0.3232 -0.3509
  712MPD2    C110577   2.970   3.584  14.058  0.8124 -0.2355  0.0232
  712MPD2    C210578   3.038   3.684  13.978  0.1511  0.0850 -0.0824
  712MPD2    C310579   3.003   3.813  13.985  0.6919 -0.7750 -0.0025
  712MPD2    C410580   2.916   3.848  14.091  0.4260 -0.6984  0.4096
  712MPD2    C510581   2.857   3.751  14.164  0.2026 -1.4126  0.8333
  712MPD2     H10582   3.118   3.661  13.908  0.1218  0.8063 -0.3538
  712MPD2    H110583   2.891   3.952  14.111  1.1673 -0.3513 -0.4898
  712MPD2    H210584   2.828   3.551  14.221  0.7354 -0.7890 -1.0140
  712MPD2    H310585   2.775   3.782  14.229  0.4448  0.6824  0.1502
  712MPD2     N10586   3.063   3.902  13.894  0.8947 -0.5046 -0.1207
  712MPD2    H510587   3.128   3.861  13.828  0.7800 -1.5909  0.4358
  712MPD2    N110588   3.002   3.452  14.022  0.4120  0.2324 -0.2980
  712MPD2    H710589   3.070   3.437  13.949 -0.5942 -0.7273 -1.0312
  713TMC3    C110590   3.076   4.086  13.759 -0.6541  0.5789  0.4597
  713TMC3    C210591   3.198   4.043  13.715 -0.3595 -0.5094  0.2787
  713TMC3    C310592   3.240   4.075  13.590 -0.2880  0.5441 -0.2660
  713TMC3    C410593   2.995   4.166  13.682 -0.0374  0.0267  0.0080
  713TMC3    C510594   3.043   4.199  13.558 -0.0083  0.5596  0.1530
  713TMC3    C610595   3.164   4.151  13.506  0.4093 -0.1578 -0.4999
  713TMC3     C10596   3.019   4.032  13.876  0.2098 -0.3136  0.2909
  713TMC3     O10597   2.928   4.085  13.934  0.4736 -0.2627  0.6964
  713TMC3     H10598   3.261   4.013  13.798 -1.5896 -0.2472  1.3139
  713TMC3    H110599   2.915   4.220  13.732 -1.1092 -0.1017 -1.5557
  713TMC3    H210600   3.209   4.184  13.413 -1.2133  0.5063 -1.0536
  713TMC3    C710601   3.006   4.325  13.491 -0.9907 -0.0700 -0.3551
  713TMC3    C810602   3.378   4.092  13.573  0.4842  0.3405  0.3896
  713TMC3    O110603   3.093   4.380  13.426  0.2553 -0.2368  0.1603
  713TMC3    O210604   3.412   4.196  13.511  0.4855  0.5832 -0.7485
  714MPD2     C10605   4.724   2.497   1.264 -0.5057 -0.3124  0.9433
  714MPD2    C110606   0.031   2.384   1.200  0.4750 -0.2835 -0.8091
  714MPD2    C210607   4.670   2.298   1.139 -0.6342 -0.0350  0.4709
  714MPD2    C310608   4.534   2.328   1.138  0.1927 -0.2375 -0.8898
  714MPD2    C410609   4.496   2.444   1.205  0.9606 -0.0211  0.2196
  714MPD2    C510610   4.593   2.529   1.256 -0.7754  0.3911  0.0807
  714MPD2     H10611   4.703   2.212   1.082 -0.1063  0.4623  0.0182
  714MPD2    H110612   4.394   2.479   1.212  0.7088 -1.0309  1.4615
  714MPD2    H210613   0.050   2.566   1.319 -0.5261  0.0146  0.5595
  714MPD2    H310614   4.558   2.625   1.293 -0.8957  0.8751 -1.2897
  714MPD2     N10615   4.444   2.239   1.085 -0.2280 -0.0695 -0.6395
  714MPD2    H510616   4.476   2.144   1.071  0.3863 -0.3480  2.8432
  714MPD2    N110617   0.170   2.356   1.196 -0.2720  0.6971 -0.2096
  714MPD2    H710618   0.214   2.414   1.266  0.6720 -0.2262 -0.0453
  715TMC3    C110619   0.386   2.270   1.140 -0.5442  0.3330  0.4536
  715TMC3    C210620   0.456   2.163   1.105  0.0146 -0.0103 -0.2581
  715TMC3    C310621   0.592   2.163   1.125  0.2828 -0.1502  0.3158
  715TMC3    C410622   0.450   2.376   1.205  0.3092  0.6436  0.0023
  715TMC3    C510623   0.587   2.380   1.217 -0.3779 -0.1174 -0.1432
  715TMC3    C610624   0.657   2.266   1.179 -0.3080 -0.7188  0.2445
  715TMC3     C10625   0.239   2.270   1.114 -0.3370 -0.1023  0.2574
  715TMC3     O10626   0.200   2.195   1.027 -0.2777 -0.3223 -0.1388
  715TMC3     H10627   0.411   2.079   1.053 -0.1400 -1.7367  2.6907
  715TMC3    H110628   0.392   2.467   1.208 -0.7841 -0.0016 -1.1496
  715TMC3    H210629   0.763   2.265   1.203  0.0955  1.9047 -1.4195
  715TMC3    C710630   0.655   2.472   1.313  0.1187 -0.6154  0.0568
  715TMC3    C810631   0.660   2.038   1.111 -0.0074  0.2252  0.1588
  715TMC3    O110632   0.777   2.474   1.313  0.1260  0.1861  0.3834
  715TMC3    O210633   0.599   1.937   1.074  0.8553 -0.1370 -0.1812
  716MPD2     C10634   0.202   0.159   9.899 -0.0076  0.1297 -0.0464
  716MPD2    C110635   0.099   0.100   9.830 -0.0063  0.3138  0.0670
  716MPD2    C210636   0.114   4.703   9.786  0.0645 -0.4564 -0.0512
  716MPD2    C310637   0.228   4.628   9.811  0.2108 -0.2655  0.0407
  716MPD2    C410638   0.323   4.693   9.881  1.3487  0.5960 -0.0679
  716MPD2    C510639   0.317   0.089   9.921  0.1956  0.3950  0.0896
  716MPD2     H10640   0.030   4.654   9.739 -0.9715  1.4535 -0.2137
  716MPD2    H110641   0.421   4.649   9.895 -0.4160 -3.2408  0.0714
  716MPD2    H210642   0.204   0.260   9.937  0.7818 -0.5786  1.8383
  716MPD2    H310643   0.396   0.137   9.979  0.7921  1.5641 -1.6910
  716MPD2     N10644   0.231   4.494   9.770 -0.4489  0.1562  0.0256
  716MPD2    H510645   0.149   4.453   9.727  0.2527 -0.5811 -0.6121
  716MPD2    N110646   4.720   0.170   9.804 -0.6639  0.2156  0.3866
  716MPD2    H710647   4.639   0.123   9.765  0.2874 -1.5948  0.5685
  717TMC3    C110648   0.316   4.281   9.727 -0.6806 -0.4392  0.1442
  717TMC3    C210649   0.268   4.284   9.601  0.4699 -0.3052 -0.3660
  717TMC3    C310650   0.225   4.165   9.546 -0.4657  0.7697 -0.2308
  717TMC3    C410651   0.328   4.166   9.794  0.4218  0.3511  0.5260
  717TMC3    C510652   0.282   4.052   9.745  0.7607  0.0331  0.4338
  717TMC3    C610653   0.229   4.047   9.618  0.3020 -0.1214 -0.5772
  717TMC3     C10654   0.331   4.405   9.798  0.1933 -0.1699  0.4669
  717TMC3     O10655   0.435   4.405   9.860 -0.1854  0.0853  0.4960
  717TMC3     H10656   0.259   4.382   9.554 -0.1936  0.4913  1.3889
  717TMC3    H110657   0.367   4.165   9.895 -1.2627 -1.4718  1.1482
  717TMC3    H210658   0.158   3.969   9.594  1.8711 -1.0257 -2.2092
  717TMC3    C710659   0.337   3.926   9.799  0.1044  0.4722 -0.0024
  717TMC3    C810660   0.133   4.180   9.430 -0.0877 -0.3978  0.2132
  717TMC3    O110661   0.417   3.945   9.887  0.3144  0.7951 -0.3819
  717TMC3    O210662   0.107   4.294   9.398 -0.4911 -0.0238 -0.0172
  718MPD2     C10663   4.563   3.602  12.897  1.0089 -0.6342  0.4593
  718MPD2    C110664   4.499   3.590  12.781  1.2743 -0.5406  0.0915
  718MPD2    C210665   4.441   3.467  12.748 -0.1287  0.5592 -0.1464
  718MPD2    C310666   4.461   3.363  12.829  0.2166  0.6181  0.4490
  718MPD2    C410667   4.519   3.374  12.955  0.6756  0.0318 -0.4135
  718MPD2    C510668   4.576   3.496  12.982  0.3346 -1.1958 -0.1475
  718MPD2     H10669   4.367   3.454  12.670  0.7542 -0.0175 -0.8845
  718MPD2    H110670   4.538   3.294  13.025 -2.5053  0.5238  0.9949
  718MPD2    H210671   4.592   3.703  12.922  0.4427 -0.2668 -0.3527
  718MPD2    H310672   4.622   3.512  13.079 -2.3933 -0.6045  1.0440
  718MPD2     N10673   4.393   3.247  12.787 -0.7006 -0.3730 -0.2187
  718MPD2    H510674   4.337   3.256  12.703 -0.6554  0.7136 -0.1397
  718MPD2    N110675   4.484   3.709  12.705 -0.5895  0.4991 -0.2956
  718MPD2    H710676   4.535   3.792  12.733  0.8432 -0.3435 -0.3986
  719TMC3    C110677   4.421   3.825  12.500 -0.7282  0.4711 -0.1617
  719TMC3    C210678   4.364   3.778  12.380  0.0687 -0.1251 -0.3299
  719TMC3    C310679   4.445   3.754  12.275  0.1650  0.6623  0.1277
  719TMC3    C410680   4.552   3.864  12.503 -0.1443 -0.3566  0.1068
  719TMC3    C510681   4.629   3.843  12.395  0.5116  0.4040  0.4216
  719TMC3    C610682   4.579   3.775  12.284  0.1999 -0.3070  0.0304
  719TMC3     C10683   4.396   3.723  12.597 -0.2775 -1.0076  0.2666
  719TMC3     O10684   4.321   3.638  12.551  0.1026  0.1134 -0.8575
  719TMC3     H10685   4.257   3.757  12.381 -0.4530  2.4943 -1.0157
  719TMC3    H110686   4.577   3.934  12.582  2.3611  0.5811 -1.4963
  719TMC3    H210687   4.639   3.759  12.195 -2.6080 -1.3537 -1.6747
  719TMC3    C710688   0.031   3.870  12.403 -0.1116  0.5737  0.0709
  719TMC3    C810689   4.405   3.641  12.192 -0.4925  0.0065 -0.5032
  719TMC3    O110690   0.098   3.862  12.300 -0.1880  0.7003 -0.0667
  719TMC3    O210691   4.456   3.626  12.083 -0.1679  0.7104 -0.0883
  720MPD2     C10692   2.917   0.562  13.956 -0.2132  0.4017 -0.6908
  720MPD2    C110693   2.960   0.688  13.926  0.1066 -0.4249 -0.0938
  720MPD2    C210694   3.059   0.754  13.997  0.5469 -0.1458  0.2729
  720MPD2    C310695   3.114   0.689  14.106 -0.3460 -0.5075 -0.1299
  720MPD2    C410696   3.083   0.552  14.135 -0.2877  0.5967 -0.5290
  720MPD2    C510697   2.981   0.499  14.064  1.5554  0.0148 -0.6273
  720MPD2     H10698   3.100   0.849  13.962  1.3072 -0.2415  0.9033
  720MPD2    H110699   3.113   0.496  14.222 -1.8941  0.2310 -0.2168
  720MPD2    H210700   2.845   0.510  13.894  0.1383  1.6527 -2.1372
  720MPD2    H310701   2.944   0.402  14.096 -1.2663  1.4403  0.4442
  720MPD2     N10702   3.216   0.757  14.174  0.0372 -0.1333 -0.5511
  720MPD2    H510703   3.263   0.837  14.134 -2.6203  1.0923 -1.2277
  720MPD2    N110704   2.909   0.763  13.812 -0.2549 -0.4103 -0.4941
  720MPD2    H710705   2.943   0.858  13.800  0.6711 -0.8822 -1.7179
  721TMC3    C110706   3.358   0.801  14.348  0.4446 -0.0338 -0.1472
  721TMC3    C210707   3.342   0.858  14.469 -0.2817  0.1023 -0.5528
  721TMC3    C310708   3.437   0.939  14.520 -0.1117  0.0604 -0.6016
  721TMC3    C410709   3.470   0.812  14.270  0.0501  1.1650 -0.0982
  721TMC3    C510710   3.572   0.888  14.329  0.0260  0.0980  0.7486
  721TMC3    C610711   3.551   0.953  14.445 -0.0746 -0.1528  0.8474
  721TMC3     C10712   3.257   0.718  14.297  1.0109  0.5271 -0.3041
  721TMC3     O10713   3.189   0.651  14.375 -0.7878 -0.2150  0.1465
  721TMC3     H10714   3.259   0.825  14.529  0.7818  0.9209  1.3779
  721TMC3    H110715   3.466   0.783  14.165  0.4783  1.2832 -0.1473
  721TMC3    H210716   3.630   1.009  14.494 -1.3236  2.2783  0.1089
  721TMC3    C710717   3.699   0.908  14.256  0.1240  0.4039  0.7238
  721TMC3    C810718   3.442   0.990  14.656 -0.6468  0.8597  0.9173
  721TMC3    O110719   3.736   1.026  14.243 -0.3441  0.7869 -0.3659
  721TMC3    O210720   3.542   1.046  14.705  0.3982 -0.6302 -0.2650
  722MPD2     C10721   1.903   4.212  13.363 -0.9806  0.4516 -0.7509
  722MPD2    C110722   1.895   4.327  13.289  0.0711  0.1194 -0.7043
  722MPD2    C210723   1.789   4.337  13.191 -0.1528  0.0117  0.3324
  722MPD2    C310724   1.702   4.236  13.169  0.5830  0.1904 -0.0659
  722MPD2    C410725   1.709   4.126  13.247 -0.0851  0.5716  1.2404
  722MPD2    C510726   1.812   4.107  13.343 -0.0835 -0.5007 -0.2418
  722MPD2     H10727   1.785   4.423  13.125  0.6735 -1.1372 -1.2166
  722MPD2    H110728   1.632   4.050  13.240  0.6188 -0.2387  2.3320
  722MPD2    H210729   1.971   4.200  13.447  0.3023  0.7214 -1.7511
  722MPD2    H310730   1.819   4.020  13.407  0.9729 -1.0132 -1.0666
  722MPD2     N10731   1.595   4.256  13.077  0.0705 -0.6644  0.0569
  722MPD2    H510732   1.605   4.331  13.010  2.7945  0.2414  1.5053
  722MPD2    N110733   1.980   4.439  13.316  0.1152 -0.0450  0.0418
  722MPD2    H710734   1.962   4.523  13.262 -1.1022 -1.7816 -2.2490
  723TMC3    C110735   1.401   4.234  12.946 -0.5244  0.6291  0.2134
  723TMC3    C210736   1.309   4.158  12.878 -0.4333 -0.7603 -0.0314
  723TMC3    C310737   1.240   4.233  12.789  0.1556  0.3695 -1.1143
  723TMC3    C410738   1.401   4.371  12.953  0.9202 -0.6993 -0.0619
  723TMC3    C510739   1.326   4.434  12.861  0.2162 -0.2612  0.7499
  723TMC3    C610740   1.249   4.366  12.768  0.7611 -0.0714 -0.0963
  723TMC3     C10741   1.495   4.171  13.047 -0.4808  0.0216 -0.3438
  723TMC3     O10742   1.472   4.054  13.079 -0.1834 -0.4138  0.0496
  723TMC3     H10743   1.304   4.054  12.907  0.4856 -0.2844  1.8928
  723TMC3    H110744   1.469   4.429  13.015  1.4571 -0.7170 -0.6298
  723TMC3    H210745   1.179   4.421  12.706  0.5795 -0.5680 -0.3305
  723TMC3    C710746   1.353   4.575  12.824 -0.2344  0.0546  0.6655
  723TMC3    C810747   1.132   4.157  12.716 -0.2361  0.0413  0.0211
  723TMC3    O110748   1.341   4.601  12.704  0.3787  0.4429 -0.0360
  723TMC3    O210749   1.025   4.214  12.693 -0.2069 -0.0595 -0.4651
  724TMC3    C110750   2.501   2.099  10.690  0.3096 -0.4871  0.6226
  724TMC3    C210751   2.466   2.097  10.554 -0.1010 -1.2029  0.1594
  724TMC3    C310752   2.562   2.158  10.475  0.1742  0.1316  0.4886
  724TMC3    C410753   2.621   2.147  10.738 -0.1506 -0.2540  0.2661
  724TMC3    C510754   2.701   2.214  10.654  0.4290  0.1557  0.1618
  724TMC3    C610755   2.672   2.227  10.519 -0.0413 -0.2246 -0.4553
  724TMC3     C10756   2.435   2.002  10.778  1.0899 -0.4582 -0.4807
  724TMC3     O10757   2.366   1.905  10.735 -0.1061  0.6717  0.2354
  724TMC3     H10758   2.375   2.055  10.513  0.8837 -2.3939 -0.7802
  724TMC3    H110759   2.658   2.132  10.839 -0.6099  0.1971  0.5031
  724TMC3    H210760   2.743   2.286  10.462  0.8421 -0.2937  0.5495
  724TMC3    C710761   2.830   2.264  10.682 -0.6435  0.3823 -0.1727
  724TMC3    C810762   2.526   2.158  10.335 -0.1142 -0.3862 -0.2922
  724TMC3    O110763   2.913   2.243  10.595  0.1790 -0.2971  0.1380
  724TMC3    O210764   2.421   2.113  10.298  0.5142 -0.2919 -0.5496
  725TMC3    C110765   4.252   0.991  12.655 -0.1903 -0.0106  0.3126
  725TMC3    C210766   4.356   1.051  12.586  0.3558  0.5532  0.5510
  725TMC3    C310767   4.418   0.972  12.489  0.5005 -0.3523 -0.1816
  725TMC3    C410768   4.211   0.861  12.640  0.3568 -0.0838  0.1984
  725TMC3    C510769   4.279   0.788  12.545  0.7289  0.5929 -0.3150
  725TMC3    C610770   4.380   0.837  12.467  0.1040  0.1065 -0.2099
  725TMC3     C10771   4.203   1.082  12.762  0.1203 -0.2855  0.2139
  725TMC3     O10772   4.234   1.200  12.755  0.2015  0.7984 -0.3245
  725TMC3     H10773   4.393   1.151  12.603  0.1359  1.0329 -1.7719
  725TMC3    H110774   4.142   0.811  12.707 -1.6652  1.0587 -1.0122
  725TMC3    H210775   4.416   0.780  12.381  2.6276  1.4048 -0.0029
  725TMC3    C710776   4.220   0.663  12.495 -0.2031 -0.0607  0.0875
  725TMC3    C810777   4.462   1.037  12.370  0.1456 -0.1227  0.7835
  725TMC3    O110778   4.299   0.596  12.430 -0.3872 -0.2399 -0.9454
  725TMC3    O210779   4.539   0.964  12.298 -0.0349  0.0332 -0.1808
  726MPD2     C10780   1.868   2.639  10.303  0.5987 -0.0462 -0.5451
  726MPD2    C110781   1.891   2.626  10.437  0.2604  0.5428 -0.4689
  726MPD2    C210782   1.809   2.541  10.514  0.1733 -0.3965 -0.4560
  726MPD2    C310783   1.702   2.483  10.457 -0.1482  0.2546  0.3376
  726MPD2    C410784   1.690   2.487  10.321 -0.3186  0.0592  0.4460
  726MPD2    C510785   1.776   2.561  10.242  0.0452  0.1599  0.5374
  726MPD2     H10786   1.824   2.528  10.620 -0.8226 -0.2703 -0.3034
  726MPD2    H110787   1.620   2.438  10.254 -2.6235  1.4806  1.7913
  726MPD2    H210788   1.918   2.711  10.238  0.8483  1.4890  1.3412
  726MPD2    H310789   1.769   2.553  10.134  0.6805 -3.3197  0.7586
  726MPD2     N10790   1.607   2.404  10.529  0.6903 -0.3573 -0.2638
  726MPD2    H510791   1.523   2.371  10.481  0.5311 -1.7108  0.9217
  726MPD2    N110792   1.998   2.701  10.486 -0.0930 -0.2255  0.2361
  726MPD2    H710793   2.057   2.746  10.417  1.3415 -1.3987  0.6875
  727TMC3    C110794   2.105   2.852  10.616 -0.6047 -0.2764  0.4484
  727TMC3    C210795   2.228   2.842  10.676 -0.7316  0.4095  0.5332
  727TMC3    C310796   2.280   2.949  10.736 -0.2413  0.0555  0.0045
  727TMC3    C410797   2.043   2.972  10.610 -0.5714  0.4171 -0.0850
  727TMC3    C510798   2.106   3.082  10.664 -0.4233 -0.3761  0.0084
  727TMC3    C610799   2.218   3.072  10.744  0.2991 -0.7063 -0.1024
  727TMC3     C10800   2.029   2.730  10.616  0.2278 -0.5495 -0.3556
  727TMC3     O10801   1.976   2.704  10.727  0.1588  0.1894  0.3009
  727TMC3     H10802   2.278   2.746  10.679 -0.1867  0.6275 -1.1479
  727TMC3    H110803   1.944   2.977  10.566 -0.1076  3.9158 -0.7543
  727TMC3    H210804   2.264   3.160  10.788  0.2211 -0.2116 -0.9990
  727TMC3    C710805   2.043   3.216  10.640  0.1893 -0.7540  0.0600
  727TMC3    C810806   2.422   2.937  10.766  0.1428  0.1257  0.3086
  727TMC3    O110807   2.086   3.310  10.708 -0.0461  0.0338 -0.1206
  727TMC3    O210808   2.485   2.852  10.707 -0.5142 -0.1570  0.4742
  728TMC3    C110809   1.188   1.181  15.241  1.4054  0.4609  0.3892
  728TMC3    C210810   1.280   1.285  15.274  0.4433  0.3669 -0.1786
  728TMC3    C310811   1.324   1.360  15.170  0.0263  0.0803  0.4833
  728TMC3    C410812   1.147   1.156  15.116  0.2604  0.3612  0.4500
  728TMC3    C510813   1.199   1.234  15.020  0.4494  0.6381  0.4021
  728TMC3    C610814   1.291   1.333  15.044 -0.1437 -0.6789 -0.1977
  728TMC3     C10815   1.159   1.084  15.343 -0.5870  0.1885  0.3727
  728TMC3     O10816   1.255   1.047  15.406 -0.1150 -0.6711 -0.5619
  728TMC3     H10817   1.305   1.299  15.379  0.9293  0.6523 -0.3316
  728TMC3    H110818   1.084   1.073  15.084  0.6414  1.1931 -2.5191
  728TMC3    H210819   1.325   1.392  14.959  0.3782 -1.8718 -0.8145
  728TMC3    C710820   1.155   1.206  14.885  0.1900 -0.0435 -0.4053
  728TMC3    C810821   1.363   1.491  15.193 -0.1271 -0.6041  0.1639
  728TMC3    O110822   1.090   1.107  14.873  0.2800 -0.1082 -0.3822
  728TMC3    O210823   1.363   1.575  15.102 -0.3183 -0.4749  0.3693
  729MPD2     C10824   2.609   2.381  16.602 -0.1480  0.8909  1.2405
  729MPD2    C110825   2.662   2.253  16.601  0.2279  0.1499 -0.9131
  729MPD2    C210826   2.666   2.177  16.714 -0.1189 -0.2615 -0.4464
  729MPD2    C310827   2.636   2.237  16.834  0.9726 -0.1524  0.8552
  729MPD2    C410828   2.578   2.362  16.842 -0.6024 -0.4089 -0.2447
  729MPD2    C510829   2.557   2.432  16.726 -0.6276 -0.0441 -0.2419
  729MPD2     H10830   2.704   2.076  16.710 -1.4162 -0.7439 -0.8543
  729MPD2    H110831   2.555   2.406  16.938 -0.7657  1.0473 -0.9439
  729MPD2    H210832   2.609   2.447  16.516 -0.5709 -0.2252  0.3865
  729MPD2    H310833   2.513   2.531  16.727 -1.2688 -0.3717  2.1564
  729MPD2     N10834   2.658   2.176  16.955  0.2806 -0.5017 -0.2349
  729MPD2    H510835   2.644   2.237  17.035  0.5765 -0.6079 -0.1000
  729MPD2    N110836   2.716   2.202  16.479 -0.3256  0.0170 -0.9505
  729MPD2    H710837   2.694   2.259  16.398 -2.5412  0.1656 -0.2441
  730TMC3    C110838   2.739   2.047  17.125  0.3325  0.1354 -0.3098
  730TMC3    C210839   2.870   2.022  17.144  0.2736  0.0516  0.3133
  730TMC3    C310840   2.929   2.096  17.240 -0.5561  0.4112 -0.1669
  730TMC3    C410841   2.661   2.143  17.195 -0.0292 -1.0217  0.9922
  730TMC3    C510842   2.728   2.213  17.287 -0.6315 -0.1728  0.1970
  730TMC3    C610843   2.862   2.191  17.309 -1.1029 -0.1762  0.2100
  730TMC3     C10844   2.705   2.050  16.984  0.0522  1.0578  0.0033
  730TMC3     O10845   2.744   1.963  16.909  0.0258 -0.3280 -0.0690
  730TMC3     H10846   2.921   1.957  17.074  1.0593 -0.0217  0.9537
  730TMC3    H110847   2.553   2.153  17.181  0.5116  0.1328 -2.4086
  730TMC3    H210848   2.901   2.241  17.397  0.1274  1.4579 -1.2503
  730TMC3    C710849   2.698   2.353  17.267  0.3458 -0.2453  0.1617
  730TMC3    C810850   3.039   2.150  17.168  0.6600 -0.4723 -0.0752
  730TMC3    O110851   2.630   2.388  17.171 -0.4154  0.4595  0.1845
  730TMC3    O210852   3.055   2.127  17.048 -0.3050 -0.2167 -0.3093
  731MPD2     C10853   3.981   1.030  12.442 -0.3739 -0.5062 -0.0336
  731MPD2    C110854   3.880   0.940  12.418 -0.7905 -0.7101  0.0069
  731MPD2    C210855   3.769   0.938  12.497 -0.7119 -0.5307  0.8197
  731MPD2    C310856   3.753   1.024  12.606 -0.8277  0.6209  0.7169
  731MPD2    C410857   3.852   1.119  12.622 -0.3558 -0.3503  0.0193
  731MPD2    C510858   3.961   1.124  12.541  0.1074 -0.3574  0.6256
  731MPD2     H10859   3.685   0.873  12.477 -1.9217  0.9653  0.9895
  731MPD2    H110860   3.851   1.196  12.700 -0.1230  0.0198 -0.3417
  731MPD2    H210861   4.074   1.042  12.387 -0.2650  2.0442  0.7260
  731MPD2    H310862   4.032   1.202  12.563  0.1522 -0.3330  0.3995
  731MPD2     N10863   3.640   1.009  12.688 -0.1553  0.3152 -0.4292
  731MPD2    H510864   3.562   0.950  12.662 -0.9607  1.0747  0.2644
  731MPD2    N110865   3.899   0.848  12.313  0.2560  0.1433 -0.2085
  731MPD2    H710866   3.989   0.854  12.267  0.8543 -0.2767  0.9349
  732TMC3    C110867   3.848   0.665  12.160  0.5565  0.2614 -0.8193
  732TMC3    C210868   3.787   0.539  12.164 -0.4278  0.2875 -0.0036
  732TMC3    C310869   3.828   0.439  12.088 -0.5556 -0.2728  0.3731
  732TMC3    C410870   3.965   0.682  12.090 -0.5640  0.6628 -0.7361
  732TMC3    C510871   4.008   0.570  12.019  0.5154  0.5424  0.5601
  732TMC3    C610872   3.945   0.448  12.016 -0.6716  0.0199  0.2270
  732TMC3     C10873   3.809   0.761  12.260 -0.3234  0.1419  0.1170
  732TMC3     O10874   3.694   0.753  12.289  0.0613 -0.0905  0.7563
  732TMC3     H10875   3.700   0.523  12.227  0.8569  0.0099  1.6993
  732TMC3    H110876   4.010   0.780  12.081  0.8027  0.0641 -0.3762
  732TMC3    H210877   3.965   0.373  11.940 -2.1943  1.0307 -1.1622
  732TMC3    C710878   4.145   0.571  11.972  0.5184  0.3286 -0.6687
  732TMC3    C810879   3.755   0.313  12.082  0.0472  0.3801  0.0702
  732TMC3    O110880   4.205   0.678  11.976 -0.1296  0.6296 -0.4480
  732TMC3    O210881   3.808   0.214  12.037 -0.5152 -0.0394  0.0020
  733TMC3    C110882   4.087   2.956  12.774 -0.5431  0.1590  0.1355
  733TMC3    C210883   4.188   2.999  12.853 -0.2335 -0.0339  0.6955
  733TMC3    C310884   4.306   3.032  12.788  0.4634  0.4974 -0.2116
  733TMC3    C410885   4.092   2.928  12.642 -0.5097  0.0689 -0.1869
  733TMC3    C510886   4.209   2.961  12.581  0.1625 -0.0281 -0.3882
  733TMC3    C610887   4.315   3.005  12.654 -0.3993  0.1606  0.4330
  733TMC3     C10888   3.957   2.998  12.821  0.0033 -0.0493  0.5641
  733TMC3     O10889   3.955   3.097  12.895 -0.7551 -0.3506 -0.3682
  733TMC3     H10890   4.170   3.042  12.951  0.3622 -0.4293  0.9776
  733TMC3    H110891   4.004   2.909  12.582 -0.9805 -0.7648  0.7701
  733TMC3    H210892   4.404   3.028  12.597  0.1490 -0.5319  1.0228
  733TMC3    C710893   4.202   2.998  12.438  0.1798  0.7188 -0.5959
  733TMC3    C810894   4.395   3.124  12.858  0.4121  0.5916  0.4057
  733TMC3    O110895   4.120   2.943  12.369 -0.0009 -0.2106  0.0206
  733TMC3    O210896   4.439   3.100  12.971 -0.1937 -0.3804  0.1516
  734MPD2     C10897   1.304   1.417  12.472 -0.3330 -0.0622  0.0178
  734MPD2    C110898   1.297   1.325  12.370 -1.1530  0.4811 -0.9841
  734MPD2    C210899   1.336   1.364  12.241 -0.1973  0.7316 -0.3735
  734MPD2    C310900   1.380   1.497  12.223  0.2976  0.1208  0.1835
  734MPD2    C410901   1.387   1.582  12.327 -0.4188  0.3474 -0.2770
  734MPD2    C510902   1.341   1.543  12.449  0.2676 -0.3759  0.9537
  734MPD2     H10903   1.321   1.313  12.147 -1.6612  2.1080 -0.8854
  734MPD2    H110904   1.429   1.682  12.322 -1.0908  0.7405  1.8683
  734MPD2    H210905   1.267   1.391  12.570  0.0304  1.6788  0.6243
  734MPD2    H310906   1.335   1.613  12.531 -1.3495  0.3295  0.2438
  734MPD2     N10907   1.436   1.523  12.094 -0.0562  0.0711  0.0321
  734MPD2    H510908   1.424   1.448  12.027  0.9990  0.6624 -0.7979
  734MPD2    N110909   1.210   1.214  12.390  1.3548  0.0754  0.3910
  734MPD2    H710910   1.195   1.177  12.483  2.8152  0.6665  0.8593
  735TMC3    C110911   1.081   1.018  12.331  0.0166 -0.3595 -0.4717
  735TMC3    C210912   1.018   0.962  12.227 -0.5283 -0.5608 -0.8226
  735TMC3    C310913   1.075   0.859  12.164  0.1235  0.1348  0.6233
  735TMC3    C410914   1.178   0.942  12.397  0.2308 -0.5708  0.5186
  735TMC3    C510915   1.230   0.830  12.330 -0.1407  0.1808  0.5944
  735TMC3    C610916   1.179   0.788  12.211 -0.3713  0.4540 -0.3553
  735TMC3     C10917   1.146   1.148  12.286 -0.1419  0.4847 -0.1900
  735TMC3     O10918   1.131   1.176  12.167 -0.8902  0.3736  0.6000
  735TMC3     H10919   0.936   1.015  12.179  0.5612  1.4708 -0.4560
  735TMC3    H110920   1.234   0.982  12.481 -0.8786  1.6627  0.2005
  735TMC3    H210921   1.210   0.702  12.153 -1.1484 -0.6853  0.8936
  735TMC3    C710922   1.368   0.798  12.358 -0.1064 -0.5310 -0.4340
  735TMC3    C810923   1.055   0.854  12.018  0.7719 -0.1152  0.6743
  735TMC3    O110924   1.436   0.751  12.271  0.1512 -0.0487  0.4656
  735TMC3    O210925   1.068   0.747  11.953  0.1062  0.1514  0.7446
  736MPD2     C10926   1.541   0.770  12.671  0.0640  0.6535 -0.2799
  736MPD2    C110927   1.532   0.804  12.542 -0.2256  0.7282 -0.5647
  736MPD2    C210928   1.646   0.816  12.459  0.2401 -0.3366  0.2015
  736MPD2    C310929   1.766   0.805  12.521 -0.2647  0.8850  0.0807
  736MPD2    C410930   1.784   0.766  12.653  0.6788 -0.1870 -0.1790
  736MPD2    C510931   1.668   0.747  12.720 -0.0826 -0.4290 -0.1058
  736MPD2     H10932   1.637   0.819  12.351 -0.4235 -0.2780  0.2576
  736MPD2    H110933   1.879   0.773  12.705  0.8680  3.3232 -1.0227
  736MPD2    H210934   1.455   0.757  12.735  0.6495  0.6220  0.4975
  736MPD2    H310935   1.664   0.727  12.827  0.3298  0.7305  0.1253
  736MPD2     N10936   1.885   0.841  12.463  0.2455  0.4129 -0.2297
  736MPD2    H510937   1.971   0.848  12.516 -0.2699 -0.3849  0.7107
  736MPD2    N110938   1.405   0.824  12.488 -0.0068 -0.4118 -0.2945
  736MPD2    H710939   1.330   0.845  12.554 -1.0538 -0.3898 -1.4837
  737TMC3    C110940   2.038   0.906  12.304  0.8750  0.2170 -0.2378
  737TMC3    C210941   2.056   0.992  12.206  0.2179 -0.0861  0.0697
  737TMC3    C310942   2.182   0.989  12.142 -0.2082 -0.6136 -0.3651
  737TMC3    C410943   2.121   0.808  12.342  0.1146 -0.2268 -0.3133
  737TMC3    C510944   2.237   0.793  12.270 -0.6873 -0.7060 -1.0026
  737TMC3    C610945   2.273   0.886  12.176  0.9256  0.3397  0.7004
  737TMC3     C10946   1.898   0.894  12.336 -0.7359  0.0525 -0.9190
  737TMC3     O10947   1.813   0.922  12.253 -0.7821 -0.2267  0.5176
  737TMC3     H10948   1.990   1.078  12.203  0.5895  0.1446 -1.5823
  737TMC3    H110949   2.089   0.724  12.404  0.3144  0.9117  1.3357
  737TMC3    H210950   2.370   0.874  12.129  0.2783 -0.5858 -0.3923
  737TMC3    C710951   2.313   0.676  12.288  0.0619 -0.5072 -0.1345
  737TMC3    C810952   2.234   1.095  12.056  0.1356  0.0016 -0.2924
  737TMC3    O110953   2.285   0.600  12.377 -0.2051 -0.7095  0.6085
  737TMC3    O210954   2.350   1.120  12.075  0.1435  0.3151  0.1159
  738MPD2     C10955   2.179   4.306  15.191 -0.0726 -0.2624  0.1272
  738MPD2    C110956   2.226   4.185  15.154 -0.1998  0.0479 -0.0662
  738MPD2    C210957   2.346   4.172  15.091  1.3519 -0.0601  0.1832
  738MPD2    C310958   2.409   4.290  15.055  0.4738  0.3018 -0.2517
  738MPD2    C410959   2.353   4.408  15.082  0.1789  0.2948 -0.6148
  738MPD2    C510960   2.242   4.422  15.162  0.5195  0.3932  1.2723
  738MPD2     H10961   2.396   4.079  15.067  2.0673  0.9763 -2.3486
  738MPD2    H110962   2.405   4.500  15.056  1.4151 -0.0592  0.5703
  738MPD2    H210963   2.080   4.322  15.234 -0.7859 -2.4467 -0.7468
  738MPD2    H310964   2.204   4.523  15.170 -0.7407 -0.2380  3.2197
  738MPD2     N10965   2.539   4.297  14.997  0.2372 -0.0525  0.2715
  738MPD2    H510966   2.568   4.389  14.967 -1.1224  0.6263  1.0736
  738MPD2    N110967   2.150   4.063  15.169  0.1261 -0.1772  0.3125
  738MPD2    H710968   2.185   3.978  15.127 -0.1836 -0.2448  0.1981
  739TMC3    C110969   2.748   4.222  14.921 -0.1462 -0.0677  0.1638
  739TMC3    C210970   2.763   4.322  14.836  0.3912 -0.3318  0.2123
  739TMC3    C310971   2.870   4.327  14.756 -0.8966  0.1084 -0.0481
  739TMC3    C410972   2.845   4.131  14.950  0.4059 -0.4797  0.1901
  739TMC3    C510973   2.958   4.139  14.870 -0.4036 -0.5109  0.0337
  739TMC3    C610974   2.974   4.235  14.772 -0.0617  0.2750 -0.0738
  739TMC3     C10975   2.623   4.186  14.981  0.3010  0.4216 -1.0652
  739TMC3     O10976   2.613   4.075  15.027  0.1347 -0.3699 -0.4113
  739TMC3     H10977   2.677   4.386  14.821  1.5723  0.5615 -2.6452
  739TMC3    H110978   2.836   4.047  15.018 -0.0368  0.2667  1.0479
  739TMC3    H210979   3.065   4.243  14.713  0.8584 -0.1809  1.2947
  739TMC3    C710980   3.042   4.024  14.870  0.3604 -0.2710 -0.3168
  739TMC3    C810981   2.872   4.403  14.634 -0.2255  0.0881  0.9297
  739TMC3    O110982   3.087   3.990  14.759 -0.7310  0.2473 -0.1058
  739TMC3    O210983   2.781   4.488  14.630 -0.3059  0.0419  0.0847
  740TMC3    C110984   2.675   0.967  14.667 -0.6566  0.1780 -0.1732
  740TMC3    C210985   2.702   0.851  14.748 -1.0449  1.3076 -0.0880
  740TMC3    C310986   2.823   0.788  14.734 -0.5237 -0.0443 -0.2964
  740TMC3    C410987   2.768   1.018  14.586  0.2392  0.1912  0.1755
  740TMC3    C510988   2.886   0.948  14.574 -0.3177 -0.3593 -0.3915
  740TMC3    C610989   2.921   0.837  14.655 -0.4511 -0.1198  0.4981
  740TMC3     C10990   2.570   1.057  14.717  0.4138  0.4070 -0.6257
  740TMC3     O10991   2.586   1.180  14.720 -0.5557 -0.1100 -0.1543
  740TMC3     H10992   2.628   0.815  14.819 -0.6207 -1.7702 -1.1979
  740TMC3    H110993   2.759   1.112  14.533 -0.2380 -0.9666 -1.7974
  740TMC3    H210994   3.012   0.779  14.639 -0.1016  0.3148  0.9399
  740TMC3    C710995   3.000   1.024  14.526 -0.0714  0.3405  0.5470
  740TMC3    C810996   2.849   0.664  14.810 -0.6926  0.5624  0.0450
  740TMC3    O110997   3.107   1.000  14.583  0.1909  0.3907 -0.0622
  740TMC3    O210998   2.964   0.641  14.845  0.1022 -0.0623  0.4362
  741TMC3    C110999   2.618   0.564  14.447 -0.1117  0.8615 -0.0843
  741TMC3    C211000   2.512   0.481  14.459  0.3637  0.2631 -0.3405
  741TMC3    C311001   2.538   0.357  14.502 -0.1017  0.7624  0.2124
  741TMC3    C411002   2.749   0.520  14.453 -0.0442  0.5946  0.0180
  741TMC3    C511003   2.777   0.395  14.490 -0.0743 -0.2992  0.1063
  741TMC3    C611004   2.669   0.321  14.521 -0.3104 -0.2356  0.2187
  741TMC3     C11005   2.590   0.705  14.424 -0.2429  0.6160 -0.5286
  741TMC3     O11006   2.529   0.758  14.512 -0.0272  0.2742 -0.3175
  741TMC3     H11007   2.411   0.511  14.431 -0.6948 -1.9380  1.1309
  741TMC3    H111008   2.832   0.587  14.431 -0.9591  1.0300 -2.0801
  741TMC3    H211009   2.687   0.222  14.561 -0.2265  0.1393  1.0949
  741TMC3    C711010   2.896   0.368  14.569  0.4654  0.2183  0.4113
  741TMC3    C811011   2.459   0.258  14.436 -0.2401 -0.8321 -0.2768
  741TMC3    O111012   2.972   0.459  14.590  0.3596  0.4219  0.2788
  741TMC3    O211013   2.356   0.290  14.380  0.5006  0.0201  0.3740
  742TMC3    C111014   2.220   3.129  15.566  0.3991 -0.8677  0.2424
  742TMC3    C211015   2.123   3.113  15.463  0.4574 -0.7788 -0.5404
  742TMC3    C311016   2.156   3.151  15.336 -0.3213  0.5143  0.9173
  742TMC3    C411017   2.335   3.198  15.547 -0.1415 -1.1283 -0.0977
  742TMC3    C511018   2.354   3.254  15.423 -0.6136  0.5989  0.4526
  742TMC3    C611019   2.265   3.232  15.319 -0.4262 -0.3634 -0.0091
  742TMC3     C11020   2.169   3.116  15.703  0.1787  0.0203 -0.3291
  742TMC3     O11021   2.212   3.194  15.790 -0.2030  0.5227 -0.5470
  742TMC3     H11022   2.047   3.037  15.477 -0.7341  0.0086 -2.7683
  742TMC3    H111023   2.407   3.194  15.628  1.1462  0.1420 -1.1807
  742TMC3    H211024   2.294   3.274  15.223  0.0921 -0.4491  0.1076
  742TMC3    C711025   2.489   3.311  15.386  0.0399 -0.1030  0.5331
  742TMC3    C811026   2.077   3.133  15.218 -0.8317 -0.5698 -0.4688
  742TMC3    O111027   2.513   3.306  15.265 -0.2481 -0.1010  0.0591
  742TMC3    O211028   2.122   3.172  15.110  0.7337 -0.0617 -0.1517
  743MPD2     C11029   4.523   0.492   2.046  0.7376  0.1898  0.4297
  743MPD2    C111030   4.627   0.442   1.978 -0.1165  0.1555  0.0768
  743MPD2    C211031   0.015   0.506   1.988 -0.1641 -0.5864 -0.3745
  743MPD2    C311032   0.037   0.613   2.068  0.0911 -0.2500  0.6523
  743MPD2    C411033   4.665   0.677   2.131 -0.6969 -0.0576 -0.0262
  743MPD2    C511034   4.538   0.612   2.117  0.1758  0.0215  0.2900
  743MPD2     H11035   0.098   0.473   1.926 -0.4234 -2.5173  0.3072
  743MPD2    H111036   4.665   0.769   2.188 -2.2154  0.2925 -0.5784
  743MPD2    H211037   4.425   0.446   2.042  0.3895  1.1054 -1.8477
  743MPD2    H311038   4.449   0.651   2.165  0.1437 -0.3447  0.5297
  743MPD2     N11039   0.172   0.663   2.070 -0.3787 -0.6682  0.0887
  743MPD2    H511040   0.240   0.598   2.033 -1.9375 -2.8617  1.0488
  743MPD2    N111041   4.604   0.321   1.906 -0.0189 -0.3935  0.2260
  743MPD2    H711042   4.512   0.281   1.921 -0.7365  1.0323 -0.3585
  744TMC3    C111043   4.628   0.134   1.760  0.9330  0.0126  0.0821
  744TMC3    C211044   4.495   0.096   1.768 -0.2287  0.2305  0.0752
  744TMC3    C311045   4.444   4.729   1.691 -0.2297  0.3779  0.6116
  744TMC3    C411046   4.702   0.082   1.658 -0.8041 -0.0228  0.1275
  744TMC3    C511047   4.655   4.710   1.593  0.0989  0.6737  0.4911
  744TMC3    C611048   4.533   4.660   1.616 -0.4773 -0.8854 -0.1216
  744TMC3     C11049   4.689   0.252   1.819  0.4967 -0.0016 -0.6451
  744TMC3     O11050   0.061   0.298   1.777 -0.1658  0.5649  0.1798
  744TMC3     H11051   4.440   0.101   1.861  1.1861 -2.2728  1.0462
  744TMC3    H111052   0.064   0.122   1.639 -0.7640 -1.2641 -2.2515
  744TMC3    H211053   4.497   4.566   1.575 -1.1563 -0.2679 -0.9314
  744TMC3    C711054   4.713   4.685   1.462  0.3313  0.0465  0.2314
  744TMC3    C811055   4.325   4.665   1.733  0.3036 -0.5684 -0.5603
  744TMC3    O111056   0.064   0.025   1.440 -0.1937  0.4781 -0.0164
  744TMC3    O211057   4.314   4.543   1.725  0.0113  0.4105  0.6470
  745TMC3    C111058   2.849   3.295  13.942 -0.3587 -0.0446 -0.9794
  745TMC3    C211059   2.740   3.222  13.984  0.4483  0.6968  0.5656
  745TMC3    C311060   2.612   3.231  13.925 -0.2827  0.4556  0.1350
  745TMC3    C411061   2.848   3.369  13.830  0.4297  0.3353  0.0701
  745TMC3    C511062   2.724   3.365  13.763  0.0864  0.0971  1.0504
  745TMC3    C611063   2.608   3.307  13.812 -0.0962  0.9249  0.4423
  745TMC3     C11064   2.919   3.349  14.057  1.1550 -0.5095  0.2739
  745TMC3     O11065   2.853   3.323  14.157  0.5785  0.0027 -0.4559
  745TMC3     H11066   2.751   3.156  14.070  0.8960  1.1575  0.8588
  745TMC3    H111067   2.935   3.421  13.791 -1.9604  3.3285 -1.2461
  745TMC3    H211068   2.518   3.311  13.753 -0.2410  1.9576  0.7390
  745TMC3    C711069   2.705   3.461  13.652 -0.1386 -0.5619 -0.6453
  745TMC3    C811070   2.506   3.266  14.022 -0.5617  0.1404 -0.3166
  745TMC3    O111071   2.597   3.522  13.641 -0.0181  0.0486 -0.2810
  745TMC3    O211072   2.390   3.280  13.991  0.4854 -0.5509  0.3910
  746TMC3    C111073   0.430   0.402  11.061  0.1010 -1.0557  0.8148
  746TMC3    C211074   0.511   0.383  10.953 -0.3793 -0.2297 -0.3921
  746TMC3    C311075   0.456   0.307  10.857  0.0514 -0.9882  0.7832
  746TMC3    C411076   0.314   0.331  11.078  0.3242 -0.3065 -0.0465
  746TMC3    C511077   0.267   0.240  10.986  0.2558 -0.2560  0.1997
  746TMC3    C611078   0.343   0.228  10.874  0.0535 -0.2602 -0.7676
  746TMC3     C11079   0.431   0.529  11.130 -0.1997  0.0043  0.1642
  746TMC3     O11080   0.346   0.556  11.216 -0.1760 -0.0294 -0.5483
  746TMC3     H11081   0.610   0.421  10.932 -0.2771  0.6707  1.7764
  746TMC3    H111082   0.249   0.352  11.162 -1.5902  0.0882 -1.6241
  746TMC3    H211083   0.308   0.175  10.786 -1.7478 -0.7989  0.3003
  746TMC3    C711084   0.150   0.155  11.002 -0.1176  0.1989 -0.1898
  746TMC3    C811085   0.527   0.288  10.735 -0.0560 -0.1252  0.7598
  746TMC3    O111086   0.091   0.137  10.898  0.1476 -0.2193 -0.5962
  746TMC3    O211087   0.533   0.179  10.681 -0.0722  0.3702  0.8359
  747TMC3    C111088   2.807   0.441  11.522  0.1923 -0.6762  0.7753
  747TMC3    C211089   2.743   0.396  11.633  0.6624 -0.0185  0.0847
  747TMC3    C311090   2.820   0.318  11.719  0.5637  0.4261  0.2751
  747TMC3    C411091   2.939   0.415  11.502 -0.0223 -0.0896 -0.5383
  747TMC3    C511092   3.016   0.341  11.589  0.0527 -0.0883  0.7285
  747TMC3    C611093   2.956   0.299  11.704 -0.1575 -0.1099 -0.0783
  747TMC3     C11094   2.732   0.510  11.414 -0.5133 -0.6410  0.2971
  747TMC3     O11095   2.625   0.559  11.443 -0.6393  0.1175 -0.3731
  747TMC3     H11096   2.638   0.420  11.641  0.9160  1.2569 -0.2904
  747TMC3    H111097   2.985   0.440  11.407  0.1287 -0.4316 -0.5518
  747TMC3    H211098   3.015   0.256  11.785 -0.0136  0.9997  0.4081
  747TMC3    C711099   3.152   0.392  11.606  1.0984  0.1729 -0.0362
  747TMC3    C811100   2.772   0.298  11.861  0.2827  0.4863 -0.2553
  747TMC3    O111101   3.176   0.498  11.547 -0.0103 -0.0138 -0.0485
  747TMC3    O211102   2.820   0.200  11.919 -0.0475 -0.6423 -0.3677
  748MPD2     C11103   3.688   0.045   1.218  1.1369  0.7398  0.2578
  748MPD2    C111104   3.789   0.082   1.131  0.1480  0.4383  0.7836
  748MPD2    C211105   3.851   0.202   1.165  0.3739 -0.6175  0.4224
  748MPD2    C311106   3.814   0.285   1.273 -0.4295 -0.0423  0.3536
  748MPD2    C411107   3.713   0.242   1.354 -0.2273 -0.4147 -0.0686
  748MPD2    C511108   3.649   0.125   1.319  0.1680 -0.1065  0.0122
  748MPD2     H11109   3.929   0.239   1.099 -2.3473  0.3183 -2.2721
  748MPD2    H111110   3.687   0.290   1.448  0.6613  0.3900 -0.2248
  748MPD2    H211111   3.649   4.682   1.206 -2.3285  1.9360  1.2374
  748MPD2    H311112   3.571   0.078   1.377 -1.4152  3.2513  0.6573
  748MPD2     N11113   3.889   0.401   1.291 -0.0635 -0.4685 -0.2222
  748MPD2    H511114   3.975   0.416   1.238 -1.9273  2.2062 -2.4773
  748MPD2    N111115   3.820   0.004   1.014 -0.0416 -0.3806  0.0778
  748MPD2    H711116   3.747   4.677   0.988  1.3449 -1.6563 -0.6511
  749TMC3    C111117   3.945   0.610   1.373 -0.2464  0.3444  0.1458
  749TMC3    C211118   3.993   0.661   1.495 -0.0405  0.0882 -0.4017
  749TMC3    C311119   4.094   0.756   1.498 -0.2714 -0.0362 -0.1129
  749TMC3    C411120   4.002   0.663   1.261 -0.2370  0.2602  0.0121
  749TMC3    C511121   4.107   0.751   1.275 -0.8004 -0.0633  0.4185
  749TMC3    C611122   4.150   0.803   1.386  0.6013 -0.5082  0.2509
  749TMC3     C11123   3.848   0.505   1.378  1.1076  0.3519 -0.2457
  749TMC3     O11124   3.753   0.516   1.458  0.4089  0.6063 -0.1468
  749TMC3     H11125   3.957   0.606   1.581 -2.8104  0.4496 -1.3564
  749TMC3    H111126   3.986   0.621   1.162 -2.3028  1.3428 -0.0974
  749TMC3    H211127   4.228   0.878   1.394  1.4135 -1.3190 -0.0676
  749TMC3    C711128   4.154   0.814   1.154 -0.5597  0.2381  0.1591
  749TMC3    C811129   4.145   0.799   1.628  0.4737  0.5803  0.4878
  749TMC3    O111130   4.080   0.813   1.059 -0.2075 -0.6488 -0.2917
  749TMC3    O211131   4.055   0.819   1.715  0.6324  0.3166  0.1737
  750MPD2     C11132   0.890   2.435  11.351 -0.4797  0.5224  0.0022
  750MPD2    C111133   0.751   2.448  11.375 -0.2363 -0.5876 -0.4459
  750MPD2    C211134   0.663   2.350  11.320 -0.2047 -0.2073  0.0907
  750MPD2    C311135   0.715   2.249  11.237 -0.0891 -1.0086 -0.9770
  750MPD2    C411136   0.846   2.236  11.219  0.0779  0.2692 -0.4932
  750MPD2    C511137   0.930   2.333  11.270  0.4921 -0.5081  0.4169
  750MPD2     H11138   0.556   2.360  11.335 -0.4628 -3.7961  0.6392
  750MPD2    H111139   0.887   2.162  11.151 -1.0396  0.5325 -1.4719
  750MPD2    H211140   0.973   2.502  11.367  1.4521 -2.1531  1.1976
  750MPD2    H311141   1.033   2.320  11.237  0.4863 -2.4105  1.1455
  750MPD2     N11142   0.636   2.146  11.181 -0.0379  0.0565  0.3135
  750MPD2    H511143   0.691   2.067  11.150  0.0665 -0.2354  1.2292
  750MPD2    N111144   0.712   2.563  11.449  0.0339  0.1984  0.4847
  750MPD2    H711145   0.785   2.630  11.469 -0.2384  0.6008  0.1373
  751TMC3    C111146   0.466   2.012  11.098 -0.0706 -0.3733  0.1134
  751TMC3    C211147   0.341   1.956  11.121 -0.0089  1.0443  0.2233
  751TMC3    C311148   0.286   1.878  11.025  0.3253 -0.3154  0.4721
  751TMC3    C411149   0.538   1.972  10.989  0.4064 -0.0944 -0.1861
  751TMC3    C511150   0.478   1.885  10.901 -1.1029 -0.3577 -0.7378
  751TMC3    C611151   0.358   1.831  10.921  0.4892  0.0215 -0.0325
  751TMC3     C11152   0.503   2.126  11.177  0.2004  0.0511  0.2973
  751TMC3     O11153   0.418   2.184  11.237 -0.3493  0.0587 -0.5701
  751TMC3     H11154   0.278   1.982  11.205 -0.6423  1.3736 -0.3589
  751TMC3    H111155   0.634   2.017  10.969  0.2643  0.1917 -0.2134
  751TMC3    H211156   0.311   1.749  10.867  2.2605 -0.5337 -0.7107
  751TMC3    C711157   0.549   1.856  10.773 -0.7049  0.2707  0.1536
  751TMC3    C811158   0.165   1.806  11.042 -0.0049 -0.0858 -0.1637
  751TMC3    O111159   0.649   1.922  10.748 -0.1427  0.7812  0.0753
  751TMC3    O211160   0.094   1.780  10.943  0.2099 -0.5182 -0.1792
  752TMC3    C111161   3.384   1.461  16.906 -0.2272  0.0425 -0.7091
  752TMC3    C211162   3.437   1.350  16.969 -0.5789 -0.1450  0.7974
  752TMC3    C311163   3.367   1.292  17.073 -0.5063  0.0195 -0.1328
  752TMC3    C411164   3.280   1.524  16.956 -0.3366  0.3410 -0.7517
  752TMC3    C511165   3.213   1.470  17.062  0.3884 -0.1289  0.2906
  752TMC3    C611166   3.255   1.353  17.122 -0.4931 -0.3779 -0.0562
  752TMC3     C11167   3.416   1.481  16.762  0.2392  0.5394 -0.3589
  752TMC3     O11168   3.522   1.442  16.723  0.4280 -0.3779 -0.0153
  752TMC3     H11169   3.522   1.299  16.925 -2.4936  0.7768 -3.9631
  752TMC3    H111170   3.237   1.612  16.910 -0.2558 -0.5235 -2.4907
  752TMC3    H211171   3.192   1.295  17.188  1.6311 -2.1788  0.4101
  752TMC3    C711172   3.090   1.535  17.096 -0.1425  0.3403  0.3465
  752TMC3    C811173   3.406   1.153  17.099 -0.5406 -0.0088  0.3085
  752TMC3    O111174   3.032   1.593  17.002  0.0695  0.1562 -0.6914
  752TMC3    O211175   3.489   1.098  17.026  0.4270 -0.1505  0.3048
  753TMC3    C111176   0.877   3.524  13.323  0.5788 -0.1088  0.4222
  753TMC3    C211177   0.912   3.469  13.446  0.2472 -0.3647  0.3875
  753TMC3    C311178   0.910   3.337  13.465  0.1630 -0.2405  0.1505
  753TMC3    C411179   0.852   3.446  13.215  0.4046 -0.5897 -0.8426
  753TMC3    C511180   0.850   3.309  13.245  0.0094  0.3312  0.2157
  753TMC3    C611181   0.881   3.250  13.368  0.6079  0.9475 -0.1225
  753TMC3     C11182   0.905   3.666  13.298  0.1163  0.0007  0.1610
  753TMC3     O11183   0.976   3.708  13.387 -0.1714 -0.4579 -0.2569
  753TMC3     H11184   0.930   3.533  13.532 -1.2346 -0.4654  0.7885
  753TMC3    H111185   0.853   3.480  13.112  2.8130 -1.1537 -1.0135
  753TMC3    H211186   0.900   3.144  13.377 -3.3350  0.2742  0.3873
  753TMC3    C711187   0.832   3.223  13.133 -0.2477 -0.7169 -0.2978
  753TMC3    C811188   0.931   3.271  13.597 -0.6913  0.0643  0.2537
  753TMC3    O111189   0.831   3.267  13.020 -0.2299  0.0102  0.0369
  753TMC3    O211190   0.923   3.146  13.597  1.1442  0.0776  0.4933
  754MPD2     C11191   4.715   2.301  13.240 -0.2235  0.6238  0.2500
  754MPD2    C111192   0.003   2.174  13.202 -0.2004 -0.4836 -0.7235
  754MPD2    C211193   4.635   2.080  13.197 -1.3616  0.1834  0.4585
  754MPD2    C311194   4.508   2.109  13.232 -0.1031 -0.5740  0.3877
  754MPD2    C411195   4.486   2.238  13.281 -0.3146  0.0360 -0.0707
  754MPD2    C511196   4.590   2.326  13.289 -0.3574  0.1516  0.1212
  754MPD2     H11197   4.658   1.983  13.155  0.0196  0.0849  1.4375
  754MPD2    H111198   4.384   2.267  13.307 -0.3860 -0.6811  0.4377
  754MPD2    H211199   0.048   2.383  13.249  0.8403 -0.1135 -1.3981
  754MPD2    H311200   4.574   2.427  13.327 -0.3331  0.5659 -0.9644
  754MPD2     N11201   4.405   2.020  13.229  0.2910  0.2460 -0.6856
  754MPD2    H511202   4.319   2.056  13.269 -0.9513 -2.0730 -1.3006
  754MPD2    N111203   0.139   2.143  13.180  0.1463  0.0536 -0.0931
  754MPD2    H711204   0.203   2.218  13.155  0.0042 -0.1560 -1.0896
  755MPD2     C11205   3.766   2.257  13.560  0.3140  0.3773 -0.1797
  755MPD2    C111206   3.703   2.144  13.517 -0.8594 -0.5784  0.2902
  755MPD2    C211207   3.775   2.053  13.440  0.3026  0.4053 -0.2358
  755MPD2    C311208   3.907   2.073  13.415  0.5094 -0.9888 -0.1351
  755MPD2    C411209   3.973   2.192  13.454 -0.5524 -0.3233  1.1013
  755MPD2    C511210   3.901   2.274  13.536 -0.4971 -0.5053  0.2465
  755MPD2     H11211   3.722   1.968  13.400  1.5442  0.2011 -1.4484
  755MPD2    H111212   4.078   2.214  13.437 -1.5143  1.5203 -2.4809
  755MPD2    H211213   3.710   2.338  13.604 -1.9441 -0.5036 -1.4374
  755MPD2    H311214   3.951   2.365  13.568 -2.8424  0.9876 -0.3999
  755MPD2     N11215   3.987   1.979  13.343  0.1431  0.9047  0.6005
  755MPD2    H511216   4.088   1.988  13.354  0.6969 -3.6144 -0.7292
  755MPD2    N111217   3.570   2.114  13.539 -0.0274 -0.0029 -0.0508
  755MPD2    H711218   3.544   2.016  13.532  1.8406 -0.5851  1.2861
  756MPD2     C11219   4.533   3.090   9.948  0.6251  0.3778 -0.5565
  756MPD2    C111220   4.512   3.007  10.056  0.6000  0.4420  0.6176
  756MPD2    C211221   4.451   2.883  10.036 -0.1544 -1.0955 -0.0174
  756MPD2    C311222   4.406   2.843   9.913  0.3866 -0.3575 -0.0921
  756MPD2    C411223   4.428   2.925   9.803 -0.5744 -0.5354  0.1205
  756MPD2    C511224   4.487   3.054   9.821 -0.2066  0.3863 -0.1017
  756MPD2     H11225   4.431   2.823  10.124  0.4929  0.5860  1.2679
  756MPD2    H111226   4.381   2.916   9.705 -0.6007  0.6222  0.0256
  756MPD2    H211227   4.568   3.192   9.953  0.8262  0.2644  0.2768
  756MPD2    H311228   4.494   3.119   9.734  0.2562 -1.0628 -1.1478
  756MPD2     N11229   4.324   2.725   9.910  0.1218 -0.2375  0.4539
  756MPD2    H511230   4.323   2.666   9.993  0.4361  1.4279  1.6350
  756MPD2    N111231   4.541   3.038  10.192  0.4363  0.0955  0.1525
  756MPD2    H711232   4.496   2.979  10.262 -0.3387 -0.0079 -0.4292
  757MPD2     C11233   4.018   1.837   9.365  0.7127  0.2012 -0.4173
  757MPD2    C111234   3.903   1.869   9.436 -0.2028  0.6247 -0.7916
  757MPD2    C211235   3.917   1.958   9.538 -0.0282  0.2787  0.1320
  757MPD2    C311236   4.038   2.030   9.559  1.0081  0.3255 -0.2759
  757MPD2    C411237   4.150   1.999   9.481  0.6717  0.7041 -0.1610
  757MPD2    C511238   4.141   1.899   9.384  0.1686  0.3393  0.6947
  757MPD2     H11239   3.833   1.985   9.601  0.8170 -1.0262  1.8035
  757MPD2    H111240   4.243   2.052   9.490  0.1745  1.2144  1.9714
  757MPD2    H211241   4.013   1.765   9.285  2.1234  1.3406 -1.5300
  757MPD2    H311242   4.231   1.880   9.327 -0.7355 -0.3563 -0.5060
  757MPD2     N11243   4.035   2.146   9.637  0.2894  0.3071 -0.1890
  757MPD2    H511244   3.953   2.153   9.696  0.4904 -1.1266  0.2735
  757MPD2    N111245   3.782   1.808   9.389  0.9397  0.7319 -0.4761
  757MPD2    H711246   3.791   1.745   9.310  1.1457  2.0845 -1.5388
  758MPD2     C11247   0.155   1.469  15.892  0.2580 -0.0267 -0.1158
  758MPD2    C111248   0.086   1.351  15.872  0.2092 -0.4006  0.1122
  758MPD2    C211249   4.737   1.304  15.973  0.7153  0.0459 -0.0691
  758MPD2    C311250   4.726   1.371  16.089  0.5183  1.1076  0.3421
  758MPD2    C411251   0.070   1.481  16.113  0.1334 -0.3859 -0.6007
  758MPD2    C511252   0.158   1.524  16.016  0.1855  0.0294 -0.0006
  758MPD2     H11253   4.682   1.212  15.959  0.1546  0.4076 -0.2159
  758MPD2    H111254   0.053   1.539  16.203  0.5119 -1.3136  0.0722
  758MPD2    H211255   0.221   1.508  15.815  1.1890  0.6492  1.0291
  758MPD2    H311256   0.225   1.604  16.043  2.2194 -0.9859 -2.0888
  758MPD2     N11257   4.645   1.333  16.195  0.3618 -0.5751 -0.1445
  758MPD2    H511258   4.654   1.389  16.279 -0.9760 -0.6276  0.0386
  758MPD2    N111259   0.124   1.284  15.757  0.4316 -0.2057  0.3366
  758MPD2    H711260   0.193   1.331  15.700 -1.4524  0.0215 -1.7276
  759MPD2     C11261   3.740   0.033  10.589 -0.3898  0.0833 -0.3418
  759MPD2    C111262   3.822   4.672  10.536  0.1349 -1.2963  0.3050
  759MPD2    C211263   3.897   4.702  10.419 -0.5218  0.7207 -0.4531
  759MPD2    C311264   3.889   0.087  10.364  0.1685  0.0802 -0.2806
  759MPD2    C411265   3.797   0.176  10.409  0.4350  0.1101 -0.4139
  759MPD2    C511266   3.722   0.151  10.514 -0.1287  0.4428 -0.2800
  759MPD2     H11267   3.963   4.635  10.365 -0.1738 -0.9475  2.0771
  759MPD2    H111268   3.787   0.276  10.368 -2.1513  0.9166  2.1976
  759MPD2    H211269   3.687   0.016  10.682  0.7336  1.7932  0.6062
  759MPD2    H311270   3.654   0.229  10.548  0.7339  0.8148  0.5741
  759MPD2     N11271   3.965   0.111  10.251  0.1158 -0.9176 -0.5249
  759MPD2    H511272   4.045   0.051  10.235  0.7396  0.1348 -1.3768
  759MPD2    N111273   3.829   4.540  10.578  0.3741 -0.2390  0.0417
  759MPD2    H711274   3.872   4.474  10.513  0.7703 -1.9295  2.0456
  760MPD2     C11275   3.238   1.730  12.296  0.1107 -0.0506  0.7603
  760MPD2    C111276   3.315   1.833  12.335  0.3976  0.5377 -0.2123
  760MPD2    C211277   3.449   1.822  12.310 -0.5109 -0.3026 -0.1706
  760MPD2    C311278   3.512   1.713  12.256  0.5281  0.2712  0.5068
  760MPD2    C411279   3.441   1.597  12.239  0.5365  0.2980 -0.7142
  760MPD2    C511280   3.304   1.615  12.251  0.1181 -0.3354 -0.0244
  760MPD2     H11281   3.510   1.909  12.332  1.1855 -1.3878 -0.5418
  760MPD2    H111282   3.478   1.501  12.206 -1.5907 -0.5526 -0.6324
  760MPD2    H211283   3.130   1.720  12.305 -0.4578  1.9344 -3.8715
  760MPD2    H311284   3.243   1.529  12.224  1.7227 -1.9825  1.6150
  760MPD2     N11285   3.648   1.711  12.210  1.0058 -0.6661  0.0200
  760MPD2    H511286   3.678   1.624  12.167  0.7393 -0.4326 -0.6386
  760MPD2    N111287   3.275   1.958  12.383  0.1303  0.5964  0.1269
  760MPD2    H711288   3.349   2.027  12.395 -0.4002  1.6286 -2.5905
  761MPD2     C11289   4.597   1.521  11.333  0.3113  0.1606  0.0889
  761MPD2    C111290   4.629   1.502  11.206 -0.4507 -0.2012 -0.8180
  761MPD2    C211291   4.718   1.590  11.146 -0.7201  0.4799 -0.0345
  761MPD2    C311292   0.048   1.681  11.225 -0.3609  0.1155  0.8271
  761MPD2    C411293   0.023   1.685  11.359 -0.2440  0.1845  0.6859
  761MPD2    C511294   4.674   1.600  11.416 -0.2912  0.1010  0.4239
  761MPD2     H11295   0.001   1.592  11.040 -0.0158  1.0561  0.1090
  761MPD2    H111296   0.072   1.762  11.418  0.7748 -1.7917  2.4241
  761MPD2    H211297   4.510   1.477  11.381  0.1663  0.0871 -0.2413
  761MPD2    H311298   4.644   1.608  11.520 -0.8295 -1.9524  0.4240
  761MPD2     N11299   0.144   1.778  11.176  0.0542  0.0288  0.3648
  761MPD2    H511300   0.184   1.838  11.248 -1.4800  1.5183 -0.0151
  761MPD2    N111301   4.569   1.396  11.135  0.3175  0.1891 -0.0767
  761MPD2    H711302   4.522   1.327  11.192 -0.4894 -0.6831 -1.8112
  762MPD2     C11303   4.659   1.256  10.365  0.5676  0.0399 -0.9898
  762MPD2    C111304   4.723   1.181  10.461  0.7953 -0.7426  0.6142
  762MPD2    C211305   0.113   1.142  10.454  0.8187 -0.0063  0.1608
  762MPD2    C311306   0.187   1.173  10.340 -0.2441 -0.4134 -0.4145
  762MPD2    C411307   0.125   1.245  10.243  0.7972 -0.6390 -0.1721
  762MPD2    C511308   4.726   1.271  10.250  0.3155 -0.4098 -0.2011
  762MPD2     H11309   0.167   1.091  10.533  1.1948 -0.2381 -0.2453
  762MPD2    H111310   0.177   1.267  10.151 -0.5207 -0.5628 -0.9073
  762MPD2    H211311   4.556   1.289  10.361  0.6702  0.5364  0.4379
  762MPD2    H311312   4.678   1.313  10.163  1.1658  1.1152  0.0675
  762MPD2     N11313   0.319   1.141  10.330  0.3520  0.1389  0.0212
  762MPD2    H511314   0.360   1.101  10.414 -0.4672 -1.8921 -0.5629
  762MPD2    N111315   4.642   1.155  10.573  0.1493  0.1290  0.2326
  762MPD2    H711316   4.555   1.206  10.585  1.2445  2.2610 -0.9342
  763MPD2     C11317   1.082   1.724  16.204  0.1319  0.9202  0.6069
  763MPD2    C111318   1.193   1.663  16.159 -0.8542  0.0175 -0.3918
  763MPD2    C211319   1.318   1.711  16.210 -0.1803  0.1226  0.1351
  763MPD2    C311320   1.325   1.826  16.287  0.3547 -0.1167 -0.4723
  763MPD2    C411321   1.203   1.874  16.335  0.4707  0.2650 -0.3195
  763MPD2    C511322   1.082   1.825  16.298  0.3691 -0.0430  0.1192
  763MPD2     H11323   1.411   1.669  16.172 -0.4338 -0.8153  0.5711
  763MPD2    H111324   1.206   1.953  16.411 -0.3572 -0.7157  0.7376
  763MPD2    H211325   0.985   1.685  16.173  0.5303 -0.1583  0.7336
  763MPD2    H311326   0.989   1.869  16.331  1.3383  1.3269  1.0562
  763MPD2     N11327   1.450   1.892  16.314 -0.0650 -0.0147 -0.1241
  763MPD2    H511328   1.536   1.852  16.278 -0.6309  0.5951 -2.1217
  763MPD2    N111329   1.173   1.556  16.072  0.3764  0.2101  0.6034
  763MPD2    H711330   1.078   1.545  16.036  0.0397 -0.6388  1.7325
  764MPD2     C11331   4.129   3.439   0.005 -0.5708 -0.7480 -0.0540
  764MPD2    C111332   4.083   3.324  17.690 -0.0366  0.4783 -0.2690
  764MPD2    C211333   4.025   3.222   0.012  0.0880  0.3806  1.1141
  764MPD2    C311334   4.022   3.221   0.149  0.1182  0.0108 -1.0000
  764MPD2    C411335   4.068   3.332   0.215 -0.0012 -0.2678  0.6390
  764MPD2    C511336   4.116   3.438   0.142  0.2143  0.8282 -0.5434
  764MPD2     H11337   3.981   3.138  17.707  0.7128  0.7352  0.0331
  764MPD2    H111338   4.062   3.348   0.322  0.3961  0.9872  0.4686
  764MPD2    H211339   4.159   3.533  17.709 -1.1610  0.4115  1.9861
  764MPD2    H311340   4.139   3.531   0.193 -0.8942  1.0834 -0.5043
  764MPD2     N11341   3.951   3.120   0.215  0.1964 -0.2112 -0.0311
  764MPD2    H511342   3.885   3.066   0.161 -2.1478  0.2449  2.3395
  764MPD2    N111343   4.094   3.305  17.551  0.2610 -0.2350  0.6203
  764MPD2    H711344   4.075   3.212  17.515 -0.9048  0.4555 -0.5458
  765MPD2     C11345   4.472   1.159  15.405  0.6664  0.4813 -0.1040
  765MPD2    C111346   4.463   1.082  15.521  0.3138 -0.5465 -0.5016
  765MPD2    C211347   4.559   0.988  15.545  0.4566  0.6840  0.5177
  765MPD2    C311348   4.659   0.960  15.458 -0.0114 -0.0159 -0.6980
  765MPD2    C411349   4.662   1.034  15.338  0.3988  0.3679  0.1006
  765MPD2    C511350   4.570   1.132  15.317 -0.1795  0.0696 -0.6205
  765MPD2     H11351   4.555   0.932  15.638  0.2157 -0.8461 -0.4223
  765MPD2    H111352   4.730   1.002  15.260 -1.9865 -0.1508 -1.7655
  765MPD2    H211353   4.406   1.241  15.379  0.6332  1.1760  2.1665
  765MPD2    H311354   4.567   1.182  15.221  1.8732 -1.2895 -1.4136
  765MPD2     N11355   0.006   0.856  15.498  0.1481 -0.3626 -0.1707
  765MPD2    H511356   4.718   0.791  15.571  0.2906 -0.1877  0.0326
  765MPD2    N111357   4.364   1.137  15.608  0.5558  0.0530  0.2155
  765MPD2    H711358   4.317   1.222  15.579  1.2140  0.1251 -0.6268
  766MPD2     C11359   3.741   1.185  15.389 -0.0864 -0.0518 -0.0308
  766MPD2    C111360   3.876   1.169  15.415  0.3808  0.8677  0.3968
  766MPD2    C211361   3.957   1.153  15.306  0.5520  0.5661 -0.7483
  766MPD2    C311362   3.920   1.153  15.174  0.1529  0.3051  0.7712
  766MPD2    C411363   3.785   1.153  15.152 -0.4496  0.1438  0.3164
  766MPD2    C511364   3.701   1.172  15.259 -0.4516 -0.1706 -0.0563
  766MPD2     H11365   4.062   1.157  15.334  0.3946 -0.2103 -0.0712
  766MPD2    H111366   3.739   1.158  15.053  2.4426 -5.0810 -1.2721
  766MPD2    H211367   3.668   1.208  15.467 -1.4448 -0.6987 -1.1064
  766MPD2    H311368   3.595   1.188  15.244 -0.4217 -0.7295 -0.8618
  766MPD2     N11369   4.005   1.152  15.061  0.3758 -0.5014  0.0598
  766MPD2    H511370   3.964   1.163  14.969 -0.1982 -0.5279  0.3094
  766MPD2    N111371   3.939   1.190  15.540  0.5716  0.0586 -0.4970
  766MPD2    H711372   4.037   1.163  15.541  0.7162  0.5438 -1.7975
  767MPD2     C11373   3.473   1.474  15.168  0.1557 -0.7003  0.1176
  767MPD2    C111374   3.608   1.460  15.151 -1.0483 -0.4712  0.5624
  767MPD2    C211375   3.654   1.421  15.026 -0.2711 -0.6460  0.2606
  767MPD2    C311376   3.566   1.385  14.930 -0.6126 -0.2147 -0.4623
  767MPD2    C411377   3.430   1.384  14.955  0.0401 -0.0522 -0.0356
  767MPD2    C511378   3.390   1.412  15.081  0.1274 -0.1564 -0.1471
  767MPD2     H11379   3.759   1.405  15.006 -0.2592  0.4124 -0.5144
  767MPD2    H111380   3.350   1.338  14.898 -1.0115 -0.7912  2.0308
  767MPD2    H211381   3.428   1.503  15.263 -1.9304  0.9940 -1.3901
  767MPD2    H311382   3.287   1.385  15.100 -0.2274  2.7428  2.1639
  767MPD2     N11383   3.605   1.349  14.796 -0.0179  0.2028 -0.2272
  767MPD2    H511384   3.531   1.347  14.726  0.5111  0.7568 -0.8047
  767MPD2    N111385   3.687   1.509  15.260 -0.2933 -0.7030 -0.3912
  767MPD2    H711386   3.640   1.539  15.345 -0.2585  0.7182 -0.8768
  768MPD2     C11387   4.693   4.647  10.599  0.2023  0.5608 -0.5438
  768MPD2    C111388   4.656   4.569  10.707  0.1369 -1.2383 -0.5219
  768MPD2    C211389   0.014   4.542  10.797  0.3006 -0.5574 -0.3791
  768MPD2    C311390   0.146   4.579  10.770 -0.4689  0.0501  0.0813
  768MPD2    C411391   0.190   4.637  10.653  0.1104 -0.2670  0.4009
  768MPD2    C511392   0.087   4.677  10.569 -0.3891 -0.4031  0.3179
  768MPD2     H11393   4.715   4.490  10.886  0.3692 -0.8533 -0.5254
  768MPD2    H111394   0.295   4.660  10.638  0.9033 -3.5469  1.0260
  768MPD2    H211395   4.620   4.673  10.524 -0.2259 -1.6995 -0.9161
  768MPD2    H311396   0.109   4.736  10.481 -1.0897 -1.9624 -0.9159
  768MPD2     N11397   0.243   4.554  10.873 -0.5674 -0.0869 -0.0931
  768MPD2    H511398   0.341   4.568  10.850 -0.2560 -0.9320  0.7363
  768MPD2    N111399   4.522   4.522  10.730 -0.1076 -1.3008 -0.0840
  768MPD2    H711400   4.527   4.440  10.791  2.6316 -1.4639 -0.5100
  769MPD2     C11401   1.030   2.212  14.972 -0.4664 -0.1721 -0.2577
  769MPD2    C111402   0.916   2.290  14.981 -0.2845  0.3668 -0.1536
  769MPD2    C211403   0.901   2.381  15.083 -0.3424 -0.3925  0.2013
  769MPD2    C311404   1.003   2.397  15.173 -0.6829  0.2255  0.2065
  769MPD2    C411405   1.112   2.321  15.172  0.0552  0.1782  0.1474
  769MPD2    C511406   1.129   2.239  15.063 -0.2480 -1.3369 -0.4199
  769MPD2     H11407   0.813   2.444  15.094 -1.2106 -1.5387 -0.1793
  769MPD2    H111408   1.196   2.322  15.241  0.2882  2.8922 -0.1997
  769MPD2    H211409   1.048   2.151  14.884 -0.1704 -1.4869  0.7103
  769MPD2    H311410   1.218   2.178  15.055  0.8192 -0.1692  2.6404
  769MPD2     N11411   0.987   2.489  15.279 -0.1430  0.1440 -0.5113
  769MPD2    H511412   0.895   2.511  15.314  0.5056 -1.1149  2.0504
  769MPD2    N111413   0.827   2.283  14.873 -0.2092  0.0330  0.1506
  769MPD2    H711414   0.849   2.214  14.802 -0.0891  0.0953  0.1267
  770MPD2     C11415   0.043   1.977  15.037  1.3800 -0.4294 -0.0692
  770MPD2    C111416   0.143   2.049  15.090  0.3054 -0.1026  0.3409
  770MPD2    C211417   0.251   2.089  15.015 -0.4041 -0.3547  0.3211
  770MPD2    C311418   0.266   2.052  14.885 -0.4912  0.4257  1.0702
  770MPD2    C411419   0.160   1.987  14.824 -0.7522  0.8636  0.3716
  770MPD2    C511420   0.050   1.952  14.901 -0.4638 -0.0113  0.1804
  770MPD2     H11421   0.330   2.144  15.063 -2.4030  1.4264  1.5856
  770MPD2    H111422   0.160   1.956  14.720  0.8303  0.1662  0.5697
  770MPD2    H211423   4.698   1.932  15.091  2.1046 -1.8782 -0.1629
  770MPD2    H311424   4.718   1.887  14.850 -1.1158  0.6104  0.2743
  770MPD2     N11425   0.381   2.097  14.812  0.7950  0.4053 -0.6937
  770MPD2    H511426   0.451   2.143  14.870  0.7523 -1.2756  0.7103
  770MPD2    N111427   0.145   2.064  15.226  0.0780 -0.2751  0.5486
  770MPD2    H711428   0.073   2.009  15.272  1.3848  0.6860  3.6702
  771MPD2     C11429   1.871   0.496  14.102 -0.7693  0.0925  0.0105
  771MPD2    C111430   1.829   0.608  14.037  0.5480 -0.3105 -0.0580
  771MPD2    C211431   1.753   0.594  13.924  0.2950  1.0122 -0.7677
  771MPD2    C311432   1.718   0.473  13.872 -0.3093  0.2883 -1.1182
  771MPD2    C411433   1.770   0.365  13.932 -0.0116  0.2579 -0.3226
  771MPD2    C511434   1.834   0.377  14.052  0.1753  0.2094  0.9656
  771MPD2     H11435   1.724   0.681  13.866  0.8736  1.3956 -0.4725
  771MPD2    H111436   1.755   0.266  13.891  1.4411  0.1863 -0.6895
  771MPD2    H211437   1.916   0.493  14.201 -0.1737 -1.1650 -0.2902
  771MPD2    H311438   1.860   0.284  14.100 -0.0907  0.8854  2.4357
  771MPD2     N11439   1.630   0.476  13.762 -0.5954 -0.4492  0.1024
  771MPD2    H511440   1.583   0.561  13.732 -1.1017 -0.6960  0.1856
  771MPD2    N111441   1.843   0.735  14.083  0.3296 -0.3976 -0.3023
  771MPD2    H711442   1.816   0.809  14.019  0.0395  2.4306  3.0166
  772MPD2     C11443   1.506   1.099  13.765 -0.0167 -0.6796  0.1278
  772MPD2    C111444   1.486   1.063  13.896 -0.2624  0.1425  0.5088
  772MPD2    C211445   1.355   1.043  13.943 -0.2178  0.3788 -0.3040
  772MPD2    C311446   1.253   1.053  13.851 -0.1979  0.4254  0.0618
  772MPD2    C411447   1.282   1.078  13.721 -0.3509 -0.3092 -0.4062
  772MPD2    C511448   1.404   1.102  13.671  0.0517 -0.8119 -0.1475
  772MPD2     H11449   1.351   1.027  14.050  0.4517 -0.7813 -0.4531
  772MPD2    H111450   1.212   1.078  13.638 -1.6630 -1.5879  0.7216
  772MPD2    H211451   1.604   1.128  13.727 -1.2013  0.9025 -1.7585
  772MPD2    H311452   1.418   1.133  13.568  1.6891  0.2654  0.3925
  772MPD2     N11453   1.112   1.040  13.893  0.5013  0.2399  0.3718
  772MPD2    H511454   1.046   1.071  13.822  0.7549  0.0241  0.0404
  772MPD2    N111455   1.587   1.065  13.994  0.5833 -0.6370 -0.1467
  772MPD2    H711456   1.552   1.033  14.083  0.4116 -0.8116 -0.2781
  773MPD2     C11457   0.208   2.011   0.320  0.0942  0.1422 -0.1235
  773MPD2    C111458   0.144   1.892   0.282  0.0222 -0.0322 -0.3056
  773MPD2    C211459   0.217   1.777   0.259  1.0902  0.6076 -0.2433
  773MPD2    C311460   0.351   1.777   0.266  0.0742  0.6866  0.1230
  773MPD2    C411461   0.413   1.892   0.302  0.1730  0.3304 -0.0561
  773MPD2    C511462   0.342   2.012   0.327 -0.6409  0.5704 -0.1552
  773MPD2     H11463   0.178   1.681   0.230  1.5233  0.2369  0.4025
  773MPD2    H111464   0.516   1.898   0.334  0.4660  1.6905 -1.2609
  773MPD2    H211465   0.152   2.101   0.346 -0.0903  0.2796 -0.9839
  773MPD2    H311466   0.400   2.099   0.356 -3.1936  1.6067  1.8205
  773MPD2     N11467   0.408   1.647   0.258  0.3407  0.4922  0.3608
  773MPD2    H511468   0.342   1.575   0.232  0.9017  1.3048 -3.4284
  773MPD2    N111469   0.003   1.883   0.273  0.1341  0.8866  0.1385
  773MPD2    H711470   4.703   1.794   0.242  1.3161  1.1987 -2.2247
  774MPD2     C11471   4.556   1.148  13.447 -0.1230 -0.3953  0.2824
  774MPD2    C111472   4.487   1.249  13.517 -0.0777  0.4258 -0.1479
  774MPD2    C211473   4.524   1.378  13.492  0.5863  0.1565 -0.2149
  774MPD2    C311474   4.614   1.414  13.390 -0.7355 -0.4489  0.2515
  774MPD2    C411475   4.676   1.314  13.323  0.2789 -0.3917 -0.4884
  774MPD2    C511476   4.656   1.187  13.361 -0.2208 -0.7466 -0.2602
  774MPD2     H11477   4.481   1.460  13.549  0.3810 -0.4556  0.5079
  774MPD2    H111478   0.002   1.339  13.239  1.0662  0.1568  0.2697
  774MPD2    H211479   4.536   1.042  13.451 -0.6136 -0.3704 -1.5759
  774MPD2    H311480   4.707   1.114  13.300 -1.1506 -1.5315 -0.0949
  774MPD2     N11481   4.646   1.550  13.384  0.0550  0.2403 -0.0094
  774MPD2    H511482   4.596   1.615  13.443  2.1633  1.0086  0.9082
  774MPD2    N111483   4.407   1.209  13.630 -0.1928 -0.1247  0.6008
  774MPD2    H711484   4.422   1.119  13.675 -0.9240 -1.1962 -1.2914
  775MPD2     C11485   1.103   2.338  15.760 -0.4685  0.5993 -0.3195
  775MPD2    C111486   1.124   2.456  15.835  0.2545 -0.3161  0.6372
  775MPD2    C211487   1.231   2.541  15.806 -0.5416  0.0755 -0.1753
  775MPD2    C311488   1.308   2.508  15.692 -0.0554  0.1467 -0.1108
  775MPD2    C411489   1.274   2.399  15.610  0.0804  0.4992  0.0068
  775MPD2    C511490   1.174   2.314  15.643  0.3949  0.2181 -0.3909
  775MPD2     H11491   1.253   2.623  15.873 -0.9367 -1.0712  1.3511
  775MPD2    H111492   1.327   2.366  15.521  2.9915  3.4972  0.6272
  775MPD2    H211493   1.031   2.265  15.797  0.9474 -0.2364  0.7878
  775MPD2    H311494   1.147   2.227  15.585 -2.7121  0.3062  0.9470
  775MPD2     N11495   1.409   2.590  15.628  0.1446  1.0823 -0.5716
  775MPD2    H511496   1.451   2.555  15.543 -0.0392 -1.2535  0.3067
  775MPD2    N111497   1.026   2.478  15.936 -0.3479 -0.4818 -0.1538
  775MPD2    H711498   0.959   2.403  15.948  0.1527 -0.8357  0.4096
  776MPD2     C11499   0.478   3.304  11.820  0.2257 -0.2214 -0.2500
  776MPD2    C111500   0.577   3.245  11.735  0.1883  0.0744  0.2088
  776MPD2    C211501   0.651   3.319  11.648 -0.2701  0.2721 -0.4087
  776MPD2    C311502   0.603   3.444  11.616 -0.7831  0.1031  0.0930
  776MPD2    C411503   0.503   3.511  11.693 -0.0858 -0.1124  0.0820
  776MPD2    C511504   0.448   3.438  11.797  0.4499  0.2256  0.1389
  776MPD2     H11505   0.725   3.276  11.581  0.8705 -0.2078  1.1678
  776MPD2    H111506   0.470   3.613  11.678  2.0470  0.7165  0.8751
  776MPD2    H211507   0.414   3.245  11.884  3.7686 -1.3073  2.3263
  776MPD2    H311508   0.357   3.477  11.841 -0.2759 -0.6659 -0.5683
  776MPD2     N11509   0.672   3.499  11.505  0.3252  0.1667 -0.3125
  776MPD2    H511510   0.757   3.454  11.473  0.4516 -0.8593  1.4865
  776MPD2    N111511   0.581   3.102  11.748 -0.2038 -0.0899  0.5450
  776MPD2    H711512   0.528   3.064  11.826 -0.5980  1.2042  0.9205
  777MPD2     C11513   0.513   0.823   1.060 -0.3985 -0.2378 -0.3509
  777MPD2    C111514   0.457   0.735   1.147  0.3197  0.4511  0.6479
  777MPD2    C211515   0.430   0.605   1.096  0.5940  0.5635 -0.3534
  777MPD2    C311516   0.468   0.564   0.971  0.7739 -0.5282  0.1287
  777MPD2    C411517   0.518   0.654   0.887  0.4363 -0.7028 -0.1999
  777MPD2    C511518   0.540   0.782   0.931  0.3242 -0.1042  0.2539
  777MPD2     H11519   0.386   0.527   1.157 -1.1281  1.7258 -0.0785
  777MPD2    H111520   0.555   0.636   0.786  0.2453 -0.4518 -0.3149
  777MPD2    H211521   0.543   0.920   1.098  0.0849 -0.2014 -0.8090
  777MPD2    H311522   0.601   0.855   0.880 -0.2272  0.4191  0.3354
  777MPD2     N11523   0.435   0.432   0.934 -0.1624  1.0038 -0.4719
  777MPD2    H511524   0.379   0.380   1.001  0.1968 -0.1484 -1.0738
  777MPD2    N111525   0.431   0.778   1.278 -0.4171  0.0282 -0.2952
  777MPD2    H711526   0.466   0.872   1.294 -0.8057  0.1115  0.0686
  778MPD2     C11527   1.354   0.352  14.916  0.0798 -0.5444  0.2047
  778MPD2    C111528   1.376   0.293  14.793 -0.0396  0.0906 -1.0585
  778MPD2    C211529   1.491   0.336  14.729  0.6815  0.4627 -0.5966
  778MPD2    C311530   1.561   0.451  14.766 -0.3788  0.7411 -0.5794
  778MPD2    C411531   1.514   0.516  14.876  0.9336  0.0235 -0.0713
  778MPD2    C511532   1.430   0.461  14.962  0.1852  0.2510 -0.2099
  778MPD2     H11533   1.514   0.289  14.635  0.9506  0.8981 -0.7512
  778MPD2    H111534   1.573   0.602  14.906  2.7227 -0.9681 -0.7561
  778MPD2    H211535   1.271   0.321  14.977  1.3733  1.3617  2.9538
  778MPD2    H311536   1.421   0.506  15.060 -4.0324 -0.3049 -0.3324
  778MPD2     N11537   1.665   0.495  14.689 -0.4400  0.1582  0.2790
  778MPD2    H511538   1.702   0.427  14.623  1.1107  1.0849  0.1977
  778MPD2    N111539   1.300   0.189  14.732 -0.0187 -1.0070  0.7464
  778MPD2    H711540   1.334   0.154  14.643  0.0878  1.0110 -0.0067
  779MPD2     C11541   1.511   4.172  14.615  0.3492 -0.1572  0.1711
  779MPD2    C111542   1.502   4.120  14.490 -0.1315 -1.1406  0.1269
  779MPD2    C211543   1.595   4.178  14.395 -0.0601  0.4184 -0.0987
  779MPD2    C311544   1.670   4.288  14.427 -0.0218 -0.6189  0.0618
  779MPD2    C411545   1.669   4.339  14.553 -0.0278  0.3893  0.2416
  779MPD2    C511546   1.585   4.286  14.646 -1.0307  0.3619  0.1190
  779MPD2     H11547   1.606   4.123  14.302 -0.6060  0.4492 -0.1794
  779MPD2    H111548   1.720   4.427  14.590  2.1948 -0.4631 -0.8403
  779MPD2    H211549   1.453   4.118  14.689 -2.0982  2.0830 -0.0758
  779MPD2    H311550   1.596   4.319  14.749  0.1896 -3.5196  1.2302
  779MPD2     N11551   1.754   4.361  14.331 -0.8020  0.4465 -0.6761
  779MPD2    H511552   1.802   4.446  14.361 -1.4057  1.1360 -1.6277
  779MPD2    N111553   1.426   4.002  14.473  0.0483 -0.3580  0.1442
  779MPD2    H711554   1.384   3.963  14.557  0.3857 -0.9266  0.0452
  780MPD2     C11555   4.640   3.788   0.527 -0.0914 -0.1251  0.5606
  780MPD2    C111556   4.671   3.749   0.397 -0.5323 -0.5142  0.3570
  780MPD2    C211557   0.056   3.787   0.343 -0.1419  0.7317  0.0357
  780MPD2    C311558   0.147   3.854   0.418  0.6464  0.8607  0.7701
  780MPD2    C411559   0.122   3.873   0.553 -0.1742  0.3155  0.2468
  780MPD2    C511560   0.006   3.840   0.604 -0.9140 -0.1786  0.1375
  780MPD2     H11561   0.075   3.755   0.242  1.2397 -0.2778  0.6195
  780MPD2    H111562   0.192   3.922   0.620 -0.2939  1.6836 -0.6075
  780MPD2    H211563   4.541   3.772   0.569 -0.3232 -1.3020 -0.4145
  780MPD2    H311564   4.729   3.840   0.712 -0.5841  1.0632  0.1713
  780MPD2     N11565   0.275   3.894   0.357  0.7814 -0.1422  0.1006
  780MPD2    H511566   0.282   3.880   0.257  3.7783  0.8362  0.1763
  780MPD2    N111567   4.579   3.662   0.336  0.3786  0.2390  0.3673
  780MPD2    H711568   4.504   3.625   0.392 -0.0209  0.0422 -0.3012
  781MPD2     C11569   3.683   1.405  12.420  0.0807  0.5149  0.5993
  781MPD2    C111570   3.583   1.323  12.375  0.9520 -0.0434 -0.3720
  781MPD2    C211571   3.621   1.232  12.277  0.3663  0.6152  0.1640
  781MPD2    C311572   3.752   1.227  12.226 -0.9544 -0.2295 -0.5408
  781MPD2    C411573   3.843   1.306  12.285 -0.7837  0.3620  0.7478
  781MPD2    C511574   3.809   1.394  12.381  0.4570 -0.3372  0.0546
  781MPD2     H11575   3.550   1.161  12.235 -0.9546  1.9370  0.1684
  781MPD2    H111576   3.948   1.298  12.260 -0.8737 -1.6091  0.9610
  781MPD2    H211577   3.671   1.478  12.499  1.2207  2.6948 -1.2695
  781MPD2    H311578   3.882   1.455  12.432  1.9376 -0.8300 -1.4591
  781MPD2     N11579   3.782   1.145  12.112  0.0900 -0.3125  0.1360
  781MPD2    H511580   3.880   1.132  12.085  0.1571 -1.3031  0.8955
  781MPD2    N111581   3.450   1.337  12.426 -0.5622 -0.7897 -0.5738
  781MPD2    H711582   3.436   1.404  12.501 -1.6083 -0.8457 -0.7264
  782MPD2     C11583   0.852   2.280  10.210 -0.2431 -0.6153  0.2213
  782MPD2    C111584   0.986   2.273  10.185  0.0963  0.6486  0.3482
  782MPD2    C211585   1.075   2.333  10.272  0.5454 -0.5856 -0.8623
  782MPD2    C311586   1.030   2.391  10.390 -0.2527 -0.2568 -0.4265
  782MPD2    C411587   0.893   2.396  10.411  0.0145  0.5305 -0.2644
  782MPD2    C511588   0.806   2.340  10.322  0.2455  0.1028  0.2010
  782MPD2     H11589   1.181   2.334  10.250  1.0082  3.1596  1.6082
  782MPD2    H111590   0.850   2.434  10.503  1.7778  0.7052  0.4788
  782MPD2    H211591   0.781   2.243  10.137  1.0355  0.6394 -1.6588
  782MPD2    H311592   0.702   2.328  10.350 -0.0521  0.6866 -0.6417
  782MPD2     N11593   1.130   2.404  10.487 -0.0910  0.3972 -0.3211
  782MPD2    H511594   1.223   2.379  10.456  0.3706  2.0728 -0.2658
  782MPD2    N111595   1.047   2.183  10.092 -0.7135  0.4175  0.7984
  782MPD2    H711596   1.147   2.194  10.081 -0.7561  0.4198  0.4281
  783MPD2     C11597   0.503   1.591  10.531  0.3924 -0.3578 -0.6168
  783MPD2    C111598   0.569   1.702  10.577  0.1660  0.3086 -0.5052
  783MPD2    C211599   0.671   1.749  10.509 -0.6161  0.1209 -0.0686
  783MPD2    C311600   0.710   1.695  10.385  0.0549 -0.6828 -0.4182
  783MPD2    C411601   0.634   1.585  10.338  0.4596 -0.3756 -0.2035
  783MPD2    C511602   0.532   1.534  10.406  0.4234 -0.2972 -0.3078
  783MPD2     H11603   0.724   1.840  10.535 -0.5536  0.1150 -0.1759
  783MPD2    H111604   0.657   1.532  10.246 -1.7471  0.8101 -1.4557
  783MPD2    H211605   0.429   1.535  10.586  1.7648 -0.8320  0.7719
  783MPD2    H311606   0.494   1.437  10.375  0.3083 -0.2107 -0.4396
  783MPD2     N11607   0.820   1.746  10.315  0.1665 -0.3976  0.6575
  783MPD2    H511608   0.865   1.822  10.365  3.8574 -2.4705  0.5094
  783MPD2    N111609   0.509   1.749  10.696  0.1123 -0.1986  0.2591
  783MPD2    H711610   0.446   1.683  10.739 -0.7936  1.0441  0.8587
  784MPD2     C11611   3.083   1.763   0.397 -1.1733 -0.5197 -0.2071
  784MPD2    C111612   3.119   1.882   0.454 -0.3365 -0.0625  0.1014
  784MPD2    C211613   3.029   1.991   0.433 -0.3243 -0.3169 -0.1366
  784MPD2    C311614   2.906   1.978   0.378  0.4255 -0.1907  0.1746
  784MPD2    C411615   2.874   1.856   0.333  0.5269 -0.3793  0.4532
  784MPD2    C511616   2.958   1.747   0.338 -0.3843  0.0754 -0.1283
  784MPD2     H11617   3.061   2.084   0.479  1.1452 -0.0572 -1.6714
  784MPD2    H111618   2.782   1.848   0.277  1.1864  0.5844 -0.7701
  784MPD2    H211619   3.144   1.673   0.402  0.3330  0.4438 -1.3257
  784MPD2    H311620   2.931   1.649   0.301 -3.8417  1.0985 -0.2966
  784MPD2     N11621   2.814   2.087   0.385 -0.1268  0.4233  0.7038
  784MPD2    H511622   2.840   2.180   0.416 -2.4385  0.8189  1.4614
  784MPD2    N111623   3.230   1.907   0.538  0.2993  0.2630  0.3681
  784MPD2    H711624   3.242   2.004   0.566 -0.7283  0.6353 -0.4860
  785MPD2     C11625   3.409   0.361  10.412  0.1561  0.3796 -0.4038
  785MPD2    C111626   3.468   0.432  10.517  0.0608 -0.0668  0.3200
  785MPD2    C211627   3.404   0.452  10.636  0.0976  0.1783 -0.8310
  785MPD2    C311628   3.275   0.396  10.657 -0.1236 -0.4468 -0.4912
  785MPD2    C411629   3.217   0.320  10.556  0.4496  0.3637 -0.9046
  785MPD2    C511630   3.281   0.310  10.435 -0.8570  0.1240 -0.1021
  785MPD2     H11631   3.465   0.502  10.710 -2.7480 -0.0276  1.6825
  785MPD2    H111632   3.116   0.279  10.557 -0.3704  2.3957  0.6789
  785MPD2    H211633   3.444   0.345  10.310 -0.0373 -1.1329 -0.2377
  785MPD2    H311634   3.221   0.263  10.357  0.4141 -0.4309 -0.7457
  785MPD2     N11635   3.218   0.424  10.785  0.4784  0.6728 -0.3237
  785MPD2    H511636   3.267   0.494  10.841  0.3351  1.2145 -0.8766
  785MPD2    N111637   3.595   0.490  10.505 -0.0920  0.2222  0.6747
  785MPD2    H711638   3.636   0.520  10.593 -2.2222  1.2212  1.3321
  786MPD2     C11639   1.671   2.964  14.964 -0.2672 -0.5112  0.7563
  786MPD2    C111640   1.804   2.964  14.926 -0.4172  0.1634  0.5920
  786MPD2    C211641   1.902   3.002  15.025  0.3125  0.1686  0.0791
  786MPD2    C311642   1.862   3.041  15.150 -0.2287 -0.1700  0.0152
  786MPD2    C411643   1.728   3.040  15.185  0.3140 -0.3559  0.2357
  786MPD2    C511644   1.634   3.003  15.091 -0.3631 -0.0826  0.5535
  786MPD2     H11645   2.006   3.001  14.995  0.4381 -2.1242  0.5645
  786MPD2    H111646   1.693   3.069  15.283  0.9895  0.6339  0.1859
  786MPD2    H211647   1.595   2.945  14.889  1.4140 -1.3039 -0.7333
  786MPD2    H311648   1.526   3.004  15.106 -0.3523  4.8365  0.4062
  786MPD2     N11649   1.954   3.085  15.248 -0.1222  0.4581 -0.6404
  786MPD2    H511650   1.927   3.082  15.346  0.6654  0.4774 -0.4221
  786MPD2    N111651   1.846   2.924  14.799 -0.0232 -0.3331 -0.0805
  786MPD2    H711652   1.945   2.927  14.778 -0.4824 -0.1771 -2.1722
  787MPD2     C11653   2.362   2.591  14.715 -0.0267  1.0558  0.0679
  787MPD2    C111654   2.329   2.624  14.587  0.4160 -0.1458  0.2247
  787MPD2    C211655   2.386   2.553  14.481  0.1501  0.2338  0.7415
  787MPD2    C311656   2.456   2.437  14.493  0.3018 -0.5934 -0.2449
  787MPD2    C411657   2.479   2.400  14.621  0.3239 -0.3020 -0.2096
  787MPD2    C511658   2.449   2.483  14.726  0.4080  0.0211  0.7192
  787MPD2     H11659   2.366   2.582  14.378 -0.6441  0.0954  0.8516
  787MPD2    H111660   2.532   2.312  14.656 -3.5822 -0.9504  4.1099
  787MPD2    H211661   2.310   2.633  14.801 -1.0850  0.0140 -0.0609
  787MPD2    H311662   2.471   2.445  14.825  0.3369 -1.8862  0.0183
  787MPD2     N11663   2.500   2.367  14.376  0.6764  0.0799 -0.0961
  787MPD2    H511664   2.466   2.407  14.289  1.0648 -1.6179 -1.0411
  787MPD2    N111665   2.228   2.720  14.565 -0.1689  0.3581 -0.3572
  787MPD2    H711666   2.190   2.761  14.649 -0.6431 -0.1642 -0.3178
  788MPD2     C11667   3.788   1.482   0.871 -0.3375  0.0754  0.1067
  788MPD2    C111668   3.709   1.401   0.797  0.0335 -0.2955 -0.5594
  788MPD2    C211669   3.645   1.446   0.680 -0.5825 -0.0904 -0.4938
  788MPD2    C311670   3.693   1.556   0.623  0.3200 -0.0171 -0.3792
  788MPD2    C411671   3.799   1.620   0.683 -0.0726  0.6089  0.2022
  788MPD2    C511672   3.829   1.598   0.814  0.3620 -0.4957  0.5585
  788MPD2     H11673   3.558   1.389   0.650  0.0776 -1.7581  0.7254
  788MPD2    H111674   3.839   1.708   0.634  0.6341  0.9774  1.4368
  788MPD2    H211675   3.816   1.462   0.974  0.2182  0.9971  0.1387
  788MPD2    H311676   3.899   1.659   0.870  1.5728  0.4073 -1.9547
  788MPD2     N11677   3.647   1.599   0.498  0.6013 -0.6521 -0.6542
  788MPD2    H511678   3.694   1.677   0.453 -0.9995  1.4795  1.3789
  788MPD2    N111679   3.658   1.287   0.859  0.2280  0.1895  0.0825
  788MPD2    H711680   3.569   1.249   0.828  0.7748 -0.9444 -0.1039
  789MPD2     C11681   3.780   1.060  16.064  0.5574 -0.2225  0.6693
  789MPD2    C111682   3.755   0.997  16.178  0.2294 -0.3802  0.0711
  789MPD2    C211683   3.621   0.994  16.226  0.0431 -0.0468  0.0071
  789MPD2    C311684   3.519   1.081  16.171 -0.0731 -0.0746 -0.2368
  789MPD2    C411685   3.554   1.135  16.046 -0.5904 -0.2358  0.6100
  789MPD2    C511686   3.684   1.133  15.997  0.4641  0.3545 -0.1251
  789MPD2     H11687   3.598   0.939  16.316 -0.6594  0.5927  0.2165
  789MPD2    H111688   3.479   1.195  15.996 -0.2698  0.5857  1.1217
  789MPD2    H211689   3.876   1.063  16.014  0.6874  2.3220  1.0587
  789MPD2    H311690   3.701   1.180  15.901  1.3208  0.6882  0.1899
  789MPD2     N11691   3.392   1.109  16.223 -0.6628  0.2818  0.1058
  789MPD2    H511692   3.340   1.179  16.171 -0.5603  0.7953  0.6901
  789MPD2    N111693   3.861   0.927  16.247  0.2266 -0.1815  0.1756
  789MPD2    H711694   3.839   0.871  16.329  0.2940 -0.4889 -0.0169
  790MPD2     C11695   0.521   3.362  13.367  0.1624  0.6449 -1.3550
  790MPD2    C111696   0.520   3.227  13.404  0.6445 -0.3971  0.1024
  790MPD2    C211697   0.477   3.132  13.310 -0.3288  0.0261  0.0878
  790MPD2    C311698   0.450   3.170  13.179  0.3134  0.0746 -0.2261
  790MPD2    C411699   0.471   3.305  13.150 -0.7448 -0.1371 -0.1809
  790MPD2    C511700   0.506   3.398  13.243 -0.6335 -0.2945  0.3462
  790MPD2     H11701   0.464   3.026  13.332 -1.2030  0.6993  2.7861
  790MPD2    H111702   0.453   3.351  13.054  1.3848  1.2617  0.0817
  790MPD2    H211703   0.563   3.436  13.435  0.2902 -0.3210 -0.3691
  790MPD2    H311704   0.519   3.502  13.215  0.5899 -0.2935  0.9365
  790MPD2     N11705   0.403   3.077  13.075 -0.7533  0.0261  0.7620
  790MPD2    H511706   0.383   2.984  13.111  0.9842 -0.6193  0.0404
  790MPD2    N111707   0.553   3.189  13.532 -0.0182  0.6346  0.2868
  790MPD2    H711708   0.563   3.263  13.600  1.9678  0.8041 -0.1919
  791MPD2     C11709   4.616   2.825  12.453  0.1434 -0.3324 -0.1461
  791MPD2    C111710   4.641   2.810  12.586 -0.1947  0.1910 -0.0240
  791MPD2    C211711   4.550   2.752  12.673 -0.3309  0.0971  0.0681
  791MPD2    C311712   4.435   2.701  12.621  0.5793  0.2875  0.2172
  791MPD2    C411713   4.406   2.725  12.490  0.7624 -0.3424  0.0425
  791MPD2    C511714   4.494   2.784  12.402 -0.1915  0.0545  0.2167
  791MPD2     H11715   4.568   2.738  12.779 -1.5607 -3.4459 -0.1832
  791MPD2    H111716   4.317   2.678  12.448 -0.5455 -0.8551  3.3923
  791MPD2    H211717   4.699   2.856  12.391  0.4213  0.5904  0.6848
  791MPD2    H311718   4.476   2.787  12.295 -1.2813 -0.0234  0.4012
  791MPD2     N11719   4.351   2.625  12.708 -0.4733 -0.0672  0.1240
  791MPD2    H511720   4.382   2.606  12.802 -0.3392  0.4983  0.1899
  791MPD2    N111721   0.031   2.846  12.628 -0.5975  0.1035  0.1857
  791MPD2    H711722   0.085   2.904  12.564  1.6762 -0.0750  1.9275
  792MPD2     C11723   1.178   2.723  11.170  0.0792  0.6098  0.3891
  792MPD2    C111724   1.078   2.752  11.258 -0.1708  0.2628  0.0915
  792MPD2    C211725   0.950   2.737  11.222 -0.0739 -0.3333  0.1520
  792MPD2    C311726   0.914   2.663  11.107  0.9959 -0.2381  0.0229
  792MPD2    C411727   1.015   2.627  11.023  0.5819 -0.3075  0.6849
  792MPD2    C511728   1.146   2.652  11.057 -0.1562 -0.2984 -0.1047
  792MPD2     H11729   0.873   2.779  11.286 -1.2725 -2.4670  0.1056
  792MPD2    H111730   0.997   2.577  10.929  0.3305 -1.0150  1.1097
  792MPD2    H211731   1.284   2.738  11.190  0.4328  1.4038 -2.0458
  792MPD2    H311732   1.215   2.610  10.986  0.7226  1.5465 -0.3548
  792MPD2     N11733   0.782   2.637  11.066 -0.7410 -0.2098  0.2543
  792MPD2    H511734   0.765   2.575  10.987  1.4251  0.3999 -0.6942
  792MPD2    N111735   1.111   2.830  11.370 -0.1212 -0.0578  0.1364
  792MPD2    H711736   1.207   2.862  11.376  0.4785 -2.3010  2.0740
  793MPD2     C11737   4.477   2.847  10.887 -0.1012 -1.0204 -0.0434
  793MPD2    C111738   4.591   2.913  10.856 -0.6327  0.2286 -0.2595
  793MPD2    C211739   4.700   2.864  10.922 -0.5585 -0.5180 -0.7793
  793MPD2    C311740   4.700   2.762  11.018  0.0308 -0.2556  0.4161
  793MPD2    C411741   4.581   2.698  11.048 -0.1550 -0.1306 -0.4679
  793MPD2    C511742   4.472   2.741  10.978 -0.2134  0.1306  0.5540
  793MPD2     H11743   0.059   2.903  10.892 -0.1768 -1.9403 -1.3774
  793MPD2    H111744   4.577   2.613  11.115 -2.3799 -0.3731 -0.8977
  793MPD2    H211745   4.383   2.873  10.839  0.5021 -0.2210 -0.8109
  793MPD2    H311746   4.380   2.690  11.005  0.0341  0.5663  2.2249
  793MPD2     N11747   0.081   2.709  11.079 -0.2862  0.4075 -0.1004
  793MPD2    H511748   0.068   2.631  11.142 -0.5916  0.6654  0.1612
  793MPD2    N111749   4.604   3.000  10.749  0.4888 -0.3911 -0.2046
  793MPD2    H711750   4.697   3.031  10.721  0.9916 -3.9634 -2.5645
  794MPD2     C11751   3.985   2.249   0.172  0.3126 -0.4089  0.2559
  794MPD2    C111752   4.072   2.160   0.119 -0.6376 -0.4871 -0.4795
  794MPD2    C211753   4.078   2.151  17.731  0.6993  0.2617 -0.5484
  794MPD2    C311754   3.993   2.222  17.646  0.3191  0.1667 -0.5726
  794MPD2    C411755   3.910   2.314  17.706 -0.3652  0.0812  0.7088
  794MPD2    C511756   3.907   2.328   0.092 -0.0262  0.2874  0.6291
  794MPD2     H11757   4.161   2.095  17.688  1.5998  1.2689 -0.1232
  794MPD2    H111758   3.839   2.376  17.652 -1.9695 -2.2231  0.1652
  794MPD2    H211759   3.982   2.263   0.280 -2.6735 -2.3442  0.4183
  794MPD2    H311760   3.846   2.407   0.134 -0.2811  0.8444 -0.7895
  794MPD2     N11761   4.006   2.233  17.509  0.2648 -0.1028  0.0277
  794MPD2    H511762   3.939   2.297  17.467  0.5371  0.1047 -0.0871
  794MPD2    N111763   4.149   2.076   0.197  0.0554 -0.1915  0.1351
  794MPD2    H711764   4.184   1.993   0.150 -1.3241 -0.9643  0.4710
  795MPD2     C11765   2.717   0.009  13.460  0.6692  0.2733  0.4302
  795MPD2    C111766   2.639   4.646  13.517  1.1335  0.0621  0.0942
  795MPD2    C211767   2.704   4.532  13.544  0.1703  0.2410 -1.1454
  795MPD2    C311768   2.834   4.504  13.499 -0.7369 -0.2460 -0.3011
  795MPD2    C411769   2.909   4.609  13.453  0.4189 -0.3667  0.1826
  795MPD2    C511770   2.846   4.726  13.422 -0.4102 -0.1332  0.5166
  795MPD2     H11771   2.644   4.457  13.595  1.0313  0.9995  0.9971
  795MPD2    H111772   3.010   4.586  13.421  0.8310 -1.0266  1.9437
  795MPD2    H211773   2.673   0.105  13.437  0.1766 -0.1004 -0.1847
  795MPD2    H311774   2.890   0.071  13.368 -0.5164 -0.4625 -0.0758
  795MPD2     N11775   2.877   4.375  13.531  0.3834  0.5028 -0.1276
  795MPD2    H511776   2.821   4.317  13.591  1.0523 -0.4894 -0.4725
  795MPD2    N111777   2.502   4.650  13.538 -0.0299  0.3893  0.3240
  795MPD2    H711778   2.460   4.567  13.579  0.1289  0.5602  0.8362
  796MPD2     C11779   1.661   0.922  16.238 -0.4653 -0.2541  0.7895
  796MPD2    C111780   1.797   0.958  16.243 -0.0668 -0.2968 -0.3166
  796MPD2    C211781   1.846   1.038  16.141 -0.6337 -0.4409 -0.3291
  796MPD2    C311782   1.763   1.070  16.037  0.1760 -0.1703 -0.4016
  796MPD2    C411783   1.635   1.018  16.028  0.4392  0.3131  0.4061
  796MPD2    C511784   1.591   0.950  16.131 -1.3239 -0.3825  0.0095
  796MPD2     H11785   1.941   1.089  16.151 -0.2943 -1.4311  1.4108
  796MPD2    H111786   1.556   1.060  15.968 -0.5492 -2.1563 -0.0280
  796MPD2    H211787   1.604   0.872  16.316  1.1457 -4.7533 -0.9070
  796MPD2    H311788   1.485   0.934  16.144 -1.7383  0.5807 -2.0956
  796MPD2     N11789   1.813   1.169  15.949  0.8660 -0.5935  0.7243
  796MPD2    H511790   1.899   1.215  15.976  0.7942 -0.4980  0.7926
  796MPD2    N111791   1.868   0.927  16.355  0.6495 -0.1283 -0.1049
  796MPD2    H711792   1.821   0.852  16.404 -0.3161  1.0282  0.7623
  797MPD2     C11793   3.064   0.026  17.516 -0.0118  0.3531 -0.3808
  797MPD2    C111794   2.964   0.118  17.524 -0.3543 -1.0634  0.7547
  797MPD2    C211795   2.971   0.242  17.464  0.0178  0.1671 -0.8337
  797MPD2    C311796   3.082   0.275  17.384 -0.2014  0.2734 -0.0195
  797MPD2    C411797   3.185   0.183  17.366 -1.0962 -0.4085 -0.2409
  797MPD2    C511798   3.175   0.068  17.445  0.8095  0.2813 -0.3016
  797MPD2     H11799   2.898   0.315  17.497 -0.3090 -0.8802  0.7556
  797MPD2    H111800   3.270   0.205  17.303  1.7515 -1.4921  3.2128
  797MPD2    H211801   3.063   4.667  17.566 -0.4955  0.0597 -0.9375
  797MPD2    H311802   3.259   4.736  17.446  0.0352 -0.6467 -0.1201
  797MPD2     N11803   3.090   0.405  17.346  0.0709  0.1451  0.2024
  797MPD2    H511804   3.010   0.463  17.369  0.9263  2.2084 -2.0458
  797MPD2    N111805   2.859   0.098  17.613  0.0184  0.2431 -0.7747
  797MPD2    H711806   2.795   0.176  17.620 -0.1424  0.0002  0.5596
  798MPD2     C11807   2.559   0.821  17.586 -0.0759 -0.1330 -0.8177
  798MPD2    C111808   2.633   0.717  17.535  0.4627  0.0739 -0.0488
  798MPD2    C211809   2.613   0.587  17.578  0.3077  0.3885  0.5770
  798MPD2    C311810   2.526   0.561  17.680  0.3673  0.1839 -0.2003
  798MPD2    C411811   2.448   0.665  17.735  0.1036 -0.5357  0.2313
  798MPD2    C511812   2.466   0.795  17.685  0.2006 -0.0728 -0.1335
  798MPD2     H11813   2.674   0.506  17.541 -1.6825 -0.6772 -0.3742
  798MPD2    H111814   2.387   0.642   0.073 -1.1123 -0.4789 -0.6182
  798MPD2    H211815   2.587   0.926  17.580 -0.2330 -0.0732 -0.5351
  798MPD2    H311816   2.406   0.878  17.723 -0.7088 -1.0762  0.6047
  798MPD2     N11817   2.509   0.427  17.729 -0.3466 -0.7235 -0.2590
  798MPD2    H511818   2.429   0.399   0.036 -1.7313 -0.0962 -1.9189
  798MPD2    N111819   2.738   0.749  17.442  0.4229  0.7529  0.0833
  798MPD2    H711820   2.733   0.843  17.406 -3.4879  0.5521  0.0618
  799MPD2     C11821   1.988   2.339  14.557 -0.0265 -0.3360 -0.6821
  799MPD2    C111822   1.876   2.270  14.521  0.2462  0.6144 -0.0239
  799MPD2    C211823   1.810   2.320  14.406 -0.1421 -0.3411  0.1557
  799MPD2    C311824   1.854   2.426  14.334  0.5304  0.2795  0.0916
  799MPD2    C411825   1.962   2.503  14.384  0.1921 -0.2069  0.1719
  799MPD2    C511826   2.018   2.455  14.498  0.1385 -0.5572  0.3076
  799MPD2     H11827   1.724   2.264  14.372 -2.1769  2.5778  0.5384
  799MPD2    H111828   2.001   2.595  14.343 -1.3728  0.8528  1.0577
  799MPD2    H211829   2.049   2.315  14.644 -0.1186 -0.2630 -0.5963
  799MPD2    H311830   2.095   2.518  14.542 -1.0433  1.5201 -0.6007
  799MPD2     N11831   1.788   2.479  14.219 -0.3250  0.0590  0.7447
  799MPD2    H511832   1.825   2.565  14.179  1.5289 -1.9134 -1.7023
  799MPD2    N111833   1.839   2.141  14.572  0.0866  0.4469  0.2908
  799MPD2    H711834   1.762   2.100  14.520  2.4532 -1.0586 -1.9684
  800MPD2     C11835   2.400   3.459  14.489 -0.0510  0.6204  0.2827
  800MPD2    C111836   2.535   3.447  14.472 -0.7986  0.0301 -0.1359
  800MPD2    C211837   2.583   3.389  14.355 -0.9850 -0.6382 -0.1130
  800MPD2    C311838   2.497   3.338  14.260  0.1317 -0.0828  0.2440
  800MPD2    C411839   2.360   3.345  14.278  0.5617 -0.0223 -0.3364
  800MPD2    C511840   2.313   3.396  14.399  0.4286 -0.5292  0.2463
  800MPD2     H11841   2.690   3.375  14.340 -0.8413  3.0474 -2.5533
  800MPD2    H111842   2.285   3.302  14.212 -2.4453  2.0995  1.7103
  800MPD2    H211843   2.357   3.511  14.573  0.5570  0.5030  0.6639
  800MPD2    H311844   2.206   3.399  14.416 -0.1834 -0.9880 -3.3807
  800MPD2     N11845   2.562   3.286  14.144 -0.1645  0.6825 -0.7294
  800MPD2    H511846   2.663   3.294  14.143 -0.1041 -0.1094 -0.9186
  800MPD2    N111847   2.610   3.512  14.569 -0.0360  0.0250  0.1579
  800MPD2    H711848   2.558   3.577  14.626  1.5704  3.4609 -2.2667
  801MPD2     C11849   2.579   4.211  14.618  0.1797  0.2929 -0.0332
  801MPD2    C111850   2.523   4.091  14.645 -0.2087  0.5164 -0.6624
  801MPD2    C211851   2.391   4.087  14.685  0.1807 -0.1896 -0.1097
  801MPD2    C311852   2.306   4.202  14.696 -1.0044  0.8376  0.4613
  801MPD2    C411853   2.368   4.318  14.673 -0.8706 -0.0343  0.1774
  801MPD2    C511854   2.501   4.321  14.639  0.2658  0.4427  0.1803
  801MPD2     H11855   2.339   3.991  14.691 -0.7669  0.2460 -1.2126
  801MPD2    H111856   2.306   4.407  14.681  1.9293  2.0188 -0.5729
  801MPD2    H211857   2.681   4.222  14.583 -0.3921  1.8397 -1.2082
  801MPD2    H311858   2.549   4.417  14.623  0.4221  0.6316  1.7468
  801MPD2     N11859   2.172   4.209  14.734  0.7669 -0.0683 -0.2968
  801MPD2    H511860   2.121   4.295  14.749  1.1679 -0.2963  2.5178
  801MPD2    N111861   2.598   3.968  14.628 -0.0182 -0.0339 -0.6289
  801MPD2    H711862   2.549   3.885  14.660 -0.1274  0.8764  1.5875
  802MPD2     C11863   1.347   3.861  16.826  0.3073  0.6055 -0.8375
  802MPD2    C111864   1.447   3.843  16.919  0.2235  0.1093 -0.5458
  802MPD2    C211865   1.563   3.773  16.880  0.0631  0.1733 -0.6473
  802MPD2    C311866   1.582   3.738  16.749 -0.1358  0.5197 -0.3653
  802MPD2    C411867   1.474   3.739  16.667 -0.2646  0.6076 -0.3861
  802MPD2    C511868   1.359   3.810  16.702  0.7361  0.1575  0.2046
  802MPD2     H11869   1.642   3.758  16.953  1.4937  0.3412 -2.1839
  802MPD2    H111870   1.489   3.699  16.567  0.2204 -0.4694  0.1173
  802MPD2    H211871   1.251   3.909  16.841  0.1792  0.5005 -1.3010
  802MPD2    H311872   1.285   3.830  16.625  0.8548 -1.4115 -0.3078
  802MPD2     N11873   1.706   3.672  16.713  0.6024  0.5779 -0.7612
  802MPD2    H511874   1.776   3.665  16.786 -1.3046 -2.8725  0.6896
  802MPD2    N111875   1.448   3.893  17.054  0.7664 -0.2905 -0.9924
  802MPD2    H711876   1.532   3.892  17.111  0.3987  1.0554 -0.4093
  803MPD2     C11877   3.403   2.758  12.203  0.4198  0.0106 -0.1725
  803MPD2    C111878   3.456   2.855  12.289 -0.1182  0.1387 -0.4443
  803MPD2    C211879   3.390   2.866  12.411  0.7571  0.1880  0.1321
  803MPD2    C311880   3.274   2.794  12.440 -0.3750  0.3856  0.4376
  803MPD2    C411881   3.229   2.695  12.353 -0.0170 -0.4202  0.4875
  803MPD2    C511882   3.299   2.677  12.234  0.3597  0.0611  0.1102
  803MPD2     H11883   3.443   2.930  12.480  0.9499 -1.6178  1.6706
  803MPD2    H111884   3.142   2.636  12.379  0.9925 -1.0347  2.5031
  803MPD2    H211885   3.451   2.744  12.107 -0.7294  0.3878 -0.7923
  803MPD2    H311886   3.263   2.609  12.158  1.0929 -1.0217  0.7406
  803MPD2     N11887   3.211   2.807  12.568  0.4623 -0.7806 -0.0350
  803MPD2    H511888   3.265   2.862  12.634  1.3674 -0.4587 -1.0470
  803MPD2    N111889   3.567   2.939  12.261  0.0115 -0.5178 -0.2829
  803MPD2    H711890   3.596   3.003  12.335  1.9773 -0.1591 -1.3602
  804MPD2     C11891   2.526   3.932  16.869  0.5335  0.6755 -0.5015
  804MPD2    C111892   2.536   3.881  16.996 -0.0433 -0.0486 -0.1328
  804MPD2    C211893   2.558   3.966  17.103 -0.8324 -0.8074 -0.0831
  804MPD2    C311894   2.568   4.102  17.080 -0.0188  0.2847  0.1180
  804MPD2    C411895   2.550   4.154  16.951 -0.2981 -0.4265 -0.1687
  804MPD2    C511896   2.525   4.064  16.848 -0.7517  0.4192  0.5459
  804MPD2     H11897   2.565   3.922  17.201 -2.5325  0.1967  0.4872
  804MPD2    H111898   2.551   4.259  16.922  1.3756 -0.4806 -0.3091
  804MPD2    H211899   2.507   3.871  16.781  0.7056 -0.6445  0.3725
  804MPD2    H311900   2.489   4.112  16.758  1.3499  0.7361 -0.1285
  804MPD2     N11901   2.584   4.186  17.191  0.0419 -0.5317 -0.0406
  804MPD2    H511902   2.580   4.136  17.280  0.0934 -1.6586 -0.6788
  804MPD2    N111903   2.494   3.745  17.023  0.1937 -0.6906 -0.0963
  804MPD2    H711904   2.485   3.719  17.120  1.2531  2.3437  0.8128
  805MPD2     C11905   1.567   2.236  15.575  0.3177  0.0912  0.2646
  805MPD2    C111906   1.668   2.303  15.510  0.3545 -0.0864  0.6485
  805MPD2    C211907   1.784   2.344  15.566  0.1838  0.6235 -0.0827
  805MPD2    C311908   1.796   2.333  15.704  0.5449  0.7377 -0.4113
  805MPD2    C411909   1.686   2.285  15.776  0.9295  0.3169  0.1895
  805MPD2    C511910   1.578   2.233  15.716 -0.1835  0.4474  0.1988
  805MPD2     H11911   1.863   2.379  15.500 -1.0130  0.9948 -1.3346
  805MPD2    H111912   1.693   2.285  15.884 -1.7647  0.3937  0.3718
  805MPD2    H211913   1.478   2.196  15.529  0.8684 -0.5068 -0.2774
  805MPD2    H311914   1.493   2.199  15.774 -0.5870 -0.8997 -1.1820
  805MPD2     N11915   1.924   2.376  15.760 -0.1140 -0.0890 -0.2833
  805MPD2    H511916   1.998   2.406  15.698  1.9586 -0.4656  1.9894
  805MPD2    N111917   1.657   2.331  15.366  0.3083 -0.2512 -1.2225
  805MPD2    H711918   1.740   2.369  15.322  1.7105 -0.8617  0.8808
  806MPD2     C11919   2.082   1.583   0.361 -0.7598  0.2603 -0.2585
  806MPD2    C111920   2.050   1.719   0.330  0.3299 -0.2977 -0.0772
  806MPD2    C211921   2.082   1.770   0.206 -0.0711  0.0020 -0.8681
  806MPD2    C311922   2.143   1.692   0.114 -0.6395 -0.3820  0.0527
  806MPD2    C411923   2.184   1.562   0.143  0.2441 -0.3538 -0.5327
  806MPD2    C511924   2.153   1.513   0.266 -0.1472 -0.1279  0.7721
  806MPD2     H11925   2.063   1.874   0.180  2.7679  0.4820 -0.9866
  806MPD2    H111926   2.232   1.495   0.073 -0.9842  0.3728 -2.0792
  806MPD2    H211927   2.074   1.532   0.456 -0.6778 -2.2220 -1.5847
  806MPD2    H311928   2.176   1.411   0.292 -0.6870 -1.0879 -2.4955
  806MPD2     N11929   2.201   1.755  17.746 -0.5150 -0.0832  0.5425
  806MPD2    H511930   2.277   1.703  17.704 -0.8226 -0.2504  0.2020
  806MPD2    N111931   2.004   1.799   0.441  0.7350  0.2564  0.0783
  806MPD2    H711932   1.964   1.751   0.521  0.7430 -0.7066 -0.5038
  807MPD2     C11933   1.603   1.814   1.109  0.4166 -0.5346 -0.0852
  807MPD2    C111934   1.651   1.939   1.079  0.0892  0.4157  0.3001
  807MPD2    C211935   1.606   2.049   1.155  0.3414  0.1769  0.1503
  807MPD2    C311936   1.524   2.031   1.262 -0.2016 -0.2954 -0.5021
  807MPD2    C411937   1.483   1.907   1.296  0.1203 -0.0633  0.5046
  807MPD2    C511938   1.525   1.800   1.219  0.4307 -0.0289 -0.3641
  807MPD2     H11939   1.645   2.148   1.132  1.0304  0.2490  1.6400
  807MPD2    H111940   1.432   1.884   1.389 -0.5177 -2.7467 -0.4919
  807MPD2    H211941   1.630   1.724   1.055 -0.0090 -0.4940 -0.3669
  807MPD2    H311942   1.504   1.697   1.248  1.9846 -0.1364  0.3940
  807MPD2     N11943   1.492   2.152   1.332 -0.0749 -0.2371 -0.0088
  807MPD2    H511944   1.542   2.240   1.328 -1.0628  0.4533  2.5419
  807MPD2    N111945   1.735   1.969   0.970  0.0924 -0.2757 -0.1198
  807MPD2    H711946   1.752   2.067   0.948 -0.1955  0.0596  1.1539
  808MPD2     C11947   3.374   3.096  10.032  0.3328 -0.0649  0.0064
  808MPD2    C111948   3.249   3.103   9.987  0.3743 -0.1397 -0.1356
  808MPD2    C211949   3.187   3.222   9.981 -0.1457 -0.2886 -0.0737
  808MPD2    C311950   3.247   3.328  10.040  0.4511 -1.2183  0.9228
  808MPD2    C411951   3.377   3.326  10.078  0.5178  0.1997  0.5049
  808MPD2    C511952   3.442   3.203  10.075 -0.0671 -0.3040  0.1608
  808MPD2     H11953   3.091   3.229   9.931 -0.5667  0.2268  0.8082
  808MPD2    H111954   3.418   3.423  10.106  1.1605  0.0002  0.2565
  808MPD2    H211955   3.425   3.000  10.028 -2.8882 -1.7774  0.0621
  808MPD2    H311956   3.544   3.185  10.106 -0.0436  1.0987  0.8865
  808MPD2     N11957   3.178   3.453  10.052  0.1883  0.3166  0.2607
  808MPD2    H511958   3.225   3.523  10.109  1.1097 -0.8858  0.9653
  808MPD2    N111959   3.172   2.988   9.929  0.8777  0.1305  0.4694
  808MPD2    H711960   3.084   3.003   9.881  1.5664  1.0569 -0.5238
  809MPD2     C11961   2.514   4.300   9.910  0.1981  0.5597  0.1682
  809MPD2    C111962   2.537   4.188   9.834 -0.2282 -0.1851 -0.2508
  809MPD2    C211963   2.610   4.083   9.887  0.3730  0.5649  0.1050
  809MPD2    C311964   2.645   4.090  10.018 -0.0632 -0.3032 -0.2097
  809MPD2    C411965   2.612   4.192  10.094  0.3311  0.3717 -0.8700
  809MPD2    C511966   2.550   4.298  10.045 -0.0002 -0.2746 -0.0679
  809MPD2     H11967   2.642   3.993   9.837  0.4654 -1.3076  3.5066
  809MPD2    H111968   2.640   4.198  10.199 -0.2707 -1.0070 -0.6336
  809MPD2    H211969   2.462   4.389   9.876 -0.0819 -0.7318 -2.7201
  809MPD2    H311970   2.526   4.374  10.118  1.1813 -0.3033  0.3536
  809MPD2     N11971   2.718   3.981  10.079 -0.0886  0.1033 -0.0007
  809MPD2    H511972   2.728   3.991  10.180 -1.0218  0.2196  0.0813
  809MPD2    N111973   2.513   4.180   9.692 -0.3475 -0.6348 -0.2417
  809MPD2    H711974   2.562   4.105   9.643  0.9336  1.2548 -1.8758
  810MPD2     C11975   2.710   3.020   9.922 -0.6043 -0.0076 -0.4242
  810MPD2    C111976   2.707   2.902   9.994 -0.5013  0.1578 -0.0763
  810MPD2    C211977   2.802   2.895  10.097 -0.6545 -0.4414  0.2743
  810MPD2    C311978   2.879   3.005  10.131 -0.4378  0.1818 -0.3119
  810MPD2    C411979   2.852   3.127  10.067 -0.4521 -0.1510 -0.0119
  810MPD2    C511980   2.769   3.134   9.960 -0.1236  0.6852 -0.4764
  810MPD2     H11981   2.807   2.802  10.152 -0.3301  0.3427  1.5761
  810MPD2    H111982   2.901   3.216  10.106 -0.8667 -0.3083  0.8577
  810MPD2    H211983   2.644   3.027   9.836 -0.6390 -2.8627 -0.6170
  810MPD2    H311984   2.754   3.218   9.894 -2.4543 -0.6026 -1.5793
  810MPD2     N11985   2.975   3.013  10.237 -1.0649  0.0424 -0.4886
  810MPD2    H511986   3.019   3.104  10.245 -2.2543  0.6477 -0.7476
  810MPD2    N111987   2.624   2.794   9.957 -0.1709 -0.0486 -0.0510
  810MPD2    H711988   2.583   2.807   9.865 -1.7031  1.0150  0.7797
  811MPD2     C11989   1.815   2.897  10.010  0.1047 -0.0636 -0.3066
  811MPD2    C111990   1.948   2.934  10.014  0.2920 -0.5097 -0.6919
  811MPD2    C211991   1.985   3.067  10.034 -0.2298  0.5707 -0.0277
  811MPD2    C311992   1.889   3.168  10.035 -0.6438 -0.4506 -0.0397
  811MPD2    C411993   1.760   3.127  10.038 -1.3533 -0.1208 -1.0865
  811MPD2    C511994   1.721   2.996  10.025  0.7922  0.0902  0.7006
  811MPD2     H11995   2.090   3.095  10.034  0.2304 -1.1648  0.8700
  811MPD2    H111996   1.675   3.188  10.066 -0.1765  1.7103 -1.5254
  811MPD2    H211997   1.770   2.799   9.992 -0.1719  0.3238 -1.7768
  811MPD2    H311998   1.619   2.970  10.049  0.4205  0.1000 -0.9232
  811MPD2     N11999   1.926   3.306  10.038  0.7098 -0.3687 -0.1909
  811MPD2    H512000   2.026   3.325  10.037  0.4087  1.3087  0.8138
  811MPD2    N112001   2.040   2.829   9.990  0.7887 -0.2831  0.2407
  811MPD2    H712002   1.998   2.743   9.954 -1.4747 -1.7391  6.2860
  812MPD2     C12003   1.609   3.076  11.986  0.6911  0.7582  0.8141
  812MPD2    C112004   1.502   3.127  12.055  0.5477 -0.4067 -0.1551
  812MPD2    C212005   1.418   3.042  12.123  0.1710 -0.3276 -0.2419
  812MPD2    C312006   1.456   2.910  12.141 -0.3614  0.6901  0.4841
  812MPD2    C412007   1.570   2.865  12.077 -0.3240  0.9117 -0.3316
  812MPD2    C512008   1.639   2.944  12.001  0.2007 -0.1267  0.9144
  812MPD2     H12009   1.332   3.074  12.181  0.7275  1.8584 -0.6183
  812MPD2    H112010   1.608   2.764  12.095  3.6730  2.5902  0.8232
  812MPD2    H212011   1.677   3.138  11.930  0.7828  0.9055  1.0916
  812MPD2    H312012   1.730   2.907  11.956  0.2063 -0.4687  1.2013
  812MPD2     N12013   1.369   2.830  12.210  0.2727 -0.6068 -0.4296
  812MPD2    H512014   1.296   2.875  12.264 -1.6868 -1.9313 -1.9906
  812MPD2    N112015   1.474   3.264  12.037 -0.4297 -0.8308 -0.0934
  812MPD2    H712016   1.539   3.307  11.971 -0.7059 -0.2270  0.0266
  813MPD2     C12017   0.221   4.737  12.526 -0.1424  0.7606  0.1282
  813MPD2    C112018   0.231   0.101  12.618  0.4440  0.7327  0.2423
  813MPD2    C212019   0.124   0.129  12.702 -0.1959 -0.0538 -0.1602
  813MPD2    C312020   0.017   0.039  12.704  0.0342  0.0234 -0.1911
  813MPD2    C412021   4.733   4.685  12.598  0.1687  0.4211  0.3777
  813MPD2    C512022   0.107   4.659  12.518 -0.6523  0.0592  0.4103
  813MPD2     H12023   0.118   0.217  12.765 -0.7358  0.2580 -0.6502
  813MPD2    H112024   4.644   4.624  12.588  1.1883 -0.6464 -2.3355
  813MPD2    H212025   0.292   4.703  12.452  0.0388 -0.0369  0.6681
  813MPD2    H312026   0.105   4.570  12.456 -0.0790 -0.7755  1.5946
  813MPD2     N12027   4.661   0.057  12.803  0.2754 -0.1181  0.3273
  813MPD2    H512028   4.679   0.135  12.865  0.3929  0.6759 -0.7188
  813MPD2    N112029   0.348   0.176  12.628 -0.1764  0.4753  0.0680
  813MPD2    H712030   0.338   0.253  12.694  0.0987  0.2825  0.3335
  814MPD2     C12031   0.885   1.234  12.456 -0.3018  0.2572  0.2231
  814MPD2    C112032   0.867   1.353  12.393  0.4609 -0.8413  0.1117
  814MPD2    C212033   0.902   1.464  12.466  0.2541  0.4253  0.6024
  814MPD2    C312034   0.948   1.463  12.594  0.6154 -0.4109  0.0610
  814MPD2    C412035   0.983   1.347  12.645 -0.1247 -0.4972  0.4834
  814MPD2    C512036   0.948   1.231  12.580  0.2072  1.0364  0.3604
  814MPD2     H12037   0.908   1.561  12.418  0.7816 -1.0387 -2.3243
  814MPD2    H112038   1.020   1.335  12.746 -0.4935  0.1796  0.6926
  814MPD2    H212039   0.846   1.140  12.416  1.1291 -1.2341  2.3626
  814MPD2    H312040   0.968   1.137  12.631 -0.9719  0.5994  0.0075
  814MPD2     N12041   0.976   1.575  12.675 -0.5068  0.3481 -0.0448
  814MPD2    H512042   1.029   1.567  12.761  0.7990  0.0614 -0.8851
  814MPD2    N112043   0.798   1.370  12.272  0.6198  0.1424  0.3701
  814MPD2    H712044   0.818   1.460  12.229  0.1220  0.7415  1.3973
  815MPD2     C12045   1.483   4.050  11.896  0.4212  0.2546 -0.4915
  815MPD2    C112046   1.385   4.032  11.801  0.3198 -0.0116  0.4868
  815MPD2    C212047   1.252   4.051  11.829 -1.3457 -0.0020  0.3230
  815MPD2    C312048   1.215   4.098  11.954 -0.0454  0.3774 -0.3277
  815MPD2    C412049   1.313   4.125  12.047  0.2476  0.1314  0.4124
  815MPD2    C512050   1.448   4.102  12.017 -0.0299 -0.9099 -0.6637
  815MPD2     H12051   1.186   4.044  11.744  0.8490 -1.8606 -1.2301
  815MPD2    H112052   1.292   4.169  12.144 -3.0695 -0.9689  0.2008
  815MPD2    H212053   1.587   4.043  11.869  0.5515 -2.2464  0.7305
  815MPD2    H312054   1.531   4.126  12.082  0.6190  1.6576 -2.4333
  815MPD2     N12055   1.077   4.128  11.983 -0.9192  0.1779  0.8222
  815MPD2    H512056   1.013   4.119  11.905  1.2835  0.2569 -0.9892
  815MPD2    N112057   1.433   3.976  11.679  0.2255  0.2590 -0.6304
  815MPD2    H712058   1.534   3.967  11.677  0.2515  0.4487 -0.1881
  816MPD2     C12059   1.248   3.758  17.441 -0.5991 -0.0360 -0.7489
  816MPD2    C112060   1.152   3.744  17.346 -0.3031 -0.4603  0.5139
  816MPD2    C212061   1.195   3.673  17.236 -0.3625  0.2044 -0.6000
  816MPD2    C312062   1.325   3.629  17.221  0.1582 -0.4173  0.1838
  816MPD2    C412063   1.410   3.626  17.330 -0.0997 -0.4982 -0.6832
  816MPD2    C512064   1.374   3.701  17.434 -0.1429  0.5524 -0.4546
  816MPD2     H12065   1.123   3.653  17.158 -0.7725 -0.7995  0.0343
  816MPD2    H112066   1.502   3.569  17.334  0.6721  0.7967 -0.0618
  816MPD2    H212067   1.216   3.803  17.534 -2.4164  2.5374 -2.6198
  816MPD2    H312068   1.429   3.703  17.528  0.4767  0.6465 -0.8192
  816MPD2     N12069   1.353   3.553  17.105 -0.2160 -0.6040 -0.5198
  816MPD2    H512070   1.280   3.520  17.043 -1.6724  0.1868  0.7467
  816MPD2    N112071   1.026   3.807  17.366  0.1290 -0.1601  0.1798
  816MPD2    H712072   1.012   3.854  17.455  0.0632  0.5856 -0.2309
  817MPD2     C12073   0.590   0.385   9.914 -0.2606 -0.0318  0.0721
  817MPD2    C112074   0.548   0.318   9.803  0.6085  0.4977  0.3167
  817MPD2    C212075   0.441   0.368   9.730 -0.1581  0.4102  0.0975
  817MPD2    C312076   0.373   0.483   9.776  0.3302  0.3181  0.2766
  817MPD2    C412077   0.426   0.555   9.878 -0.3422 -0.1066 -0.0080
  817MPD2    C512078   0.545   0.510   9.938  0.0218 -0.1345  0.4009
  817MPD2     H12079   0.407   0.301   9.651  0.3021  0.8084 -0.4362
  817MPD2    H112080   0.385   0.649   9.913 -0.2583  0.3935 -1.2623
  817MPD2    H212081   0.682   0.361   9.966  0.3077 -1.1537 -1.4555
  817MPD2    H312082   0.602   0.568  10.010 -1.7972 -0.1028  1.8106
  817MPD2     N12083   0.259   0.514   9.702  0.7478 -0.4705 -0.2736
  817MPD2    H512084   0.232   0.443   9.634 -1.3563 -1.7197  1.8330
  817MPD2    N112085   0.602   0.196   9.755  0.4648 -0.0821 -0.3646
  817MPD2    H712086   0.576   0.170   9.661 -1.4824  1.3666 -0.2227
  818MPD2     C12087   0.157   0.540  10.238 -0.1174 -0.3477 -0.2073
  818MPD2    C112088   0.041   0.485  10.280 -0.2704  0.7625 -0.5052
  818MPD2    C212089   0.033   0.343  10.274 -0.2706  0.1505 -0.2900
  818MPD2    C312090   0.134   0.263  10.228  0.1474 -0.3498  0.0616
  818MPD2    C412091   0.255   0.322  10.212  0.2993  0.6650  0.5074
  818MPD2    C512092   0.266   0.460  10.216 -0.0685  0.2389  0.0539
  818MPD2     H12093   4.676   0.300  10.305  0.3173 -0.2201  0.9842
  818MPD2    H112094   0.345   0.267  10.187  0.7689  1.1596  1.0786
  818MPD2    H212095   0.180   0.646  10.233 -0.3722 -0.3136 -0.6198
  818MPD2    H312096   0.364   0.504  10.201  0.7243 -1.1735  1.1951
  818MPD2     N12097   0.126   0.124  10.214 -0.0833 -0.2473  0.4304
  818MPD2    H512098   0.211   0.068  10.210  0.5198  0.7744 -1.3184
  818MPD2    N112099   4.665   0.545  10.338 -0.8238 -0.1567 -0.1396
  818MPD2    H712100   4.601   0.477  10.378 -0.4989 -2.4805 -3.6113
  819MPD2     C12101   1.834   1.885  15.571  0.0064 -0.5779 -0.6269
  819MPD2    C112102   1.897   1.764  15.541 -0.2092  0.5149 -0.1872
  819MPD2    C212103   2.028   1.749  15.583  0.9656  0.4338  0.4134
  819MPD2    C312104   2.097   1.839  15.659  0.5403 -0.0544 -0.3957
  819MPD2    C412105   2.036   1.954  15.690 -0.7573  0.2725  0.0086
  819MPD2    C512106   1.904   1.976  15.648 -0.3756  0.0726  0.5773
  819MPD2     H12107   2.083   1.662  15.548  1.2097  0.1029  1.6066
  819MPD2    H112108   2.084   2.036  15.742 -2.8019  2.3287 -1.3720
  819MPD2    H212109   1.743   1.924  15.527  0.6323  0.2966 -1.1385
  819MPD2    H312110   1.854   2.070  15.665 -2.9309 -0.9150 -1.4793
  819MPD2     N12111   2.233   1.820  15.678  0.2584 -0.1333 -0.4073
  819MPD2    H512112   2.276   1.739  15.635 -0.5954 -0.8742  0.1304
  819MPD2    N112113   1.822   1.666  15.479  0.2219 -0.3483  0.0611
  819MPD2    H712114   1.727   1.693  15.454  0.4595 -0.3692 -0.8758
  820MPD2     C12115   1.507   1.863  14.767 -0.9680 -0.6237  0.8029
  820MPD2    C112116   1.602   1.904  14.858  0.4819 -0.3211  0.3425
  820MPD2    C212117   1.681   1.813  14.918  0.6944 -0.1369 -0.4463
  820MPD2    C312118   1.650   1.678  14.912 -0.4500  0.5334 -0.7653
  820MPD2    C412119   1.541   1.640  14.841  0.3904 -0.0289  0.3150
  820MPD2    C512120   1.482   1.729  14.760  1.1895 -0.4890  0.2293
  820MPD2     H12121   1.763   1.849  14.981  0.4488  0.1244 -0.2737
  820MPD2    H112122   1.504   1.538  14.835  0.1195  0.1653 -1.2066
  820MPD2    H212123   1.438   1.937  14.728 -1.3252 -1.9292 -1.0265
  820MPD2    H312124   1.400   1.689  14.701 -0.5186  0.7435  1.8061
  820MPD2     N12125   1.728   1.594  14.999  0.6212 -0.0524 -0.2156
  820MPD2    H512126   1.792   1.638  15.065  0.9054 -0.8026  0.0067
  820MPD2    N112127   1.624   2.043  14.867  0.2199  0.3562  0.6427
  820MPD2    H712128   1.558   2.097  14.811  0.2656  0.6912  0.9074
  821MPD2     C12129   2.725   3.612  13.402 -0.1583 -0.1732 -0.1844
  821MPD2    C112130   2.821   3.523  13.445 -0.6757  0.4399  0.1568
  821MPD2    C212131   2.940   3.506  13.375 -0.0046  0.1629 -0.4238
  821MPD2    C312132   2.958   3.575  13.258  0.3708  0.2083  0.3105
  821MPD2    C412133   2.871   3.679  13.228  0.2997  0.6584 -0.4183
  821MPD2    C512134   2.760   3.697  13.299  0.5349  0.4368  0.2773
  821MPD2     H12135   3.011   3.435  13.415  0.7489  1.3040  0.2412
  821MPD2    H112136   2.886   3.741  13.140 -0.9778  2.5022  0.6782
  821MPD2    H212137   2.633   3.626  13.457 -0.3960  0.1493 -0.6557
  821MPD2    H312138   2.695   3.776  13.264 -0.1534 -0.8081 -1.2141
  821MPD2     N12139   3.066   3.555  13.173 -0.0914  0.2882  0.5017
  821MPD2    H512140   3.081   3.625  13.101  2.9460 -1.8857 -0.9890
  821MPD2    N112141   2.817   3.459  13.570  0.7703 -0.2022 -0.0291
  821MPD2    H712142   2.889   3.393  13.596  0.0762 -0.8851  0.1725
  822MPD2     C12143   3.329   3.347  15.625 -0.1322 -0.5499  0.0014
  822MPD2    C112144   3.291   3.291  15.744 -0.4751 -0.3887  0.2190
  822MPD2    C212145   3.215   3.372  15.829 -0.5919  1.1454 -0.5371
  822MPD2    C312146   3.196   3.507  15.799  0.2882 -0.0300  0.6953
  822MPD2    C412147   3.261   3.565  15.692 -0.1019 -0.4993  0.0361
  822MPD2    C512148   3.310   3.479  15.593  0.3688 -0.0315  0.0780
  822MPD2     H12149   3.175   3.336  15.923 -1.4304  0.1432 -1.2788
  822MPD2    H112150   3.247   3.669  15.668 -1.3708 -0.4331  1.0315
  822MPD2    H212151   3.395   3.296  15.556 -0.7646 -1.4659  0.0762
  822MPD2    H312152   3.353   3.521  15.503 -2.6789 -1.1567 -1.9251
  822MPD2     N12153   3.129   3.581  15.895  0.2122  0.0417 -1.3456
  822MPD2    H512154   3.087   3.527  15.970 -0.3816 -0.3649 -1.9728
  822MPD2    N112155   3.316   3.159  15.791  0.7673  0.4942 -0.3231
  822MPD2    H712156   3.275   3.146  15.883 -1.4171  0.3657 -1.3263
  823MPD2     C12157   2.737   3.707  16.630 -0.3022 -0.5554 -0.0272
  823MPD2    C112158   2.764   3.628  16.522  0.3936 -1.0324  0.2417
  823MPD2    C212159   2.785   3.492  16.542  0.1056  0.5524 -0.4800
  823MPD2    C312160   2.785   3.441  16.672  0.1799 -0.1819  0.8774
  823MPD2    C412161   2.749   3.519  16.775  0.1604  0.1311  0.4968
  823MPD2    C512162   2.721   3.650  16.752  0.4980  0.6352  0.0164
  823MPD2     H12163   2.816   3.427  16.461  0.8337  2.8818 -2.0737
  823MPD2    H112164   2.752   3.482  16.877 -0.3319 -2.1493 -0.3315
  823MPD2    H212165   2.742   3.814  16.612  2.6340 -0.6361  0.3362
  823MPD2    H312166   2.713   3.714  16.840 -0.7641 -2.2967  2.0266
  823MPD2     N12167   2.831   3.311  16.710 -0.2554 -0.0946 -0.0862
  823MPD2    H512168   2.854   3.293  16.807  2.4099  2.7222 -0.1707
  823MPD2    N112169   2.803   3.691  16.399  0.3958 -0.3782 -0.6064
  823MPD2    H712170   2.824   3.790  16.409 -0.8600 -0.2069  0.3479
  824MPD2     C12171   3.580   2.275  15.849 -0.3143  0.2858  0.9017
  824MPD2    C112172   3.632   2.393  15.805 -0.6676 -0.1720  0.2393
  824MPD2    C212173   3.768   2.402  15.785 -0.3044 -0.1486 -0.4603
  824MPD2    C312174   3.849   2.282  15.797  0.2578 -0.3403 -0.5841
  824MPD2    C412175   3.789   2.165  15.843  0.4139  0.5117  0.5115
  824MPD2    C512176   3.658   2.165  15.877  0.0507  0.0641 -0.0534
  824MPD2     H12177   3.825   2.494  15.772 -0.0704 -0.2628 -0.2431
  824MPD2    H112178   3.842   2.073  15.860  0.8989  0.8653  0.9175
  824MPD2    H212179   3.476   2.262  15.877 -0.4196  0.0872  0.4205
  824MPD2    H312180   3.595   2.081  15.907  0.2985 -0.4456 -0.9674
  824MPD2     N12181   3.985   2.281  15.760 -0.1599 -0.7232  0.4548
  824MPD2    H512182   4.027   2.189  15.769  1.0971 -0.3646 -1.6577
  824MPD2    N112183   3.557   2.511  15.815  0.0105  0.5781 -0.2112
  824MPD2    H712184   3.474   2.512  15.872 -0.5277 -1.6429 -0.9677
  825MPD2     C12185   4.698   2.369  15.160 -0.2075  0.7905  0.3700
  825MPD2    C112186   4.629   2.459  15.241  0.0678  0.9160 -0.2054
  825MPD2    C212187   4.648   2.597  15.226  0.4356  0.4707 -0.0866
  825MPD2    C312188   4.725   2.637  15.116 -0.2853  0.7929 -0.2239
  825MPD2    C412189   0.066   2.556  15.044  0.2584 -0.0093  0.5141
  825MPD2    C512190   0.046   2.416  15.063 -0.4869 -0.5773  0.2331
  825MPD2     H12191   4.592   2.669  15.284 -1.2075  0.0358 -1.1378
  825MPD2    H112192   0.128   2.593  14.963  1.3430 -1.6189  0.6020
  825MPD2    H212193   4.690   2.263  15.181  1.4556  0.5560 -0.2067
  825MPD2    H312194   0.112   2.346  15.014  3.0065  2.1711  0.9986
  825MPD2     N12195   0.005   2.778  15.091 -0.1566 -0.3884 -0.1434
  825MPD2    H512196   0.063   2.802  15.011  0.2707 -0.7074  0.0626
  825MPD2    N112197   4.533   2.399  15.324 -0.7845 -0.0619 -0.3563
  825MPD2    H712198   4.532   2.298  15.333 -0.1337 -0.1245 -1.0591
  826MPD2     C12199   3.828   2.656  13.535 -0.3966  0.0025 -0.6691
  826MPD2    C112200   3.886   2.779  13.528  0.4720  0.8838 -0.1482
  826MPD2    C212201   3.803   2.893  13.508  0.4358 -0.5416 -0.6757
  826MPD2    C312202   3.667   2.887  13.515 -0.2362 -0.4934  0.5362
  826MPD2    C412203   3.612   2.760  13.526  0.2577  0.1682  0.0221
  826MPD2    C512204   3.692   2.646  13.526  0.3372  0.4673  0.2729
  826MPD2     H12205   3.854   2.988  13.502 -0.6534 -0.0085 -1.4015
  826MPD2    H112206   3.505   2.748  13.524  0.1221  1.1920  1.0166
  826MPD2    H212207   3.882   2.567  13.566  0.0664 -0.3482 -2.4934
  826MPD2    H312208   3.649   2.552  13.556  1.8283 -0.2977  0.0169
  826MPD2     N12209   3.582   2.997  13.533  0.0714  0.2860  0.0636
  826MPD2    H512210   3.484   2.973  13.543  0.4022 -1.7261 -1.4742
  826MPD2    N112211   4.031   2.788  13.546 -0.8205  0.5952  0.1057
  826MPD2    H712212   4.080   2.711  13.591 -1.9204 -0.9207 -1.3026
  827MPD2     C12213   4.529   4.273  10.325 -0.9141 -0.1730  0.2344
  827MPD2    C112214   4.544   4.137  10.309 -0.4143 -0.7168 -0.0096
  827MPD2    C212215   4.441   4.069  10.240 -0.1647  0.1794 -0.8537
  827MPD2    C312216   4.333   4.134  10.184 -0.0687  0.6421  0.6008
  827MPD2    C412217   4.325   4.274  10.193  0.0075 -0.3128  0.0227
  827MPD2    C512218   4.427   4.339  10.265  0.1095  0.3368 -0.2054
  827MPD2     H12219   4.448   3.962  10.227  0.5190  0.1419 -0.1207
  827MPD2    H112220   4.233   4.319  10.157  0.2743 -1.0777 -1.6578
  827MPD2    H212221   4.604   4.326  10.384 -1.2382  1.8308 -1.1564
  827MPD2    H312222   4.416   4.444  10.288 -0.1307  0.4206 -0.6943
  827MPD2     N12223   4.230   4.061  10.130  0.5783 -0.0457  0.0187
  827MPD2    H512224   4.243   3.962  10.146  0.4057  0.0826  0.9823
  827MPD2    N112225   4.655   4.072  10.374 -0.0347 -0.7692 -0.3465
  827MPD2    H712226   4.729   4.137  10.402 -0.4870 -1.2671  1.9764
  828MPD2     C12227   3.256   3.856  12.609  0.5319 -0.6342  0.3179
  828MPD2    C112228   3.187   3.935  12.513 -0.3275 -0.7652 -0.2421
  828MPD2    C212229   3.242   3.974  12.391  0.7309 -0.4031  0.5226
  828MPD2    C312230   3.367   3.913  12.364  0.0492  0.9453 -0.3579
  828MPD2    C412231   3.429   3.833  12.459 -1.1488 -0.6732  0.1201
  828MPD2    C512232   3.375   3.804  12.581  0.0843 -0.1659  0.5830
  828MPD2     H12233   3.185   4.033  12.319  1.3938  1.9161  1.8950
  828MPD2    H112234   3.527   3.791  12.441 -0.9469 -0.0223 -0.3211
  828MPD2    H212235   3.217   3.825  12.706  0.1208  1.5171  0.8285
  828MPD2    H312236   3.426   3.745  12.656 -0.7066 -1.0373  0.4394
  828MPD2     N12237   3.437   3.929  12.241  0.3103 -0.7194 -0.1826
  828MPD2    H512238   3.534   3.902  12.234  0.2256 -0.4879 -2.2778
  828MPD2    N112239   3.051   3.977  12.529 -0.1133  0.0252 -0.1042
  828MPD2    H712240   3.009   4.018  12.446 -0.4300 -1.7125 -0.8027
  829MPD2     C12241   2.564   4.372  11.998 -0.2290 -0.3555  0.6748
  829MPD2    C112242   2.474   4.390  12.099 -0.2238  0.2944  1.3943
  829MPD2    C212243   2.504   4.342  12.224  0.5596 -0.2101 -0.2534
  829MPD2    C312244   2.616   4.261  12.238  0.5241  0.3008 -0.0295
  829MPD2    C412245   2.693   4.232  12.129 -0.0809  0.0332  0.0860
  829MPD2    C512246   2.668   4.283  12.005 -0.0944 -0.4597 -0.4390
  829MPD2     H12247   2.447   4.375  12.310  1.8819  1.5494 -0.0585
  829MPD2    H112248   2.771   4.156  12.137 -1.1067 -1.1585 -1.3564
  829MPD2    H212249   2.535   4.409  11.901  1.2237  0.6373  0.6222
  829MPD2    H312250   2.720   4.246  11.918  0.1058  0.9695 -0.9196
  829MPD2     N12251   2.652   4.197  12.355 -0.1535 -0.4605  0.2140
  829MPD2    H512252   2.726   4.130  12.341 -0.3158 -0.9437  1.6750
  829MPD2    N112253   2.352   4.463  12.071  0.2438  0.5800  0.1102
  829MPD2    H712254   2.332   4.501  11.979 -0.9926 -0.4266 -0.0371
  830MPD2     C12255   2.934   1.526  15.378 -0.3383  0.3378 -0.2642
  830MPD2    C112256   2.880   1.652  15.388 -0.4933  0.0963 -0.7135
  830MPD2    C212257   2.922   1.752  15.305  0.0387  0.0668  0.4089
  830MPD2    C312258   3.033   1.727  15.222 -0.1131  0.2357 -0.1297
  830MPD2    C412259   3.085   1.599  15.208 -0.3270 -0.0550 -0.3190
  830MPD2    C512260   3.034   1.506  15.288 -0.4414 -0.5820 -0.1776
  830MPD2     H12261   2.887   1.854  15.311  0.2945  0.1822 -0.0778
  830MPD2    H112262   3.175   1.573  15.153 -1.7695 -1.4458 -2.0567
  830MPD2    H212263   2.894   1.445  15.437  0.7658 -0.5648 -0.7744
  830MPD2    H312264   3.073   1.407  15.265 -0.9070 -0.6645 -0.6012
  830MPD2     N12265   3.116   1.829  15.171 -0.2446 -0.1921 -0.2806
  830MPD2    H512266   3.211   1.815  15.139 -0.2115 -1.4833  0.3853
  830MPD2    N112267   2.783   1.672  15.487 -0.1828 -0.2233  0.2413
  830MPD2    H712268   2.770   1.597  15.554 -0.0957 -0.6951 -0.2680
  831MPD2     C12269   3.268   3.526  16.291  0.5213  0.5556 -0.2588
  831MPD2    C112270   3.306   3.439  16.195  0.3658  0.7450  0.4298
  831MPD2    C212271   3.228   3.327  16.176  0.2561 -0.6273 -0.1852
  831MPD2    C312272   3.111   3.313  16.246  0.4121 -0.5434 -0.0098
  831MPD2    C412273   3.092   3.395  16.355 -0.2941  0.1391  1.0331
  831MPD2    C512274   3.162   3.505  16.374  0.6105 -0.5866  0.2438
  831MPD2     H12275   3.252   3.258  16.096 -2.9600 -1.8727 -0.0615
  831MPD2    H112276   3.008   3.367  16.418 -0.0660  0.5542  1.5221
  831MPD2    H212277   3.324   3.617  16.312 -0.8022  1.1601  0.7186
  831MPD2    H312278   3.145   3.563  16.464 -2.3832 -1.7468  0.4434
  831MPD2     N12279   3.011   3.220  16.215  0.7734 -1.0018 -0.1009
  831MPD2    H512280   2.938   3.209  16.285 -0.7190 -0.5039 -1.5674
  831MPD2    N112281   3.420   3.465  16.116 -0.3194 -0.7035  0.0847
  831MPD2    H712282   3.450   3.389  16.054  0.1834  0.8421 -1.5731
  832MPD2     C12283   1.505   4.248  16.958  0.1478 -0.8525  0.6097
  832MPD2    C112284   1.539   4.369  17.008  0.9864  0.5045 -0.3631
  832MPD2    C212285   1.450   4.479  17.000  0.2037 -0.4818  0.3116
  832MPD2    C312286   1.316   4.455  16.960 -0.0309  0.4579 -0.0092
  832MPD2    C412287   1.282   4.327  16.919  0.4146 -0.5529 -0.2526
  832MPD2    C512288   1.381   4.236  16.900 -0.1553 -0.0249  0.1012
  832MPD2     H12289   1.473   4.579  17.036  2.1612  0.3379 -3.2298
  832MPD2    H112290   1.181   4.311  16.885 -0.0970  0.1997  0.9423
  832MPD2    H212291   1.574   4.164  16.949  0.0657 -0.7980 -0.5488
  832MPD2    H312292   1.338   4.146  16.859  0.4421 -1.1090  1.8846
  832MPD2     N12293   1.220   4.559  16.964 -0.2627 -0.1358  0.4149
  832MPD2    H512294   1.126   4.524  16.947  0.3201 -1.4078 -0.1694
  832MPD2    N112295   1.671   4.380  17.055  0.5992  0.4461  0.3676
  832MPD2    H712296   1.730   4.297  17.053 -0.8730 -0.6046  0.5537
  833MPD2     C12297   4.207   1.841  12.784 -0.2561  0.4776 -0.0000
  833MPD2    C112298   4.174   1.943  12.702  0.4411  0.1347 -0.5591
  833MPD2    C212299   4.255   1.963  12.595  0.3241  0.4473  0.0312
  833MPD2    C312300   4.357   1.878  12.560 -0.1431  0.5416  0.0727
  833MPD2    C412301   4.388   1.773  12.646 -0.5901  0.3438 -0.1147
  833MPD2    C512302   4.312   1.754  12.763 -0.3025  0.3606  0.6232
  833MPD2     H12303   4.210   2.035  12.527  1.0463 -0.8103 -1.7491
  833MPD2    H112304   4.462   1.699  12.618 -2.1685  0.0455 -3.5643
  833MPD2    H212305   4.148   1.819  12.872  2.1364  1.4622  1.8490
  833MPD2    H312306   4.328   1.670  12.830 -0.3463  0.4339  0.7254
  833MPD2     N12307   4.443   1.893  12.440 -0.3664  0.2763 -0.0469
  833MPD2    H512308   4.516   1.826  12.417 -0.4544  0.1011  0.1832
  833MPD2    N112309   4.068   2.028  12.728  0.2945  0.5464  0.2627
  833MPD2    H712310   3.988   2.002  12.785  0.5131 -1.0870 -0.1740
  834MPD2     C12311   4.445   1.386  11.622  0.2717 -0.1520  0.8443
  834MPD2    C112312   4.326   1.457  11.610  0.5383 -0.1025  0.0150
  834MPD2    C212313   4.312   1.575  11.686  0.2819 -0.3333  0.0933
  834MPD2    C312314   4.411   1.604  11.784  0.2874  0.0046  0.3029
  834MPD2    C412315   4.522   1.525  11.789  0.0803 -0.2508  0.3039
  834MPD2    C512316   4.536   1.425  11.710 -0.2103  0.1541 -0.4173
  834MPD2     H12317   4.230   1.643  11.671  0.6733  0.9728  3.8846
  834MPD2    H112318   4.609   1.537  11.852  0.8698 -1.2648 -0.6075
  834MPD2    H212319   4.463   1.302  11.556 -0.5991  0.7380 -0.5148
  834MPD2    H312320   4.632   1.374  11.716  0.3678  1.0681 -2.1089
  834MPD2     N12321   4.397   1.721  11.862  0.2351 -0.5542  0.2033
  834MPD2    H512322   4.321   1.784  11.840  1.2086  0.9198  0.9982
  834MPD2    N112323   4.238   1.404  11.513 -0.2611  0.1233  0.4044
  834MPD2    H712324   4.263   1.314  11.472  2.0272  0.7618  0.4451
  835MPD2     C12325   4.401   4.194  11.109  0.1066  0.0368 -0.4878
  835MPD2    C112326   4.289   4.144  11.159 -0.2558 -0.3589 -1.1632
  835MPD2    C212327   4.246   4.190  11.284  0.8289  0.5354 -0.1626
  835MPD2    C312328   4.310   4.291  11.346  0.0731 -0.0592 -0.2226
  835MPD2    C412329   4.429   4.343  11.294  0.5967 -0.5678 -0.8394
  835MPD2    C512330   4.470   4.303  11.172  0.2342  0.2066 -0.2699
  835MPD2     H12331   4.153   4.154  11.325  0.5439 -1.1123 -2.2361
  835MPD2    H112332   4.482   4.419  11.351 -1.2974 -0.4747  0.8258
  835MPD2    H212333   4.450   4.161  11.018 -0.8839 -2.3372 -0.1552
  835MPD2    H312334   4.551   4.359  11.128  1.0740 -1.2653 -0.6148
  835MPD2     N12335   4.269   4.339  11.469  0.4844  0.0983 -0.9970
  835MPD2    H512336   4.335   4.389  11.528 -0.5026 -0.1316  0.3147
  835MPD2    N112337   4.216   4.050  11.098  0.3583 -0.0618  0.0009
  835MPD2    H712338   4.134   4.012  11.145 -0.6407 -0.4266 -2.0493
  836MPD2     C12339   3.548   4.288  11.735 -0.1450  0.2012  0.2277
  836MPD2    C112340   3.630   4.309  11.844 -0.0897 -0.5199 -0.2660
  836MPD2    C212341   3.572   4.324  11.973 -0.9134 -0.3394  0.3014
  836MPD2    C312342   3.434   4.320  11.991 -0.0445  0.5255  0.0070
  836MPD2    C412343   3.356   4.302  11.879  0.0646  0.3201  0.4181
  836MPD2    C512344   3.414   4.286  11.754  0.2529  0.4660 -0.8662
  836MPD2     H12345   3.640   4.346  12.054  0.3731 -0.4297 -0.7554
  836MPD2    H112346   3.250   4.323  11.878  0.1173  0.6076  0.7709
  836MPD2    H212347   3.585   4.300  11.634  0.8906 -0.2384  0.5662
  836MPD2    H312348   3.347   4.280  11.669  0.4683 -1.9364 -0.8767
  836MPD2     N12349   3.365   4.336  12.118  0.2708  0.0012  0.2649
  836MPD2    H512350   3.264   4.335  12.117  0.2632  0.0163  0.7324
  836MPD2    N112351   3.769   4.316  11.815  0.1066 -0.3799 -0.1031
  836MPD2    H712352   3.779   4.309  11.714  0.0277  1.6652 -0.2352
  837MPD2     C12353   2.342   3.895  10.328  0.0586 -0.1187  0.7188
  837MPD2    C112354   2.275   3.955  10.225  0.1043 -0.5543  0.9843
  837MPD2    C212355   2.262   4.093  10.207 -0.0977  0.6814  0.1673
  837MPD2    C312356   2.291   4.173  10.317  0.7169  0.0499 -0.2908
  837MPD2    C412357   2.355   4.117  10.426 -0.2580  1.0418 -0.6726
  837MPD2    C512358   2.381   3.981  10.431  0.0439  0.4462  0.1578
  837MPD2     H12359   2.217   4.128  10.115  0.0889  1.1786  0.2679
  837MPD2    H112360   2.377   4.170  10.518 -2.9086  3.1130 -1.2710
  837MPD2    H212361   2.351   3.787  10.335 -0.4639 -0.0948  1.8412
  837MPD2    H312362   2.425   3.940  10.521  0.7851  0.8849 -0.0083
  837MPD2     N12363   2.243   4.306  10.317 -0.8195  0.5812  0.1002
  837MPD2    H512364   2.199   4.332  10.230 -1.3661  0.1554  0.2515
  837MPD2    N112365   2.213   3.869  10.129  0.3631  0.3678 -0.4722
  837MPD2    H712366   2.169   3.915  10.050  1.3488  1.3679 -0.4388
  838MPD2     C12367   0.584   2.229  11.645 -0.2407 -0.6578 -0.3961
  838MPD2    C112368   0.577   2.228  11.781  0.9419  0.5555  0.5494
  838MPD2    C212369   0.476   2.150  11.839  0.2039 -0.2104  0.4015
  838MPD2    C312370   0.384   2.072  11.772 -0.1272 -0.6876 -0.3390
  838MPD2    C412371   0.385   2.076  11.632  0.4820 -0.1272  0.3529
  838MPD2    C512372   0.486   2.153  11.576 -0.1487  0.2691  0.1303
  838MPD2     H12373   0.476   2.135  11.947 -0.2290  0.3952  0.4854
  838MPD2    H112374   0.315   2.035  11.560  0.8632 -0.7021  0.3110
  838MPD2    H212375   0.667   2.274  11.594  1.2820  0.3793  2.9890
  838MPD2    H312376   0.480   2.163  11.468 -0.2353 -0.7964  0.0329
  838MPD2     N12377   0.274   2.012  11.840 -0.0674  1.0638  0.6624
  838MPD2    H512378   0.284   2.004  11.941  2.8226  1.3243  0.3930
  838MPD2    N112379   0.669   2.286  11.866 -0.1970 -1.1929 -0.1234
  838MPD2    H712380   0.670   2.259  11.964 -0.5243  0.2823  0.2764
  839MPD2     C12381   0.423   1.591  11.872  0.9531 -0.0905 -1.1308
  839MPD2    C112382   0.456   1.623  11.743  0.2207 -0.3349  0.2840
  839MPD2    C212383   0.556   1.720  11.726 -0.6205 -0.3254  0.5200
  839MPD2    C312384   0.624   1.770  11.833 -0.2773  0.1780 -0.3915
  839MPD2    C412385   0.596   1.727  11.962 -0.0361 -0.0569  0.1079
  839MPD2    C512386   0.498   1.637  11.978 -0.0306 -0.4606 -0.0220
  839MPD2     H12387   0.571   1.755  11.625 -2.0516 -1.3187 -0.0509
  839MPD2    H112388   0.646   1.759  12.053 -0.6776  1.0715  0.0585
  839MPD2    H212389   0.357   1.506  11.887  1.5203 -0.3247  0.0258
  839MPD2    H312390   0.468   1.614  12.080  0.0926 -2.7332 -0.4961
  839MPD2     N12391   0.737   1.858  11.825 -0.7309  0.4747 -0.3264
  839MPD2    H512392   0.779   1.895  11.909 -2.1627 -1.6216  1.3206
  839MPD2    N112393   0.392   1.567  11.626 -0.5619 -0.4633  0.4477
  839MPD2    H712394   0.428   1.599  11.537  1.2628  1.4958  1.8814
  840MPD2     C12395   0.524   4.162  10.147 -0.8781  0.3656 -0.2995
  840MPD2    C112396   0.531   4.112  10.278  0.1764 -0.3587 -0.0294
  840MPD2    C212397   0.645   4.140  10.354 -0.0719 -0.0318  1.1184
  840MPD2    C312398   0.744   4.224  10.301 -0.2422 -0.2490 -0.6129
  840MPD2    C412399   0.729   4.273  10.169  0.3845  0.6362 -0.1282
  840MPD2    C512400   0.617   4.247  10.094  0.1366  0.4838 -0.6903
  840MPD2     H12401   0.649   4.095  10.452 -0.7110  0.2930  1.2930
  840MPD2    H112402   0.809   4.323  10.115 -1.1962  2.9625 -0.2992
  840MPD2    H212403   0.435   4.146  10.088 -1.4678  0.8331  0.4656
  840MPD2    H312404   0.608   4.277   9.990 -1.0140  0.8133 -0.5028
  840MPD2     N12405   0.847   4.274  10.383 -0.1825  0.2716  0.2136
  840MPD2    H512406   0.904   4.350  10.348 -0.4686  1.4590  2.3061
  840MPD2    N112407   0.421   4.045  10.336 -0.6201  0.2063  0.1451
  840MPD2    H712408   0.335   4.039  10.284  0.2340 -0.4778 -1.1836
  841MPD2     C12409   0.318   4.383  14.741  0.3831 -0.3003 -0.3414
  841MPD2    C112410   0.252   4.262  14.733  0.2444 -0.0041  0.5363
  841MPD2    C212411   0.328   4.150  14.695 -0.4379  1.0505 -0.3794
  841MPD2    C312412   0.460   4.160  14.655  0.0542  0.6728 -0.0853
  841MPD2    C412413   0.524   4.290  14.663  0.2044  0.3392  0.1438
  841MPD2    C512414   0.449   4.391  14.710  0.5373 -0.0266 -0.5057
  841MPD2     H12415   0.277   4.055  14.686 -2.2091  1.9055  0.6358
  841MPD2    H112416   0.625   4.309  14.629  0.6897 -0.9512  0.8632
  841MPD2    H212417   0.272   4.474  14.777 -0.7878 -0.9739 -0.1217
  841MPD2    H312418   0.496   4.487  14.728 -2.8891  1.4484  0.7098
  841MPD2     N12419   0.542   4.045  14.621 -0.7149  0.3185 -0.1075
  841MPD2    H512420   0.641   4.060  14.604 -1.1035  2.0045 -0.9923
  841MPD2    N112421   0.118   4.260  14.763  0.0317 -0.3390 -0.5331
  841MPD2    H712422   0.078   4.167  14.772 -0.4789 -0.0098  0.6978
  842MPD2     C12423   0.397   0.072  16.835  0.3196 -0.4773  0.2142
  842MPD2    C112424   0.488   0.183  16.843  0.7345  0.4883 -0.0468
  842MPD2    C212425   0.560   0.200  16.962  0.3407 -0.1975  0.0317
  842MPD2    C312426   0.526   0.125  17.076  0.1686  0.1456 -0.0700
  842MPD2    C412427   0.439   0.020  17.062 -0.3103 -0.0197  0.0050
  842MPD2    C512428   0.378   4.726  16.943  0.2423  0.2788 -0.2076
  842MPD2     H12429   0.633   0.281  16.958  0.2140 -0.0277  1.1383
  842MPD2    H112430   0.420   4.690  17.145  0.5971 -2.0100 -1.4074
  842MPD2    H212431   0.339   0.047  16.747 -1.1716  0.9996  0.7923
  842MPD2    H312432   0.315   4.639  16.931  0.5191 -0.0819  0.9673
  842MPD2     N12433   0.576   0.144  17.202 -0.5499 -0.0647 -0.4167
  842MPD2    H512434   0.526   0.090  17.271  1.2495  0.4771  1.3178
  842MPD2    N112435   0.512   0.256  16.728 -0.2674 -0.0083 -0.1609
  842MPD2    H712436   0.475   0.217  16.642  1.2039  0.4250 -0.9996
  843MPD2     C12437   2.148   0.614   0.746  0.0400 -0.4818 -0.3577
  843MPD2    C112438   2.267   0.546   0.741 -0.6043 -0.0191  0.2517
  843MPD2    C212439   2.388   0.600   0.720 -0.2417 -0.3721 -0.1626
  843MPD2    C312440   2.401   0.739   0.707  0.2740 -0.3787  0.0837
  843MPD2    C412441   2.287   0.815   0.723  0.0773 -0.2411 -0.1523
  843MPD2    C512442   2.167   0.748   0.731 -0.7537  0.3523  0.6453
  843MPD2     H12443   2.477   0.539   0.712  1.7452  2.4942 -0.1585
  843MPD2    H112444   2.281   0.923   0.721 -1.5002 -0.2812  2.3953
  843MPD2    H212445   2.048   0.576   0.766  0.3596 -1.5001 -0.6751
  843MPD2    H312446   2.073   0.802   0.720 -0.4589  1.2108  2.4518
  843MPD2     N12447   2.520   0.804   0.689 -0.5167  0.0044  0.0799
  843MPD2    H512448   2.520   0.905   0.679  0.0271 -0.0721 -0.6630
  843MPD2    N112449   2.250   0.404   0.765  0.2276  0.2549  0.1677
  843MPD2    H712450   2.162   0.370   0.804  1.3378 -1.9442  0.7928
  844MPD2     C12451   0.876   4.268  16.430 -0.5515 -0.2200 -1.1137
  844MPD2    C112452   0.993   4.194  16.408  0.7883 -0.2631 -1.1426
  844MPD2    C212453   1.108   4.237  16.471  0.0981  0.0388 -0.8334
  844MPD2    C312454   1.113   4.363  16.533 -0.0207  0.2715  0.4727
  844MPD2    C412455   0.999   4.441  16.538 -0.5501  0.3799  0.1097
  844MPD2    C512456   0.880   4.388  16.496  0.2262  0.4625 -0.2770
  844MPD2     H12457   1.207   4.193  16.459  0.0062  0.4578 -3.1713
  844MPD2    H112458   1.001   4.537  16.589 -0.6944 -0.0094  0.8553
  844MPD2    H212459   0.783   4.237  16.384 -1.9648  0.6747  1.1460
  844MPD2    H312460   0.783   4.432  16.514  0.1779  0.0520  0.4630
  844MPD2     N12461   1.241   4.401  16.582  0.7492  0.4809  0.4288
  844MPD2    H512462   1.325   4.346  16.563  0.8721  0.0012  2.3508
  844MPD2    N112463   1.000   4.074  16.333  0.4631 -0.1207 -0.1830
  844MPD2    H712464   1.094   4.037  16.324  0.5192  0.2844 -1.2040
  845MPD2     C12465   1.541   0.538  16.968  0.1709  0.1802 -0.2428
  845MPD2    C112466   1.489   0.434  17.039  0.0120 -0.4097 -0.2117
  845MPD2    C212467   1.491   0.308  16.985 -0.1425  0.3062  0.4330
  845MPD2    C312468   1.557   0.282  16.875  0.2893  0.0130  0.6765
  845MPD2    C412469   1.617   0.385  16.800  0.2245 -0.1062 -0.2760
  845MPD2    C512470   1.607   0.511  16.852  0.2097 -0.2752  0.2438
  845MPD2     H12471   1.432   0.231  17.033 -0.2920 -2.0477 -3.5356
  845MPD2    H112472   1.672   0.374  16.708 -1.8855  0.7493 -1.6279
  845MPD2    H212473   1.510   0.639  16.993  2.0653  0.6915 -0.0198
  845MPD2    H312474   1.651   0.599  16.806  2.6393 -1.5157  0.1838
  845MPD2     N12475   1.561   0.147  16.826 -0.1662 -0.0565  0.8358
  845MPD2    H512476   1.485   0.089  16.860 -1.1481  1.4070  1.1407
  845MPD2    N112477   1.424   0.464  17.160 -0.0620  1.1084 -0.5226
  845MPD2    H712478   1.440   0.560  17.190 -1.5988  0.6757  1.6860
  846MPD2     C12479   3.303   1.254  14.182  0.1078  0.1702 -0.2194
  846MPD2    C112480   3.186   1.232  14.121  0.3750 -0.5554  0.0129
  846MPD2    C212481   3.077   1.182  14.199  0.0803 -0.3617  0.1815
  846MPD2    C312482   3.089   1.148  14.336  0.0735  0.1136 -0.4383
  846MPD2    C412483   3.216   1.175  14.394  0.5505  0.3397  0.0622
  846MPD2    C512484   3.321   1.224  14.317  0.6683 -0.5055  0.2792
  846MPD2     H12485   2.983   1.156  14.153 -0.4368  0.2683  0.8903
  846MPD2    H112486   3.230   1.175  14.502 -1.2392 -0.1973  0.3023
  846MPD2    H212487   3.380   1.310  14.131  0.9958 -0.7902  0.0827
  846MPD2    H312488   3.415   1.260  14.357  0.3100  2.6143 -1.6813
  846MPD2     N12489   2.985   1.078  14.403 -0.0757 -0.1923 -0.1040
  846MPD2    H512490   2.897   1.065  14.355  0.1115 -1.2822 -0.1424
  846MPD2    N112491   3.162   1.268  13.986  0.2180  0.6580  0.6641
  846MPD2    H712492   3.065   1.285  13.963  0.0198 -1.6204 -0.1493
  847MPD2     C12493   3.681   1.987  14.298 -0.4652 -0.6434  0.6198
  847MPD2    C112494   3.728   2.077  14.388  0.2852  0.1495 -0.4633
  847MPD2    C212495   3.766   2.039  14.515 -0.0214  0.5370 -0.0335
  847MPD2    C312496   3.747   1.912  14.568  0.4667  0.5147 -0.5881
  847MPD2    C412497   3.694   1.820  14.476  0.3591  0.5775 -0.3278
  847MPD2    C512498   3.665   1.853  14.340  0.4696 -0.1813 -0.5903
  847MPD2     H12499   3.814   2.116  14.574 -0.5896  0.5110  0.4652
  847MPD2    H112500   3.676   1.718  14.509 -0.3918  0.2062 -1.8875
  847MPD2    H212501   3.633   2.007  14.203  0.5047  1.0691  0.4976
  847MPD2    H312502   3.635   1.773  14.274 -1.0701  1.5985 -2.0386
  847MPD2     N12503   3.772   1.883  14.705  0.0209 -0.4873 -0.2515
  847MPD2    H512504   3.814   1.961  14.754 -1.5462  0.7939 -0.9155
  847MPD2    N112505   3.758   2.212  14.361 -0.0550 -0.1064 -0.3800
  847MPD2    H712506   3.786   2.263  14.443  2.3968 -2.4276  0.2336
  848MPD2     C12507   1.016   0.353  16.478  0.5105 -0.1169  0.3231
  848MPD2    C112508   1.064   0.388  16.596 -0.0059  1.2150  0.5727
  848MPD2    C212509   1.149   0.497  16.611 -0.7726  0.2364 -0.0395
  848MPD2    C312510   1.189   0.567  16.505  0.3584  0.3554  0.2203
  848MPD2    C412511   1.142   0.534  16.381  0.1510  0.3821  0.7617
  848MPD2    C512512   1.049   0.428  16.371  0.1051  0.4222 -0.6988
  848MPD2     H12513   1.175   0.529  16.711 -0.0389 -1.1243  0.2138
  848MPD2    H112514   1.164   0.587  16.290  1.2269  0.8056  1.2671
  848MPD2    H212515   0.961   0.261  16.459 -0.3802  0.2643  1.0713
  848MPD2    H312516   1.029   0.388  16.272 -1.3834  0.7491 -0.5279
  848MPD2     N12517   1.282   0.678  16.504  0.3770  0.3546 -0.2104
  848MPD2    H512518   1.297   0.723  16.415 -1.9276 -0.5034 -1.0405
  848MPD2    N112519   1.026   0.320  16.713 -0.2188  0.3021 -0.5447
  848MPD2    H712520   1.068   0.348  16.801 -0.2192 -0.7703 -0.2057
  849MPD2     C12521   4.569   4.589  13.962 -0.4075 -0.3783  0.2077
  849MPD2    C112522   4.650   4.493  13.915  0.0865 -0.0680  0.2021
  849MPD2    C212523   0.006   4.437  14.002  0.3585 -0.2267 -0.5244
  849MPD2    C312524   0.009   4.483  14.133  0.3633  0.5163 -0.0915
  849MPD2    C412525   4.650   4.572  14.180 -0.8700 -0.3867 -0.2631
  849MPD2    C512526   4.556   4.620  14.091  0.9548 -0.7051 -0.1698
  849MPD2     H12527   0.069   4.357  13.964  0.7359  0.4196 -1.2522
  849MPD2    H112528   4.643   4.610  14.281 -0.7368  1.7638 -1.0604
  849MPD2    H212529   4.495   4.634  13.896  0.4183 -2.5780 -2.1808
  849MPD2    H312530   4.484   4.695  14.122  0.7043 -0.1170 -2.2018
  849MPD2     N12531   0.117   4.428  14.209  0.2343  0.4815 -0.4371
  849MPD2    H512532   0.177   4.356  14.171  0.3312 -0.0335  0.7193
  849MPD2    N112533   4.650   4.448  13.780  1.0439  0.3553 -0.6297
  849MPD2    H712534   4.725   4.384  13.758  0.9842  0.5737 -1.4989
  850MPD2     C12535   3.087   2.967  14.527 -0.5963  0.0707 -0.0093
  850MPD2    C112536   3.108   3.053  14.630 -0.1191 -0.7211 -0.4782
  850MPD2    C212537   3.232   3.063  14.693  0.4358 -0.3252 -0.1411
  850MPD2    C312538   3.338   2.972  14.658 -0.3918 -0.1207 -0.5096
  850MPD2    C412539   3.313   2.894  14.549 -0.3983 -0.0751 -0.4471
  850MPD2    C512540   3.191   2.880  14.494  0.6061 -0.5230  0.2030
  850MPD2     H12541   3.254   3.130  14.775 -1.3654 -1.8162  1.5573
  850MPD2    H112542   3.381   2.815  14.520 -0.5920 -0.1606 -0.6566
  850MPD2    H212543   2.989   2.959  14.480 -2.1068  0.4275  3.1251
  850MPD2    H312544   3.174   2.815  14.409 -0.4898 -0.7706  0.6227
  850MPD2     N12545   3.464   2.950  14.728 -0.4952 -0.6074  0.4267
  850MPD2    H512546   3.531   2.885  14.690  0.5457  0.2778  0.7448
  850MPD2    N112547   2.995   3.126  14.672 -0.7752  0.3996  0.1490
  850MPD2    H712548   2.922   3.125  14.601 -0.1173 -1.2340 -0.5104
  851MPD2     C12549   3.428   2.766  15.336 -0.1615  0.2904  0.0458
  851MPD2    C112550   3.333   2.755  15.236 -0.2461 -0.0280 -0.6091
  851MPD2    C212551   3.318   2.627  15.180 -0.3833 -0.6590 -0.4397
  851MPD2    C312552   3.379   2.512  15.231 -0.4148  0.0347 -0.8675
  851MPD2    C412553   3.483   2.526  15.322 -0.4825 -0.2313  0.4831
  851MPD2    C512554   3.504   2.657  15.368  0.5811 -0.6505 -0.0772
  851MPD2     H12555   3.244   2.621  15.101 -1.1011 -0.8842  0.2579
  851MPD2    H112556   3.534   2.438  15.358 -0.9718 -0.2763  1.0785
  851MPD2    H212557   3.465   2.863  15.365 -0.0694  0.5850 -1.0836
  851MPD2    H312558   3.592   2.666  15.430 -0.0263 -0.9479  0.8334
  851MPD2     N12559   3.335   2.391  15.168  0.0683  0.5320  0.8932
  851MPD2    H512560   3.251   2.403  15.112  0.0449  0.0147  0.8177
  851MPD2    N112561   3.277   2.877  15.192  0.4974 -0.0398  0.3259
  851MPD2    H712562   3.295   2.964  15.240  0.7127 -0.0888  0.3345
  852MPD2     C12563   2.771   1.000  10.826  0.3721 -0.2612 -0.3932
  852MPD2    C112564   2.845   0.909  10.752 -0.0575  0.2022  0.3426
  852MPD2    C212565   2.857   0.919  10.615 -0.0846  0.5897 -0.4646
  852MPD2    C312566   2.803   1.030  10.551 -0.2541  0.0043 -0.1643
  852MPD2    C412567   2.722   1.119  10.617  0.3906 -0.5326  0.3384
  852MPD2    C512568   2.705   1.094  10.750 -0.7067 -0.1662 -0.2898
  852MPD2     H12569   2.921   0.852  10.559  0.9247  0.6812  0.5675
  852MPD2    H112570   2.698   1.216  10.576  0.1605 -1.1389 -0.9612
  852MPD2    H212571   2.752   1.002  10.933 -0.7986  1.1205 -0.6304
  852MPD2    H312572   2.653   1.178  10.795  2.0480  0.9607  0.7676
  852MPD2     N12573   2.838   1.038  10.415 -0.3548  0.8716 -0.1958
  852MPD2    H512574   2.900   0.966  10.378  0.9310  1.7705  0.2181
  852MPD2    N112575   2.908   0.805  10.820 -0.1684  0.0874 -0.2729
  852MPD2    H712576   2.935   0.729  10.758  2.7770  0.4911  0.5103
  853MPD2     C12577   0.609   0.503  12.425 -0.0638  0.0411 -0.8678
  853MPD2    C112578   0.523   0.607  12.389  0.0320  0.2917  0.6769
  853MPD2    C212579   0.476   0.614  12.257  0.8535 -0.7994 -0.2873
  853MPD2    C312580   0.519   0.520  12.155  0.1802 -0.0142 -0.8724
  853MPD2    C412581   0.585   0.404  12.192  0.0004  0.0967  0.0800
  853MPD2    C512582   0.644   0.412  12.322  0.1482  0.3262 -0.3505
  853MPD2     H12583   0.399   0.685  12.227  1.3795  0.0714  0.4274
  853MPD2    H112584   0.621   0.330  12.121  0.5417 -0.0093  0.4677
  853MPD2    H212585   0.659   0.497  12.521  0.9900 -3.8178 -1.6293
  853MPD2    H312586   0.707   0.326  12.341 -0.2279 -0.2304 -1.6538
  853MPD2     N12587   0.491   0.534  12.015  0.3627  0.9199  0.3729
  853MPD2    H512588   0.544   0.465  11.962 -2.7788  1.6658 -3.6473
  853MPD2    N112589   0.481   0.694  12.492 -0.6677 -0.0778  0.4004
  853MPD2    H712590   0.531   0.690  12.580 -0.6793  0.2345  0.4189
  854MPD2     C12591   2.196   1.236  12.925 -0.1772  0.6575  0.6034
  854MPD2    C112592   2.107   1.135  12.917 -0.2645 -0.1584  0.6270
  854MPD2    C212593   2.127   1.010  12.972  0.0346  0.0105 -0.4812
  854MPD2    C312594   2.248   0.990  13.041 -0.0703 -0.5189 -0.3856
  854MPD2    C412595   2.329   1.101  13.075  0.1781 -0.3121 -0.6510
  854MPD2    C512596   2.306   1.222  13.015  1.0370  0.1364 -0.4584
  854MPD2     H12597   2.052   0.934  12.956  0.0073 -0.0299 -0.1512
  854MPD2    H112598   2.417   1.082  13.135 -0.1441 -0.1289 -0.1216
  854MPD2    H212599   2.171   1.332  12.882  0.4586  0.4655 -0.2080
  854MPD2    H312600   2.366   1.308  13.042  0.2787 -0.0055  1.7183
  854MPD2     N12601   2.280   0.869  13.098 -0.4455 -0.7022 -0.8210
  854MPD2    H512602   2.352   0.862  13.170  0.1590  1.6188 -1.2290
  854MPD2    N112603   1.999   1.163  12.834 -0.2082  0.9404 -0.0455
  854MPD2    H712604   2.011   1.241  12.770 -1.6948 -2.3187 -4.3373
  855MPD2     C12605   2.519   0.727  13.926  0.0499  0.7279  0.6636
  855MPD2    C112606   2.512   0.592  13.872  0.0119  0.5728  0.0783
  855MPD2    C212607   2.486   0.581  13.740  0.1736  0.3050 -0.2729
  855MPD2    C312608   2.440   0.691  13.661  0.5314  0.7884  0.0641
  855MPD2    C412609   2.432   0.815  13.712 -0.1661  0.9406 -0.4991
  855MPD2    C512610   2.480   0.835  13.843  0.2348 -0.1692  0.2492
  855MPD2     H12611   2.499   0.481  13.701 -0.8235 -0.4735  1.4191
  855MPD2    H112612   2.379   0.893  13.660  0.2478  1.1488 -0.6034
  855MPD2    H212613   2.550   0.757  14.026  1.0466 -1.4794  1.0174
  855MPD2    H312614   2.486   0.937  13.879  1.4921  0.3085 -1.2722
  855MPD2     N12615   2.402   0.672  13.526  0.6267 -0.4772  0.0490
  855MPD2    H512616   2.343   0.745  13.487 -0.2723 -0.8284  0.7763
  855MPD2    N112617   2.550   0.472  13.932  0.7909 -0.1946 -0.0869
  855MPD2    H712618   2.533   0.385  13.883 -0.0682  0.6382 -1.2567
  856MPD2     C12619   4.468   1.793  14.140 -0.7542  0.3180  0.4038
  856MPD2    C112620   4.431   1.919  14.112  0.2832 -0.9048  0.0842
  856MPD2    C212621   4.300   1.948  14.099  0.0709  0.4023 -0.2293
  856MPD2    C312622   4.196   1.852  14.106  0.5353  0.8079  0.2481
  856MPD2    C412623   4.236   1.720  14.135 -0.0310 -0.5595 -0.0901
  856MPD2    C512624   4.369   1.697  14.146 -0.0124 -0.1101 -0.5649
  856MPD2     H12625   4.287   2.053  14.076 -0.5951  0.5694  0.8941
  856MPD2    H112626   4.162   1.641  14.133  0.0901 -0.6262 -1.7863
  856MPD2    H212627   4.568   1.750  14.149 -0.8249  0.1924  0.6167
  856MPD2    H312628   4.389   1.591  14.158 -0.1624 -0.0301  0.4161
  856MPD2     N12629   4.059   1.881  14.081  0.6091  0.0650  0.0735
  856MPD2    H512630   3.997   1.804  14.056 -0.7103  0.8690  0.8864
  856MPD2    N112631   4.529   2.019  14.102 -0.0119 -0.2500 -0.8115
  856MPD2    H712632   4.499   2.116  14.096 -0.7078 -0.2763  2.2445
  857MPD2     C12633   0.942   3.710  12.545 -0.1179  0.1494  0.1920
  857MPD2    C112634   1.073   3.694  12.573 -0.3763 -0.4504 -0.8998
  857MPD2    C212635   1.143   3.801  12.620  0.4551  0.2150 -0.3842
  857MPD2    C312636   1.088   3.926  12.638 -0.6043 -0.2932  0.3056
  857MPD2    C412637   0.951   3.940  12.609  0.1240  0.7301 -0.7477
  857MPD2    C512638   0.881   3.831  12.565  0.3742  0.1512 -0.2227
  857MPD2     H12639   1.246   3.797  12.653  0.6832 -0.2942 -1.1667
  857MPD2    H112640   0.894   4.028  12.638 -0.7268 -0.4014  0.9713
  857MPD2    H212641   0.880   3.632  12.502 -0.8311 -0.3579  2.1483
  857MPD2    H312642   0.775   3.840  12.547  0.5189  0.6698 -0.7868
  857MPD2     N12643   1.167   4.028  12.700  0.5316  0.4006 -0.3170
  857MPD2    H512644   1.266   4.006  12.704  0.3367 -0.2245  1.0665
  857MPD2    N112645   1.134   3.575  12.552 -0.3926 -0.0939 -0.1503
  857MPD2    H712646   1.075   3.505  12.506 -2.2952  0.3887  1.5786
  858MPD2     C12647   1.612   2.640  16.456  0.6855 -0.2081  0.2820
  858MPD2    C112648   1.690   2.551  16.522  0.0741 -0.5499 -0.2305
  858MPD2    C212649   1.719   2.586  16.654 -0.6553  0.0524  0.0759
  858MPD2    C312650   1.678   2.703  16.721 -0.2021  0.3461 -0.0695
  858MPD2    C412651   1.604   2.789  16.646  0.1202  0.1594 -0.3385
  858MPD2    C512652   1.575   2.762  16.516  0.0403 -0.4134 -0.4104
  858MPD2     H12653   1.787   2.523  16.711 -0.3857 -0.5656 -0.9306
  858MPD2    H112654   1.565   2.881  16.689  0.6751  0.5391 -0.6456
  858MPD2    H212655   1.559   2.617  16.364  0.4209 -0.3891  0.4783
  858MPD2    H312656   1.514   2.830  16.457 -0.7864 -1.0601 -0.3102
  858MPD2     N12657   1.703   2.740  16.854 -0.0339 -0.0477 -0.5161
  858MPD2    H512658   1.653   2.820  16.893  2.4817  1.7808 -1.0187
  858MPD2    N112659   1.735   2.439  16.451  0.0952  0.2800  0.2526
  858MPD2    H712660   1.685   2.425  16.364  1.6790 -0.2301 -0.5688
  859MPD2     C12661   0.310   0.121  15.477 -0.8408  0.0665  0.4141
  859MPD2    C112662   0.403   0.029  15.424 -0.3889  0.1739 -0.3231
  859MPD2    C212663   0.397   4.635  15.456 -0.1451  0.1631 -0.2832
  859MPD2    C312664   0.300   4.584  15.534  0.2172 -0.4777 -0.2808
  859MPD2    C412665   0.205   4.675  15.587 -0.7544  0.0664  0.4000
  859MPD2    C512666   0.212   0.076  15.561  0.0508 -0.0620 -0.2338
  859MPD2     H12667   0.467   4.573  15.400  0.6121  0.3837  0.4077
  859MPD2    H112668   0.124   4.647  15.654 -0.2918  0.5031  1.1385
  859MPD2    H212669   0.311   0.227  15.451  0.0260 -0.2036 -0.6279
  859MPD2    H312670   0.135   0.145  15.595  0.5228 -0.5699  1.8197
  859MPD2     N12671   0.289   4.446  15.560  0.4148  0.5515  0.3520
  859MPD2    H512672   0.235   4.424  15.643  0.6438  1.2868  0.6925
  859MPD2    N112673   0.493   0.085  15.332 -0.4664 -0.2963 -0.0037
  859MPD2    H712674   0.465   0.177  15.300  1.1431 -0.5728 -2.1574
  860MPD2     C12675   3.572   0.081  12.129  0.3106 -0.0451  0.1386
  860MPD2    C112676   3.537   0.212  12.141  1.0315 -0.1355 -0.8815
  860MPD2    C212677   3.408   0.243  12.171 -0.4239  0.3271  0.0599
  860MPD2    C312678   3.311   0.145  12.188 -0.4417  0.4502 -0.0702
  860MPD2    C412679   3.350   0.018  12.165  0.3190  0.4969  0.8747
  860MPD2    C512680   3.475   4.725  12.134 -0.1944  0.7956  0.1974
  860MPD2     H12681   3.384   0.349  12.174  1.3778  0.7121  0.8079
  860MPD2    H112682   3.268   4.685  12.155  0.0115  0.9121  0.4543
  860MPD2    H212683   3.670   0.039  12.110  0.4151  0.3823 -0.2924
  860MPD2    H312684   3.509   4.624  12.116  0.3278  0.9204  0.4715
  860MPD2     N12685   3.186   0.179  12.238  0.1868 -0.2960  0.5814
  860MPD2    H512686   3.169   0.279  12.232  1.3672 -0.1274  0.0961
  860MPD2    N112687   3.624   0.322  12.132  0.0355 -0.4199  0.4312
  860MPD2    H712688   3.585   0.414  12.152 -0.1362 -0.4163  0.0780
  861MPD2     C12689   2.352   2.856  11.141 -0.5697  0.6788  0.1411
  861MPD2    C112690   2.283   2.972  11.166  0.3581 -0.3599 -1.5255
  861MPD2    C212691   2.159   2.980  11.104  0.3141 -0.5638 -0.3087
  861MPD2    C312692   2.103   2.881  11.026 -0.2736 -0.7465  0.1998
  861MPD2    C412693   2.180   2.771  11.001  0.3687 -0.1628  0.5556
  861MPD2    C512694   2.304   2.756  11.058  0.2985  0.0264  0.7187
  861MPD2     H12695   2.104   3.072  11.114  1.0756 -0.1575  0.1319
  861MPD2    H112696   2.146   2.693  10.934  3.5081  0.2944 -1.6317
  861MPD2    H212697   2.449   2.837  11.186  0.0733  2.0631 -0.6593
  861MPD2    H312698   2.379   2.683  11.027  1.8742  0.7289  2.8760
  861MPD2     N12699   1.980   2.902  10.952  0.4252 -0.2941 -0.0430
  861MPD2    H512700   1.959   2.842  10.873 -0.9927 -1.2706  1.0501
  861MPD2    N112701   2.323   3.072  11.258  0.8661  0.3090 -0.2186
  861MPD2    H712702   2.260   3.151  11.257 -0.2482 -0.5600  0.3969
  862MPD2     C12703   1.487   2.788  10.389 -0.1833 -0.1676 -0.4697
  862MPD2    C112704   1.446   2.907  10.457 -0.4878 -0.7686 -0.8962
  862MPD2    C212705   1.311   2.928  10.458 -0.5062  0.2958  0.1105
  862MPD2    C312706   1.212   2.836  10.414 -0.7785 -0.3060 -0.2874
  862MPD2    C412707   1.258   2.726  10.351 -0.9633  0.8773  0.0597
  862MPD2    C512708   1.397   2.714  10.325 -0.9375 -0.8183 -0.0271
  862MPD2     H12709   1.287   3.023  10.503 -2.3124 -0.7893  1.4254
  862MPD2    H112710   1.191   2.652  10.312  0.3842 -0.0833 -0.4336
  862MPD2    H212711   1.593   2.768  10.378 -0.1808 -0.8787  0.9890
  862MPD2    H312712   1.427   2.628  10.266 -0.8094 -0.8527  0.0896
  862MPD2     N12713   1.076   2.833  10.462  0.3981 -0.7223 -0.2433
  862MPD2    H512714   1.028   2.743  10.459  0.2615 -0.6996  1.0573
  862MPD2    N112715   1.526   2.997  10.526 -0.1844 -0.3607  0.3553
  862MPD2    H712716   1.482   3.081  10.561 -0.5973  0.4344 -2.0603
  863MPD2     C12717   4.623   0.809  16.845 -0.2135 -0.5799 -0.0606
  863MPD2    C112718   4.653   0.942  16.810 -0.0905 -1.4444  0.4915
  863MPD2    C212719   0.011   1.018  16.887 -0.1977 -0.2525 -0.1851
  863MPD2    C312720   0.067   0.963  17.003 -0.3292 -0.0831 -0.0307
  863MPD2    C412721   0.048   0.824  17.026 -0.1600 -0.3924 -0.6054
  863MPD2    C512722   4.693   0.763  16.955  0.4473  0.3180  0.2940
  863MPD2     H12723   0.021   1.123  16.864  2.9998 -0.4478  0.2771
  863MPD2    H112724   0.102   0.776  17.107  0.7481  0.8065 -0.5066
  863MPD2    H212725   4.544   0.748  16.803  0.3676  0.5915 -2.8658
  863MPD2    H312726   4.660   0.667  16.993 -4.9247  1.8897 -0.3602
  863MPD2     N12727   0.143   1.029  17.102  0.3125  0.6104  0.0304
  863MPD2    H512728   0.195   0.974  17.170  1.2490  0.3495 -0.9006
  863MPD2    N112729   4.576   1.000  16.704 -0.0971 -0.3953 -0.0122
  863MPD2    H712730   4.499   0.944  16.667  0.6220 -1.6436  0.3543
  864MPD2     C12731   0.026   2.850  16.983 -0.0247  0.0297 -0.1115
  864MPD2    C112732   0.094   2.755  16.910  0.0588 -0.3270  0.0592
  864MPD2    C212733   0.224   2.771  16.882  0.3215 -0.0930  0.3644
  864MPD2    C312734   0.293   2.883  16.920  0.3385 -0.5102 -0.1883
  864MPD2    C412735   0.231   2.980  16.989 -0.0191  0.2582  0.1122
  864MPD2    C512736   0.092   2.969  17.013 -0.5572 -0.1268  0.1383
  864MPD2     H12737   0.269   2.700  16.813  1.3397 -0.0855  1.0202
  864MPD2    H112738   0.280   3.069  17.026  0.3309  0.7323 -1.5300
  864MPD2    H212739   4.659   2.837  17.010 -1.0118 -0.7512 -4.3333
  864MPD2    H312740   0.045   3.044  17.077  1.4352 -0.3630  1.8983
  864MPD2     N12741   0.425   2.907  16.878  0.2536  0.1531 -0.1940
  864MPD2    H512742   0.470   2.997  16.893 -0.9441  0.8678 -0.8609
  864MPD2    N112743   0.018   2.649  16.857  0.7420  0.1150  0.4115
  864MPD2    H712744   4.654   2.651  16.860  0.7012  0.6339 -1.3939
  865MPD2     C12745   0.736   3.165  16.276  0.4025 -0.7307  0.5619
  865MPD2    C112746   0.767   3.061  16.362 -0.0479 -0.3164  0.5205
  865MPD2    C212747   0.775   3.084  16.498  0.3914 -0.1614 -0.2891
  865MPD2    C312748   0.767   3.210  16.546  0.4250  0.0996  0.2216
  865MPD2    C412749   0.731   3.310  16.460 -0.2842  0.2814  1.1061
  865MPD2    C512750   0.714   3.285  16.330  0.1659  0.4198 -0.8534
  865MPD2     H12751   0.801   3.005  16.568 -0.6516 -1.2885 -1.1918
  865MPD2    H112752   0.722   3.409  16.503 -0.8044  0.3935  0.7306
  865MPD2    H212753   0.729   3.147  16.170 -0.4853  0.4533  0.4205
  865MPD2    H312754   0.690   3.365  16.261  0.0670  1.6073  0.5397
  865MPD2     N12755   0.808   3.244  16.675 -0.3433  0.1283 -0.7341
  865MPD2    H512756   0.801   3.343  16.696  0.0496 -0.3049  1.3822
  865MPD2    N112757   0.793   2.934  16.306 -0.0983 -0.2835 -0.5284
  865MPD2    H712758   0.800   2.931  16.205 -0.3303  0.6917 -0.5744
  866MPD2     C12759   2.855   3.401  10.870 -0.3568  0.4304  1.0311
  866MPD2    C112760   2.781   3.390  10.990 -0.0542 -0.2136 -1.0233
  866MPD2    C212761   2.643   3.403  10.979  0.2463 -0.2735 -0.2145
  866MPD2    C312762   2.582   3.416  10.857 -0.2348  0.5999 -0.1621
  866MPD2    C412763   2.656   3.408  10.741  0.7861 -0.4455  0.3626
  866MPD2    C512764   2.790   3.389  10.750 -0.8234 -0.5888 -0.4065
  866MPD2     H12765   2.590   3.416  11.073  1.1671 -1.0049  0.4068
  866MPD2    H112766   2.607   3.396  10.645 -0.1145 -0.1796  0.7915
  866MPD2    H212767   2.961   3.381  10.861 -0.2360  1.1970  0.7561
  866MPD2    H312768   2.849   3.366  10.663 -0.2452 -1.9452  0.3410
  866MPD2     N12769   2.443   3.439  10.851  0.1867  0.0322  0.1498
  866MPD2    H512770   2.401   3.476  10.767 -0.9668  0.8954  1.1056
  866MPD2    N112771   2.846   3.371  11.110  0.7860  0.8866 -0.2608
  866MPD2    H712772   2.946   3.356  11.101  0.5294 -0.2201 -1.2397
  867MPD2     C12773   4.058   2.675  16.779 -0.3111 -0.0205  0.0830
  867MPD2    C112774   4.101   2.667  16.913 -0.5462  1.2070  0.7826
  867MPD2    C212775   4.117   2.784  16.979  0.3804  0.5303 -0.0238
  867MPD2    C312776   4.082   2.910  16.924  0.0231  0.1865  0.1448
  867MPD2    C412777   4.048   2.917  16.793 -0.1693  0.1431 -0.4240
  867MPD2    C512778   4.037   2.798  16.723  0.0343  0.1933 -0.1988
  867MPD2     H12779   4.158   2.780  17.080  1.1096  0.2998 -0.3258
  867MPD2    H112780   4.042   3.017  16.753 -0.0562  1.2914  2.4254
  867MPD2    H212781   4.035   2.591  16.714 -2.2466 -0.8074  1.7689
  867MPD2    H312782   4.027   2.803  16.615  1.1900  0.6731 -0.2763
  867MPD2     N12783   4.103   3.039  16.982  0.9035 -0.0953 -0.2836
  867MPD2    H512784   4.073   3.119  16.927  1.3227 -0.0444 -0.4365
  867MPD2    N112785   4.113   2.533  16.970 -0.2506 -0.8025  0.4770
  867MPD2    H712786   4.107   2.452  16.909  0.3481 -0.5477  0.0789
  868MPD2     C12787   1.622   1.472  12.818 -0.1256  0.5114 -0.2554
  868MPD2    C112788   1.633   1.424  12.941 -0.1238  0.4174  0.3808
  868MPD2    C212789   1.521   1.397  13.009  0.7111  0.8421 -0.9831
  868MPD2    C312790   1.396   1.433  12.970 -0.9010  1.1232 -0.1996
  868MPD2    C412791   1.389   1.473  12.840  0.1626  0.0901 -0.1513
  868MPD2    C512792   1.500   1.491  12.768  0.1177  0.5756  0.3001
  868MPD2     H12793   1.530   1.351  13.107  1.3428 -1.1792 -2.0112
  868MPD2    H112794   1.293   1.475  12.788  0.7015 -0.0499 -1.1459
  868MPD2    H212795   1.705   1.483  12.748  0.8545 -0.1465  0.7964
  868MPD2    H312796   1.498   1.531  12.667  0.9813 -0.6216 -0.1783
  868MPD2     N12797   1.283   1.414  13.058 -0.0230  0.2690  0.5909
  868MPD2    H512798   1.305   1.389  13.154 -2.5477 -1.0746  0.8211
  868MPD2    N112799   1.769   1.407  12.991 -0.1214  0.0729 -0.3307
  868MPD2    H712800   1.839   1.444  12.927 -0.3685  0.3008 -0.4673
  869MPD2     C12801   2.399   0.062   2.568  0.2638  0.1879 -0.6512
  869MPD2    C112802   2.276   0.014   2.520 -0.0019  0.0248 -0.1441
  869MPD2    C212803   2.217   0.074   2.404  0.7015  0.1474  0.2689
  869MPD2    C312804   2.278   0.185   2.342 -0.8092  0.5592  0.4182
  869MPD2    C412805   2.401   0.229   2.393 -0.7758 -0.6488 -0.4643
  869MPD2    C512806   2.456   0.177   2.507 -0.2486 -0.5690  0.2467
  869MPD2     H12807   2.118   0.039   2.380  0.9065  0.0027 -0.3440
  869MPD2    H112808   2.440   0.326   2.363 -1.5664 -0.4877 -0.9725
  869MPD2    H212809   2.441   0.014   2.655 -2.0051  0.0601  0.3753
  869MPD2    H312810   2.536   0.232   2.556  1.1935 -2.7240  0.3072
  869MPD2     N12811   2.232   0.238   2.224  0.2463  0.0390  0.6315
  869MPD2    H512812   2.289   0.314   2.187 -1.1094  0.5811 -0.3491
  869MPD2    N112813   2.225   4.636   2.582  0.2108 -0.6538  0.5429
  869MPD2    H712814   2.270   4.603   2.667  1.0208 -2.5267 -0.6072
  870MPD2     C12815   1.301   3.874   0.903  0.7266 -0.0778 -0.7691
  870MPD2    C112816   1.282   3.737   0.936  0.0686  0.6383  0.0322
  870MPD2    C212817   1.203   3.659   0.855 -0.0039  1.2121 -0.2143
  870MPD2    C312818   1.131   3.714   0.755 -0.1761 -0.2287  0.3515
  870MPD2    C412819   1.140   3.855   0.731  0.1013  0.5067  0.1286
  870MPD2    C512820   1.227   3.928   0.808  0.3121 -0.4543  0.1131
  870MPD2     H12821   1.180   3.556   0.878 -2.1571  1.6357 -0.4979
  870MPD2    H112822   1.086   3.908   0.654  0.1135  0.9659  0.4401
  870MPD2    H212823   1.381   3.927   0.953  0.9967 -0.0325 -1.2543
  870MPD2    H312824   1.243   4.032   0.783 -1.8418 -0.4028 -1.0429
  870MPD2     N12825   1.060   3.628   0.673  0.4719  0.1905 -0.5044
  870MPD2    H512826   1.062   3.530   0.697 -1.6666  0.4518  0.7954
  870MPD2    N112827   1.354   3.690   1.047 -0.1711  0.4306  0.6958
  870MPD2    H712828   1.412   3.761   1.090  0.9256 -1.8959  3.1007
  871MPD2     C12829   3.112   2.791  16.217  0.1973 -0.4775 -0.2670
  871MPD2    C112830   3.075   2.729  16.330  0.1858 -0.9830  0.1343
  871MPD2    C212831   3.048   2.597  16.332 -0.8857 -1.0354  0.3884
  871MPD2    C312832   3.045   2.521  16.213 -0.0168  0.1671 -0.2611
  871MPD2    C412833   3.073   2.585  16.096  0.4004 -0.2274  0.0244
  871MPD2    C512834   3.114   2.717  16.099 -0.1710 -0.8838  0.1494
  871MPD2     H12835   3.026   2.552  16.428 -3.4286  1.0389  0.7755
  871MPD2    H112836   3.089   2.533  16.002  3.5576 -0.3177  0.6149
  871MPD2    H212837   3.133   2.897  16.212  0.9341 -0.6126 -0.0798
  871MPD2    H312838   3.156   2.756  16.007  0.2692 -1.0200  0.2954
  871MPD2     N12839   2.998   2.390  16.219 -0.2769 -0.1422  0.2521
  871MPD2    H512840   2.974   2.368  16.315  0.5710  0.5014  0.6229
  871MPD2    N112841   3.068   2.802  16.449 -0.0580  0.3413 -0.1917
  871MPD2    H712842   3.107   2.896  16.439  1.2615 -0.2353 -0.4784
  872MPD2     C12843   4.135   0.693  14.096 -1.1114  0.3454  0.8213
  872MPD2    C112844   4.091   0.823  14.077  0.9283 -0.8284 -0.7555
  872MPD2    C212845   3.957   0.852  14.116  0.6513 -0.3664 -0.5825
  872MPD2    C312846   3.883   0.759  14.185  0.2455  0.2259  0.8224
  872MPD2    C412847   3.928   0.626  14.197 -0.3400 -0.4036 -0.1726
  872MPD2    C512848   4.051   0.601  14.151  0.5229  0.9016  0.3217
  872MPD2     H12849   3.921   0.952  14.092  2.8234  0.5553  0.0189
  872MPD2    H112850   3.873   0.553  14.255 -0.6998 -0.0768 -0.0957
  872MPD2    H212851   4.226   0.660  14.047  0.1436  0.8016  2.8664
  872MPD2    H312852   4.082   0.497  14.160  0.5661  0.8722 -0.1304
  872MPD2     N12853   3.757   0.787  14.243  0.1401  0.0102 -0.0114
  872MPD2    H512854   3.707   0.712  14.289 -1.1782  0.2296 -1.0887
  872MPD2    N112855   4.168   0.927  14.022 -0.1004  0.0685  0.3092
  872MPD2    H712856   4.127   1.019  14.020 -1.0700 -0.3674 -0.0517
  873MPD2     C12857   1.226   1.225   1.062  0.1754  0.2535  0.3596
  873MPD2    C112858   1.083   1.227   1.080  0.6142  0.0892  0.6588
  873MPD2    C212859   1.009   1.119   1.029  0.2609 -1.1714 -0.5263
  873MPD2    C312860   1.074   1.004   0.990 -0.1023 -0.0580 -0.2187
  873MPD2    C412861   1.210   1.006   0.967  0.4027 -0.0895  0.4163
  873MPD2    C512862   1.285   1.118   1.005  1.0772  0.5265 -0.5959
  873MPD2     H12863   0.901   1.119   1.038  0.3892  3.1356  1.0727
  873MPD2    H112864   1.258   0.913   0.937 -0.3233  0.0537 -1.2058
  873MPD2    H212865   1.294   1.307   1.084 -0.3994  0.6433  0.7137
  873MPD2    H312866   1.393   1.117   0.998  1.1330  2.4405 -0.1024
  873MPD2     N12867   1.003   0.885   0.972 -0.0039  0.0905  0.3659
  873MPD2    H512868   1.044   0.813   0.914 -0.0776  1.2260 -1.0864
  873MPD2    N112869   1.025   1.334   1.159  0.1520 -0.6664 -0.1073
  873MPD2    H712870   1.092   1.402   1.192 -1.5016  2.1653 -2.5605
  874MPD2     C12871   0.891   0.858  16.111  0.2465  0.2498 -0.6191
  874MPD2    C112872   0.873   0.822  16.243  0.0588  0.0556  0.5200
  874MPD2    C212873   0.961   0.882  16.337 -0.2192 -0.7490  1.0865
  874MPD2    C312874   1.059   0.967  16.301  0.3992 -0.6655  0.5603
  874MPD2    C412875   1.066   1.006  16.168  0.7372  0.2282 -0.5698
  874MPD2    C512876   0.976   0.954  16.073 -0.7296 -0.0158 -0.5485
  874MPD2     H12877   0.951   0.870  16.444  1.4444 -2.5161  1.0416
  874MPD2    H112878   1.148   1.067  16.130  0.7332  0.4649 -0.1948
  874MPD2    H212879   0.819   0.825  16.036  1.3880 -0.4944 -1.3758
  874MPD2    H312880   0.978   0.992  15.972 -0.5556 -1.9366 -1.2644
  874MPD2     N12881   1.147   1.012  16.401  0.0323 -0.0231 -0.2197
  874MPD2    H512882   1.139   0.986  16.498  0.1564  1.2473  0.1349
  874MPD2    N112883   0.774   0.728  16.283  0.1768 -0.3314  0.2569
  874MPD2    H712884   0.701   0.707  16.217 -0.8451  0.0574  1.2523
  875MPD2     C12885   1.536   3.352  14.778 -0.3039  0.6689 -0.3721
  875MPD2    C112886   1.570   3.481  14.744 -0.1251  0.1556 -0.8143
  875MPD2    C212887   1.658   3.548  14.830  0.4691 -0.1566  0.1765
  875MPD2    C312888   1.713   3.490  14.945 -0.2923 -0.9648  0.1526
  875MPD2    C412889   1.675   3.362  14.974 -0.3271  0.1654 -0.3532
  875MPD2    C512890   1.589   3.291  14.891 -0.1096 -0.3724 -0.1833
  875MPD2     H12891   1.690   3.647  14.798 -1.0485  0.4562  0.5252
  875MPD2    H112892   1.689   3.329  15.077 -0.2818  0.4950 -0.2522
  875MPD2    H212893   1.474   3.296  14.709  1.8198  0.3680 -2.0534
  875MPD2    H312894   1.535   3.203  14.924 -2.4657  0.0459 -2.8848
  875MPD2     N12895   1.783   3.566  15.039 -0.2172 -0.0055 -0.7711
  875MPD2    H512896   1.807   3.517  15.125 -0.5548 -0.6549 -1.0478
  875MPD2    N112897   1.521   3.549  14.630 -0.0137 -0.3617  0.5913
  875MPD2    H712898   1.553   3.645  14.622 -1.8748  0.1683 -0.6642
  876MPD2     C12899   0.745   0.394  16.119  0.4892 -0.5120 -1.0860
  876MPD2    C112900   0.731   0.321  16.007  0.1038  0.3050  0.6167
  876MPD2    C212901   0.693   0.189  16.018 -0.3032  0.4224 -0.0218
  876MPD2    C312902   0.678   0.122  16.140 -0.2883  0.5146  0.4248
  876MPD2    C412903   0.700   0.194  16.256  0.3507 -0.3025 -0.3314
  876MPD2    C512904   0.733   0.328  16.239 -0.0884 -0.0166 -0.0840
  876MPD2     H12905   0.683   0.127  15.930  0.1369 -0.2858  0.4268
  876MPD2    H112906   0.705   0.154  16.356 -1.2067 -0.7692 -0.4492
  876MPD2    H212907   0.778   0.498  16.118 -0.2130 -0.2826 -0.2581
  876MPD2    H312908   0.768   0.375  16.330  0.8126 -0.6188 -0.1178
  876MPD2     N12909   0.648   4.724  16.138  0.0576 -0.6793  0.3979
  876MPD2    H512910   0.649   4.679  16.047  0.7487  0.5014 -0.1814
  876MPD2    N112911   0.774   0.380  15.886  0.2979  0.1189  0.1401
  876MPD2    H712912   0.847   0.450  15.900  0.1826  0.7187 -2.4243
  877MPD2     C12913   0.596   0.693  15.087 -0.7054 -0.2217  0.2421
  877MPD2    C112914   0.723   0.654  15.100  0.4965  0.0066 -0.5616
  877MPD2    C212915   0.798   0.625  14.985 -0.3602  0.4849  1.0508
  877MPD2    C312916   0.743   0.647  14.858  0.4462 -0.2681  0.4812
  877MPD2    C412917   0.618   0.707  14.854 -0.0767  0.8268 -0.4555
  877MPD2    C512918   0.543   0.727  14.966 -0.4640  0.4591 -0.3404
  877MPD2     H12919   0.896   0.581  14.992  0.7959  2.7439 -0.8482
  877MPD2    H112920   0.577   0.717  14.754  1.9373 -0.8308 -1.4325
  877MPD2    H212921   0.527   0.703  15.170 -0.4541 -0.6092  0.5002
  877MPD2    H312922   0.437   0.751  14.958 -0.7303 -0.2692  1.0151
  877MPD2     N12923   0.809   0.614  14.739 -0.2028 -0.6963  0.1579
  877MPD2    H512924   0.757   0.631  14.653 -0.8289 -1.1499  0.4480
  877MPD2    N112925   0.776   0.622  15.226  0.2574  0.2034  0.0048
  877MPD2    H712926   0.874   0.599  15.222 -0.4115 -2.2318 -2.5385
  878MPD2     C12927   0.326   4.599  12.824  0.3729  0.4701 -0.2520
  878MPD2    C112928   0.391   4.655  12.935 -0.1425 -0.1033 -0.2575
  878MPD2    C212929   0.350   4.636  13.063  0.9782 -0.2852 -0.5617
  878MPD2    C312930   0.227   4.570  13.083  0.4005  0.2700  0.3800
  878MPD2    C412931   0.157   4.534  12.973  0.3176  0.1076  0.3540
  878MPD2    C512932   0.207   4.543  12.851  0.6667  1.0251  0.2264
  878MPD2     H12933   0.403   4.676  13.149  2.0125 -0.9553 -0.8980
  878MPD2    H112934   0.062   4.481  12.982 -0.4426  1.7785  1.9472
  878MPD2    H212935   0.358   4.602  12.720 -0.5868 -1.2521 -0.5964
  878MPD2    H312936   0.147   4.514  12.766 -0.5371  1.3065  0.9919
  878MPD2     N12937   0.181   4.548  13.214  0.1725 -0.6871  0.3000
  878MPD2    H512938   0.237   4.563  13.298  1.5861 -0.5877 -0.6625
  878MPD2    N112939   0.492   0.000  12.889 -0.8535 -0.3017  0.1862
  878MPD2    H712940   0.516   0.003  12.790  1.5185  1.3374  0.8230
  879MPD2     C12941   0.453   1.641  16.922 -0.3832  0.0154 -0.1281
  879MPD2    C112942   0.507   1.545  16.998  0.3479  0.4188 -0.1719
  879MPD2    C212943   0.482   1.409  16.969 -0.3276  0.0970  0.3344
  879MPD2    C312944   0.421   1.375  16.845 -0.5381 -0.5155 -0.0229
  879MPD2    C412945   0.370   1.474  16.766  0.5290 -1.4947  0.5047
  879MPD2    C512946   0.381   1.606  16.813 -0.4803 -0.0402 -0.0141
  879MPD2     H12947   0.528   1.330  17.028 -1.4767  0.4798  1.7390
  879MPD2    H112948   0.323   1.457  16.670  0.2601  2.3060 -0.0329
  879MPD2    H212949   0.457   1.748  16.939 -0.4776  0.2358 -1.4416
  879MPD2    H312950   0.347   1.692  16.755  2.1036 -0.5970 -2.3398
  879MPD2     N12951   0.404   1.238  16.806  0.5269  0.0666 -0.4908
  879MPD2    H512952   0.354   1.216  16.720 -0.1619  0.7738 -0.2702
  879MPD2    N112953   0.596   1.590  17.097  0.0474  0.1640  0.2601
  879MPD2    H712954   0.611   1.690  17.096 -0.2114  0.1946 -1.0935
  880MPD2     C12955   1.875   2.617   0.587  0.2307  0.0296  0.4679
  880MPD2    C112956   1.951   2.700   0.506  0.3131 -0.1079 -0.0865
  880MPD2    C212957   2.074   2.655   0.459 -0.7291  0.6915 -0.0891
  880MPD2    C312958   2.124   2.531   0.492  0.3138  0.1053 -0.1442
  880MPD2    C412959   2.050   2.454   0.576 -0.0693 -0.3774 -0.3215
  880MPD2    C512960   1.925   2.496   0.622  0.4804 -0.4962  0.2290
  880MPD2     H12961   2.140   2.710   0.394  0.1698 -0.7171 -0.3715
  880MPD2    H112962   2.078   2.355   0.608  1.9685  0.2415 -0.2349
  880MPD2    H212963   1.777   2.639   0.628 -1.6472 -1.0898 -3.3941
  880MPD2    H312964   1.872   2.434   0.693 -3.1979  0.7894 -1.3982
  880MPD2     N12965   2.243   2.486   0.424 -0.2169 -0.4552 -1.0859
  880MPD2    H512966   2.296   2.554   0.370 -0.7513  1.3665  0.6800
  880MPD2    N112967   1.902   2.828   0.475 -0.2368 -0.5317  1.2761
  880MPD2    H712968   1.816   2.871   0.507 -0.2432  1.0155 -0.8745
  881MPD2     C12969   2.396   3.486  17.659  0.6023  0.5906  0.1925
  881MPD2    C112970   2.327   3.390  17.587  0.0821 -0.8109  0.5555
  881MPD2    C212971   2.222   3.331  17.660 -0.1177  0.0108  0.2426
  881MPD2    C312972   2.200   3.356   0.044 -0.2118  0.4245  0.3815
  881MPD2    C412973   2.284   3.444   0.110 -1.4682  1.1232  0.6565
  881MPD2    C512974   2.380   3.510   0.040 -1.0402  0.5984  0.2172
  881MPD2     H12975   2.147   3.267  17.616 -0.8332  0.8918  0.1749
  881MPD2    H112976   2.260   3.458   0.215  0.1430  0.5428  1.0873
  881MPD2    H212977   2.478   3.540  17.612 -0.1318  3.6583  2.4224
  881MPD2    H312978   2.434   3.590   0.088  0.6453 -1.1130  1.1825
  881MPD2     N12979   2.100   3.289   0.120 -0.1835  0.0334 -0.2950
  881MPD2    H512980   2.098   3.306   0.220 -1.3124  2.2434 -0.6846
  881MPD2    N112981   2.327   3.386  17.443  0.0891  0.2715 -0.0119
  881MPD2    H712982   2.258   3.326  17.398  1.4074 -1.8255  0.7791
  882MPD2     C12983   0.886   0.642  13.907  0.0538  0.0450 -0.4938
  882MPD2    C112984   0.835   0.671  14.027 -0.1467  0.7852  0.0462
  882MPD2    C212985   0.695   0.673  14.041 -0.4079 -0.1658 -0.3878
  882MPD2    C312986   0.615   0.684  13.933 -1.2248 -0.0024  0.2003
  882MPD2    C412987   0.670   0.675  13.811 -0.8324 -0.2120  0.1450
  882MPD2    C512988   0.804   0.655  13.803 -0.2366 -0.2211  0.2241
  882MPD2     H12989   0.644   0.685  14.136  1.1459  2.8957  0.0846
  882MPD2    H112990   0.608   0.694  13.725 -0.9944  0.9494  0.5202
  882MPD2    H212991   0.990   0.627  13.884 -0.0291  0.6213 -1.2250
  882MPD2    H312992   0.855   0.648  13.708 -0.5900  2.6892 -0.1708
  882MPD2     N12993   0.475   0.708  13.935 -0.5015  0.1507  0.0171
  882MPD2    H512994   0.423   0.704  13.847  1.4244  1.5761 -1.1830
  882MPD2    N112995   0.926   0.672  14.137 -0.0512 -0.2650 -0.1889
  882MPD2    H712996   1.021   0.644  14.117  0.0250  0.1097 -0.3657
  883MPD2     C12997   2.455   0.179  16.533 -0.0109 -0.1057 -0.3581
  883MPD2    C112998   2.508   0.233  16.423  0.4603  0.0926 -0.0113
  883MPD2    C212999   2.639   0.224  16.400  0.2294 -0.2029 -0.2679
  883MPD2    C313000   2.717   0.141  16.476 -0.4704 -0.2345 -0.3562
  883MPD2    C413001   2.656   0.070  16.581  0.0385  0.6744 -0.2581
  883MPD2    C513002   2.524   0.093  16.611 -0.3066  0.1269  0.3045
  883MPD2     H13003   2.674   0.270  16.308 -1.4189  1.2411 -0.1900
  883MPD2    H113004   2.716   4.735  16.635  2.2639  0.9366 -2.3736
  883MPD2    H213005   2.350   0.183  16.557 -0.3951  1.0214 -2.1915
  883MPD2    H313006   2.473   0.031  16.683 -0.5834  1.3296  1.1500
  883MPD2     N13007   2.855   0.144  16.450 -0.3444  0.6792  0.7247
  883MPD2    H513008   2.873   0.195  16.364  2.8210  1.2907  1.7472
  883MPD2    N113009   2.421   0.317  16.337  0.2550 -0.2072 -0.5695
  883MPD2    H713010   2.479   0.363  16.268  1.3395 -0.3000  0.2851
  884MPD2     C13011   4.716   1.598  15.603 -0.6145 -0.4601 -0.4507
  884MPD2    C113012   4.647   1.723  15.590  1.1008  0.4263 -0.3870
  884MPD2    C213013   4.520   1.722  15.546 -0.1621  0.4995  0.6408
  884MPD2    C313014   4.444   1.603  15.546  0.3326  0.4738 -1.0468
  884MPD2    C413015   4.501   1.484  15.578  0.3045 -1.3179 -0.1446
  884MPD2    C513016   4.633   1.482  15.608 -0.6854 -0.4154  0.0099
  884MPD2     H13017   4.469   1.813  15.515 -0.2668 -0.0752 -0.8641
  884MPD2    H113018   4.448   1.390  15.580 -0.6880 -0.7767 -0.9688
  884MPD2    H213019   0.083   1.588  15.628 -0.4372 -0.2271 -1.1252
  884MPD2    H313020   4.686   1.390  15.624  1.0241  0.6847  0.6408
  884MPD2     N13021   4.311   1.622  15.499 -0.2530 -0.1378 -0.0734
  884MPD2    H513022   4.281   1.708  15.454 -1.1989 -1.8877 -2.7959
  884MPD2    N113023   4.710   1.848  15.591  0.2612 -0.3394 -0.7210
  884MPD2    H713024   4.656   1.932  15.572 -0.3682 -0.9577 -1.6875
  885MPD2     C13025   2.411   1.228   0.190  0.1457 -0.0775  0.0823
  885MPD2    C113026   2.465   1.355   0.197  0.4832  0.0927  0.2656
  885MPD2    C213027   2.487   1.417   0.074  0.7124  0.0017 -0.0541
  885MPD2    C313028   2.463   1.354  17.702  0.0115  0.1055  0.0090
  885MPD2    C413029   2.426   1.220  17.696  1.0663 -0.7244  0.8083
  885MPD2    C513030   2.388   1.164   0.066  0.8459 -0.3732  0.7003
  885MPD2     H13031   2.514   1.522   0.082 -1.1266  0.5705 -1.3544
  885MPD2    H113032   2.427   1.168  17.601  0.0688 -0.7262  0.8017
  885MPD2    H213033   2.374   1.174   0.277  2.7968 -3.4286 -0.8677
  885MPD2    H313034   2.343   1.065   0.071 -0.7858  0.4518  2.2416
  885MPD2     N13035   2.486   1.417  17.579  0.3853 -0.1200  0.2128
  885MPD2    H513036   2.492   1.353  17.501 -0.3510  0.8938 -0.6753
  885MPD2    N113037   2.493   1.416   0.322  0.6033 -0.8188  0.3410
  885MPD2    H713038   2.493   1.353   0.401  0.0214  1.7660  2.3786
  886MPD2     C13039   3.978   0.323  15.419  0.2091 -0.7806 -0.0442
  886MPD2    C113040   4.114   0.301  15.440  0.3211 -0.0234  0.3332
  886MPD2    C213041   4.207   0.394  15.393  0.3191 -0.3412 -0.0202
  886MPD2    C313042   4.162   0.502  15.328  0.3507  0.2979 -0.1785
  886MPD2    C413043   4.027   0.534  15.317 -0.1253  0.0703  0.5853
  886MPD2    C513044   3.935   0.438  15.347 -0.0100 -0.5656  1.3936
  886MPD2     H13045   4.309   0.370  15.421  0.6520  0.2052 -0.7651
  886MPD2    H113046   3.987   0.627  15.277 -1.5746  0.5179  3.0992
  886MPD2    H213047   3.899   0.256  15.452 -0.6746 -0.2006 -1.0032
  886MPD2    H313048   3.830   0.447  15.324  0.5965  1.3007 -0.6691
  886MPD2     N13049   4.250   0.602  15.280 -0.2308 -0.2940  0.3654
  886MPD2    H513050   4.212   0.682  15.230 -0.8438 -0.8671 -0.0889
  886MPD2    N113051   4.158   0.188  15.512  0.3607  0.4315  0.3409
  886MPD2    H713052   4.258   0.181  15.521  0.2735  0.5627  1.4714
  887MPD2     C13053   4.690   0.143  15.992 -0.1514  0.3177  0.3824
  887MPD2    C113054   4.623   0.178  15.877  0.1112  0.1216 -0.1830
  887MPD2    C213055   4.672   0.274  15.789 -0.3081 -0.0369 -0.6584
  887MPD2    C313056   0.050   0.342  15.830 -0.2330 -0.6501  0.7984
  887MPD2    C413057   0.108   0.318  15.953 -0.3520  0.3049  0.5305
  887MPD2    C513058   0.065   0.213  16.023  0.6081 -0.5007 -0.3568
  887MPD2     H13059   4.634   0.280  15.688 -0.2556  1.7234 -0.5717
  887MPD2    H113060   0.188   0.373  16.001 -0.1332  0.1490  0.3410
  887MPD2    H213061   4.666   0.063  16.061  0.4194 -0.0472  0.1666
  887MPD2    H313062   0.106   0.197  16.121 -0.8274 -0.4407  0.2602
  887MPD2     N13063   0.106   0.423  15.732 -0.3221 -0.3707 -0.2816
  887MPD2    H513064   0.049   0.440  15.650 -0.5051 -0.0808 -0.0932
  887MPD2    N113065   4.506   0.113  15.832 -0.1278 -0.8106 -1.2320
  887MPD2    H713066   4.462   0.146  15.747  0.4477  1.2958 -0.7102
  888MPD2     C13067   1.599   4.709  14.903  0.0897 -0.0216 -0.3701
  888MPD2    C113068   1.559   0.002  15.032 -0.1615 -0.3782 -1.4938
  888MPD2    C213069   1.586   0.128  15.081 -1.1558 -0.0714  0.7177
  888MPD2    C313070   1.677   0.211  15.017  0.4998  0.0524 -0.0455
  888MPD2    C413071   1.733   0.164  14.899 -0.3211 -0.2074 -0.1272
  888MPD2    C513072   1.696   0.046  14.844 -0.4146  0.6563 -0.4070
  888MPD2     H13073   1.545   0.153  15.178  0.6995 -2.1276  2.0056
  888MPD2    H113074   1.791   0.224  14.830  1.1747 -1.5640 -0.0391
  888MPD2    H213075   1.583   4.616  14.849 -0.5508  0.0147 -0.2356
  888MPD2    H313076   1.744   0.037  14.747  2.5621 -0.5967  1.1702
  888MPD2     N13077   1.702   0.334  15.079  0.1868  0.1284 -0.1481
  888MPD2    H513078   1.635   0.364  15.150 -0.1679  1.5957 -1.1071
  888MPD2    N113079   1.480   4.647  15.100  0.2352  0.5083  0.5536
  888MPD2    H713080   1.435   4.681  15.185 -0.4865  2.5320 -0.6410
  889MPD2     C13081   1.472   0.102  12.812 -0.1136 -0.7596  0.2781
  889MPD2    C113082   1.426   0.049  12.924  0.4396  0.9368 -0.0444
  889MPD2    C213083   1.456   0.108  13.047  0.1417  0.0664 -0.1454
  889MPD2    C313084   1.503   0.241  13.062 -0.3590 -0.1216  0.6380
  889MPD2    C413085   1.530   0.307  12.945 -0.0301  0.1660 -0.4505
  889MPD2    C513086   1.516   0.229  12.827 -0.1457  0.4408 -0.2463
  889MPD2     H13087   1.419   0.066  13.139 -0.4903  0.7763 -0.0783
  889MPD2    H113088   1.585   0.400  12.941 -1.4191  1.0219  0.8900
  889MPD2    H213089   1.463   0.062  12.712 -1.8253 -0.4174  0.2867
  889MPD2    H313090   1.550   0.270  12.732  3.3886  0.6003  1.0752
  889MPD2     N13091   1.505   0.304  13.179 -0.4127 -0.3382 -0.5865
  889MPD2    H513092   1.470   0.248  13.256  0.7833 -1.0484 -0.5625
  889MPD2    N113093   1.380   4.656  12.933  0.2808  1.0831  0.4481
  889MPD2    H713094   1.367   4.614  13.025 -4.2996  1.2000 -0.1636
  890MPD2     C13095   1.028   1.300  14.407  0.1544  0.1367 -0.5362
  890MPD2    C113096   1.054   1.420  14.468  0.2464  0.5605  0.0425
  890MPD2    C213097   1.109   1.418  14.596 -0.3791  0.5425 -1.0880
  890MPD2    C313098   1.133   1.304  14.663 -0.2818  0.7615  0.6418
  890MPD2    C413099   1.106   1.185  14.597  0.2361  0.2807 -0.4585
  890MPD2    C513100   1.055   1.180  14.469 -0.2338 -0.5671 -0.4586
  890MPD2     H13101   1.146   1.506  14.648 -1.0657  0.9017 -1.2049
  890MPD2    H113102   1.127   1.091  14.647  2.7637 -0.1152 -2.2603
  890MPD2    H213103   0.991   1.289  14.306  1.7868  2.1525 -1.3540
  890MPD2    H313104   1.038   1.084  14.421  2.9050 -0.9485 -0.8447
  890MPD2     N13105   1.176   1.305  14.798 -1.1489  0.0571  0.5302
  890MPD2    H513106   1.193   1.400  14.831 -1.8888  0.1126  0.7530
  890MPD2    N113107   1.015   1.541  14.403  0.0094 -0.1275 -0.3371
  890MPD2    H713108   0.961   1.524  14.318 -1.4918  0.0557  0.5844
  891MPD2     C13109   3.570   4.654  16.758  0.2256  0.6218  0.1755
  891MPD2    C113110   3.466   4.579  16.812  0.0881 -0.3776 -0.2062
  891MPD2    C213111   3.497   4.491  16.916  0.2410 -0.4373 -0.3445
  891MPD2    C313112   3.621   4.489  16.977  0.1546  0.5142  0.3782
  891MPD2    C413113   3.721   4.558  16.921  0.6340 -0.5892 -0.5138
  891MPD2    C513114   3.694   4.632  16.809 -0.1468  0.2786 -0.7466
  891MPD2     H13115   3.428   4.419  16.960  1.0218 -1.4229 -0.7430
  891MPD2    H113116   3.820   4.563  16.964  0.0983 -1.3354  0.7882
  891MPD2    H213117   3.543   4.721  16.678  1.6228  1.6854  0.5963
  891MPD2    H313118   3.771   4.704  16.783  0.2661  0.5871  1.2671
  891MPD2     N13119   3.633   4.395  17.084 -0.0628  0.9732 -0.0639
  891MPD2    H513120   3.547   4.349  17.110  0.2857 -0.3868 -1.2775
  891MPD2    N113121   3.343   4.570  16.744 -0.3777  0.3038  0.4065
  891MPD2    H713122   3.359   4.602  16.649  2.4406  0.3374  0.8948
  892MPD2     C13123   0.054   0.993  14.795 -0.0874 -0.1644 -0.7928
  892MPD2    C113124   4.705   1.024  14.696  0.3459 -0.9255 -0.4625
  892MPD2    C213125   4.728   0.978  14.567 -0.1509 -0.0628 -0.1526
  892MPD2    C313126   0.102   0.907  14.529  0.5826  0.0917 -0.6599
  892MPD2    C413127   0.185   0.875  14.637  0.3855  0.4524 -0.1196
  892MPD2    C513128   0.163   0.916  14.761 -0.7370  0.5059  0.1075
  892MPD2     H13129   4.659   1.002  14.487 -1.6060 -0.4627  0.9714
  892MPD2    H113130   0.275   0.817  14.625  1.6436  2.1618  1.0956
  892MPD2    H213131   0.034   0.994  14.902  1.9033 -1.1513 -0.4113
  892MPD2    H313132   0.234   0.883  14.836  0.5038  2.5658 -0.1851
  892MPD2     N13133   0.123   0.849  14.404 -0.0589  0.4065 -0.1548
  892MPD2    H513134   0.203   0.786  14.400 -1.5717 -1.5028 -0.4580
  892MPD2    N113135   4.591   1.098  14.719  0.0347  0.0832 -0.0613
  892MPD2    H713136   4.525   1.097  14.642  1.0629 -1.1045 -0.9304
  893MPD2     C13137   1.281   3.710   1.701 -0.1138 -0.0904 -0.5352
  893MPD2    C113138   1.330   3.799   1.606  0.7270  0.0792  0.3606
  893MPD2    C213139   1.275   3.806   1.482 -0.0756 -0.0050 -0.0169
  893MPD2    C313140   1.163   3.730   1.447 -0.2427 -0.3803 -0.1792
  893MPD2    C413141   1.117   3.642   1.540 -0.3255 -0.6256  0.5736
  893MPD2    C513142   1.170   3.637   1.674  0.0195  0.0584  0.3442
  893MPD2     H13143   1.326   3.867   1.408 -0.1082  0.9308  0.7309
  893MPD2    H113144   1.038   3.578   1.501 -0.5485 -0.8991  1.4808
  893MPD2    H213145   1.329   3.698   1.797 -0.9997  1.7548  0.1254
  893MPD2    H313146   1.134   3.573   1.753 -1.4609  0.9898  0.4254
  893MPD2     N13147   1.094   3.737   1.321 -0.3494  0.2599  0.2330
  893MPD2    H513148   1.019   3.670   1.306 -0.2747  0.1144  0.5098
  893MPD2    N113149   1.451   3.858   1.648 -0.1910  0.1172  0.7667
  893MPD2    H713150   1.488   3.839   1.741  1.1422 -0.2076  0.1690
  894MPD2     C13151   4.265   1.304   1.161 -0.3295 -0.5640 -0.4149
  894MPD2    C113152   4.136   1.352   1.171 -0.3849  0.1672 -0.3037
  894MPD2    C213153   4.105   1.487   1.132  0.1610 -0.7305 -0.2365
  894MPD2    C313154   4.197   1.563   1.071 -0.2568  0.5314  0.0568
  894MPD2    C413155   4.325   1.509   1.047 -0.0412  0.1655  0.0041
  894MPD2    C513156   4.358   1.385   1.102 -0.0174  0.0666  0.2767
  894MPD2     H13157   4.010   1.527   1.166 -0.8412 -2.9746 -0.3977
  894MPD2    H113158   4.410   1.564   1.009  0.8423 -0.5698  0.9254
  894MPD2    H213159   4.302   1.209   1.199 -0.7531  0.0718  1.5852
  894MPD2    H313160   4.458   1.344   1.101 -0.0147  0.0989 -0.4449
  894MPD2     N13161   4.173   1.703   1.034 -0.0185  0.6337  0.4704
  894MPD2    H513162   4.078   1.731   1.054 -0.9674 -1.7887 -0.6944
  894MPD2    N113163   4.039   1.288   1.254  0.0407  0.2226  0.3407
  894MPD2    H713164   3.945   1.325   1.247 -0.0392 -0.2283 -0.9656
  895MPD2     C13165   4.186   0.440  13.709  0.5032 -0.0367 -0.3742
  895MPD2    C113166   4.066   0.379  13.735 -0.3116 -0.2305  0.8894
  895MPD2    C213167   4.038   0.250  13.693 -0.2626 -0.8217  0.9323
  895MPD2    C313168   4.111   0.194  13.598 -0.5362 -0.5420 -0.8489
  895MPD2    C413169   4.222   0.257  13.557  0.1752 -0.0239  0.3158
  895MPD2    C513170   4.273   0.376  13.617 -0.5084  0.4949 -0.0494
  895MPD2     H13171   3.941   0.214  13.723  0.3300 -2.8956  0.4039
  895MPD2    H113172   4.287   0.218  13.480  0.4170 -0.8811  0.9594
  895MPD2    H213173   4.223   0.539  13.733  2.4104 -0.5736 -1.0796
  895MPD2    H313174   4.358   0.430  13.576 -2.2110  2.4592 -0.9720
  895MPD2     N13175   4.089   0.062  13.546  0.8874  0.2786 -0.1004
  895MPD2    H513176   4.145   0.023  13.470  2.9400  2.2665  0.3582
  895MPD2    N113177   3.958   0.449  13.785  0.0141  0.0020 -0.0819
  895MPD2    H713178   3.872   0.398  13.805  0.6039 -1.3923 -1.0687
  896MPD2     C13179   0.329   2.855   1.154  0.1330  0.4367 -0.4218
  896MPD2    C113180   0.380   2.753   1.074  0.1954 -0.1423 -0.1999
  896MPD2    C213181   0.297   2.678   0.995  0.2011  0.6170  0.7992
  896MPD2    C313182   0.158   2.706   0.991 -0.2553 -0.1741 -0.1524
  896MPD2    C413183   0.110   2.810   1.072  0.0576 -0.4489 -0.5141
  896MPD2    C513184   0.195   2.883   1.151  0.6131 -0.0214 -0.3219
  896MPD2     H13185   0.338   2.603   0.928 -2.6305  0.9467 -1.3243
  896MPD2    H113186   0.004   2.834   1.074  0.0098 -0.6588 -0.5331
  896MPD2    H213187   0.390   2.919   1.217 -0.5678  0.7510 -0.0607
  896MPD2    H313188   0.157   2.968   1.208 -1.6354 -0.3307 -1.3315
  896MPD2     N13189   0.067   2.633   0.909  0.7763 -0.1508  0.1881
  896MPD2    H513190   0.100   2.550   0.862  0.6950 -0.2801  0.3590
  896MPD2    N113191   0.519   2.741   1.079 -0.2594 -0.4176 -0.3306
  896MPD2    H713192   0.561   2.816   1.133 -1.7744  0.3086 -0.1484
  897MPD2     C13193   2.635   4.440  10.968  0.9789 -0.1869  0.9875
  897MPD2    C113194   2.547   4.503  10.881 -0.3711  0.2938 -0.0115
  897MPD2    C213195   2.419   4.461  10.872  0.3884 -0.2103 -0.9035
  897MPD2    C313196   2.363   4.378  10.970 -0.3673  0.6383  0.1089
  897MPD2    C413197   2.450   4.320  11.056 -0.1611 -1.1484  0.1584
  897MPD2    C513198   2.585   4.348  11.050 -0.7169 -0.1995 -0.7701
  897MPD2     H13199   2.349   4.517  10.811 -0.5843  0.7493  1.0963
  897MPD2    H113200   2.423   4.253  11.137 -0.3119 -0.4453  0.6857
  897MPD2    H213201   2.740   4.467  10.974  0.7072  1.1595 -0.0793
  897MPD2    H313202   2.652   4.300  11.120  0.1361 -1.1804 -2.2542
  897MPD2     N13203   2.224   4.352  10.970 -0.3762  0.4241 -0.2652
  897MPD2    H513204   2.169   4.377  10.889 -0.5724  1.7860  0.2884
  897MPD2    N113205   2.597   4.599  10.794  0.3750 -0.1159 -0.4093
  897MPD2    H713206   2.697   4.620  10.797  0.3356  0.0084 -0.0133
  898MPD2     C13207   4.331   0.232   0.835 -0.3864 -0.7255  0.2663
  898MPD2    C113208   4.377   0.335   0.760 -0.1126 -0.4004 -0.2533
  898MPD2    C213209   4.380   0.328   0.626 -1.0203 -0.2270 -0.2298
  898MPD2    C313210   4.345   0.216   0.559 -0.8296  0.0680  0.2233
  898MPD2    C413211   4.292   0.110   0.629  0.2332 -1.0093  0.0681
  898MPD2    C513212   4.281   0.117   0.765 -0.7597  0.1248 -0.2545
  898MPD2     H13213   4.420   0.413   0.573 -0.4137  0.1891  0.9018
  898MPD2    H113214   4.257   0.013   0.595  0.5849 -0.5715 -1.5366
  898MPD2    H213215   4.342   0.231   0.943 -2.1463  1.9092  0.4794
  898MPD2    H313216   4.247   0.034   0.825  1.4152 -1.5441 -1.3098
  898MPD2     N13217   4.366   0.216   0.421 -0.9626 -0.5030 -0.7250
  898MPD2    H513218   4.390   0.304   0.378  1.1959 -0.5133  0.5129
  898MPD2    N113219   4.428   0.457   0.812 -0.3280 -0.0490  0.1904
  898MPD2    H713220   4.446   0.527   0.741 -2.4030  1.2017  0.9101
  899MPD2     C13221   0.273   0.721  17.637  0.2797 -0.7002  0.7299
  899MPD2    C113222   0.226   0.849  17.659 -0.4770  0.4323 -0.0920
  899MPD2    C213223   0.153   0.872   0.024 -0.3211  0.0683 -0.8221
  899MPD2    C313224   0.141   0.773   0.119  0.4708 -0.0020 -0.1464
  899MPD2    C413225   0.206   0.651   0.108  0.4581  0.1862 -0.1895
  899MPD2    C513226   0.271   0.623  17.732 -0.3419  0.0300 -0.3044
  899MPD2     H13227   0.083   0.953   0.035  1.3425  1.3643  0.2626
  899MPD2    H113228   0.189   0.572   0.180  0.3475  0.0425 -0.3722
  899MPD2    H213229   0.337   0.703  17.551  0.4180 -0.4357  0.7758
  899MPD2    H313230   0.323   0.530  17.715 -1.1533 -0.0833 -2.1847
  899MPD2     N13231   0.073   0.811   0.239  0.1093 -0.4444  0.1334
  899MPD2    H513232   0.016   0.895   0.237 -1.7956 -1.7363  0.9499
  899MPD2    N113233   0.251   0.949  17.563 -0.1407  0.4387 -0.1308
  899MPD2    H713234   0.310   0.925  17.484  0.8684  0.2158  0.6951
  900MPD2     C13235   4.682   2.655  12.132 -0.6574 -0.1907 -0.5941
  900MPD2    C113236   4.608   2.555  12.183  0.2649 -0.3596 -0.0026
  900MPD2    C213237   4.480   2.535  12.135 -0.4669  0.0089 -0.6755
  900MPD2    C313238   4.424   2.615  12.033 -0.2179  0.3024  0.4555
  900MPD2    C413239   4.504   2.714  11.980  0.5045  0.2670 -0.3891
  900MPD2    C513240   4.630   2.733  12.030  0.0101 -0.3338  0.0299
  900MPD2     H13241   4.421   2.455  12.177 -1.7995  1.2922 -0.1048
  900MPD2    H113242   4.481   2.779  11.896 -1.7352  0.4502  0.3430
  900MPD2    H213243   0.044   2.678  12.168 -0.3852 -1.6753 -0.4150
  900MPD2    H313244   4.693   2.803  11.976 -1.5396  0.1952 -1.0879
  900MPD2     N13245   4.286   2.589  11.983  0.8908  0.3552  0.6545
  900MPD2    H513246   4.231   2.523  12.037  0.1793  0.2899 -0.1580
  900MPD2    N113247   4.651   2.491  12.299 -0.3542  0.3075 -0.4475
  900MPD2    H713248   0.013   2.503  12.314 -0.7666  0.0083  2.6181
  901MPD2     C13249   0.086   1.605  12.927 -0.4840 -0.1645  0.4698
  901MPD2    C113250   0.206   1.658  12.876  0.4947  0.0045  0.3940
  901MPD2    C213251   0.199   1.787  12.822  0.3082  0.8849  0.2856
  901MPD2    C313252   0.086   1.862  12.820 -0.0981  0.0051 -0.3048
  901MPD2    C413253   4.714   1.809  12.881  0.2431 -0.0708 -0.2984
  901MPD2    C513254   4.717   1.686  12.932  0.9531  0.2733 -0.3680
  901MPD2     H13255   0.286   1.830  12.774  0.4723 -0.0126 -0.2118
  901MPD2    H113256   4.626   1.871  12.897  0.7056  0.5334 -0.0667
  901MPD2    H213257   0.087   1.506  12.970 -3.3940 -0.2657  0.2821
  901MPD2    H313258   4.624   1.656  12.980  2.1908 -1.1480  1.1141
  901MPD2     N13259   0.079   1.982  12.746  0.8938  0.0780  0.4708
  901MPD2    H513260   0.168   2.011  12.707 -0.5044  0.2157 -2.6539
  901MPD2    N113261   0.324   1.584  12.887 -0.5094 -0.2679 -0.5363
  901MPD2    H713262   0.320   1.485  12.909  2.2664 -0.6896 -1.8179
  902MPD2     C13263   3.875   0.547  12.538  0.4670  0.0532  0.1124
  902MPD2    C113264   4.004   0.529  12.505  0.3031  0.3980 -0.1189
  902MPD2    C213265   4.054   0.412  12.450  0.4273  0.7458 -0.0819
  902MPD2    C313266   3.965   0.315  12.406  0.0977  0.0120  1.0292
  902MPD2    C413267   3.829   0.329  12.448  0.2904 -0.0186 -0.2575
  902MPD2    C513268   3.790   0.443  12.512  0.2502  1.1784 -0.0268
  902MPD2     H13269   4.160   0.400  12.431  0.7008  1.0023  1.2992
  902MPD2    H113270   3.745   0.269  12.415  0.5004 -1.5233  1.9768
  902MPD2    H213271   3.844   0.645  12.574  2.7651  0.6966  0.3398
  902MPD2    H313272   3.684   0.450  12.533  0.1163  0.0122 -0.3402
  902MPD2     N13273   3.995   0.196  12.336  0.0976 -0.4640  1.1753
  902MPD2    H513274   3.924   0.124  12.340 -0.9494  0.4621 -0.7397
  902MPD2    N113275   4.090   0.638  12.529 -0.3963  0.1006 -0.3028
  902MPD2    H713276   4.054   0.716  12.582 -0.8516  1.6532 -2.8697
  903MPD2     C13277   4.566   0.276  11.957  0.0264 -0.0150  0.5361
  903MPD2    C113278   4.453   0.202  11.945 -0.0365 -0.9350 -0.1220
  903MPD2    C213279   4.329   0.263  11.924 -1.1208 -0.7800 -0.0797
  903MPD2    C313280   4.321   0.396  11.942  0.4515 -0.1292  0.2126
  903MPD2    C413281   4.435   0.476  11.964 -0.1537  0.0617  0.8620
  903MPD2    C513282   4.555   0.409  11.970 -0.4917 -0.3560  0.7987
  903MPD2     H13283   4.240   0.212  11.887 -0.3427 -0.8485 -1.8490
  903MPD2    H113284   4.425   0.583  11.971 -0.6641  0.1597 -1.2254
  903MPD2    H213285   4.663   0.231  11.973  1.4390  2.5927 -0.7581
  903MPD2    H313286   4.654   0.454  11.975 -1.7592  2.8398 -3.3217
  903MPD2     N13287   4.190   0.445  11.953  0.1697  0.0535  0.1054
  903MPD2    H513288   4.120   0.372  11.946 -0.1809  0.5919 -2.2592
  903MPD2    N113289   4.468   0.063  11.937  0.1556  0.3692 -0.6230
  903MPD2    H713290   4.563   0.029  11.923  0.5470  0.3562  2.0452
  904MPD2     C13291   3.372   4.294  14.022  0.2120 -0.0777 -0.2731
  904MPD2    C113292   3.443   4.340  13.912 -0.2075 -0.1334 -0.1106
  904MPD2    C213293   3.578   4.323  13.905 -0.0403 -0.2443  0.9351
  904MPD2    C313294   3.645   4.251  13.999 -0.1194 -0.2107  0.3740
  904MPD2    C413295   3.575   4.205  14.105  0.4064  0.9136  0.3408
  904MPD2    C513296   3.442   4.217  14.108 -0.3040  0.6947  0.1486
  904MPD2     H13297   3.643   4.363  13.829 -0.0560  0.4718  1.3029
  904MPD2    H113298   3.621   4.150  14.186  0.9919  1.3958  0.3354
  904MPD2    H213299   3.267   4.311  14.042  0.3293 -1.1425  1.3269
  904MPD2    H313300   3.387   4.177  14.192 -0.2732  0.6792  0.1614
  904MPD2     N13301   3.785   4.236  13.984  0.4476  0.4560 -0.0777
  904MPD2    H513302   3.823   4.263  13.894 -0.0427  4.0574  0.7777
  904MPD2    N113303   3.380   4.418  13.822 -0.4104  0.4370 -0.6311
  904MPD2    H713304   3.428   4.437  13.735 -1.2051  0.5329 -1.0508
  905MPD2     C13305   3.369   4.300  13.184  1.0098 -0.1174 -0.2439
  905MPD2    C113306   3.403   4.426  13.242  0.5321 -0.5239 -0.7386
  905MPD2    C213307   3.530   4.482  13.218  0.1591 -0.5510 -0.9257
  905MPD2    C313308   3.625   4.410  13.149  0.2777  0.6140 -0.4410
  905MPD2    C413309   3.583   4.291  13.091 -0.9541 -0.8879  0.2437
  905MPD2    C513310   3.458   4.246  13.099 -0.2973  0.5432 -0.2423
  905MPD2     H13311   3.553   4.572  13.274 -1.2284 -0.2819 -0.7752
  905MPD2    H113312   3.656   4.237  13.032 -1.7003  0.5626 -1.9858
  905MPD2    H213313   3.279   4.241  13.187  1.5929 -0.9511  1.0874
  905MPD2    H313314   3.426   4.160  13.041 -1.6478  0.9408 -0.0720
  905MPD2     N13315   3.764   4.449  13.147 -0.3814  0.3172  0.3226
  905MPD2    H513316   3.829   4.380  13.110 -1.2217  0.1810 -0.8891
  905MPD2    N113317   3.323   4.482  13.348  0.9139  0.2586 -0.2011
  905MPD2    H713318   3.256   4.416  13.387 -1.2985  1.8723 -1.2823
  906MPD2     C13319   0.974   4.585  11.124 -0.4140 -0.3379 -0.1126
  906MPD2    C113320   0.948   4.468  11.060 -0.4395  0.4012 -0.5614
  906MPD2    C213321   0.881   4.367  11.126  0.2264 -0.3628 -0.0316
  906MPD2    C313322   0.862   4.378  11.264  0.3266  1.0833 -0.1886
  906MPD2    C413323   0.911   4.490  11.326  0.3554  1.3229 -0.1559
  906MPD2    C513324   0.958   4.595  11.260 -0.0674 -0.7143  0.0144
  906MPD2     H13325   0.854   4.279  11.069 -1.2421 -0.2165  0.4175
  906MPD2    H113326   0.913   4.502  11.434 -2.2648 -2.2457  0.2789
  906MPD2    H213327   1.034   4.669  11.090  0.6404 -0.3140  1.7890
  906MPD2    H313328   0.998   4.679  11.317  0.1649 -2.1910  2.0313
  906MPD2     N13329   0.798   4.273  11.337 -0.2223  0.3739  0.1564
  906MPD2    H513330   0.795   4.282  11.438  0.2057 -2.4250  0.4278
  906MPD2    N113331   0.963   4.449  10.919 -0.6655  1.0075  0.3489
  906MPD2    H713332   0.933   4.360  10.880  2.8324  0.8366 -1.9165
  907MPD2     C13333   0.214   3.541  15.356  0.6014 -0.0485 -0.5935
  907MPD2    C113334   0.214   3.408  15.376  0.3925 -0.2425  0.0151
  907MPD2    C213335   0.267   3.352  15.491  0.2042 -0.4632 -0.3823
  907MPD2    C313336   0.322   3.436  15.589 -0.5523  0.1456  0.6518
  907MPD2    C413337   0.324   3.572  15.570  0.8391 -0.4782  0.2000
  907MPD2    C513338   0.269   3.625  15.456 -0.4006  0.7144 -1.0103
  907MPD2     H13339   0.268   3.245  15.507 -2.4512 -0.1000  2.3561
  907MPD2    H113340   0.381   3.633  15.639  1.9859  0.7861 -1.8393
  907MPD2    H213341   0.172   3.596  15.273  1.1647  0.6894 -0.3887
  907MPD2    H313342   0.285   3.732  15.442  1.9994  0.6404  1.1681
  907MPD2     N13343   0.362   3.376  15.708 -0.0923 -0.8180 -0.4865
  907MPD2    H513344   0.340   3.277  15.712  0.3076 -0.8160  1.5740
  907MPD2    N113345   0.146   3.316  15.295 -0.6021  0.1066  0.0025
  907MPD2    H713346   0.162   3.219  15.319 -1.1240  0.4638  1.7561
  908MPD2     C13347   2.261   0.071   9.889  0.0645 -0.2429  0.2039
  908MPD2    C113348   2.266   4.694   9.962 -0.3552 -0.2078 -0.3872
  908MPD2    C213349   2.341   4.690  10.076 -0.4047  1.0403 -0.5126
  908MPD2    C313350   2.406   0.068  10.119 -0.2422  0.2370 -0.4413
  908MPD2    C413351   2.386   0.186  10.051 -0.5945 -0.3572  0.4952
  908MPD2    C513352   2.318   0.186   9.938 -0.8333 -0.3987 -0.3259
  908MPD2     H13353   2.343   4.601  10.139 -0.7859  1.4313  0.0531
  908MPD2    H113354   2.434   0.283  10.057 -0.6701 -0.2072 -1.0969
  908MPD2    H213355   2.198   0.092   9.803 -0.2288  0.8375  0.6863
  908MPD2    H313356   2.313   0.275   9.876  0.9715 -0.2234 -0.2202
  908MPD2     N13357   2.490   0.065  10.238 -0.2748  0.0174  0.6588
  908MPD2    H513358   2.500   4.708  10.276  1.6889 -0.3214 -0.6720
  908MPD2    N113359   2.184   4.593   9.906  0.2874  0.5383  0.2667
  908MPD2    H713360   2.141   4.613   9.817  1.4091  1.1059 -0.1488
  909MPD2     C13361   2.599   2.208  12.009  0.8181 -0.3572 -0.4688
  909MPD2    C113362   2.659   2.322  11.959 -0.1797  0.9402 -0.1781
  909MPD2    C213363   2.681   2.429  12.046 -0.1989 -0.3476  0.2557
  909MPD2    C313364   2.629   2.436  12.175  0.3372 -0.9632  0.3555
  909MPD2    C413365   2.577   2.317  12.221 -0.5080 -0.7272  0.6461
  909MPD2    C513366   2.560   2.204  12.140  0.0722 -0.2462  0.3298
  909MPD2     H13367   2.723   2.519  12.004  0.9487 -0.2636  1.5884
  909MPD2    H113368   2.529   2.318  12.318 -1.3381 -1.0267  0.2392
  909MPD2    H213369   2.586   2.112  11.959  0.6993 -0.2582 -0.6293
  909MPD2    H313370   2.524   2.117  12.195  1.8017  0.0764  1.9723
  909MPD2     N13371   2.622   2.560  12.236 -0.2190  0.2172  0.3817
  909MPD2    H513372   2.629   2.643  12.177 -0.5663 -0.7334 -0.9907
  909MPD2    N113373   2.706   2.332  11.831  0.0198 -0.5865  0.3360
  909MPD2    H713374   2.760   2.413  11.802  0.2086 -0.8075  0.0645
  910MPD2     C13375   3.327   4.250  15.743  0.3005  0.1895 -0.1604
  910MPD2    C113376   3.455   4.236  15.691  0.8049 -0.1627  0.0920
  910MPD2    C213377   3.481   4.272  15.563  0.1837  0.3599  0.3576
  910MPD2    C313378   3.380   4.331  15.480 -0.7245 -0.3717 -0.8804
  910MPD2    C413379   3.247   4.341  15.529  0.3595  0.1222  0.3495
  910MPD2    C513380   3.231   4.307  15.661 -0.0932 -0.3646 -0.9107
  910MPD2     H13381   3.578   4.250  15.521  0.8517  2.0967  0.9720
  910MPD2    H113382   3.164   4.390  15.478  0.0740  0.0326  0.7284
  910MPD2    H213383   3.289   4.213  15.837  1.5220 -0.0696  0.2318
  910MPD2    H313384   3.129   4.307  15.698  0.1499  0.3576 -0.2324
  910MPD2     N13385   3.410   4.364  15.344  0.1273  0.4420  0.1464
  910MPD2    H513386   3.336   4.386  15.279 -1.0847 -0.7000  1.1353
  910MPD2    N113387   3.556   4.172  15.771 -0.0184 -0.7634  0.6067
  910MPD2    H713388   3.644   4.159  15.722 -0.6201  1.2442 -1.0206
  911MPD2     C13389   1.550   4.261  16.241 -0.6393  0.2912  0.4801
  911MPD2    C113390   1.615   4.376  16.283  0.2042  0.1878  0.2483
  911MPD2    C213391   1.544   4.486  16.318 -0.6319  0.5481  0.4701
  911MPD2    C313392   1.403   4.489  16.297  0.4172 -0.2267 -0.3380
  911MPD2    C413393   1.342   4.375  16.249  0.3988 -0.6673 -0.6783
  911MPD2    C513394   1.410   4.257  16.228 -0.9375  0.7551  0.0702
  911MPD2     H13395   1.594   4.578  16.348  0.9454 -0.5620  1.2457
  911MPD2    H113396   1.235   4.373  16.237  0.3905 -2.2113 -0.2843
  911MPD2    H213397   1.605   4.170  16.218 -1.5193  0.0630 -0.7508
  911MPD2    H313398   1.344   4.173  16.210  2.0532 -1.2252 -1.6112
  911MPD2     N13399   1.320   4.600  16.325 -0.7980  0.1531 -0.0475
  911MPD2    H513400   1.223   4.576  16.311 -0.8391 -0.3425  1.0696
  911MPD2    N113401   1.753   4.366  16.282 -0.0585  0.6331  0.1149
  911MPD2    H713402   1.793   4.294  16.223 -0.2520  0.2976  0.3924
  912MPD2     C13403   1.027   4.592  15.796 -0.0970 -0.3929 -0.3244
  912MPD2    C113404   1.023   4.572  15.933  0.7685 -1.0469  0.9064
  912MPD2    C213405   1.017   4.437  15.974  0.9243 -0.7484 -0.5785
  912MPD2    C313406   1.016   4.336  15.880  0.4429 -0.3496 -0.0506
  912MPD2    C413407   1.012   4.356  15.746 -0.4791 -0.1565  0.3672
  912MPD2    C513408   1.022   4.485  15.703 -0.2140  0.3403  0.5856
  912MPD2     H13409   1.027   4.413  16.079 -0.9172  2.4084  0.3152
  912MPD2    H113410   1.003   4.280  15.669 -1.6449 -0.1061  0.4478
  912MPD2    H213411   1.026   4.688  15.745 -0.4190 -0.7993 -1.0810
  912MPD2    H313412   1.027   4.508  15.597  2.4333 -0.7496  0.4490
  912MPD2     N13413   1.014   4.203  15.930 -0.0336  0.8277  0.1736
  912MPD2    H513414   1.008   4.181  16.028  1.0732  0.0155  0.0641
  912MPD2    N113415   1.017   4.685  16.016 -0.0031 -0.1878 -0.6413
  912MPD2    H713416   1.022   0.039  15.972  1.6965  0.1122  0.1936
  913MPD2     C13417   1.751   1.051  10.910  0.5747  1.0093  0.1834
  913MPD2    C113418   1.864   1.118  10.950  0.0423  0.2427 -0.0041
  913MPD2    C213419   1.940   1.201  10.863 -0.2986  0.1793  0.3325
  913MPD2    C313420   1.892   1.217  10.734  0.7414  0.1619  0.0822
  913MPD2    C413421   1.781   1.146  10.690  0.8320  0.1040  0.3892
  913MPD2    C513422   1.711   1.060  10.778  0.3344 -0.4410  0.1699
  913MPD2     H13423   2.032   1.254  10.886 -0.1490 -0.0122  0.1720
  913MPD2    H113424   1.754   1.155  10.585  2.4089 -1.0679 -0.1255
  913MPD2    H213425   1.696   0.977  10.967  1.3655  1.0025  0.9327
  913MPD2    H313426   1.625   1.001  10.748 -0.3868  0.9778 -0.5829
  913MPD2     N13427   1.949   1.300  10.636 -0.1612 -0.0576 -0.2450
  913MPD2    H513428   1.898   1.294  10.549  1.6814 -2.4196 -1.1765
  913MPD2    N113429   1.897   1.089  11.087  0.0906 -0.1991  0.2746
  913MPD2    H713430   1.833   1.034  11.143  0.1847 -2.2052 -1.5868
  914MPD2     C13431   0.223   1.401  12.126  0.6624 -0.1287 -0.0340
  914MPD2    C113432   0.242   1.523  12.184  1.0978  0.3299 -0.2169
  914MPD2    C213433   0.326   1.529  12.295  0.3232  0.3493 -0.0762
  914MPD2    C313434   0.383   1.415  12.349  0.2925  0.0876  0.4241
  914MPD2    C413435   0.349   1.296  12.294  0.4552 -0.4012 -1.2058
  914MPD2    C513436   0.265   1.288  12.189  0.1077  0.1485 -0.3743
  914MPD2     H13437   0.342   1.619  12.353 -0.1406  1.4408 -1.6370
  914MPD2    H113438   0.395   1.207  12.336  0.9856 -0.2874 -1.5411
  914MPD2    H213439   0.162   1.385  12.037  0.0881 -0.6852  0.4643
  914MPD2    H313440   0.241   1.186  12.162  0.4853 -0.2683  0.8758
  914MPD2     N13441   0.464   1.434  12.468 -0.3271  0.4437 -0.2340
  914MPD2    H513442   0.471   1.528  12.505  1.0210 -0.2486  1.2673
  914MPD2    N113443   0.165   1.633  12.136 -0.6211  0.2476  0.0017
  914MPD2    H713444   0.110   1.616  12.053  0.9977  0.3245 -1.0942
  915MPD2     C13445   2.712   1.138  15.848  0.1731  0.4592  0.4480
  915MPD2    C113446   2.660   1.260  15.802 -1.3037  0.2734 -0.0063
  915MPD2    C213447   2.578   1.338  15.887 -0.3885  0.0094  0.0173
  915MPD2    C313448   2.548   1.291  16.018 -0.5363  0.3117  0.6186
  915MPD2    C413449   2.612   1.173  16.054  0.0238  0.6665  0.2238
  915MPD2    C513450   2.693   1.096  15.976  0.4669  0.5578  1.2256
  915MPD2     H13451   2.538   1.433  15.853 -0.5867 -0.1405 -0.1626
  915MPD2    H113452   2.582   1.136  16.151  2.0562 -2.3078 -0.2818
  915MPD2    H213453   2.775   1.074  15.786 -0.6809  0.9179 -0.8818
  915MPD2    H313454   2.736   1.003  16.012 -0.6105 -0.5388 -0.3023
  915MPD2     N13455   2.455   1.363  16.105 -0.6759 -0.2006 -0.2946
  915MPD2    H513456   2.409   1.441  16.059 -0.1468  1.1141  1.3790
  915MPD2    N113457   2.686   1.285  15.666  0.5523 -0.4305 -0.2420
  915MPD2    H713458   2.746   1.215  15.623 -1.3551 -1.5983 -1.0355
  916MPD2     C13459   0.675   4.411  15.635 -0.4333 -0.4623 -0.1728
  916MPD2    C113460   0.657   4.308  15.722 -0.2090  0.0690 -0.3001
  916MPD2    C213461   0.716   4.184  15.688 -0.5357  0.1310 -0.5158
  916MPD2    C313462   0.792   4.161  15.575  0.0467  0.3476  0.0236
  916MPD2    C413463   0.796   4.273  15.491 -0.4289  0.0317  0.4552
  916MPD2    C513464   0.735   4.386  15.520  0.0831  0.2691  0.1706
  916MPD2     H13465   0.713   4.100  15.757  0.8247  0.0963 -0.5143
  916MPD2    H113466   0.838   4.279  15.391 -0.0969 -0.3465  0.5751
  916MPD2    H213467   0.632   4.509  15.657  1.1262 -0.1939  1.6827
  916MPD2    H313468   0.743   4.466  15.448  3.4259 -0.4179 -0.2127
  916MPD2     N13469   0.860   4.036  15.543 -0.3383 -0.2305  0.1915
  916MPD2    H513470   0.837   3.953  15.596  1.8635 -1.3920 -0.6730
  916MPD2    N113471   0.601   4.329  15.851 -1.0099  0.3051  0.0141
  916MPD2    H713472   0.579   4.426  15.871  0.2937  0.6842 -0.4420
  917MPD2     C13473   1.818   2.490  12.141  0.1189 -0.0177  0.5389
  917MPD2    C113474   1.711   2.468  12.054 -0.0175 -0.5917  0.3654
  917MPD2    C213475   1.703   2.540  11.940  0.0442 -0.4355  0.3786
  917MPD2    C313476   1.793   2.635  11.905 -0.7995  0.0419  0.3569
  917MPD2    C413477   1.886   2.659  11.995 -0.6293  0.1051 -0.3175
  917MPD2    C513478   1.911   2.583  12.105  0.7112 -0.3814 -0.0306
  917MPD2     H13479   1.619   2.524  11.873 -0.7227 -3.3099  2.0086
  917MPD2    H113480   1.964   2.732  11.979 -0.1167 -0.4849 -0.5234
  917MPD2    H213481   1.825   2.432  12.232  1.9723  0.0574  0.4608
  917MPD2    H313482   2.002   2.604  12.161  0.7184  0.2375 -0.2723
  917MPD2     N13483   1.790   2.719  11.786  0.1592 -0.1046 -0.4763
  917MPD2    H513484   1.873   2.769  11.758 -1.3031  3.2212  1.1188
  917MPD2    N113485   1.621   2.366  12.088 -0.8033 -0.0507  0.6294
  917MPD2    H713486   1.629   2.320  12.178  0.2169  3.1099  2.1687
  918MPD2     C13487   1.420   2.345  12.898 -0.2199 -0.0267  0.5106
  918MPD2    C113488   1.533   2.330  12.814 -0.4478 -0.6474  0.1924
  918MPD2    C213489   1.517   2.305  12.678  0.2080  0.1166 -0.0616
  918MPD2    C313490   1.392   2.286  12.623 -0.0917 -0.6509  0.1033
  918MPD2    C413491   1.280   2.304  12.703  0.3682 -0.1626  0.3709
  918MPD2    C513492   1.297   2.337  12.836 -0.0587 -0.7921 -0.5084
  918MPD2     H13493   1.604   2.318  12.615 -2.0014  1.8638 -2.7335
  918MPD2    H113494   1.183   2.284  12.659  0.4258 -0.8684  0.5725
  918MPD2    H213495   1.429   2.384  12.998 -2.1711  2.3981 -0.2288
  918MPD2    H313496   1.211   2.360  12.897  0.6505  2.8526 -0.8692
  918MPD2     N13497   1.380   2.272  12.482  0.2669  0.7343 -0.0881
  918MPD2    H513498   1.468   2.280  12.431 -0.9713  0.8629 -2.1982
  918MPD2    N113499   1.665   2.353  12.848 -0.5218  0.3363  0.2211
  918MPD2    H713500   1.732   2.323  12.779 -1.2053 -0.5754 -0.0502
  919MPD2     C13501   2.282   1.301  11.858  0.4398  0.4053 -0.1049
  919MPD2    C113502   2.155   1.252  11.875  0.4978  0.1829  0.6045
  919MPD2    C213503   2.053   1.286  11.790 -0.1685  0.0910  0.1072
  919MPD2    C313504   2.084   1.353  11.672 -0.2309  0.6674 -0.0776
  919MPD2    C413505   2.209   1.404  11.652  0.1610 -0.0505  0.8450
  919MPD2    C513506   2.304   1.387  11.753  0.5060 -0.5463  0.5178
  919MPD2     H13507   1.957   1.239  11.809  0.2309 -0.8467 -0.2123
  919MPD2    H113508   2.238   1.458  11.563  0.8789 -3.2903 -0.8873
  919MPD2    H213509   2.376   1.280  11.908 -0.7574 -1.1308  1.4666
  919MPD2    H313510   2.406   1.421  11.736  0.6504 -0.2333  2.0550
  919MPD2     N13511   1.991   1.378  11.569 -0.1017  0.0061  0.3037
  919MPD2    H513512   2.035   1.415  11.485 -0.4508  2.1001  1.0234
  919MPD2    N113513   2.131   1.160  11.976 -0.1284 -0.3941  0.4377
  919MPD2    H713514   2.034   1.132  11.970 -0.0667 -0.7374  1.0413
  920MPD2     C13515   1.960   1.780  10.670 -0.0282  0.5445  0.2208
  920MPD2    C113516   1.840   1.713  10.674  0.5826 -0.1272  0.2094
  920MPD2    C213517   1.813   1.627  10.776  0.7175 -0.4377 -0.1530
  920MPD2    C313518   1.898   1.605  10.883  0.6830  0.2494 -0.0777
  920MPD2    C413519   2.017   1.675  10.888 -0.3924  0.7052  0.5862
  920MPD2    C513520   2.038   1.769  10.781  0.0042 -0.4385  0.1529
  920MPD2     H13521   1.722   1.570  10.790  0.5810 -0.4793 -1.2300
  920MPD2    H113522   2.086   1.681  10.971  0.6567  2.1276 -0.3951
  920MPD2    H213523   1.992   1.830  10.579 -0.4087 -0.7014 -0.5981
  920MPD2    H313524   2.135   1.816  10.782 -0.1919 -0.0261 -0.3067
  920MPD2     N13525   1.853   1.531  10.990 -0.1684 -0.2044 -0.0613
  920MPD2    H513526   1.754   1.509  10.985 -0.2350 -0.0515  0.6117
  920MPD2    N113527   1.732   1.729  10.578  0.3875 -0.2745 -0.0992
  920MPD2    H713528   1.642   1.685  10.592  0.5058 -0.0623  1.3370
  921MPD2     C13529   2.560   4.559  16.860  0.0047  0.5769 -0.0401
  921MPD2    C113530   2.601   4.475  16.756 -0.0862  0.1079  1.0443
  921MPD2    C213531   2.504   4.418  16.673 -0.1056 -0.1622 -0.3742
  921MPD2    C313532   2.363   4.438  16.694 -0.5744  0.1757  0.3364
  921MPD2    C413533   2.333   4.524  16.802 -0.5003 -0.0734 -0.4122
  921MPD2    C513534   2.430   4.579  16.887  0.3034 -0.0449  0.0020
  921MPD2     H13535   2.530   4.370  16.579  1.0721 -0.4800  0.1192
  921MPD2    H113536   2.226   4.539  16.817 -0.2754  0.6653  0.4362
  921MPD2    H213537   2.634   4.615  16.917 -0.8342  1.1952  0.4306
  921MPD2    H313538   2.403   4.653  16.962 -0.0230 -0.6155  0.4540
  921MPD2     N13539   2.260   4.384  16.610  0.0248 -0.1935 -0.0328
  921MPD2    H513540   2.176   4.440  16.613  1.1629  1.4885  0.4864
  921MPD2    N113541   2.743   4.460  16.732  0.1619 -0.1752  0.3639
  921MPD2    H713542   2.809   4.491  16.802 -0.5684  1.8757  0.1380
  922MPD2     C13543   3.270   2.589  17.067 -0.2855  0.8699 -0.5596
  922MPD2    C113544   3.208   2.596  17.182  0.0567  0.0528  0.4834
  922MPD2    C213545   3.147   2.486  17.236 -0.7179 -0.8977 -0.0388
  922MPD2    C313546   3.163   2.363  17.181  0.0134  0.7918  0.0187
  922MPD2    C413547   3.221   2.355  17.049 -0.0782 -0.0823  0.2409
  922MPD2    C513548   3.277   2.467  16.994 -0.5121 -0.2739  0.2423
  922MPD2     H13549   3.090   2.494  17.328 -1.6032  2.8614 -0.9028
  922MPD2    H113550   3.219   2.268  16.984 -0.9738  1.5850 -1.9600
  922MPD2    H213551   3.317   2.678  17.028  0.0157  0.5397 -0.9488
  922MPD2    H313552   3.330   2.466  16.899  2.3715 -1.8935  1.8947
  922MPD2     N13553   3.090   2.254  17.243 -0.4376  0.4499  0.3813
  922MPD2    H513554   3.071   2.267  17.341  0.5717  1.0473  0.5015
  922MPD2    N113555   3.204   2.723  17.253 -0.0055 -0.2342  0.2530
  922MPD2    H713556   3.134   2.719  17.326  1.0385  0.2901  1.3001
  923MPD2     C13557   4.565   4.009   9.050  0.5065 -0.3806 -0.0380
  923MPD2    C113558   4.573   4.134   9.118 -0.8253  0.3463  0.5854
  923MPD2    C213559   4.661   4.153   9.223  0.7529  0.0404 -0.9839
  923MPD2    C313560   0.014   4.056   9.258  0.5967 -0.6676 -0.8228
  923MPD2    C413561   0.002   3.934   9.194 -0.8810 -0.3033 -0.0142
  923MPD2    C513562   4.645   3.904   9.096 -0.1965 -0.0310  0.9122
  923MPD2     H13563   4.648   4.237   9.291 -1.4543  0.5514 -2.0426
  923MPD2    H113564   0.072   3.853   9.211 -0.0434 -0.0069 -2.0075
  923MPD2    H213565   4.497   3.997   8.967  1.2460 -2.4790 -0.3457
  923MPD2    H313566   4.642   3.804   9.055  0.3984 -0.4777  1.9342
  923MPD2     N13567   0.097   4.062   9.368  0.5921  0.0489  0.1446
  923MPD2    H513568   0.137   3.974   9.400  1.1440  0.7542  1.3860
  923MPD2    N113569   4.470   4.226   9.084  0.5479 -0.2402 -0.2459
  923MPD2    H713570   4.405   4.204   9.010  0.6189 -0.3739 -0.2693
  924MPD2     C13571   4.702   2.742  16.017  0.6035  0.3140  0.1054
  924MPD2    C113572   4.708   2.845  16.102  0.2560  0.7614 -0.0820
  924MPD2    C213573   0.083   2.927  16.099  0.4555 -0.5008  0.2383
  924MPD2    C313574   0.194   2.899  16.019  1.2109 -0.2189 -0.0854
  924MPD2    C413575   0.186   2.794  15.926 -0.0217 -0.6896  0.2067
  924MPD2    C513576   0.064   2.730  15.924 -0.4134 -0.3370 -0.0309
  924MPD2     H13577   0.094   3.021  16.152 -1.6545 -2.0314  3.4072
  924MPD2    H113578   0.272   2.762  15.869  1.8594  0.2345  2.5146
  924MPD2    H213579   4.617   2.675  16.017 -1.1787  2.5760  0.3189
  924MPD2    H313580   0.053   2.653  15.849  1.0963 -1.6472  1.0909
  924MPD2     N13581   0.298   2.988  16.027 -0.0936  0.4269 -0.0440
  924MPD2    H513582   0.293   3.060  16.098 -0.0609 -0.3899  0.7739
  924MPD2    N113583   4.588   2.872  16.172  0.1463  0.0647 -0.4202
  924MPD2    H713584   4.508   2.810  16.161  1.5327 -1.7293 -0.3182
  925MPD2     C13585   3.396   1.019  14.952 -0.6153  0.1551  0.5591
  925MPD2    C113586   3.311   0.947  14.866  0.9427  0.1227 -0.1119
  925MPD2    C213587   3.202   0.878  14.911 -0.2183  0.0575  0.2468
  925MPD2    C313588   3.176   0.870  15.047 -0.0076  0.2295  0.2255
  925MPD2    C413589   3.267   0.926  15.137  0.1659  0.7864 -0.5887
  925MPD2    C513590   3.371   0.997  15.087  0.5521 -0.3142 -0.5039
  925MPD2     H13591   3.134   0.834  14.839 -1.3085  0.7870  0.8126
  925MPD2    H113592   3.259   0.928  15.245  0.3147 -2.1223 -0.5403
  925MPD2    H213593   3.487   1.072  14.927  0.2558 -0.9812  1.2566
  925MPD2    H313594   3.447   1.036  15.153  0.3469 -3.1763  1.3905
  925MPD2     N13595   3.069   0.794  15.099  0.0030 -1.0574 -0.1544
  925MPD2    H513596   3.013   0.736  15.038 -1.1618  0.9122 -0.9746
  925MPD2    N113597   3.336   0.943  14.728 -0.7876 -0.5044  0.0797
  925MPD2    H713598   3.265   0.899  14.671 -2.0459  3.4712 -1.4616
  926MPD2     C13599   2.503   4.031  13.564 -0.0238 -0.5143 -0.0770
  926MPD2    C113600   2.415   4.120  13.506  0.2988 -0.0225 -0.0763
  926MPD2    C213601   2.461   4.201  13.401 -0.3281  0.2543  0.2166
  926MPD2    C313602   2.596   4.184  13.352 -0.3972 -0.6930 -0.2911
  926MPD2    C413603   2.679   4.092  13.409 -0.2092  0.5077  0.0448
  926MPD2    C513604   2.630   4.015  13.516 -0.2068  0.4201 -1.4754
  926MPD2     H13605   2.396   4.280  13.363 -1.7709 -0.5885  0.9171
  926MPD2    H113606   2.780   4.091  13.369 -1.3614 -1.0070 -2.8502
  926MPD2    H213607   2.463   3.972  13.645 -1.9558  1.1472  0.1811
  926MPD2    H313608   2.705   3.954  13.565 -0.4542  0.6229 -0.8487
  926MPD2     N13609   2.651   4.244  13.235 -0.1795  0.7161 -0.3844
  926MPD2    H513610   2.729   4.192  13.197  1.0659  1.8468  0.5974
  926MPD2    N113611   2.287   4.133  13.555 -0.4159 -0.3362  0.1291
  926MPD2    H713612   2.238   4.209  13.510  1.5932 -0.1372 -1.7245
  927MPD2     C13613   1.935   0.712   0.399  0.1993  0.1250 -0.0730
  927MPD2    C113614   1.895   0.819   0.323  0.2826 -0.1627 -0.3932
  927MPD2    C213615   1.934   0.820   0.189  0.5461  0.6186  0.4057
  927MPD2    C313616   1.993   0.710   0.134 -0.1314 -0.0646 -0.3770
  927MPD2    C413617   2.033   0.602   0.220  0.6755 -0.0364 -0.7747
  927MPD2    C513618   2.009   0.607   0.357  0.1675 -0.3540  0.0979
  927MPD2     H13619   1.902   0.904   0.128 -0.2786  0.8736  1.1869
  927MPD2    H113620   2.078   0.510   0.184  2.2402 -0.2113  1.6173
  927MPD2    H213621   1.904   0.706   0.503  0.5607  2.0254  0.1552
  927MPD2    H313622   2.025   0.520   0.420 -0.5095  0.1283  0.9534
  927MPD2     N13623   2.021   0.705  17.743  0.6062 -0.2336 -0.1080
  927MPD2    H513624   2.049   0.618  17.699 -0.4802 -0.7953  0.3060
  927MPD2    N113625   1.831   0.925   0.393 -0.0360 -0.5227 -0.6420
  927MPD2    H713626   1.829   0.926   0.495 -0.6791 -1.9236 -0.6394
  928MPD2     C13627   0.021   4.359   1.290  0.6185 -0.2523  0.2131
  928MPD2    C113628   0.026   4.497   1.306  0.0550  0.4897 -0.2381
  928MPD2    C213629   0.103   4.577   1.219 -0.8721  0.4201  0.8268
  928MPD2    C313630   0.170   4.513   1.113  0.3262  0.4466  0.3176
  928MPD2    C413631   0.156   4.377   1.088 -0.8084  0.4081  0.4919
  928MPD2    C513632   0.083   4.305   1.178 -0.1883 -0.5726  0.2172
  928MPD2     H13633   0.108   4.685   1.233  0.2429  0.0961  2.9345
  928MPD2    H113634   0.188   4.322   1.001  1.1465  0.9359  0.8800
  928MPD2    H213635   4.696   4.296   1.352  0.2667  0.3685  0.4930
  928MPD2    H313636   0.071   4.199   1.163 -0.9924 -0.3853 -0.4690
  928MPD2     N13637   0.224   4.598   1.013 -0.8285 -0.1602  0.4346
  928MPD2    H513638   0.251   4.559   0.924  0.1820  0.0888  0.6330
  928MPD2    N113639   4.693   4.557   1.413  0.9014 -0.5956 -0.0938
  928MPD2    H713640   4.640   4.490   1.467 -0.2951 -0.7897 -1.4982
  929MPD2     C13641   0.447   4.323  10.710  0.5064 -0.3273  0.6703
  929MPD2    C113642   0.319   4.284  10.662  0.0753 -0.4187  0.4924
  929MPD2    C213643   0.288   4.307  10.528 -0.2601 -0.5397  0.1932
  929MPD2    C313644   0.369   4.389  10.446  0.1725  0.5978  0.0182
  929MPD2    C413645   0.481   4.439  10.498 -0.3460 -0.3686  0.0479
  929MPD2    C513646   0.526   4.390  10.621 -0.7927 -0.1051 -0.6083
  929MPD2     H13647   0.194   4.271  10.489  1.1267 -1.0620 -2.7217
  929MPD2    H113648   0.538   4.504  10.433 -0.3213  1.1033  1.5511
  929MPD2    H213649   0.487   4.300  10.808 -1.9876  0.9332  1.9948
  929MPD2    H313650   0.622   4.422  10.660 -1.0981 -2.3063  2.0097
  929MPD2     N13651   0.333   4.435  10.317  0.2706  0.4635  0.1467
  929MPD2    H513652   0.372   4.521  10.281  2.3490 -0.2746  0.6844
  929MPD2    N113653   0.227   4.221  10.751 -0.0838 -0.2080  0.1270
  929MPD2    H713654   0.254   4.223  10.848  0.2645  0.6865  0.0129
  930MPD2     C13655   1.532   2.004  13.995  0.6806 -0.1258  0.1615
  930MPD2    C113656   1.640   1.948  14.056 -0.4701 -1.1679  0.4932
  930MPD2    C213657   1.665   1.811  14.035  0.2327 -0.5042 -0.1376
  930MPD2    C313658   1.598   1.741  13.933  0.4203 -0.1525  0.9571
  930MPD2    C413659   1.487   1.801  13.874 -0.1934  0.7910 -0.1187
  930MPD2    C513660   1.457   1.929  13.906 -0.3099  0.3495  0.0782
  930MPD2     H13661   1.754   1.767  14.079  0.5565 -0.9307 -1.2305
  930MPD2    H113662   1.437   1.749  13.793  0.9787 -0.1859 -0.2240
  930MPD2    H213663   1.500   2.108  14.001 -0.5065 -0.4645 -0.3474
  930MPD2    H313664   1.363   1.964  13.864 -0.3977 -1.0325 -0.8752
  930MPD2     N13665   1.631   1.614  13.882  0.0044  0.1175 -0.1874
  930MPD2    H513666   1.577   1.590  13.800  2.3691  2.1030 -2.3413
  930MPD2    N113667   1.719   2.047  14.119 -0.2814 -0.0124  0.0475
  930MPD2    H713668   1.694   2.145  14.118 -0.8516 -0.1835 -3.5711
  931MPD2     C13669   2.159   1.148   0.841 -0.3251 -0.2276  0.0357
  931MPD2    C113670   2.046   1.217   0.866  0.7084 -0.3035  0.2118
  931MPD2    C213671   2.013   1.273   0.991 -0.2413 -0.2580 -0.0385
  931MPD2    C313672   2.082   1.227   1.103  0.5956 -0.4599 -0.2899
  931MPD2    C413673   2.199   1.157   1.076 -0.6647  0.6660 -0.3149
  931MPD2    C513674   2.242   1.121   0.951 -0.8846  0.9492 -0.8928
  931MPD2     H13675   1.915   1.316   1.002  0.1143  0.4272  0.4516
  931MPD2    H113676   2.262   1.135   1.162 -0.5348 -1.0170 -0.8438
  931MPD2    H213677   2.175   1.115   0.739  0.7907  0.0853  0.1064
  931MPD2    H313678   2.327   1.054   0.941 -1.1093  0.7101 -1.1890
  931MPD2     N13679   2.039   1.245   1.241 -0.2651  0.1784  0.0946
  931MPD2    H513680   2.109   1.224   1.311  0.6028  0.3479 -0.7167
  931MPD2    N113681   1.952   1.218   0.756  0.3695 -0.3162 -0.0277
  931MPD2    H713682   1.988   1.186   0.667 -0.9550  1.4371 -1.1923
  932MPD2     C13683   3.560   0.954  11.501  0.2682 -0.1757 -0.2653
  932MPD2    C113684   3.673   0.926  11.424  0.3662 -0.5979 -0.1322
  932MPD2    C213685   3.681   0.802  11.363  0.2419  0.0076 -0.1582
  932MPD2    C313686   3.589   0.703  11.395  0.5190  0.5216 -0.2758
  932MPD2    C413687   3.475   0.732  11.466  0.2040  0.1891 -0.2207
  932MPD2    C513688   3.464   0.855  11.519  0.0463 -0.8553  0.0263
  932MPD2     H13689   3.766   0.786  11.298  0.9407  2.6280  0.0978
  932MPD2    H113690   3.397   0.659  11.484 -1.3716  1.8512 -0.3087
  932MPD2    H213691   3.551   1.048  11.556 -0.4439 -0.3217 -0.1396
  932MPD2    H313692   3.375   0.871  11.578 -0.0029 -0.3093 -0.2012
  932MPD2     N13693   3.600   0.582  11.331 -0.0124 -0.0792  0.2731
  932MPD2    H513694   3.525   0.513  11.331 -0.4610  0.3987 -0.1593
  932MPD2    N113695   3.770   1.020  11.389 -0.2101  0.2466  0.1540
  932MPD2    H713696   3.845   0.985  11.329  0.4223 -0.6772  1.4933
  933MPD2     C13697   4.018   0.070   1.858 -0.2353 -0.3130 -0.4181
  933MPD2    C113698   4.096   0.003   1.775 -0.1116  0.0922 -0.1824
  933MPD2    C213699   4.040   4.642   1.698 -0.4402  0.3644  1.0108
  933MPD2    C313700   3.900   4.611   1.700  0.0105 -0.1420 -0.3614
  933MPD2    C413701   3.820   4.682   1.784 -0.0556 -0.0618 -0.3243
  933MPD2    C513702   3.880   0.041   1.863 -0.3571  1.1029  0.3094
  933MPD2     H13703   4.107   4.594   1.628  0.5856  0.8244  1.6768
  933MPD2    H113704   3.717   4.664   1.812 -0.2501  3.9524  1.5923
  933MPD2    H213705   4.058   0.147   1.923  0.2835 -0.2271 -0.8363
  933MPD2    H313706   3.807   0.092   1.924 -2.7503 -1.4498 -0.3624
  933MPD2     N13707   3.840   4.522   1.601 -0.7332 -0.3812 -0.4789
  933MPD2    H513708   3.906   4.489   1.531  0.2750 -0.3512  0.4727
  933MPD2    N113709   4.235   0.020   1.777  0.3322 -0.0275 -0.3734
  933MPD2    H713710   4.263   0.106   1.823  0.5890 -0.2094 -0.1899
  934MPD2     C13711   0.656   2.860   1.657  0.0202 -0.2890  0.1112
  934MPD2    C113712   0.760   2.783   1.602  0.0604 -0.1543  0.4646
  934MPD2    C213713   0.734   2.692   1.505 -0.5014 -0.2956 -0.4899
  934MPD2    C313714   0.603   2.652   1.470 -0.1743  0.1952 -0.2081
  934MPD2    C413715   0.502   2.721   1.532 -0.9258  0.0634 -0.0244
  934MPD2    C513716   0.529   2.823   1.619  0.5996 -0.4921 -0.3508
  934MPD2     H13717   0.820   2.642   1.464 -0.2386  1.3118 -1.8924
  934MPD2    H113718   0.401   2.706   1.498 -0.6894 -2.5177  0.3976
  934MPD2    H213719   0.670   2.948   1.719 -2.3922 -0.0948  0.3679
  934MPD2    H313720   0.445   2.873   1.665  0.1118 -1.2710 -0.3904
  934MPD2     N13721   0.560   2.539   1.393  0.4357  0.8274 -0.3537
  934MPD2    H513722   0.461   2.526   1.376  0.6729  1.4590 -2.2187
  934MPD2    N113723   0.899   2.812   1.623 -0.0645 -0.2537 -0.5106
  934MPD2    H713724   0.965   2.752   1.574 -1.1355 -0.3881 -1.7821
  935MPD2     C13725   1.118   1.801   1.084  0.0455  0.2337  0.1928
  935MPD2    C113726   0.997   1.769   1.016 -0.3581 -0.2042 -0.1185
  935MPD2    C213727   0.895   1.856   1.047 -0.4778  0.1457 -0.3977
  935MPD2    C313728   0.903   1.961   1.140  0.3894 -0.6748  0.1014
  935MPD2    C413729   1.027   1.992   1.193 -0.1197  0.1127  0.3257
  935MPD2    C513730   1.131   1.906   1.180  0.8749  0.1949  0.0026
  935MPD2     H13731   0.795   1.824   1.018  0.4890 -0.9326 -2.5564
  935MPD2    H113732   1.057   2.068   1.263  1.1931 -0.0037 -0.1067
  935MPD2    H213733   1.210   1.747   1.069  1.0765  1.8942  0.5372
  935MPD2    H313734   1.224   1.927   1.231  1.8686  1.1149 -2.1615
  935MPD2     N13735   0.791   2.048   1.165  0.6737 -0.0402  0.4472
  935MPD2    H513736   0.820   2.130   1.217 -0.2405  0.9801 -0.6659
  935MPD2    N113737   0.984   1.661   0.923 -0.1668  0.1118 -0.0809
  935MPD2    H713738   0.887   1.651   0.893 -0.2086 -0.5522  0.2721
  936MPD2     C13739   4.268   3.142  12.188  0.2103 -0.4290 -0.3370
  936MPD2    C113740   4.270   3.199  12.313 -0.2693  0.1365  0.4003
  936MPD2    C213741   4.300   3.330  12.335  0.8690  0.1062 -0.2952
  936MPD2    C313742   4.326   3.409  12.230 -0.1745  0.5973  0.7811
  936MPD2    C413743   4.312   3.369  12.100  0.1911  0.5378 -0.8268
  936MPD2    C513744   4.303   3.234  12.081 -0.4444 -0.2266  0.0035
  936MPD2     H13745   4.295   3.367  12.437 -0.8554  0.7818 -0.6187
  936MPD2    H113746   4.330   3.437  12.018 -0.8414  1.2606 -0.4502
  936MPD2    H213747   4.244   3.041  12.157  0.5496 -0.9363  1.1017
  936MPD2    H313748   4.298   3.191  11.982  2.7220 -0.5645  0.0121
  936MPD2     N13749   4.347   3.543  12.270 -0.3135 -0.3373  0.2187
  936MPD2    H513750   4.337   3.563  12.369  0.1098 -0.9740  0.3858
  936MPD2    N113751   4.254   3.120  12.430 -0.6821  0.0162  0.0657
  936MPD2    H713752   4.265   3.177  12.513  0.4905  0.0266 -0.0940
  937MPD2     C13753   2.509   0.457  12.275 -0.5484 -0.1797 -0.1656
  937MPD2    C113754   2.487   0.547  12.170 -0.2872 -0.0575  0.1254
  937MPD2    C213755   2.541   0.517  12.042  0.1966  0.6815 -0.0656
  937MPD2    C313756   2.621   0.408  12.024  0.1193  0.3737  0.0101
  937MPD2    C413757   2.632   0.318  12.123 -0.5110  0.0794 -0.2920
  937MPD2    C513758   2.576   0.340  12.250 -0.0849 -0.3314  0.5625
  937MPD2     H13759   2.525   0.588  11.963  2.4830  2.1020  0.7365
  937MPD2    H113760   2.680   0.223  12.100 -2.7120 -0.6384 -1.9739
  937MPD2    H213761   2.467   0.470  12.374  0.3114 -1.6585  0.3990
  937MPD2    H313762   2.565   0.273  12.335  1.7811 -0.2118  0.9066
  937MPD2     N13763   2.681   0.398  11.902 -0.3549 -0.0395  0.1398
  937MPD2    H513764   2.659   0.471  11.835 -0.0277 -0.2479 -0.1974
  937MPD2    N113765   2.400   0.651  12.183 -0.2463 -0.1263  0.1398
  937MPD2    H713766   2.380   0.714  12.105  0.5246  0.6622  0.5756
  938MPD2     C13767   4.518   1.117   0.938 -0.0464 -0.1311  0.0979
  938MPD2    C113768   4.386   1.103   0.901  0.5434  0.6222 -0.0379
  938MPD2    C213769   4.302   1.013   0.970 -0.1987 -0.5837  1.0731
  938MPD2    C313770   4.356   0.937   1.077 -0.5033  0.0395 -0.2803
  938MPD2    C413771   4.486   0.953   1.103 -0.3503 -0.0730 -0.6942
  938MPD2    C513772   4.575   1.036   1.035 -0.1280 -0.3621 -0.1018
  938MPD2     H13773   4.196   1.011   0.948 -0.1114 -0.4209  0.6503
  938MPD2    H113774   4.524   0.901   1.191  1.6960 -0.6800 -1.9286
  938MPD2    H213775   4.584   1.187   0.889  0.9363 -0.1650  1.3703
  938MPD2    H313776   4.670   1.067   1.076  0.6119 -0.2783 -1.8764
  938MPD2     N13777   4.285   0.857   1.167  0.1500 -0.0361  0.6019
  938MPD2    H513778   4.334   0.830   1.251  0.9089 -1.1650 -0.2050
  938MPD2    N113779   4.328   1.194   0.804  0.0977  0.0046  0.7286
  938MPD2    H713780   4.383   1.271   0.768  0.1918  0.5510  2.0416
  939MPD2     C13781   0.520   2.416   0.568 -0.1535 -0.6481 -0.2969
  939MPD2    C113782   0.568   2.541   0.562 -0.5686 -0.3551 -0.5016
  939MPD2    C213783   0.697   2.555   0.501  0.2419  0.0519  0.3122
  939MPD2    C313784   0.772   2.445   0.460 -0.6201 -0.3131 -0.2684
  939MPD2    C413785   0.719   2.320   0.480 -0.4553  0.0649 -0.2645
  939MPD2    C513786   0.595   2.310   0.533 -0.3588  0.3752 -0.2954
  939MPD2     H13787   0.732   2.656   0.481 -1.4221  0.7974  1.1287
  939MPD2    H113788   0.770   2.229   0.452  0.1661  0.5304 -0.6560
  939MPD2    H213789   0.426   2.409   0.620  0.4644  0.8261  1.0175
  939MPD2    H313790   0.551   2.211   0.526 -2.1070  1.1570 -0.3444
  939MPD2     N13791   0.882   2.474   0.379 -0.1824 -0.0185 -0.9335
  939MPD2    H513792   0.912   2.569   0.358  0.6055  0.3671  1.9312
  939MPD2    N113793   0.493   2.651   0.615 -0.1949 -0.0457  0.3802
  939MPD2    H713794   0.396   2.637   0.641 -0.2324 -0.0515  0.2371
  940MPD2     C13795   4.702   3.985  13.421 -0.5504 -0.3123  0.4493
  940MPD2    C113796   4.709   3.855  13.467 -0.6212  0.0652 -0.3199
  940MPD2    C213797   0.027   3.756  13.384  0.2899 -0.0138  0.0152
  940MPD2    C313798   0.069   3.786  13.260 -0.1726  0.1052  0.9471
  940MPD2    C413799   0.069   3.916  13.215 -0.1980  0.7209  0.5508
  940MPD2    C513800   0.021   4.012  13.300  0.1296  0.5919  0.7344
  940MPD2     H13801   0.028   3.653  13.418  1.8604  0.2577  0.7751
  940MPD2    H113802   0.099   3.949  13.116 -2.3707 -1.2604 -0.7600
  940MPD2    H213803   4.666   4.070  13.479 -1.1116  0.0904 -0.4849
  940MPD2    H313804   0.034   4.114  13.268  0.1645  0.2838 -0.2336
  940MPD2     N13805   0.127   3.677  13.186  0.1065 -0.6520 -0.2066
  940MPD2    H513806   0.135   3.591  13.239 -0.4352 -1.5663 -1.6348
  940MPD2    N113807   4.664   3.816  13.598  0.0806 -0.2922 -0.3859
  940MPD2    H713808   4.664   3.716  13.618 -0.4916  0.2721  2.3569
  941MPD2     C13809   3.794   2.498   9.606 -0.3044  0.4490 -0.4511
  941MPD2    C113810   3.809   2.500   9.740  0.1138 -0.0319 -0.6424
  941MPD2    C213811   3.783   2.383   9.806  0.9532 -0.8364  0.0084
  941MPD2    C313812   3.739   2.267   9.741 -0.2624 -0.1604  0.3276
  941MPD2    C413813   3.715   2.276   9.605  0.5630 -0.2743  0.3942
  941MPD2    C513814   3.746   2.391   9.538 -0.0811  0.1096  0.0149
  941MPD2     H13815   3.783   2.385   9.914  1.1638 -0.0200 -0.0019
  941MPD2    H113816   3.677   2.188   9.553  0.9104 -0.5662  0.6439
  941MPD2    H213817   3.823   2.579   9.540 -0.1223  0.4647 -0.3514
  941MPD2    H313818   3.739   2.398   9.430 -3.0414 -1.4736  0.1039
  941MPD2     N13819   3.711   2.133   9.793 -0.3699  0.1524  0.6323
  941MPD2    H513820   3.647   2.075   9.740 -3.6762  1.8663  2.7741
  941MPD2    N113821   3.842   2.620   9.814 -0.4853 -0.1240  0.2282
  941MPD2    H713822   3.855   2.619   9.915 -2.6118 -1.1496  0.4926
  942MPD2     C13823   3.891   4.480  10.142 -0.3559  0.4047 -0.7971
  942MPD2    C113824   3.764   4.501  10.094  0.4987  0.2399 -0.8242
  942MPD2    C213825   3.736   4.578   9.980  0.1053  0.2168 -0.2475
  942MPD2    C313826   3.837   4.618   9.904 -0.5134  0.4514  0.1579
  942MPD2    C413827   3.968   4.593   9.942 -0.2069  0.4275  0.0294
  942MPD2    C513828   3.998   4.517  10.061 -0.0739 -0.2164  0.0267
  942MPD2     H13829   3.635   4.609   9.957  0.9769  1.7425 -2.0260
  942MPD2    H113830   4.044   4.637   9.878 -0.4704 -0.6833 -1.0450
  942MPD2    H213831   3.913   4.417  10.227 -0.9410  0.1118 -0.8682
  942MPD2    H313832   4.104   4.503  10.084 -0.1215 -1.7200 -0.6956
  942MPD2     N13833   3.795   4.661   9.772 -0.1374  0.4865  0.1966
  942MPD2    H513834   3.696   4.655   9.751  0.3480  1.5674 -2.4469
  942MPD2    N113835   3.648   4.475  10.170  0.7362 -0.2007 -0.4171
  942MPD2    H713836   3.557   4.506  10.138  1.5790  3.3879  0.6231
  943MPD2     C13837   3.303   2.386   9.710  0.7900 -0.1926  0.2706
  943MPD2    C113838   3.234   2.359   9.823 -0.0660  0.8420 -0.0060
  943MPD2    C213839   3.273   2.419   9.943 -0.1675 -0.4965  0.2463
  943MPD2    C313840   3.388   2.500   9.955 -0.6204 -0.1820  0.2846
  943MPD2    C413841   3.459   2.515   9.836 -0.1948 -0.0748 -0.2115
  943MPD2    C513842   3.420   2.458   9.713  0.1057  0.5617  0.7899
  943MPD2     H13843   3.198   2.406  10.021 -0.3934  1.8617  0.4305
  943MPD2    H113844   3.551   2.572   9.839  1.1215 -2.2722  0.9690
  943MPD2    H213845   3.270   2.349   9.613 -0.6525 -0.2077  0.7605
  943MPD2    H313846   3.466   2.481   9.617  0.1457  0.3153  0.7493
  943MPD2     N13847   3.424   2.569  10.080 -0.2512  0.2882 -0.1905
  943MPD2    H513848   3.506   2.628  10.078  1.4689 -2.0819  1.2958
  943MPD2    N113849   3.121   2.271   9.812  0.9415 -0.0952 -0.2026
  943MPD2    H713850   3.102   2.249   9.714 -0.4817  0.6136 -0.0853
  944MPD2     C13851   2.245   1.707  11.531 -0.4592 -0.3177  0.5536
  944MPD2    C113852   2.354   1.789  11.514 -0.4017  0.5162  0.4778
  944MPD2    C213853   2.383   1.898  11.591  0.3388  0.4460  0.4307
  944MPD2    C313854   2.292   1.945  11.691  0.8110  0.7794  0.6027
  944MPD2    C413855   2.189   1.863  11.719 -0.8019  0.2787  0.0262
  944MPD2    C513856   2.160   1.757  11.637  0.1591  0.4087  0.1152
  944MPD2     H13857   2.476   1.953  11.576  0.7473 -0.2574  0.3643
  944MPD2    H113858   2.112   1.877  11.794 -0.7928  0.8132 -0.0681
  944MPD2    H213859   2.221   1.621  11.469 -1.1448 -1.3664  2.2654
  944MPD2    H313860   2.072   1.700  11.663 -0.6414  0.5757 -2.2275
  944MPD2     N13861   2.319   2.071  11.754 -0.0722 -0.2631 -0.3574
  944MPD2    H513862   2.404   2.121  11.728  0.2256 -1.0998 -0.9906
  944MPD2    N113863   2.455   1.767  11.416  0.0135  0.2962 -0.1802
  944MPD2    H713864   2.529   1.837  11.412 -0.9037  1.1516 -2.4770
    1TMC1    C113865   0.817   2.641  14.304  0.8665  0.5157  0.2042
    1TMC1    C213866   0.680   2.640  14.278  0.4138  0.2894 -0.0202
    1TMC1    C313867   0.636   2.543  14.196 -0.2195  0.4124 -0.2794
    1TMC1    C413868   0.904   2.549  14.255  0.1506  0.1613 -0.1919
    1TMC1    C513869   0.848   2.459  14.163 -0.0358 -0.4305 -1.0159
    1TMC1    C613870   0.715   2.455  14.127 -0.3873 -0.5994  0.2367
    1TMC1     C13871   0.865   2.761  14.366 -0.0353  0.4692  0.2797
    1TMC1     O13872   0.974   2.749  14.426 -0.3304 -0.7651  0.7971
    1TMC1     H13873   0.618   2.700  14.343  1.4552  0.8442  0.4624
    1TMC1    H113874   1.008   2.548  14.285  0.4143  1.3941 -1.0454
    1TMC1    H213875   0.686   2.371  14.065 -1.2435  0.0903 -0.3059
    1TMC1    C713876   0.936   2.369  14.090 -0.0557 -0.2645  0.0936
    1TMC1    C813877   0.498   2.520  14.184  0.6995  0.0822  0.4525
    1TMC1    O113878   1.041   2.332  14.140 -0.2837  1.1428  0.2389
    1TMC1    O213879   0.425   2.617  14.183  0.4071 -0.0388 -0.0521
    1TMC1    O313880   0.915   2.379  13.954  0.2241 -0.3655  0.0533
    1TMC1    H313881   0.835   2.429  13.927  0.6342  0.7734  0.9747
    1TMC1    O513882   0.470   2.391  14.149 -0.3131 -0.1441  0.5737
    1TMC1    H513883   0.545   2.329  14.167  1.7562  1.9629 -0.7607
    2MPD2     C13884   0.846   3.250  14.513  0.2280  0.1295 -0.2569
    2MPD2    C113885   0.806   3.239  14.378 -0.1406  0.2936 -0.5097
    2MPD2    C213886   0.792   3.114  14.323  0.1643 -0.7292 -0.3258
    2MPD2    C313887   0.820   2.999  14.385  0.0557  0.3462  1.0790
    2MPD2    C413888   0.857   3.007  14.518  0.1324 -0.0736 -0.4290
    2MPD2    C513889   0.865   3.133  14.573 -0.0598  1.2284 -0.9062
    2MPD2     H13890   0.770   3.095  14.218  2.2658  0.1430 -0.9257
    2MPD2    H113891   0.885   2.924  14.582  0.7293 -0.3674 -1.0721
    2MPD2    H213892   0.866   3.344  14.563 -0.9633 -1.3179  2.9532
    2MPD2    H313893   0.885   3.149  14.679  0.2155 -1.9732 -0.4748
    2MPD2     N13894   0.795   2.873  14.328  0.5898  0.0161 -0.2208
    2MPD2    H513895   0.755   2.865  14.235  3.4356 -1.7792 -1.2880
    2MPD2    N113896   0.792   3.353  14.295 -0.2344  0.5708  0.4304
    2MPD2    H713897   0.845   3.433  14.329 -0.5000  0.8511  0.1791
    3TMC2    C113898   0.728   3.469  14.100 -0.3430 -0.5357 -0.4561
    3TMC2    C213899   0.795   3.574  14.145  0.4821  0.0769  0.0271
    3TMC2    C313900   0.834   3.668  14.054 -0.3662 -0.2504 -0.5856
    3TMC2    C413901   0.685   3.458  13.973 -0.4024 -0.4914  0.8002
    3TMC2    C513902   0.725   3.554  13.882  0.1721  0.4775  0.4867
    3TMC2    C613903   0.801   3.663  13.916 -0.1789  0.6707 -0.1193
    3TMC2     C13904   0.721   3.347  14.176 -0.9192 -0.0608 -0.2399
    3TMC2     O13905   0.645   3.260  14.134 -0.2362  0.1970 -0.1084
    3TMC2     H13906   0.806   3.603  14.249  1.5522  0.7674 -0.2841
    3TMC2    H113907   0.649   3.362  13.937  0.9221 -1.9541  3.4020
    3TMC2    H213908   0.815   3.741  13.842 -1.2770  0.3792 -0.6353
    3TMC2    C713909   0.667   3.541  13.747 -0.3725  0.4987  0.0788
    3TMC2    C813910   0.850   3.796  14.114 -0.3871 -0.0442  0.2826
    3TMC2    O113911   0.619   3.433  13.718 -0.5805 -0.5077 -0.0169
    3TMC2    O213912   0.877   3.820  14.232 -0.5799 -0.2237 -0.3866
    3TMC2    O513913   0.775   3.884  14.044 -0.3511 -0.4830 -0.2691
    3TMC2    H513914   0.712   3.851  13.976 -1.6529  1.6505 -0.0914
    4TMC2    C113915   0.520   4.145  12.971 -0.2692 -0.0858 -0.4822
    4TMC2    C213916   0.562   4.276  12.981 -0.1692  0.4631  0.2122
    4TMC2    C313917   0.645   4.308  13.082  0.8323 -0.4399 -0.0758
    4TMC2    C413918   0.565   4.050  13.061  0.1803 -0.1691 -0.0036
    4TMC2    C513919   0.640   4.090  13.168  0.0366  0.1857 -0.2866
    4TMC2    C613920   0.686   4.217  13.174 -0.5413 -0.7039 -0.1570
    4TMC2     C13921   0.378   4.131  12.958 -0.2177 -0.3717  0.6722
    4TMC2     O13922   0.340   4.062  13.054  0.1510  0.3598  0.0647
    4TMC2     H13923   0.527   4.350  12.910  0.4601 -1.5267 -2.1546
    4TMC2    H113924   0.527   3.949  13.055  1.0519 -0.4441 -0.9815
    4TMC2    H213925   0.735   4.244  13.267 -1.6573  2.1084 -0.3821
    4TMC2    C713926   0.641   4.013  13.293  0.2200  0.1631 -0.1235
    4TMC2    C813927   0.721   4.431  13.062 -0.2808 -0.3355 -0.2469
    4TMC2    O113928   0.717   4.053  13.380  0.6418  0.2287 -0.1318
    4TMC2    O213929   0.760   4.481  12.958 -0.3770  0.3358  0.4979
    4TMC2    O513930   0.725   4.486  13.185 -0.0027 -0.1334  0.4848
    4TMC2    H513931   0.652   4.444  13.236 -0.2620  0.5103  0.6406
    5MPD2     C13932   4.636   4.213  12.819 -0.0058 -0.3943 -0.3378
    5MPD2    C113933   4.714   4.244  12.704  0.3887  0.3029  0.6137
    5MPD2    C213934   0.112   4.229  12.712 -0.3027  0.0921 -0.4462
    5MPD2    C313935   0.169   4.197  12.839 -0.2499  0.3760  0.2993
    5MPD2    C413936   0.090   4.168  12.947  1.0412 -1.1053 -0.1945
    5MPD2    C513937   4.690   4.174  12.937  0.1360  0.4732  0.0793
    5MPD2     H13938   0.165   4.235  12.618  1.0456 -1.5958  0.2117
    5MPD2    H113939   0.139   4.149  13.042  1.1554 -0.6841 -0.1696
    5MPD2    H213940   4.528   4.219  12.810  0.2710 -1.3707 -4.3084
    5MPD2    H313941   4.620   4.159  13.019 -0.4269  0.5043 -0.3944
    5MPD2     N13942   0.310   4.201  12.854 -0.7674 -0.2565  0.0291
    5MPD2    H513943   0.368   4.240  12.780 -2.1692 -1.4998 -1.7252
    5MPD2    N113944   4.651   4.283  12.582 -0.3098  0.2053 -0.4626
    5MPD2    H713945   4.560   4.326  12.590 -1.3686 -1.9686 -0.7223
    6MPD1     C13946   4.515   1.289  12.994 -0.4463  0.0244 -0.3283
    6MPD1    C113947   4.582   1.272  12.876  1.3052 -0.1842 -0.3826
    6MPD1    C213948   4.599   1.144  12.823 -0.1830 -0.1573 -0.5338
    6MPD1    C313949   4.551   1.031  12.886 -0.8836 -0.1489 -0.8342
    6MPD1    C413950   4.488   1.055  13.003  0.2920  0.3652  0.3308
    6MPD1    C513951   4.476   1.175  13.061 -0.2556 -0.0340 -0.6249
    6MPD1     H13952   4.643   1.143  12.724 -1.5553  1.1367 -1.1632
    6MPD1    H113953   4.443   0.967  13.049  0.5602 -0.2343 -0.5444
    6MPD1    H213954   4.488   1.385  13.036  0.7869  1.1457 -2.1456
    6MPD1    H313955   4.414   1.187  13.148  1.8679 -0.2433  0.9302
    6MPD1     N13956   4.552   0.902  12.835  0.1891  0.7355 -0.2309
    6MPD1    H513957   4.513   0.832  12.898  1.7454 -0.1154 -0.2224
    6MPD1    N113958   4.604   1.390  12.794 -0.0561 -0.2422  0.1926
    6MPD1    H613959   4.675   1.386  12.721 -0.3557  0.1637 -0.1206
    6MPD1    H713960   4.618   1.475  12.848 -1.0173  0.0184  0.0281
    7MPD2     C13961   4.226   0.167  12.750  0.3602  0.3904 -0.1231
    7MPD2    C113962   4.311   0.203  12.646  0.3112 -0.6838  0.4821
    7MPD2    C213963   4.327   0.114  12.543 -0.0394 -1.0337 -0.0786
    7MPD2    C313964   4.275   4.726  12.538  0.1428 -0.6461 -0.0027
    7MPD2    C413965   4.182   4.695  12.632  0.3850 -0.2276 -0.4063
    7MPD2    C513966   4.165   0.043  12.736  0.0868  0.2453 -0.3643
    7MPD2     H13967   4.394   0.134  12.460  0.6479 -0.3239  0.6488
    7MPD2    H113968   4.127   4.601  12.630 -0.1580  0.0944 -0.7133
    7MPD2    H213969   4.193   0.228  12.834 -1.4721  0.9280 -1.2138
    7MPD2    H313970   4.096   0.009  12.812  0.1657  0.6069 -0.1353
    7MPD2     N13971   4.319   4.635  12.435 -0.4076 -0.2855  0.4090
    7MPD2    H513972   4.395   4.671  12.377 -1.2935  0.1685 -0.4599
    7MPD2    N113973   4.375   0.324  12.638 -0.2316 -0.4153 -0.1203
    7MPD2    H713974   4.415   0.340  12.547  0.8963 -0.3166  0.4004
    8TMC3    C113975   4.397   4.433  12.346 -0.2484 -0.5340 -0.2142
    8TMC3    C213976   4.476   4.344  12.404  0.2065  0.2326 -0.3706
    8TMC3    C313977   4.609   4.346  12.363  0.3755 -0.7190  0.3825
    8TMC3    C413978   4.442   4.521  12.253 -0.5966 -0.1504 -0.3076
    8TMC3    C513979   4.569   4.525  12.218 -0.3903  0.2850  0.0405
    8TMC3    C613980   4.660   4.435  12.268 -0.1924 -0.7840  1.0354
    8TMC3     C13981   4.307   4.495  12.439 -0.5723  0.3787 -0.2736
    8TMC3     O13982   4.260   4.428  12.530 -0.4316  0.4364  0.5646
    8TMC3     H13983   4.432   4.295  12.490 -1.0356  3.4070  0.8438
    8TMC3    H113984   4.369   4.571  12.191  0.2970  0.5285 -0.8164
    8TMC3    H213985   0.027   4.464  12.273  0.1121 -2.0446  1.8171
    8TMC3    C713986   4.604   4.662  12.219  0.2493 -0.3583  0.7961
    8TMC3    C813987   4.706   4.289  12.450 -0.4641  0.0770  0.8268
    8TMC3    O113988   4.513   4.725  12.273  0.1686  0.1259  0.1863
    8TMC3    O213989   0.077   4.265  12.397 -0.0675 -0.1830 -0.1851
    9TMC3    C113990   4.616   0.709  12.708 -0.2851  0.7555 -0.0611
    9TMC3    C213991   4.711   0.650  12.625  0.4294 -0.3153 -0.4262
    9TMC3    C313992   4.709   0.516  12.593 -0.0238  0.0648  0.2868
    9TMC3    C413993   4.508   0.635  12.756  0.3297 -0.2622 -0.0626
    9TMC3    C513994   4.505   0.502  12.715  0.0852  0.0064  0.0415
    9TMC3    C613995   4.600   0.439  12.636 -0.7478  0.3294 -0.2275
    9TMC3     C13996   4.621   0.853  12.726  0.7835  0.3704  0.0377
    9TMC3     O13997   4.691   0.910  12.641 -0.3268 -0.9800 -0.0743
    9TMC3     H13998   0.063   0.706  12.603 -0.7699  1.3617 -1.0534
    9TMC3    H113999   4.423   0.674  12.810 -0.7976 -0.6415 -1.5790
    9TMC3    H214000   4.599   0.335  12.604  0.3540  0.2753 -0.1096
    9TMC3    C714001   4.387   0.425  12.735  0.1418  0.8119  0.0513
    9TMC3    C814002   0.068   0.467  12.492 -0.8848  0.4084  0.4197
    9TMC3    O114003   4.332   0.434  12.844 -0.2592  0.4383 -0.0124
    9TMC3    O214004   0.179   0.521  12.476  0.1861  0.1403 -0.0387
   10MPD2     C14005   0.187   0.097  12.175 -0.3033 -0.3368 -0.4015
   10MPD2    C114006   0.058   0.076  12.208 -0.0478  0.9499  0.0674
   10MPD2    C214007   4.735   0.182  12.278  0.0192 -0.7726  0.3447
   10MPD2    C314008   0.077   0.277  12.333  1.0092 -0.2063  0.2548
   10MPD2    C414009   0.204   0.299  12.290  0.1626 -1.2083  0.3628
   10MPD2    C514010   0.259   0.210  12.199 -0.1452 -0.3410 -0.2297
   10MPD2     H14011   4.633   0.186  12.314 -0.6532 -1.9128 -1.4244
   10MPD2    H114012   0.267   0.385  12.312 -1.2052  0.3231 -1.6818
   10MPD2    H214013   0.241   0.016  12.126  0.3742 -0.5306  0.6576
   10MPD2    H314014   0.355   0.222  12.150 -0.6402  0.5778 -0.9726
   10MPD2     N14015   0.012   0.360  12.428 -0.1712  0.2700  0.1297
   10MPD2    H514016   4.650   0.344  12.436 -0.3501  0.5652 -1.3919
   10MPD2    N114017   4.733   4.691  12.185 -0.0417  0.1497  0.2031
   10MPD2    H714018   0.050   4.623  12.133 -0.1106  0.9085 -0.8558
   11MPD2     C14019   0.457   3.622  13.566 -0.0316 -0.6912  0.4665
   11MPD2    C114020   0.576   3.691  13.574  0.4470  0.6361 -0.5708
   11MPD2    C214021   0.608   3.793  13.489 -0.5228 -0.3028 -0.3716
   11MPD2    C314022   0.520   3.828  13.395  0.7295 -0.9806 -0.3056
   11MPD2    C414023   0.399   3.763  13.390 -0.1232 -0.1968  1.2127
   11MPD2    C514024   0.363   3.668  13.476  0.1412  0.2419 -0.0855
   11MPD2     H14025   0.708   3.835  13.498 -0.7717  0.2847 -0.3592
   11MPD2    H114026   0.326   3.791  13.315 -1.4191 -3.4903  1.2471
   11MPD2    H214027   0.431   3.541  13.633  1.7744 -1.3404  0.4024
   11MPD2    H314028   0.267   3.619  13.470  0.5777 -0.6209  0.0096
   11MPD2     N14029   0.538   3.917  13.290  0.2240  0.1377  0.3508
   11MPD2    H514030   0.467   3.920  13.218  1.2275 -0.5832 -0.6598
   11MPD2    N114031   0.667   3.660  13.675 -0.2499  0.2036  0.1772
   11MPD2    H714032   0.736   3.731  13.700  0.1445 -0.3630  0.6833
    1MPD1     C14033   3.355   0.632  16.873  0.0175 -0.1143  0.1867
    1MPD1    C114034   3.466   0.717  16.883 -0.5786 -0.1406  1.0729
    1MPD1    C214035   3.590   0.668  16.931  0.3192 -0.5975  0.4997
    1MPD1    C314036   3.589   0.537  16.986  0.1034 -0.2335 -0.0064
    1MPD1    C414037   3.484   0.451  16.971  0.3846 -0.6207 -0.3273
    1MPD1    C514038   3.363   0.499  16.915 -0.3013 -0.0217 -0.4031
    1MPD1     H14039   3.667   0.739  16.958  0.3795 -1.3963  2.3901
    1MPD1    H114040   3.482   0.346  16.996 -0.6216 -0.1688  1.5173
    1MPD1    H214041   3.262   0.668  16.832  1.5134  1.7077 -1.6280
    1MPD1    H314042   3.278   0.433  16.899 -0.3980  0.0142 -0.0337
    1MPD1     N14043   3.691   0.492  17.073 -0.3900 -0.4438  0.3282
    1MPD1    H514044   3.676   0.399  17.111  0.3002 -0.5649  0.3156
    1MPD1    N114045   3.455   0.853  16.843  0.0277 -0.1174 -0.0747
    1MPD1    H614046   3.358   0.879  16.826 -0.1474 -1.4967 -1.2178
    1MPD1    H714047   3.496   0.922  16.905  0.5182  1.5946 -2.3110
    2MPD1     C14048   4.005   4.591   0.028  0.2230 -0.2750  0.5864
    2MPD1    C114049   4.098   4.584  17.672 -0.4808  0.4662 -0.0133
    2MPD1    C214050   4.094   4.684  17.574  0.0930  0.8901  0.0379
    2MPD1    C314051   3.990   0.044  17.566  0.2774  0.3598  0.1204
    2MPD1    C414052   3.882   0.031  17.652 -0.0925 -0.0187 -0.5867
    2MPD1    C514053   3.896   4.678   0.010 -0.2281 -0.5769  0.4052
    2MPD1     H14054   4.169   4.684  17.496  0.0239 -0.4615 -0.0287
    2MPD1    H114055   3.798   0.098  17.648 -0.0537  0.0210 -0.7654
    2MPD1    H214056   4.002   4.532   0.119  0.2786 -0.0594  0.7260
    2MPD1    H314057   3.819   4.668   0.086 -2.9979  0.3472 -2.2463
    2MPD1     N14058   3.991   0.137  17.460  0.2915  0.2345 -0.3883
    2MPD1    H514059   4.066   0.136  17.391 -0.3354  0.6076 -1.0794
    2MPD1    N114060   4.185   4.479  17.665 -0.5872 -0.5726  0.3086
    2MPD1    H614061   4.263   4.504  17.605 -0.6668  0.4395  0.6198
    2MPD1    H714062   4.228   4.474   0.008  0.8032  1.2818 -0.2354
    3TMC3    C114063   3.941   0.333  17.351  0.3728  0.0409  0.2270
    3TMC3    C214064   4.077   0.354  17.342 -0.1198  0.4705  0.5418
    3TMC3    C314065   4.120   0.443  17.244 -0.3297  0.4676  0.3757
    3TMC3    C414066   3.853   0.394  17.268  0.0714  0.1655 -0.4404
    3TMC3    C514067   3.900   0.465  17.163 -0.0825 -0.2247  0.2708
    3TMC3    C614068   4.034   0.497  17.152 -1.3383 -0.3932  0.2905
    3TMC3     C14069   3.896   0.237  17.447 -0.7544 -0.3358  0.0406
    3TMC3     O14070   3.790   0.263  17.505 -0.1826  0.0127 -0.1666
    3TMC3     H14071   4.154   0.309  17.404  0.4572  2.0755  1.0028
    3TMC3    H114072   3.750   0.368  17.288  0.4253 -1.9146 -1.3475
    3TMC3    H214073   4.063   0.579  17.087 -0.9611 -0.0433  0.9044
    3TMC3    C714074   3.811   0.552  17.088 -0.3132 -0.3336 -0.0640
    3TMC3    C814075   4.264   0.473  17.220  0.2010  0.6117 -0.9663
    3TMC3    O114076   3.862   0.656  17.042 -0.7856 -0.1713  0.3337
    3TMC3    O214077   4.293   0.474  17.103 -0.5535 -0.6903  0.0393
    4MPD1     C14078   4.731   0.532  17.409 -0.1884 -0.1557  0.0671
    4MPD1    C114079   4.644   0.555  17.510 -0.5512  0.5464 -0.2654
    4MPD1    C214080   4.511   0.527  17.482  0.5396  0.0487 -0.3540
    4MPD1    C314081   4.470   0.500  17.353  1.3668 -0.0462  0.0380
    4MPD1    C414082   4.559   0.481  17.255 -0.0621 -0.4023 -0.3431
    4MPD1    C514083   4.693   0.502  17.281 -0.0213 -0.3130  0.2350
    4MPD1     H14084   4.439   0.529  17.564  0.1178 -1.1483 -0.7094
    4MPD1    H114085   4.533   0.450  17.154 -2.1723 -0.6322  0.2604
    4MPD1    H214086   0.099   0.545  17.430  0.1339 -1.1207 -0.9687
    4MPD1    H314087   0.029   0.491  17.202 -0.9215  1.4611 -0.8646
    4MPD1     N14088   4.334   0.486  17.339 -0.3029  0.1759  0.0571
    4MPD1    H514089   4.279   0.486  17.424  1.4779  3.2490  1.2108
    4MPD1    N114090   4.691   0.577  17.640  0.0697 -0.0299 -0.0435
    4MPD1    H614091   0.035   0.636  17.657  0.6678 -0.7145 -0.5541
    4MPD1    H714092   4.616   0.619  17.695  0.4212  1.8292 -0.9572
    1TCq1    O114093   0.066   0.537  10.893 -0.7426  0.0730  0.0774
    1TCq1    C114094   4.705   0.535  10.807  0.0871  1.0259 -0.6836
    1TCq1    O214095   4.717   0.570  10.691 -0.0158  0.1266 -0.5541
    1TCq1    C214096   4.581   0.549  10.882 -0.6109 -0.7496 -0.4960
    1TCq1    C314097   4.485   0.637  10.839  0.4529  0.3735  0.3641
    1TCq1    C414098   4.391   0.677  10.929  0.3826  0.0190 -0.6191
    1TCq1    C514099   4.404   0.643  11.057  0.3083 -1.2749 -0.4547
    1TCq1    C614100   4.494   0.552  11.098  0.6032 -0.1318  0.0539
    1TCq1    C714101   4.589   0.495  11.010  0.1406 -0.3883  0.2925
    1TCq1    C814102   4.482   0.494  11.231 -1.3131 -0.4833  0.3529
    1TCq1    O414103   4.375   0.488  11.296  0.1949 -0.7081  0.1773
    1TCq1    C914104   4.320   0.802  10.912 -0.2423  0.1439 -0.1846
    1TCq1    O514105   4.269   0.818  10.800 -0.0318 -0.1535 -0.8140
    1TCq1    O614106   4.329   0.890  10.999 -0.3089 -0.4161 -0.0485
    1TCq1    H114107   0.040   0.517  10.985  2.1925 -2.1005  0.4337
    1TCq1    H214108   4.483   0.683  10.740  0.0143 -1.8758 -0.6671
    1TCq1    H314109   4.353   0.694  11.139 -0.9772  0.7620 -2.5325
    1TCq1    H414110   4.653   0.413  11.040  1.4542  1.0159  1.3952
    2MPD1     C14111   4.727   0.275  11.628 -0.1335 -0.3074 -0.1325
    2MPD1    C114112   0.080   0.353  11.559  0.3317  0.0616  0.1798
    2MPD1    C214113   0.038   0.417  11.446 -0.3711 -0.1740  0.1200
    2MPD1    C314114   4.644   0.403  11.402 -0.1554  0.1847 -0.8453
    2MPD1    C414115   4.552   0.341  11.478 -0.3114 -0.1345  0.3559
    2MPD1    C514116   4.594   0.281  11.598 -0.5448  0.0456 -0.2987
    2MPD1     H14117   0.105   0.469  11.379  0.2719  0.7088  1.4451
    2MPD1    H114118   4.447   0.342  11.450  0.0624  0.2813 -1.0411
    2MPD1    H214119   0.031   0.216  11.708 -1.0520 -1.7028 -0.6767
    2MPD1    H314120   4.528   0.218  11.656  1.0136  0.4491  1.9339
    2MPD1     N14121   4.606   0.466  11.282  0.1638  0.5954  0.4213
    2MPD1    H514122   4.688   0.486  11.226  1.2378  0.2952  1.8842
    2MPD1    N114123   0.220   0.323  11.572 -0.5609  0.2351 -0.4067
    2MPD1    H614124   0.243   0.272  11.657  0.3467 -1.4843 -1.6937
    2MPD1    H714125   0.281   0.405  11.561  0.3618 -0.1622  1.6068
    1TMC1    C114126   2.260   1.512   1.109  0.1181  0.6777  0.1795
    1TMC1    C214127   2.204   1.591   1.010  0.0408  0.1721 -0.2505
    1TMC1    C314128   2.263   1.581   0.884  0.0366  0.2241  0.5063
    1TMC1    C414129   2.375   1.446   1.101  0.4193  0.2554 -0.6148
    1TMC1    C514130   2.437   1.453   0.979  0.1697  0.7840  0.6439
    1TMC1    C614131   2.387   1.520   0.869  0.4115  0.1337  0.1613
    1TMC1     C14132   2.210   1.528   1.246 -0.2496 -0.8342 -0.7995
    1TMC1     O14133   2.293   1.499   1.335  0.2363 -0.4143  0.2224
    1TMC1     H14134   2.118   1.656   1.025  0.4634  1.2151 -2.3598
    1TMC1    H114135   2.420   1.390   1.182 -1.9533 -0.9623 -0.1366
    1TMC1    H214136   2.426   1.487   0.773 -1.1767 -1.4822  0.0710
    1TMC1    C714137   2.549   1.372   0.961 -0.0108  0.3242 -0.2139
    1TMC1    C814138   2.183   1.595   0.763 -0.0129 -0.2672 -0.3345
    1TMC1    O114139   2.555   1.264   1.018 -0.4182  0.1237  0.4296
    1TMC1    O214140   2.191   1.530   0.658  0.3814 -0.1348  0.1497
    1TMC1    O314141   2.645   1.460   0.985 -0.0083 -0.2570 -0.3375
    1TMC1    H314142   2.620   1.552   0.965  2.7547  0.7068  0.5985
    1TMC1    O514143   2.139   1.720   0.771  0.2544  0.1602 -0.1215
    1TMC1    H514144   2.170   1.767   0.852  0.1954  0.1223 -0.0775
    2MPD1     C14145   1.944   1.828   1.575  0.3140  0.8441 -0.3654
    2MPD1    C114146   1.876   1.820   1.449 -0.5714 -0.4233 -0.6494
    2MPD1    C214147   1.931   1.741   1.350 -1.0587 -0.1383 -0.8628
    2MPD1    C314148   2.047   1.668   1.368 -0.4114  0.9414 -0.1285
    2MPD1    C414149   2.105   1.667   1.493 -0.1873 -0.2010 -0.2657
    2MPD1    C514150   2.055   1.746   1.590  0.5560  0.2906  0.1089
    2MPD1     H14151   1.878   1.740   1.255 -1.2398  0.2331 -0.7630
    2MPD1    H114152   2.196   1.611   1.509  1.1380  1.7023 -1.1133
    2MPD1    H214153   1.899   1.886   1.655  2.2968  0.5395  0.9871
    2MPD1    H314154   2.093   1.728   1.690 -1.5658  0.5249  0.9732
    2MPD1     N14155   2.093   1.601   1.254  0.4298  0.7610 -0.0396
    2MPD1    H514156   2.036   1.608   1.171  0.3407 -0.6546 -0.0909
    2MPD1    N114157   1.773   1.912   1.428 -0.6898 -0.3724  0.5343
    2MPD1    H614158   1.727   1.936   1.516 -1.9678 -0.3532 -0.1530
    2MPD1    H714159   1.707   1.889   1.355  1.7658  1.1425 -2.1649
    1MPD1     C14160   1.530   4.685  11.607  0.1654 -0.1282  0.5017
    1MPD1    C114161   1.580   0.045  11.518  0.0483 -0.0785  1.0875
    1MPD1    C214162   1.697   0.112  11.555  0.7257 -1.3139  0.0151
    1MPD1    C314163   1.745   0.114  11.682 -0.8416  0.1509  0.4387
    1MPD1    C414164   1.681   0.040  11.770 -0.6119  0.1760  0.0179
    1MPD1    C514165   1.580   4.687  11.737  0.3476  0.0403 -0.0703
    1MPD1     H14166   1.755   0.156  11.475  0.9405 -1.5334  0.0501
    1MPD1    H114167   1.690   0.043  11.878  1.7773  0.5267 -0.1875
    1MPD1    H214168   1.443   4.623  11.588 -0.1482  0.9750 -1.7264
    1MPD1    H314169   1.512   4.638  11.805  0.8518 -0.3094  0.1852
    1MPD1     N14170   1.844   0.207  11.711 -0.1484  0.7304 -0.6229
    1MPD1    H514171   1.870   0.270  11.637 -1.2139  0.0327 -1.6007
    1MPD1    N114172   1.536   0.054  11.385  0.8204  0.5717 -0.3101
    1MPD1    H614173   1.437   0.033  11.377  1.1427 -1.4123  0.8760
    1MPD1    H714174   1.534   0.150  11.351  1.0688  1.5875  2.5175
    2MPD1     C14175   1.091   4.554  11.681  0.7338 -0.2876 -0.0207
    2MPD1    C114176   1.111   4.674  11.609 -0.3861 -0.3195 -0.2125
    2MPD1    C214177   1.186   4.664  11.493 -0.1093 -0.3717  0.3225
    2MPD1    C314178   1.225   4.544  11.443 -0.3993  0.1857  0.1340
    2MPD1    C414179   1.184   4.427  11.507 -0.2864 -0.0660 -0.5464
    2MPD1    C514180   1.130   4.431  11.630 -0.0988  0.1166 -0.0081
    2MPD1     H14181   1.231   0.018  11.456 -1.2464  0.8364  1.9813
    2MPD1    H114182   1.211   4.332  11.463 -0.8689 -1.0531  1.2316
    2MPD1    H214183   1.055   4.557  11.783 -1.1080 -0.7548 -0.6531
    2MPD1    H314184   1.119   4.344  11.694 -0.2950 -0.5580 -0.9576
    2MPD1     N14185   1.281   4.526  11.311  0.5912 -0.7417  0.0361
    2MPD1    H514186   1.303   4.434  11.276  0.6139  0.0809 -2.0831
    2MPD1    N114187   1.091   0.064  11.682 -0.5494 -0.2571 -0.1691
    2MPD1    H614188   1.018   0.069  11.753 -1.7096 -2.1452 -1.2061
    2MPD1    H714189   1.089   0.143  11.618 -0.4658 -0.4140 -0.3648
    3MPD1     C14190   1.149   0.422  10.530 -0.2116 -0.1802 -0.2850
    3MPD1    C114191   1.070   0.307  10.538 -0.3607  0.2135  0.5594
    3MPD1    C214192   1.122   0.201  10.607  0.4996  0.7745  0.1441
    3MPD1    C314193   1.243   0.210  10.676  0.4115 -0.7787 -0.3054
    3MPD1    C414194   1.311   0.323  10.671 -0.0690 -0.2352  0.1765
    3MPD1    C514195   1.260   0.431  10.602 -0.0687 -0.2375 -0.1222
    3MPD1     H14196   1.066   0.108  10.607  2.1126 -0.2007  0.6625
    3MPD1    H114197   1.400   0.340  10.731 -0.1892 -0.7348  0.4919
    3MPD1    H214198   1.109   0.508  10.477 -0.1870  0.3715  0.5890
    3MPD1    H314199   1.319   0.522  10.595  0.2717 -0.3899  0.7475
    3MPD1     N14200   1.287   0.092  10.751  0.0136 -0.1903  0.4923
    3MPD1    H514201   1.215   0.025  10.775  0.2628 -0.5371  0.2702
    3MPD1    N114202   0.949   0.296  10.472  0.0496  0.3873 -0.1441
    3MPD1    H614203   0.917   0.393  10.467  0.9189  0.6104 -1.4227
    3MPD1    H714204   0.880   0.244  10.525 -0.7019  1.6722  0.1301
    4MPD2     C14205   2.107   0.652  11.333 -0.1194  0.3426 -0.0009
    4MPD2    C114206   2.182   0.578  11.421  0.3631  0.3133  0.0967
    4MPD2    C214207   2.283   0.499  11.368  0.5236 -0.1997  0.5545
    4MPD2    C314208   2.295   0.480  11.230  0.5818  0.2881  0.2083
    4MPD2    C414209   2.215   0.553  11.143 -0.8351 -0.5874 -0.5829
    4MPD2    C514210   2.128   0.641  11.195  0.1394 -0.9778 -0.6236
    4MPD2     H14211   2.343   0.447  11.441  1.5735 -0.8767 -0.7964
    4MPD2    H114212   2.227   0.551  11.035  0.5759 -0.5288 -0.4331
    4MPD2    H214213   2.033   0.725  11.362 -2.8148 -2.3769 -0.0035
    4MPD2    H314214   2.065   0.705  11.134  2.4968  2.0413  0.0782
    4MPD2     N14215   2.383   0.383  11.178  0.1585 -0.5167 -0.1742
    4MPD2    H514216   2.381   0.367  11.078  0.2071 -0.7333 -0.1387
    4MPD2    N114217   2.174   0.575  11.561  0.2548 -0.1191 -0.5056
    4MPD2    H714218   2.248   0.530  11.614 -0.6311 -0.0420  0.8026
    5TMC3    C114219   2.066   0.534  11.761  0.6642 -0.0763  0.3720
    5TMC3    C214220   1.965   0.435  11.774 -0.1266 -0.2550  0.0501
    5TMC3    C314221   1.996   0.323  11.843 -0.2248 -0.8304  0.3837
    5TMC3    C414222   2.192   0.522  11.816 -0.2716 -0.6101  0.1717
    5TMC3    C514223   2.214   0.404  11.884  0.2946 -0.2837 -0.1834
    5TMC3    C614224   2.110   0.314  11.912  0.3416 -0.6570 -0.1924
    5TMC3     C14225   2.063   0.613  11.637 -0.1676 -0.4274 -0.1693
    5TMC3     O14226   1.953   0.660  11.598  0.7548  0.0800 -0.0557
    5TMC3     H14227   1.870   0.456  11.728 -0.9922  0.3996  2.1238
    5TMC3    H114228   2.275   0.588  11.796  0.2540 -1.3886 -0.1971
    5TMC3    H214229   2.142   0.227  11.968  1.1958  0.3645  0.8879
    5TMC3    C714230   2.332   0.350  11.821 -0.4309 -0.2894  0.2995
    5TMC3    C814231   1.910   0.204  11.831 -1.0830 -0.4888  0.6171
    5TMC3    O114232   2.386   0.414  11.734  0.1214 -0.1393  0.0607
    5TMC3    O214233   1.910   0.119  11.919  0.3788  0.3328 -0.2501
    6TMC3    C114234   1.373   4.615  11.102  0.6465 -0.7513  0.7969
    6TMC3    C214235   1.334   4.692  10.990 -0.1342 -0.1538  0.1751
    6TMC3    C314236   1.429   4.716  10.895  0.5921 -0.0954 -0.2601
    6TMC3    C414237   1.507   4.580  11.125 -0.4328  0.2030  0.0866
    6TMC3    C514238   1.593   4.609  11.023 -0.2222 -0.4453 -0.0088
    6TMC3    C614239   1.562   4.665  10.904 -0.2201  0.3575  0.1704
    6TMC3     C14240   1.301   4.635  11.228 -0.5991  0.3839  0.2980
    6TMC3     O14241   1.273   0.014  11.238  0.0274 -0.5258  0.2707
    6TMC3     H14242   1.240   0.008  10.993 -0.2474 -0.3576  0.3010
    6TMC3    H114243   1.546   4.527  11.211  0.3252 -0.0478 -0.4224
    6TMC3    H214244   1.638   4.684  10.828  0.0860 -0.1719  0.3425
    6TMC3    C714245   1.733   4.628  11.056  0.4134  0.2468 -0.3033
    6TMC3    C814246   1.411   0.087  10.802 -0.7634  0.0254  0.1167
    6TMC3    O114247   1.815   4.653  10.968 -0.2424  0.0951 -0.4447
    6TMC3    O214248   1.512   0.137  10.748 -0.2856 -0.2633 -0.0715
    7MPD2     C14249   2.615   4.693  11.708  0.3029  0.1358  0.2381
    7MPD2    C114250   2.560   0.052  11.635 -0.3461  0.1452  0.2295
    7MPD2    C214251   2.482   0.144  11.694 -0.1738  0.4060 -0.0501
    7MPD2    C314252   2.458   0.136  11.827 -0.4664 -0.0625  0.7861
    7MPD2    C414253   2.517   0.040  11.910  0.1216 -0.7032 -0.1898
    7MPD2    C514254   2.594   4.692  11.842  0.2853  0.0856 -0.0701
    7MPD2     H14255   2.422   0.214  11.637  0.1021  1.1128  0.5286
    7MPD2    H114256   2.488   0.016  12.011 -0.4486 -1.5657 -0.5536
    7MPD2    H214257   2.671   4.614  11.659 -0.5004 -0.2333 -0.0874
    7MPD2    H314258   2.635   4.607  11.896  1.1464 -0.7673 -2.0381
    7MPD2     N14259   2.375   0.235  11.883  0.1069  0.1610 -0.0390
    7MPD2    H514260   2.349   0.222  11.980  1.8746 -1.8956  0.1447
    7MPD2    N114261   2.581   0.059  11.499 -0.2927 -0.5312 -0.6114
    7MPD2    H714262   2.534   0.137  11.453 -1.9730 -1.1306  0.0885
    8TMC3    C114263   2.604   4.733  11.281 -0.4657  0.1646  0.4733
    8TMC3    C214264   2.506   4.660  11.220  0.2900 -0.3870 -0.6420
    8TMC3    C314265   2.428   4.711  11.117 -0.4885  0.3273  0.9092
    8TMC3    C414266   2.600   0.134  11.260  0.4913  0.1810 -0.4376
    8TMC3    C514267   2.513   0.194  11.174  0.1839  0.3056 -0.4893
    8TMC3    C614268   2.432   0.109  11.103  0.4276 -0.2565  0.3045
    8TMC3     C14269   2.620   4.691  11.421  0.2464 -0.0695  0.2658
    8TMC3     O14270   2.650   4.574  11.445 -0.2792  0.4482  0.1751
    8TMC3     H14271   2.489   4.558  11.251  0.5093  0.0799  1.0733
    8TMC3    H114272   2.664   0.203  11.314  0.1140  1.2011 -1.3058
    8TMC3    H214273   2.346   0.143  11.046 -0.5820 -0.8650  1.4715
    8TMC3    C714274   2.440   0.291  11.257 -0.6211 -0.0394 -0.6084
    8TMC3    C814275   2.283   4.683  11.121 -0.7105  0.0915  0.2171
    8TMC3    O114276   2.440   0.265  11.374 -0.7094 -0.4436 -0.0120
    8TMC3    O214277   2.216   4.698  11.022 -0.2840 -0.2007 -0.0122
    9MPD2     C14278   2.104   4.594  11.423  0.4491 -0.1175  0.1587
    9MPD2    C114279   2.113   4.628  11.287 -0.0330  0.6695  0.2202
    9MPD2    C214280   1.998   4.637  11.201 -0.4808 -0.7688 -0.2523
    9MPD2    C314281   1.878   4.633  11.261  0.8355 -0.1600 -0.1496
    9MPD2    C414282   1.872   4.620  11.402 -0.4840 -0.2358 -0.6112
    9MPD2    C514283   1.979   4.594  11.481  0.1189 -0.7525  0.7055
    9MPD2     H14284   2.002   4.653  11.094 -1.2196  2.0344  0.1415
    9MPD2    H114285   1.774   4.613  11.447 -0.1646 -1.2654 -0.0790
    9MPD2    H214286   2.190   4.593  11.489 -0.7401 -0.9525  1.6921
    9MPD2    H314287   1.965   4.589  11.588 -0.7711  1.2709  0.6734
    9MPD2     N14288   1.755   4.638  11.196 -0.1796 -0.8817 -0.6618
    9MPD2    H514289   1.677   4.630  11.260  0.8987 -3.1992  0.3440
    9MPD2    N114290   2.243   4.645  11.245  0.1162  0.1470  0.3188
    9MPD2    H714291   2.307   4.645  11.324 -0.1104  1.2054  0.4994
    1MPD1     C14292   0.883   3.887  16.725  0.2032  0.1699  0.8589
    1MPD1    C114293   0.844   3.876  16.597  0.1651  0.7851  0.5990
    1MPD1    C214294   0.893   3.771  16.522  0.3969 -0.2581  0.4759
    1MPD1    C314295   0.989   3.685  16.570 -0.6196  0.1247 -0.5103
    1MPD1    C414296   1.035   3.710  16.700 -0.5685  0.2821  0.8039
    1MPD1    C514297   0.990   3.816  16.778 -0.4738  0.8023 -0.3986
    1MPD1     H14298   0.856   3.765  16.420 -1.0554  1.4853  0.9013
    1MPD1    H114299   1.094   3.636  16.752  0.1278  0.2117 -0.0778
    1MPD1    H214300   0.833   3.964  16.784  0.4782  1.5142 -0.6849
    1MPD1    H314301   1.017   3.836  16.881  1.5933  0.1909 -0.8226
    1MPD1     N14302   1.039   3.576  16.504 -0.3918 -0.0480  1.1689
    1MPD1    H514303   1.118   3.527  16.544  0.0483  1.7203  2.5026
    1MPD1    N114304   0.737   3.956  16.560 -0.6351 -0.3965  0.3702
    1MPD1    H614305   0.726   3.966  16.459 -0.9326  2.4407  0.6928
    1MPD1    H714306   0.729   4.045  16.609  1.0759 -2.1093  3.7283
    2TMC2    C114307   1.098   3.262  16.170  0.6305 -0.1154 -0.2885
    2TMC2    C214308   1.154   3.169  16.260  0.0037  0.2214 -0.1860
    2TMC2    C314309   1.153   3.208  16.393 -0.4198  0.2758  0.4963
    2TMC2    C414310   1.042   3.379  16.214 -0.9885 -0.1129 -0.0278
    2TMC2    C514311   1.050   3.412  16.348  0.1987 -0.0790 -0.1871
    2TMC2    C614312   1.100   3.323  16.446 -0.1181  0.4808  0.2101
    2TMC2     C14313   1.026   3.194  16.058 -0.1341 -1.0104 -0.6393
    2TMC2     O14314   1.048   3.074  16.051  0.2993 -0.2961  0.1704
    2TMC2     H14315   1.174   3.066  16.231 -0.3969 -0.6717  2.6587
    2TMC2    H114316   0.988   3.443  16.145  1.3644 -0.7754 -2.4602
    2TMC2    H214317   1.090   3.336  16.553  3.8764  2.6807  0.3201
    2TMC2    C714318   0.986   3.524  16.387  0.7796  0.5052 -0.5337
    2TMC2    C814319   1.178   3.111  16.497  0.1042  0.7360 -0.0010
    2TMC2    O114320   0.921   3.582  16.306  0.3844 -0.0257  0.2413
    2TMC2    O214321   1.147   3.131  16.612 -0.1863 -0.4421 -0.0746
    2TMC2    O514322   1.298   3.052  16.463 -0.0680 -0.4259  0.4079
    2TMC2    H514323   1.319   3.054  16.367  0.0654  0.3010  0.4551
    3MPD1     C14324   0.775   3.164  15.604  0.6122 -0.2789  0.5189
    3MPD1    C114325   0.751   3.287  15.662 -0.4690 -0.0747 -0.5777
    3MPD1    C214326   0.808   3.318  15.784 -0.7683  0.5608 -0.2330
    3MPD1    C314327   0.881   3.234  15.861 -0.5123 -0.1056 -0.1205
    3MPD1    C414328   0.885   3.103  15.814  0.2948 -0.1141 -0.4731
    3MPD1    C514329   0.843   3.077  15.683  0.1462 -0.6954  0.3162
    3MPD1     H14330   0.800   3.422  15.812 -0.0369  0.3430  0.8136
    3MPD1    H114331   0.924   3.018  15.869 -0.2842 -0.6856 -0.9447
    3MPD1    H214332   0.738   3.139  15.505  0.9074 -0.1691  0.3825
    3MPD1    H314333   0.861   2.980  15.638  1.9448 -0.4113  0.4244
    3MPD1     N14334   0.944   3.280  15.976  0.4917 -0.2932  0.2281
    3MPD1    H514335   0.931   3.379  15.995 -1.1848 -0.4363 -0.1974
    3MPD1    N114336   0.672   3.384  15.600 -0.2932 -0.8032 -0.2757
    3MPD1    H614337   0.627   3.341  15.519 -1.9856 -1.3364  0.9405
    3MPD1    H714338   0.605   3.437  15.655  2.5740  2.0363  0.4790
    1TMC1    C114339   3.861   2.981  13.198  0.2937  0.0409 -0.2398
    1TMC1    C214340   3.889   3.113  13.187 -0.1071 -0.6408 -0.2177
    1TMC1    C314341   3.780   3.198  13.177  0.9412 -0.2063  0.3875
    1TMC1    C414342   3.731   2.929  13.196 -0.4068 -0.3918 -0.0848
    1TMC1    C514343   3.630   3.012  13.174 -0.4279 -0.3037 -0.3291
    1TMC1    C614344   3.655   3.151  13.162  0.7120  0.3111 -0.6801
    1TMC1     C14345   3.966   2.887  13.170  0.1979  0.3903 -0.0289
    1TMC1     O14346   3.926   2.772  13.164  0.3549  0.1490 -0.3134
    1TMC1     H14347   3.988   3.158  13.192 -0.1922 -0.2252 -2.4014
    1TMC1    H114348   3.716   2.824  13.216 -1.1839 -0.0873  0.9161
    1TMC1    H214349   3.574   3.220  13.144 -0.1054 -1.0619 -2.2493
    1TMC1    C714350   3.490   2.974  13.165  0.1336  0.4845  0.9802
    1TMC1    C814351   3.808   3.340  13.154  0.1660 -0.8691  0.5952
    1TMC1    O114352   3.403   3.042  13.206 -0.6851 -0.4620 -0.3185
    1TMC1    O214353   3.728   3.429  13.184  0.2927 -0.2891 -0.0646
    1TMC1    O314354   3.490   2.839  13.144  0.1109  0.4312  0.0803
    1TMC1    H314355   3.572   2.800  13.108  1.0892 -0.5661  3.3930
    1TMC1    O514356   3.923   3.353  13.086  0.2273  0.0482  0.1790
    1TMC1    H514357   3.961   3.270  13.051 -1.2555  0.2121 -1.8438
    2MPD2     C14358   4.213   2.726  13.137  0.0382  0.2539 -0.0471
    2MPD2    C114359   4.213   2.857  13.173  0.1811  1.0213 -0.1683
    2MPD2    C214360   4.333   2.925  13.207  0.3847 -0.4319  0.1590
    2MPD2    C314361   4.451   2.857  13.207  0.2821  0.0916  0.4959
    2MPD2    C414362   4.447   2.723  13.166  0.5426 -0.0375  0.6493
    2MPD2    C514363   4.328   2.654  13.139 -0.2990 -0.4197  1.0821
    2MPD2     H14364   4.329   3.029  13.238 -0.0136 -0.0855 -1.0406
    2MPD2    H114365   4.534   2.664  13.143  1.7921  2.0038  0.1242
    2MPD2    H214366   4.136   2.664  13.094 -0.5252 -0.1804  1.5815
    2MPD2    H314367   4.328   2.552  13.104  2.5462 -0.6990  1.8768
    2MPD2     N14368   4.575   2.924  13.241  0.1289  0.4450  0.2997
    2MPD2    H514369   4.566   3.020  13.273 -0.4370 -0.0314  1.5663
    2MPD2    N114370   4.094   2.936  13.176  0.2393  0.4265  0.6264
    2MPD2    H714371   4.108   3.032  13.206 -1.0157  0.1804  1.9813
    3TCq1    O114372   0.131   3.417  13.347 -0.5659  0.2793  0.8781
    3TCq1    C114373   0.092   3.324  13.259 -0.2788 -0.4788  0.3026
    3TCq1    O214374   0.083   3.339  13.137 -0.2514  0.1341 -0.3562
    3TCq1    C214375   0.089   3.188  13.319 -0.2068  0.5041  0.4009
    3TCq1    C314376   0.155   3.167  13.442 -0.5369  0.0106  0.3119
    3TCq1    C414377   0.182   3.036  13.474 -0.7291  1.1092 -0.0567
    3TCq1    C514378   0.130   2.930  13.400  0.0177  0.1617  0.2588
    3TCq1    C614379   0.057   2.964  13.293 -0.2370 -0.2233 -0.1449
    3TCq1    C714380   0.039   3.088  13.247  0.4243  0.7841 -0.0796
    3TCq1    C814381   4.701   2.867  13.254 -0.2850  0.1190 -0.2499
    3TCq1    O414382   0.003   2.750  13.237  0.0781 -1.2666 -0.1224
    3TCq1    C914383   0.247   3.006  13.598 -0.4500  0.6860 -0.0003
    3TCq1    O514384   0.276   2.888  13.613  0.1364  0.0040 -0.2715
    3TCq1    O614385   0.244   3.095  13.688  0.3406  0.0761  0.6843
    3TCq1    H114386   0.116   3.390  13.440 -0.9266 -0.0961  0.7116
    3TCq1    H214387   0.190   3.250  13.503 -2.9499  0.7096  0.7610
    3TCq1    H314388   0.134   2.825  13.428 -0.5914  0.5867  1.9093
    3TCq1    H414389   4.737   3.107  13.148 -2.1669 -0.0313  0.7969
    1MPD2     C14390   3.836   4.033  15.318  0.0118 -0.5563 -0.1605
    1MPD2    C114391   3.850   3.954  15.208  0.1613  0.1300  0.2938
    1MPD2    C214392   3.926   3.839  15.214  0.0767  0.2771  0.9496
    1MPD2    C314393   3.996   3.803  15.323 -0.6148  0.0154  0.2579
    1MPD2    C414394   3.980   3.882  15.432  0.0359  0.3409 -0.3240
    1MPD2    C514395   3.900   4.000  15.427 -0.2720  0.7330 -0.0204
    1MPD2     H14396   3.920   3.766  15.134  3.3796 -1.1406  2.0237
    1MPD2    H114397   4.028   3.861  15.527 -1.3685  0.5966  0.4364
    1MPD2    H214398   3.772   4.120  15.327  0.9928 -0.0207  1.7283
    1MPD2    H314399   3.911   4.067  15.512  0.8839  1.8046 -1.0129
    1MPD2     N14400   4.047   3.674  15.330  0.2698  0.2740  0.6034
    1MPD2    H514401   4.048   3.619  15.245  0.9561  1.5534 -0.2067
    1MPD2    N114402   3.759   3.964  15.097 -0.6494 -0.1975  0.1613
    1MPD2    H714403   3.747   3.878  15.044  4.4665 -1.0903  0.5009
    2TMC3    C114404   3.594   4.045  14.951  0.0564  0.1418  0.1275
    2TMC3    C214405   3.554   3.913  14.952 -0.7514 -0.3312 -0.3378
    2TMC3    C314406   3.511   3.865  14.831  0.3697 -0.1784 -0.7677
    2TMC3    C414407   3.596   4.126  14.836 -0.0090  0.3254 -0.0546
    2TMC3    C514408   3.552   4.067  14.716  0.3208  0.1946 -0.5106
    2TMC3    C614409   3.514   3.935  14.714  0.7890  0.1367  0.4542
    2TMC3     C14410   3.692   4.074  15.054  0.3381  0.5441 -0.0835
    2TMC3     O14411   3.731   4.191  15.066 -0.2405 -0.1751  0.6304
    2TMC3     H14412   3.560   3.857  15.045  1.1563 -0.0815 -0.3014
    2TMC3    H114413   3.632   4.228  14.847  0.3688  0.1744  0.1059
    2TMC3    H214414   3.480   3.896  14.619  0.1349 -1.3090  1.2841
    2TMC3    C714415   3.511   4.153  14.606  0.3667  0.0250 -0.5719
    2TMC3    C814416   3.546   3.728  14.809  0.7231  0.9573 -0.0431
    2TMC3    O114417   3.439   4.101  14.523 -0.0601 -0.1145 -0.2045
    2TMC3    O214418   3.570   3.699  14.696  0.4365 -0.2551 -0.7042
    3TCq1    O114419   3.668   0.447  14.914 -0.1702  0.7887 -0.0229
    3TCq1    C114420   3.569   0.354  14.892  0.1737  0.3402  0.5870
    3TCq1    O214421   3.495   0.302  14.974  0.2825 -0.2194 -0.1636
    3TCq1    C214422   3.532   0.373  14.759 -0.4954 -0.1294  0.0979
    3TCq1    C314423   3.567   0.485  14.693  0.7078  0.3871 -0.0129
    3TCq1    C414424   3.562   0.481  14.553  0.5106  0.3122 -0.7357
    3TCq1    C514425   3.517   0.369  14.486  0.2302 -0.1534  0.7366
    3TCq1    C614426   3.478   0.259  14.562  0.4260 -0.4481  0.4033
    3TCq1    C714427   3.488   0.254  14.700  0.3189 -0.0933  0.8587
    3TCq1    C814428   3.440   0.138  14.492 -0.4866  0.0627 -0.3237
    3TCq1    O414429   3.382   0.160  14.386  0.4204 -0.1903  0.4113
    3TCq1    C914430   3.612   0.593  14.479 -0.6149 -0.1129 -0.1538
    3TCq1    O514431   3.681   0.685  14.529 -1.1094  0.6288 -0.1511
    3TCq1    O614432   3.625   0.576  14.356 -0.2072  0.2224 -0.1307
    3TCq1    H114433   3.707   0.471  14.828  0.2831  1.7657  0.4575
    3TCq1    H214434   3.590   0.576  14.748  0.4609 -0.2753  1.1847
    3TCq1    H314435   3.510   0.364  14.378  0.5011 -0.2346  0.7234
    3TCq1    H414436   3.437   0.174  14.752 -1.8867 -0.1017 -1.3087
    4MPD2     C14437   3.348   4.600  14.418  0.2644  1.7507 -0.1430
    4MPD2    C114438   3.449   4.623  14.507  0.5385 -0.6186  0.0050
    4MPD2    C214439   3.513   4.515  14.570 -0.0475 -0.0264 -0.1153
    4MPD2    C314440   3.485   4.385  14.538 -0.2108  0.7207  0.2453
    4MPD2    C414441   3.378   4.367  14.447  0.0035 -0.1265  0.1428
    4MPD2    C514442   3.307   4.473  14.393 -0.0704 -0.4602  0.6031
    4MPD2     H14443   3.578   4.533  14.655  0.2825  1.2139 -0.6268
    4MPD2    H114444   3.343   4.269  14.416  2.2531 -0.5672 -1.0181
    4MPD2    H214445   3.292   4.687  14.385  1.2989  1.5909 -2.3508
    4MPD2    H314446   3.218   4.459  14.333  2.3112  0.5980 -3.1962
    4MPD2     N14447   3.543   4.283  14.616  0.4247 -0.5824  0.5433
    4MPD2    H514448   3.610   4.311  14.687 -0.8907  2.3512  0.5949
    4MPD2    N114449   3.477   0.019  14.552 -0.2805  0.4765  0.0113
    4MPD2    H714450   3.538   0.027  14.632  0.7761 -0.6844 -0.6742
    5TMC2    C114451   4.064   3.294  15.290  0.1354 -0.6782  0.3826
    5TMC2    C214452   4.192   3.245  15.282 -0.3926  0.5867  0.5524
    5TMC2    C314453   4.291   3.311  15.347  0.1518  0.1945  0.9465
    5TMC2    C414454   4.040   3.411  15.367 -0.8921 -0.1241  0.3151
    5TMC2    C514455   4.144   3.479  15.420  0.0222 -0.5023 -0.7391
    5TMC2    C614456   4.270   3.429  15.412  0.7294 -0.6540 -1.2299
    5TMC2     C14457   3.972   3.269  15.179 -0.0162 -0.8093 -0.6174
    5TMC2     O14458   4.022   3.189  15.096 -0.1935  0.5585 -0.0970
    5TMC2     H14459   4.214   3.155  15.226 -0.5332  0.6080  0.4631
    5TMC2    H114460   3.941   3.453  15.379 -1.4734 -1.5155  0.4394
    5TMC2    H214461   4.349   3.496  15.443  0.7991 -1.2391 -0.1033
    5TMC2    C714462   4.119   3.621  15.438 -0.0735 -0.0399 -0.0453
    5TMC2    C814463   4.435   3.273  15.320 -0.9569  0.1976 -0.3257
    5TMC2    O114464   4.167   3.674  15.535 -0.5010 -0.8290 -0.0676
    5TMC2    O214465   4.461   3.205  15.221 -0.1873  0.0691  0.1060
    5TMC2    O514466   4.521   3.328  15.403  0.4235 -0.1844  0.2505
    5TMC2    H514467   4.471   3.357  15.481  0.0270  3.8072 -1.4770
    6MPD2     C14468   3.632   3.438  14.816  0.1221 -0.0417  0.7072
    6MPD2    C114469   3.646   3.530  14.911  0.0935 -0.2993 -0.2201
    6MPD2    C214470   3.725   3.507  15.027 -0.0220  0.0404  0.4833
    6MPD2    C314471   3.799   3.389  15.042 -0.3273 -0.6026 -0.7795
    6MPD2    C414472   3.787   3.291  14.945 -0.2366  0.2850  0.0295
    6MPD2    C514473   3.698   3.318  14.844  0.3578 -0.6468  0.9326
    6MPD2     H14474   3.719   3.585  15.102  0.5247 -0.6841  1.2846
    6MPD2    H114475   3.838   3.196  14.962 -0.6617 -0.0886 -0.7743
    6MPD2    H214476   3.572   3.445  14.726 -0.6370 -0.1703  1.2058
    6MPD2    H314477   3.693   3.240  14.769  0.4371  0.3262 -0.0718
    6MPD2     N14478   3.872   3.364  15.163 -0.0295  0.5169 -0.1997
    6MPD2    H514479   3.863   3.429  15.241  1.9859 -1.1160  1.4107
    6MPD2    N114480   3.586   3.654  14.916 -0.1936  0.0731 -0.1750
    6MPD2    H714481   3.571   3.686  15.011 -0.8171 -0.0032 -0.2474
  945NH3     N114482   3.173   1.817   8.746 -0.2219  0.3629 -0.1097
  945NH3     H214483   3.249   1.849   8.805  0.2326  0.6630 -0.8590
  945NH3     H314484   3.097   1.846   8.806  0.6516  3.2216 -0.4089
  945NH3     H414485   3.180   1.717   8.760 -0.1550  0.7160  2.3113
  946SOD     NA14486   4.453   3.029  14.043  0.1765  0.3029  0.1320
  947SOD     NA14487   4.268   2.304  12.367  0.0384  0.0496  0.3481
  948SOD     NA14488   3.067   2.363  10.197  0.0436  0.2025  0.4283
  949SOD     NA14489   3.622   3.929   7.792 -0.4248  0.7554 -0.6344
  950SOD     NA14490   2.881   2.674   4.781  0.1956 -0.6795 -0.2694
  951SOD     NA14491   0.246   0.383   1.419  0.4308 -0.1844 -0.4438
  952SOD     NA14492   1.992   3.123  13.727  0.3219  0.2927 -0.6370
  953SOD     NA14493   4.319   0.587   7.935  0.0701 -0.6794  0.6982
  954SOL     OW14494   3.665   4.012   6.302 -0.0086 -0.5828  0.4103
  954SOL    HW114495   3.599   3.955   6.341 -1.1850  1.2028  1.0389
  954SOL    HW214496   3.673   3.980   6.213 -1.2030  2.2026 -0.6824
  955SOL     OW14497   3.519   0.380   4.119  0.4325  0.5454  0.2092
  955SOL    HW114498   3.532   0.418   4.207 -1.0370 -1.7428  1.4051
  955SOL    HW214499   3.611   0.364   4.097  0.0976  0.1726 -0.8942
  956SOL     OW14500   2.101   1.981   6.827  0.2246 -0.3141  0.0911
  956SOL    HW114501   2.061   1.922   6.890 -2.0529 -0.0174 -1.0428
  956SOL    HW214502   2.020   2.015   6.789  2.5046  1.8707 -2.8736
  957SOL     OW14503   2.768   2.367   0.640 -0.5263 -0.0174 -0.2549
  957SOL    HW114504   2.704   2.342   0.707 -1.7590 -0.1178 -1.4865
  957SOL    HW214505   2.722   2.445   0.612  0.3314  0.3106 -0.7579
  958SOL     OW14506   2.812   4.592   5.327  0.4445  0.0132  0.0040
  958SOL    HW114507   2.898   4.633   5.334  0.2680  0.4572 -0.4446
  958SOL    HW214508   2.765   4.670   5.297 -0.3719 -0.3242  0.3918
  959SOL     OW14509   4.694   0.538   4.249 -0.4656 -0.3395 -0.1554
  959SOL    HW114510   0.049   0.551   4.267 -0.7860 -0.4505  1.5988
  959SOL    HW214511   4.703   0.455   4.203 -0.2377  0.0317 -0.7857
  960SOL     OW14512   3.590   2.907   3.134  0.1760 -0.1349 -0.3018
  960SOL    HW114513   3.591   2.909   3.038 -1.8579 -1.2254 -0.3432
  960SOL    HW214514   3.658   2.843   3.157  1.4804  1.2061 -0.3830
  961SOL     OW14515   1.664   1.266  13.465 -0.2560 -0.1597  0.2257
  961SOL    HW114516   1.681   1.281  13.372 -1.5707 -0.8309 -0.1180
  961SOL    HW214517   1.569   1.261  13.455  0.2566 -0.6063 -4.1316
  962SOL     OW14518   0.929   1.812   4.817 -0.5562  0.1435 -0.3645
  962SOL    HW114519   0.864   1.798   4.885 -1.5890 -2.3174 -1.8674
  962SOL    HW214520   1.004   1.794   4.872 -1.3542 -0.5007  0.5014
  963SOL     OW14521   3.673   3.813   4.559 -0.1667  0.1899 -0.5508
  963SOL    HW114522   3.676   3.835   4.652  0.4370 -2.1190 -0.0406
  963SOL    HW214523   3.767   3.817   4.541 -0.2362 -1.9653 -1.4007
  964SOL     OW14524   4.636   1.306   9.747  0.3241  0.4594 -0.5286
  964SOL    HW114525   4.714   1.361   9.748  0.0447  0.8378  1.8895
  964SOL    HW214526   4.680   1.231   9.789 -3.8259 -2.2246 -1.0110
  965SOL     OW14527   2.104   2.690   5.986 -0.1290  0.2410  0.0182
  965SOL    HW114528   2.044   2.653   6.051  0.4015 -0.8560 -0.1083
  965SOL    HW214529   2.050   2.679   5.908 -0.0859  1.2287 -0.1489
  966SOL     OW14530   2.199   0.683   5.585  0.4745  0.2728 -0.0555
  966SOL    HW114531   2.139   0.647   5.651  1.2951 -2.3866 -0.7687
  966SOL    HW214532   2.245   0.603   5.560 -0.5221  0.0513 -1.1793
  967SOL     OW14533   4.403   1.056   1.471 -0.1724 -0.1822  0.5628
  967SOL    HW114534   4.473   1.114   1.442 -0.0249  0.0675  1.4237
  967SOL    HW214535   4.329   1.095   1.424  1.9951  3.6274  0.3360
  968SOL     OW14536   3.185   0.684  16.450 -0.5670  0.0513  0.0931
  968SOL    HW114537   3.178   0.732  16.532 -1.8497 -0.6871  0.4172
  968SOL    HW214538   3.183   0.592  16.477 -0.4907  0.0774  0.1904
  969SOL     OW14539   3.930   1.419  11.841 -0.0109 -0.4287  0.0372
  969SOL    HW114540   3.948   1.476  11.766 -0.1966  1.8822  1.7766
  969SOL    HW214541   3.970   1.336  11.814 -0.3138 -0.2594 -0.9582
  970SOL     OW14542   0.050   0.144   4.939 -0.0527 -0.0534 -0.7122
  970SOL    HW114543   0.122   0.131   4.876  0.1244 -1.1171 -0.2800
  970SOL    HW214544   0.072   0.234   4.964  2.8056 -1.1055  0.5748
  971SOL     OW14545   2.174   0.090   0.062 -0.0215 -0.3404 -0.5382
  971SOL    HW114546   2.122   0.116  17.735  2.4832 -0.5709 -2.3376
  971SOL    HW214547   2.166   4.732   0.063  4.3432 -0.7140 -0.4510
  972SOL     OW14548   0.285   4.405   3.374 -0.0314  0.5838 -0.3157
  972SOL    HW114549   0.202   4.444   3.401  0.7152  2.5420 -0.8418
  972SOL    HW214550   0.326   4.477   3.326  1.9109  0.4515  1.1766
  973SOL     OW14551   0.250   3.431   2.808  0.4112  0.2675 -0.0528
  973SOL    HW114552   0.345   3.422   2.798  0.6067  2.4788 -0.3783
  973SOL    HW214553   0.231   3.338   2.804 -1.0563  0.6441 -1.8952
  974SOL     OW14554   1.076   3.874   8.742  0.1415 -0.2684  0.0893
  974SOL    HW114555   1.030   3.908   8.666 -1.0689 -0.9395  0.5192
  974SOL    HW214556   1.079   3.947   8.803  1.3479 -0.2347 -0.0046
  975SOL     OW14557   3.660   1.811   4.766 -0.0156  0.3407  0.0031
  975SOL    HW114558   3.678   1.732   4.714 -1.1302 -0.2237  0.4800
  975SOL    HW214559   3.622   1.863   4.695  3.6633  0.2944 -2.0148
  976SOL     OW14560   3.632   3.046   8.447 -0.1934 -0.1058  0.1918
  976SOL    HW114561   3.656   2.963   8.489  1.2770 -0.8776 -2.1876
  976SOL    HW214562   3.678   3.048   8.363 -0.3516  1.0072  0.1371
  977SOL     OW14563   3.172   1.060   8.937  0.2979  0.0248 -0.3228
  977SOL    HW114564   3.257   1.082   8.901 -0.5593  0.6876 -1.9486
  977SOL    HW214565   3.161   1.124   9.007  1.6726  1.6587 -1.6113
  978SOL     OW14566   4.263   2.485   4.214  0.2424 -0.4468  0.0867
  978SOL    HW114567   4.189   2.503   4.272 -0.1896  2.2034 -1.2606
  978SOL    HW214568   4.318   2.556   4.246  1.7688 -0.9471 -1.4318
  979SOL     OW14569   2.811   4.511   4.029 -0.0726 -0.3535 -0.0205
  979SOL    HW114570   2.759   4.545   4.101 -1.5823 -0.4477 -1.0887
  979SOL    HW214571   2.903   4.515   4.055  0.1925 -0.0847 -1.0015
  980SOL     OW14572   0.331   4.399   2.097  0.3610 -0.0471 -0.4101
  980SOL    HW114573   0.260   4.335   2.088  0.5830 -0.1403 -1.5621
  980SOL    HW214574   0.284   4.482   2.089  0.0205 -0.0923  1.1437
  981SOL     OW14575   3.116   0.359   3.369 -0.2249  0.2820 -0.0370
  981SOL    HW114576   3.077   0.446   3.376  1.1335  0.5457  3.9328
  981SOL    HW214577   3.158   0.355   3.283  1.1595 -1.0328  0.7038
  982SOL     OW14578   2.349   0.832   1.038  0.0544  0.6450 -0.7970
  982SOL    HW114579   2.412   0.903   1.040  1.5949 -0.7119 -0.5595
  982SOL    HW214580   2.402   0.752   1.037  0.5384  0.9610 -0.0228
  983SOL     OW14581   2.439   2.148   6.327  0.3459  0.0183 -0.2778
  983SOL    HW114582   2.411   2.221   6.383  1.4441 -0.4300  0.8718
  983SOL    HW214583   2.471   2.192   6.249 -2.6508 -0.8952 -2.0201
  984SOL     OW14584   2.257   2.310   7.761  0.5131 -0.3263 -0.5381
  984SOL    HW114585   2.351   2.301   7.773  0.7591 -0.0301 -2.3656
  984SOL    HW214586   2.252   2.373   7.690 -0.3001 -0.2475 -0.4136
  985SOL     OW14587   3.550   3.623   6.129  0.0127  0.1020 -0.3205
  985SOL    HW114588   3.461   3.614   6.095  0.3378 -0.3223 -1.0638
  985SOL    HW214589   3.534   3.586   6.216 -0.1642  1.6287  0.3005
  986SOL     OW14590   4.144   4.164   4.537  0.1279  0.1809  0.7225
  986SOL    HW114591   4.226   4.210   4.558  1.4164 -0.6235 -2.5206
  986SOL    HW214592   4.147   4.155   4.442  1.6527 -0.2959  0.8206
  987SOL     OW14593   3.192   4.685  14.158 -0.7150 -0.2026 -0.1221
  987SOL    HW114594   3.199   4.614  14.095  0.1246  1.1801 -1.5828
  987SOL    HW214595   3.119   4.664  14.216  0.4072 -0.7940  1.0824
  988SOL     OW14596   2.709   3.743   5.209  0.6144  0.2330 -0.1765
  988SOL    HW114597   2.674   3.748   5.298  0.7111  2.6860 -0.2914
  988SOL    HW214598   2.699   3.833   5.177 -0.9471  0.1282  0.0153
  989SOL     OW14599   3.920   2.082   5.024 -0.1843  0.2926 -0.2634
  989SOL    HW114600   3.853   2.020   5.053  0.2662 -0.1729 -0.2267
  989SOL    HW214601   3.970   2.093   5.105  1.3741  1.3590 -1.3715
  990SOL     OW14602   1.428   0.083   3.793 -0.0668 -0.6165 -0.6734
  990SOL    HW114603   1.402   0.159   3.844 -0.2439 -0.9905 -0.2084
  990SOL    HW214604   1.430   0.012   3.857 -2.9422 -0.9162 -0.9259
  991SOL     OW14605   3.752   3.146   4.535  0.1269  0.0301  0.1089
  991SOL    HW114606   3.750   3.161   4.630  1.2240 -1.0367  0.3012
  991SOL    HW214607   3.670   3.190   4.513 -1.2185 -1.2757  2.3970
  992SOL     OW14608   4.712   3.463   4.828 -0.0821 -0.5767  0.3403
  992SOL    HW114609   0.020   3.403   4.771 -0.3757 -0.5503  0.0773
  992SOL    HW214610   0.042   3.497   4.887 -0.3956  0.5232  0.0827
  993SOL     OW14611   0.527   4.220   3.837  0.5693 -0.1654 -0.2155
  993SOL    HW114612   0.499   4.143   3.886  2.0656 -0.0684  0.8053
  993SOL    HW214613   0.512   4.192   3.747 -0.7103 -1.6375  0.4624
  994SOL     OW14614   3.071   3.730   2.273  0.3903  0.1359 -0.2513
  994SOL    HW114615   3.061   3.662   2.207 -3.6638 -0.5028  1.0677
  994SOL    HW214616   2.981   3.742   2.301  0.3524  1.2257 -0.8239
  995SOL     OW14617   3.569   1.331   8.578 -0.0254  0.0397  0.0066
  995SOL    HW114618   3.486   1.369   8.605 -0.5377 -1.7664  0.9690
  995SOL    HW214619   3.616   1.407   8.544 -0.3221  0.5543  0.7710
  996SOL     OW14620   0.067   2.827  10.298  0.2526 -0.0482  0.0051
  996SOL    HW114621   0.047   2.816  10.205  2.4062 -0.9026 -0.3591
  996SOL    HW214622   0.062   2.734  10.320  0.3922 -0.5805 -2.2009
  997SOL     OW14623   4.564   1.549   3.590 -0.2219 -0.2606  0.3218
  997SOL    HW114624   4.657   1.532   3.574 -0.4795 -1.7246  0.4573
  997SOL    HW214625   4.520   1.467   3.609  0.5260 -0.7122  0.1148
  998SOL     OW14626   1.087   0.184   5.464  0.2589 -1.1436 -0.1359
  998SOL    HW114627   1.068   0.111   5.405 -3.1937 -0.4834  0.1784
  998SOL    HW214628   0.997   0.216   5.472  0.9332  0.8066 -0.2378
  999SOL     OW14629   2.901   4.418   0.289 -0.4187  0.4641  0.0393
  999SOL    HW114630   2.964   4.491   0.294  1.8322 -1.2611 -2.6760
  999SOL    HW214631   2.888   4.394   0.380  0.2877 -0.2657 -0.0496
 1000SOL     OW14632   2.475   1.756   5.261  0.2774 -0.5119  0.1347
 1000SOL    HW114633   2.564   1.789   5.248 -0.9943  1.0817 -4.4026
 1000SOL    HW214634   2.497   1.664   5.273 -1.6128 -0.7997  1.3860
 1001SOL     OW14635   4.135   0.396   4.157 -0.6266 -0.2536  0.0625
 1001SOL    HW114636   4.208   0.450   4.128 -0.2629  0.7540  2.8455
 1001SOL    HW214637   4.174   0.331   4.216 -1.1346  0.7661  1.5059
 1002SOL     OW14638   3.643   0.402  15.201 -0.1597 -0.0704  0.2684
 1002SOL    HW114639   3.588   0.368  15.130  1.0729 -0.9268 -0.3062
 1002SOL    HW214640   3.703   0.461  15.155 -0.4689  0.1177  0.1052
 1003SOL     OW14641   3.042   0.631  10.547  0.3150  0.8435  0.0501
 1003SOL    HW114642   3.110   0.676  10.497  0.3785 -0.1048 -0.7094
 1003SOL    HW214643   3.096   0.568  10.596 -0.9235 -1.3654 -1.4401
 1004SOL     OW14644   0.824   2.926   6.939  0.0809 -0.2763 -0.5253
 1004SOL    HW114645   0.843   3.011   6.899 -0.4130  0.9088  1.7257
 1004SOL    HW214646   0.819   2.941   7.033 -1.9360 -0.4940 -0.5977
 1005SOL     OW14647   2.451   2.744   7.227  0.2586 -0.0269 -0.1594
 1005SOL    HW114648   2.427   2.654   7.249 -1.4280  0.6723  0.8439
 1005SOL    HW214649   2.467   2.745   7.133 -2.0042  0.2331 -0.5341
 1006SOL     OW14650   2.923   3.101  15.637  0.0598 -0.2100  0.1790
 1006SOL    HW114651   2.919   3.197  15.639 -1.6735 -0.3029  1.6821
 1006SOL    HW214652   3.002   3.083  15.587 -0.0439  0.6404 -0.2886
 1007SOL     OW14653   0.768   3.559   1.526  0.0518 -1.0936  0.2582
 1007SOL    HW114654   0.734   3.505   1.455  0.7568 -1.0977 -0.0838
 1007SOL    HW214655   0.765   3.644   1.482  2.5372 -0.4167  1.3696
 1008SOL     OW14656   2.512   3.957  14.157 -0.0708  0.0844 -0.0632
 1008SOL    HW114657   2.506   3.881  14.216  2.8174  1.1426  1.6364
 1008SOL    HW214658   2.485   3.930  14.070 -1.7923 -1.1381  0.8467
 1009SOL     OW14659   2.923   3.931   2.031  0.7129  0.3058 -0.5537
 1009SOL    HW114660   2.840   3.888   2.047  1.4102 -0.1688  1.7535
 1009SOL    HW214661   2.974   3.863   1.987  0.2436  0.7050 -1.7194
 1010SOL     OW14662   1.507   4.236   1.884  0.3512  0.2157 -0.4149
 1010SOL    HW114663   1.540   4.301   1.946  1.0545 -1.7102  1.2360
 1010SOL    HW214664   1.418   4.223   1.917 -0.5205 -0.1173 -2.9138
 1011SOL     OW14665   1.246   3.967   8.484  0.0973  0.1824  0.0914
 1011SOL    HW114666   1.204   3.942   8.402 -1.2474  0.8876  0.5729
 1011SOL    HW214667   1.188   3.938   8.554  0.0429  1.2979  0.5120
 1012SOL     OW14668   0.153   3.378   2.296 -0.2123 -0.1739  0.5557
 1012SOL    HW114669   0.134   3.295   2.252 -1.0709 -0.1139  0.8114
 1012SOL    HW214670   0.247   3.373   2.279 -0.3313  3.6615 -1.2745
 1013SOL     OW14671   3.980   0.712  12.834 -0.2795  0.3175 -0.5563
 1013SOL    HW114672   3.888   0.688  12.844 -0.0532 -0.7045 -0.9007
 1013SOL    HW214673   4.018   0.624  12.833  0.7961  0.7847 -0.9022
 1014SOL     OW14674   0.890   0.297   2.125 -0.2181  0.9085  0.3378
 1014SOL    HW114675   0.874   0.390   2.142  0.4057  1.1093 -0.1845
 1014SOL    HW214676   0.817   0.253   2.168 -0.5542 -2.3209 -3.4855
 1015SOL     OW14677   4.296   3.451   8.310 -0.8377  0.1456 -0.1730
 1015SOL    HW114678   4.358   3.427   8.241 -3.4056 -1.1037 -2.0522
 1015SOL    HW214679   4.221   3.397   8.283 -0.6411 -0.6345  0.8472
 1016SOL     OW14680   3.058   0.634   4.001 -0.1242  0.2175 -0.1954
 1016SOL    HW114681   3.114   0.604   3.930  0.3835 -0.1025  0.3346
 1016SOL    HW214682   3.039   0.723   3.974 -2.4703 -0.9939 -2.5194
 1017SOL     OW14683   4.615   3.553  10.267 -0.1652 -0.2942 -0.5684
 1017SOL    HW114684   4.596   3.646  10.257  0.7985  0.0910  1.1770
 1017SOL    HW214685   4.584   3.545  10.358 -1.0102 -1.4105 -0.9557
 1018SOL     OW14686   2.147   0.640   8.499  0.2531 -0.4027  0.2024
 1018SOL    HW114687   2.155   0.736   8.495 -0.3006 -0.4113 -1.2525
 1018SOL    HW214688   2.149   0.622   8.405 -1.0802 -0.3555  0.1727
 1019SOL     OW14689   0.056   2.858   4.253  1.1438 -0.7170  0.0267
 1019SOL    HW114690   4.733   2.790   4.224 -1.3587  2.0246 -1.2112
 1019SOL    HW214691   0.066   2.831   4.344 -1.6598 -0.2093  0.4873
 1020SOL     OW14692   3.551   0.117   8.008 -0.3336 -0.2095  0.4894
 1020SOL    HW114693   3.491   0.048   8.037 -2.0081  0.7267 -0.7031
 1020SOL    HW214694   3.612   0.071   7.950 -0.5779 -0.3700  0.3589
 1021SOL     OW14695   3.330   4.608   3.723 -0.0910  0.5254 -0.2219
 1021SOL    HW114696   3.276   4.635   3.797 -0.4189 -2.0256  0.4531
 1021SOL    HW214697   3.417   4.612   3.763 -0.3324  0.5467  0.2975
 1022SOL     OW14698   1.867   2.797   8.700  0.8600 -0.1564  0.6635
 1022SOL    HW114699   1.843   2.775   8.610  0.0443 -0.6236  0.9977
 1022SOL    HW214700   1.921   2.875   8.684  0.8967 -0.0637  1.2408
 1023SOL     OW14701   1.833   0.309  17.203  0.0450 -0.0548  0.0799
 1023SOL    HW114702   1.751   0.300  17.155  1.0641 -2.0294 -1.2920
 1023SOL    HW214703   1.828   0.222  17.243 -1.5407  1.0710  2.3678
 1024SOL     OW14704   3.735   4.384   1.933  0.0054 -0.0945  0.0466
 1024SOL    HW114705   3.806   4.347   1.881  2.1350 -0.4771  3.1854
 1024SOL    HW214706   3.766   4.474   1.949 -0.3942 -0.1717  1.2820
 1025SOL     OW14707   1.018   3.901  10.967  0.4168 -0.2125 -0.6830
 1025SOL    HW114708   1.078   3.832  10.997  1.2897  0.1270 -1.6511
 1025SOL    HW214709   1.079   3.965  10.932  1.3880 -0.6548  0.1872
 1026SOL     OW14710   4.014   3.589  13.430  1.1675  0.2596 -0.1445
 1026SOL    HW114711   4.054   3.516  13.479 -1.1142 -0.6405  0.3753
 1026SOL    HW214712   3.927   3.587  13.470  0.3233  0.1916 -1.9565
 1027SOL     OW14713   0.537   3.733  16.542 -0.4993 -0.0837 -0.1140
 1027SOL    HW114714   0.485   3.812  16.522  0.2368  0.7145  1.1238
 1027SOL    HW214715   0.616   3.778  16.570 -0.0999 -0.8816  0.0340
 1028SOL     OW14716   4.028   4.503   8.478  0.0749  0.1345  0.1080
 1028SOL    HW114717   3.945   4.551   8.484  0.2343  0.3821  0.3399
 1028SOL    HW214718   4.090   4.561   8.522  0.4990  0.8253 -1.3953
 1029SOL     OW14719   4.382   2.751   6.024  0.1338  0.2386 -0.2337
 1029SOL    HW114720   4.405   2.761   6.117 -1.2550  1.6288 -0.0423
 1029SOL    HW214721   4.290   2.775   6.024 -0.0882 -0.6578 -2.4636
 1030SOL     OW14722   1.090   0.681  10.096 -0.0135  0.0362 -0.3072
 1030SOL    HW114723   1.044   0.747  10.148  2.1307  0.3542  1.1473
 1030SOL    HW214724   1.179   0.710  10.113  0.2281 -1.3250  0.6755
 1031SOL     OW14725   2.512   0.668  11.700 -0.1033 -0.6726 -0.1944
 1031SOL    HW114726   2.517   0.610  11.624 -1.1710 -0.3375 -0.5285
 1031SOL    HW214727   2.562   0.738  11.659 -2.4732  0.7170 -0.7007
 1032SOL     OW14728   1.742   3.038   2.037 -0.4356 -0.1571 -0.1213
 1032SOL    HW114729   1.750   3.020   2.131  0.0276  0.2275 -0.0914
 1032SOL    HW214730   1.649   3.022   2.021 -1.4267  2.7668  2.6417
 1033SOL     OW14731   3.706   1.208   8.790  0.0724 -0.2305 -0.1354
 1033SOL    HW114732   3.654   1.226   8.712  0.1021  1.2823  0.1921
 1033SOL    HW214733   3.782   1.160   8.755  0.7172  0.3903  0.4042
 1034SOL     OW14734   4.547   2.379   6.505 -0.0131 -0.1996  0.3247
 1034SOL    HW114735   4.492   2.335   6.570  2.0972 -1.0650  1.5334
 1034SOL    HW214736   4.566   2.458   6.556  0.8003 -1.1175  1.4458
 1035SOL     OW14737   2.068   1.941   2.970  0.6131 -0.1204  0.4893
 1035SOL    HW114738   2.089   1.961   2.879 -2.4487 -0.0645 -0.2139
 1035SOL    HW214739   1.991   1.998   2.978  0.5294 -0.1132 -0.3485
 1036SOL     OW14740   3.877   0.171   3.389  0.5354  0.4434 -0.8568
 1036SOL    HW114741   3.807   0.152   3.326 -1.3498  0.6893  1.1490
 1036SOL    HW214742   3.825   0.233   3.440  0.8992 -0.3763  0.5227
 1037SOL     OW14743   0.694   0.340  11.898  0.3699 -0.7054 -0.6591
 1037SOL    HW114744   0.721   0.376  11.813 -0.0996  1.1866 -0.0058
 1037SOL    HW214745   0.772   0.299  11.934  0.4077 -0.7510 -0.7901
 1038SOL     OW14746   1.684   0.648  11.079  0.3664 -0.4823  0.2288
 1038SOL    HW114747   1.626   0.626  11.006 -0.0693 -2.1904  1.0732
 1038SOL    HW214748   1.715   0.564  11.114  1.5658 -0.0295  0.2471
 1039SOL     OW14749   3.647   1.721   7.428  0.1879  0.8476 -0.4296
 1039SOL    HW114750   3.604   1.804   7.449  1.2509  0.8428  1.7132
 1039SOL    HW214751   3.624   1.724   7.335  1.2279  1.3669 -0.6589
 1040SOL     OW14752   2.994   3.747  15.572  0.2789  0.3866  0.2040
 1040SOL    HW114753   2.962   3.657  15.563  0.4466  0.3061  0.4324
 1040SOL    HW214754   2.957   3.788  15.494  1.3809  0.4254 -0.2900
 1041SOL     OW14755   0.648   0.851   4.498 -0.4618  0.2193 -0.4318
 1041SOL    HW114756   0.590   0.913   4.543  0.8732  1.0535  0.1204
 1041SOL    HW214757   0.655   0.781   4.563  1.3310  2.0866  1.3878
 1042SOL     OW14758   0.420   1.324   1.930  0.0862 -0.2467  0.7423
 1042SOL    HW114759   0.401   1.284   1.845 -2.8393  1.3468  0.6454
 1042SOL    HW214760   0.513   1.343   1.916  0.3467 -1.1725  1.2540
 1043SOL     OW14761   1.538   1.937   9.043  0.1656 -0.1036 -0.4703
 1043SOL    HW114762   1.489   1.901   8.969 -0.6725 -0.9651  0.4960
 1043SOL    HW214763   1.566   1.852   9.078  0.3155  0.3645  0.5478
 1044SOL     OW14764   0.106   1.545   3.545  0.4526  0.0785 -0.4063
 1044SOL    HW114765   0.199   1.555   3.562  0.6781 -3.2386  0.3497
 1044SOL    HW214766   0.094   1.479   3.477 -0.3936  0.4115 -0.5882
 1045SOL     OW14767   1.963   2.629   1.649 -0.1277  0.1430  0.2045
 1045SOL    HW114768   2.018   2.559   1.614 -1.5234 -1.0275  0.3648
 1045SOL    HW214769   1.878   2.590   1.629 -0.9213  1.4419  1.0278
 1046SOL     OW14770   0.006   3.374   7.997  0.3377  0.4137  0.6576
 1046SOL    HW114771   0.001   3.450   7.940 -0.1547  0.1220  0.3114
 1046SOL    HW214772   4.726   3.293   7.949  1.8783  0.5041 -0.0609
 1047SOL     OW14773   0.782   2.317  15.507 -0.3037 -0.2488  0.7576
 1047SOL    HW114774   0.710   2.259  15.483 -0.6487 -0.9723  3.5038
 1047SOL    HW214775   0.858   2.273  15.469 -0.5111 -0.3585  0.4720
 1048SOL     OW14776   2.810   2.306   3.094 -0.0048 -0.1213  0.3277
 1048SOL    HW114777   2.812   2.216   3.060 -3.8090  0.1644 -0.6987
 1048SOL    HW214778   2.727   2.332   3.053  0.5853 -0.5064 -1.1063
 1049SOL     OW14779   1.568   3.356   6.482 -0.0001 -0.4801  0.1043
 1049SOL    HW114780   1.604   3.375   6.396  1.5399 -0.7890  0.6880
 1049SOL    HW214781   1.623   3.281   6.502 -0.7517 -0.3469  2.6579
 1050SOL     OW14782   4.680   0.736   4.037 -0.1791 -0.1371 -0.3092
 1050SOL    HW114783   0.020   0.786   4.062  0.2985  0.0896 -2.2630
 1050SOL    HW214784   4.689   0.653   4.085  1.7251  2.1311  3.2889
 1051SOL     OW14785   4.160   2.045   7.667 -0.6792 -0.1537  0.1610
 1051SOL    HW114786   4.135   2.138   7.666  2.6708  0.7473 -1.0937
 1051SOL    HW214787   4.195   2.032   7.579 -2.8038  0.7211 -0.8242
 1052SOL     OW14788   0.348   0.448   1.973 -0.7288  0.0811 -0.0203
 1052SOL    HW114789   0.377   0.404   2.054  1.8594 -1.0660 -1.5454
 1052SOL    HW214790   0.357   0.375   1.911 -3.5575 -0.6955  0.4737
 1053SOL     OW14791   3.405   1.156   8.864  0.2402 -0.4290 -0.2330
 1053SOL    HW114792   3.379   1.231   8.917  1.0602 -1.1460  1.1669
 1053SOL    HW214793   3.483   1.126   8.912  0.2807 -0.1483 -0.1229
 1054SOL     OW14794   4.239   0.840  12.178  0.1788 -0.4465  0.0552
 1054SOL    HW114795   4.324   0.884  12.173  0.5739 -1.2508 -0.2539
 1054SOL    HW214796   4.249   0.764  12.121  0.7482  0.8644 -1.5796
 1055SOL     OW14797   3.783   3.884   3.580 -0.3323 -0.0011  0.2172
 1055SOL    HW114798   3.814   3.971   3.555 -0.0810 -0.4451 -0.9774
 1055SOL    HW214799   3.826   3.824   3.520  1.1796  0.3422  0.9689
 1056SOL     OW14800   4.495   3.117   2.771 -0.3159 -0.2483  0.0152
 1056SOL    HW114801   4.455   3.203   2.763  1.4402  0.4767 -0.9136
 1056SOL    HW214802   4.535   3.103   2.686 -0.4687 -3.0401  0.4050
 1057SOL     OW14803   2.975   1.601  11.924  0.0416  0.4124  0.0363
 1057SOL    HW114804   2.890   1.645  11.933 -0.1799  0.1408 -0.7288
 1057SOL    HW214805   2.971   1.525  11.981  0.5767  0.3646  0.0085
 1058SOL     OW14806   3.503   4.590   9.729  0.5833  0.3755 -0.3658
 1058SOL    HW114807   3.488   4.504   9.768  0.7970  0.1878 -0.6955
 1058SOL    HW214808   3.416   4.629   9.739  1.2631  1.8531 -0.2356
 1059SOL     OW14809   4.031   3.501   2.990  0.6689 -0.0605  1.0021
 1059SOL    HW114810   3.952   3.508   2.937  1.6736 -2.9810 -0.8327
 1059SOL    HW214811   4.008   3.418   3.032 -2.7849  0.2120 -0.3619
 1060SOL     OW14812   0.839   4.357   1.153  0.0033  0.8924 -0.0126
 1060SOL    HW114813   0.845   4.262   1.148 -0.2988  0.8412  0.6806
 1060SOL    HW214814   0.900   4.384   1.084  1.0493  1.7032  1.2257
 1061SOL     OW14815   4.032   4.558  17.250 -0.3877  0.2324  0.4158
 1061SOL    HW114816   3.992   4.544  17.336  2.1749 -0.9758  1.3928
 1061SOL    HW214817   3.981   4.499  17.195  0.0161 -1.2878  1.6774
 1062SOL     OW14818   0.182   1.456  14.165 -0.1945  0.1150  0.4252
 1062SOL    HW114819   0.129   1.394  14.215 -3.7984  0.2515 -3.1194
 1062SOL    HW214820   0.268   1.455  14.206 -0.8104  1.1086  1.7244
 1063SOL     OW14821   1.585   3.481   4.654  0.0122 -0.4258  0.0885
 1063SOL    HW114822   1.665   3.497   4.603  0.3162  0.1885  0.7612
 1063SOL    HW214823   1.618   3.462   4.742  1.2715 -1.7741 -0.6686
 1064SOL     OW14824   0.259   1.477   4.023  0.0374  0.0082 -0.0465
 1064SOL    HW114825   0.238   1.393   3.982 -1.7555  0.8216 -0.7618
 1064SOL    HW214826   0.201   1.531   3.969 -0.3562  2.9097  3.2959
 1065SOL     OW14827   4.268   1.603   2.587 -0.0311  0.0341  0.1469
 1065SOL    HW114828   4.253   1.697   2.601  1.3930  0.4000 -0.8421
 1065SOL    HW214829   4.246   1.567   2.673  2.8669 -0.9418  0.4892
 1066SOL     OW14830   0.138   2.057  11.409 -0.0317  0.2356  0.2412
 1066SOL    HW114831   0.150   2.033  11.501  0.4706 -0.5703 -0.0416
 1066SOL    HW214832   0.213   2.115  11.394 -1.3173  0.9057 -3.5324
 1067SOL     OW14833   3.343   3.121   7.793  0.1433 -0.4397 -0.0225
 1067SOL    HW114834   3.412   3.178   7.827  1.2875 -2.3147  0.8429
 1067SOL    HW214835   3.303   3.103   7.878 -0.3333  1.8053  0.2220
 1068SOL     OW14836   1.836   3.481   4.561  0.4441 -0.6326  0.0774
 1068SOL    HW114837   1.865   3.563   4.521 -2.3547  2.1500  3.7128
 1068SOL    HW214838   1.885   3.494   4.642 -1.1037 -4.2297  1.5740
 1069SOL     OW14839   1.646   0.177   8.362  0.3214  0.2986  0.0722
 1069SOL    HW114840   1.597   0.098   8.385  0.3514  0.6676  1.3969
 1069SOL    HW214841   1.590   0.208   8.291 -1.7573 -3.3111  0.1321
 1070SOL     OW14842   3.089   1.643   1.849 -0.3647 -0.2018  0.2820
 1070SOL    HW114843   3.065   1.684   1.933 -0.0682  0.5621 -0.0070
 1070SOL    HW214844   3.182   1.666   1.843 -0.2488 -0.8123 -0.1967
 1071SOL     OW14845   0.953   0.427  12.955 -0.3508  0.3674  0.8048
 1071SOL    HW114846   1.046   0.418  12.975 -0.8651 -2.5027  1.8896
 1071SOL    HW214847   0.937   0.336  12.977 -0.4927 -0.1004 -1.2796
 1072SOL     OW14848   1.465   3.735   9.593 -0.4517 -0.0719  0.5065
 1072SOL    HW114849   1.388   3.723   9.648 -0.5276 -2.2565 -0.0524
 1072SOL    HW214850   1.425   3.742   9.506 -0.6481 -1.4515  0.4835
 1073SOL     OW14851   3.227   0.682   0.150  0.4185 -0.4768 -0.1566
 1073SOL    HW114852   3.168   0.705   0.079 -0.2350  3.3429  1.6129
 1073SOL    HW214853   3.275   0.604   0.123 -0.2023 -0.5851 -0.9183
 1074SOL     OW14854   4.180   3.138   5.207  0.0120  0.3753  0.1145
 1074SOL    HW114855   4.200   3.092   5.125 -2.1098 -2.7460  1.3489
 1074SOL    HW214856   4.269   3.144   5.241  0.5099  1.8538 -1.4821
 1075SOL     OW14857   4.696   1.899   3.017  0.1728 -0.0840  0.3655
 1075SOL    HW114858   4.702   1.982   2.969 -2.8367 -1.6018 -2.5748
 1075SOL    HW214859   4.719   1.823   2.964  1.6606  2.0977 -2.0881
 1076SOL     OW14860   3.265   4.242   2.010 -0.0805  0.1977 -0.0632
 1076SOL    HW114861   3.311   4.220   1.929  1.0022  0.0065  0.6159
 1076SOL    HW214862   3.280   4.177   2.079  1.5085  1.9897  1.2803
 1077SOL     OW14863   4.490   3.137  11.836  0.6145  0.0242 -0.3758
 1077SOL    HW114864   4.523   3.106  11.921  0.0522 -0.8782 -0.4814
 1077SOL    HW214865   4.445   3.062  11.796  2.8557  0.1914 -3.1498
 1078SOL     OW14866   0.191   1.801   4.661 -0.8527 -0.0436  0.2450
 1078SOL    HW114867   0.268   1.854   4.641  0.1023 -1.2812  0.6834
 1078SOL    HW214868   0.118   1.859   4.641 -0.2815  0.5614 -0.0972
 1079SOL     OW14869   2.389   2.255   1.552  0.0175 -0.3626  0.2266
 1079SOL    HW114870   2.343   2.339   1.547 -2.2981 -1.5688  1.1250
 1079SOL    HW214871   2.477   2.259   1.515  0.3031  0.3877  0.9726
 1080SOL     OW14872   2.188   4.241   5.201  0.2948  0.2803  0.2334
 1080SOL    HW114873   2.249   4.294   5.150  1.9397  0.7141  2.6555
 1080SOL    HW214874   2.197   4.285   5.286  1.8145  0.3499  0.0286
 1081SOL     OW14875   1.000   3.634   7.182 -0.3737 -0.6613 -0.2832
 1081SOL    HW114876   0.967   3.724   7.188 -3.0603 -1.6589 -0.0496
 1081SOL    HW214877   0.954   3.594   7.256  1.4053 -0.8635  0.7101
 1082SOL     OW14878   3.695   3.311   5.229  0.6284  0.2959 -0.2912
 1082SOL    HW114879   3.652   3.244   5.176  1.1722 -0.2790 -0.0014
 1082SOL    HW214880   3.759   3.260   5.279 -1.7265 -0.7637  1.5834
 1083SOL     OW14881   1.872   4.012   9.332 -0.1343 -0.4143 -0.5355
 1083SOL    HW114882   1.844   4.008   9.424 -1.6666 -1.0788 -1.0256
 1083SOL    HW214883   1.804   3.964   9.285 -0.6395 -2.2363  2.0295
 1084SOL     OW14884   1.163   1.977   3.402  0.9590  0.1081 -0.1005
 1084SOL    HW114885   1.149   1.893   3.358 -1.2843  0.1981  0.4611
 1084SOL    HW214886   1.169   1.945   3.491  3.4735 -3.0331 -1.4047
 1085SOL     OW14887   4.051   1.987   2.406 -0.3216 -0.8687 -0.0725
 1085SOL    HW114888   4.055   1.931   2.329 -0.5442 -0.2418 -0.5405
 1085SOL    HW214889   4.126   2.044   2.389 -1.2101  0.3810  0.1626
 1086SOL     OW14890   0.214   2.837  17.571  0.1551  0.0703 -0.4582
 1086SOL    HW114891   0.266   2.907  17.532  0.0808  0.9840  1.1196
 1086SOL    HW214892   0.269   2.758  17.570  1.8249  1.2151  0.7357
 1087SOL     OW14893   2.041   1.004   4.572  0.0426  0.1038  0.4230
 1087SOL    HW114894   2.098   0.931   4.549  1.2037  0.4586  2.2051
 1087SOL    HW214895   2.111   1.069   4.572  1.1252 -1.0744  0.9262
 1088SOL     OW14896   1.156   1.436  16.718  0.0032 -0.4538 -0.4124
 1088SOL    HW114897   1.226   1.386  16.760  0.1222 -0.2616 -0.3830
 1088SOL    HW214898   1.201   1.484  16.648 -2.0101 -1.6148 -2.5323
 1089SOL     OW14899   2.337   3.395   0.440  0.0374 -0.0486  0.1413
 1089SOL    HW114900   2.425   3.370   0.413 -0.1965 -0.5603 -0.1354
 1089SOL    HW214901   2.357   3.400   0.534 -1.3997  0.5284  0.4153
 1090SOL     OW14902   3.281   3.229   8.209  0.3370  0.9832 -0.1864
 1090SOL    HW114903   3.236   3.173   8.147  0.2965  0.8658 -0.0519
 1090SOL    HW214904   3.243   3.198   8.292 -2.9137 -0.4193 -2.2040
 1091SOL     OW14905   4.054   0.707   3.774 -0.2898 -0.1145  0.3407
 1091SOL    HW114906   3.987   0.774   3.761  0.3080  0.5739  0.7522
 1091SOL    HW214907   4.130   0.750   3.815 -0.9411 -1.0394  2.5190
 1092SOL     OW14908   1.681   1.799   3.954  0.0220 -0.0879  0.5494
 1092SOL    HW114909   1.679   1.797   4.049  1.2824 -0.9970  0.5678
 1092SOL    HW214910   1.656   1.890   3.939  1.9011 -0.0502 -2.3359
 1093SOL     OW14911   3.005   1.908  15.871 -0.1577 -0.1274  0.3726
 1093SOL    HW114912   2.912   1.912  15.895 -0.3051 -1.5897  0.0531
 1093SOL    HW214913   3.046   1.884  15.954 -0.3925 -2.8791 -0.2929
 1094SOL     OW14914   4.163   4.465   4.432  0.5400  0.1077 -0.2789
 1094SOL    HW114915   4.133   4.550   4.398 -0.2654 -0.5987 -1.3160
 1094SOL    HW214916   4.196   4.422   4.353  0.9757  0.0788 -0.0828
 1095SOL     OW14917   1.145   0.707   6.845  0.1303  0.5872 -0.3268
 1095SOL    HW114918   1.058   0.744   6.861  0.2217  0.8752 -0.5039
 1095SOL    HW214919   1.194   0.743   6.919  1.0869  0.1696 -0.7594
 1096SOL     OW14920   1.033   0.700   4.430  0.1806  0.4671 -0.9254
 1096SOL    HW114921   1.006   0.709   4.521  0.9022 -0.5784 -0.6145
 1096SOL    HW214922   1.034   0.791   4.398 -0.3315  1.5277  2.0756
 1097SOL     OW14923   3.191   3.637   6.379  0.3955  0.2029 -0.0182
 1097SOL    HW114924   3.126   3.653   6.448  0.2838  2.2062 -0.5930
 1097SOL    HW214925   3.141   3.610   6.303  1.5715 -2.3140  0.0842
 1098SOL     OW14926   4.737   4.079   1.974  0.2095  0.7796  0.0647
 1098SOL    HW114927   0.030   4.060   1.885 -2.3684 -2.4545 -0.1502
 1098SOL    HW214928   4.713   3.990   1.999  1.9506  0.5569  0.9616
 1099SOL     OW14929   1.644   0.800   1.647 -0.2448 -0.0950  0.3810
 1099SOL    HW114930   1.643   0.842   1.733 -0.1474  0.0479  0.3126
 1099SOL    HW214931   1.668   0.712   1.675  4.3672  0.8927 -0.5593
 1100SOL     OW14932   2.817   1.589  11.565  0.0730  0.0911 -0.0325
 1100SOL    HW114933   2.736   1.584  11.616  0.7522 -0.6610  0.9744
 1100SOL    HW214934   2.882   1.552  11.624 -2.3900 -0.7035  2.1944
 1101SOL     OW14935   0.697   3.534   9.520  0.0631 -0.0132  0.0863
 1101SOL    HW114936   0.737   3.598   9.579 -4.9352  2.2683  0.9997
 1101SOL    HW214937   0.718   3.582   9.440 -0.5567  2.1226  1.2304
 1102SOL     OW14938   1.340   4.180   9.190  0.1217  0.6056 -0.3643
 1102SOL    HW114939   1.370   4.146   9.106 -2.0233 -0.3509 -0.7382
 1102SOL    HW214940   1.416   4.166   9.246 -0.5157  0.7941  0.5442
 1103SOL     OW14941   3.151   2.834   2.891 -0.4067 -0.1350  0.1708
 1103SOL    HW114942   3.186   2.848   2.803  1.3144 -0.5304  0.7854
 1103SOL    HW214943   3.225   2.805   2.944  0.3524  1.3699 -0.0788
 1104SOL     OW14944   0.621   3.361   6.553 -0.3283  0.3655 -0.1472
 1104SOL    HW114945   0.652   3.351   6.463 -2.1183 -0.9738 -0.6138
 1104SOL    HW214946   0.624   3.456   6.561  1.1686  0.2345  0.9317
 1105SOL     OW14947   1.049   2.835   3.942 -0.1575 -0.6266  0.8114
 1105SOL    HW114948   1.042   2.930   3.943 -1.6385 -0.7413 -0.3311
 1105SOL    HW214949   1.144   2.829   3.957 -0.2019  1.1630  1.9129
 1106SOL     OW14950   3.395   1.972   3.628  1.0082  0.7393  0.0590
 1106SOL    HW114951   3.307   1.992   3.599  0.7241  0.0449  0.4542
 1106SOL    HW214952   3.423   2.047   3.681  0.5862 -0.1099  1.4749
 1107SOL     OW14953   2.944   0.209  11.225 -0.2288 -0.4499 -0.4794
 1107SOL    HW114954   2.946   0.165  11.140  0.0957 -0.6909 -0.3430
 1107SOL    HW214955   3.004   0.159  11.280 -0.1993 -0.9319 -0.9500
 1108SOL     OW14956   3.476   0.659   3.002  0.0680 -0.2317  0.7420
 1108SOL    HW114957   3.494   0.601   2.928 -0.4813 -1.3159  1.4558
 1108SOL    HW214958   3.467   0.599   3.077  2.7467 -2.3925 -0.6588
 1109SOL     OW14959   3.343   3.748   8.716 -0.3720 -0.3306 -0.2490
 1109SOL    HW114960   3.406   3.808   8.676 -0.0299  0.7176  1.7987
 1109SOL    HW214961   3.280   3.735   8.646  0.4741 -1.3083 -0.8343
 1110SOL     OW14962   0.239   2.046  17.281 -0.3476  0.0781 -0.0976
 1110SOL    HW114963   0.238   2.131  17.325  1.6097 -0.0502  0.1870
 1110SOL    HW214964   0.215   2.079  17.194 -2.4842  0.4065  0.5954
 1111SOL     OW14965   3.528   1.953   7.553 -0.0035  0.2776  0.2250
 1111SOL    HW114966   3.565   1.964   7.641  1.0970  1.1153 -0.3527
 1111SOL    HW214967   3.570   2.025   7.505 -1.4464  1.0104  0.0513
 1112SOL     OW14968   1.694   2.149  10.352 -0.2380  0.0462  0.0069
 1112SOL    HW114969   1.668   2.120  10.439  0.8538 -2.9556 -0.6678
 1112SOL    HW214970   1.788   2.146  10.369 -0.1551  0.0899 -0.4553
 1113SOL     OW14971   0.117   3.021  12.167 -0.0026 -0.2795 -0.2514
 1113SOL    HW114972   0.070   2.976  12.096  0.7092 -2.0210  0.3705
 1113SOL    HW214973   0.065   3.101  12.164  0.3354 -0.0648 -0.3646
 1114SOL     OW14974   1.152   2.731   5.758  0.5846  0.1297  0.1936
 1114SOL    HW114975   1.075   2.788   5.750 -0.4003 -1.3171 -0.5128
 1114SOL    HW214976   1.204   2.764   5.685 -0.2878  1.5519  0.2085
 1115SOL     OW14977   3.526   0.650   8.652 -0.3921 -0.7166  0.6021
 1115SOL    HW114978   3.479   0.693   8.723  0.4386 -2.0776  1.9807
 1115SOL    HW214979   3.486   0.700   8.581 -0.4079 -0.9372  0.4560
 1116SOL     OW14980   0.914   2.123   4.743 -0.1827 -0.0960  0.6009
 1116SOL    HW114981   0.839   2.139   4.801 -1.4595  0.6034 -1.2589
 1116SOL    HW214982   0.934   2.031   4.761  4.1652  0.4686 -1.3986
 1117SOL     OW14983   4.018   2.121   4.546  0.5643  0.2139 -0.2545
 1117SOL    HW114984   3.981   2.040   4.582  3.1892  0.0744  2.1329
 1117SOL    HW214985   3.985   2.105   4.458  2.0845  0.4083 -0.8648
 1118SOL     OW14986   0.981   2.586   3.139 -0.2298 -0.4151 -0.1388
 1118SOL    HW114987   1.019   2.567   3.225  0.3183  1.0479 -0.0577
 1118SOL    HW214988   1.052   2.621   3.086 -0.7807 -0.3590 -0.8452
 1119SOL     OW14989   0.775   0.774   3.410  0.3922 -0.2477  0.3391
 1119SOL    HW114990   0.800   0.709   3.476  1.5883 -1.4456 -1.3015
 1119SOL    HW214991   0.681   0.774   3.424  0.0544  1.7471 -1.8447
 1120SOL     OW14992   4.104   3.366   4.543  0.4350 -0.1974 -0.8145
 1120SOL    HW114993   4.185   3.335   4.585 -0.1436 -1.2194 -0.4466
 1120SOL    HW214994   4.097   3.452   4.584 -1.4797 -0.4658 -0.5890
 1121SOL     OW14995   4.386   4.007   0.610 -0.0144  0.2975  0.3072
 1121SOL    HW114996   4.316   4.008   0.545 -0.3579 -0.1840  0.6728
 1121SOL    HW214997   4.351   3.961   0.686  1.1406 -0.2500  0.5117
 1122SOL     OW14998   1.315   0.994   4.998 -0.2181 -0.4254 -0.4568
 1122SOL    HW114999   1.358   1.046   4.930 -0.4909  0.6395  0.1868
 1122SOL    HW215000   1.265   0.923   4.956 -1.1379  1.4929 -2.6100
 1123SOL     OW15001   1.134   3.585   6.247 -0.1223 -0.3869  0.1021
 1123SOL    HW115002   1.058   3.578   6.306  0.8687 -0.1671  1.4054
 1123SOL    HW215003   1.163   3.494   6.247  3.0835  0.6418  1.2031
 1124SOL     OW15004   2.106   0.099   8.846  0.8550 -0.2928 -0.1132
 1124SOL    HW115005   2.129   0.105   8.939 -1.2623  0.1215  0.3689
 1124SOL    HW215006   2.190   0.079   8.803  0.2348  0.8746 -1.8492
 1125SOL     OW15007   4.547   2.969   1.238  0.2167 -0.1282  0.2349
 1125SOL    HW115008   4.569   2.933   1.324 -1.1984  2.2132  1.5896
 1125SOL    HW215009   4.625   3.023   1.224  2.8439 -3.4116  1.9961
 1126SOL     OW15010   3.481   2.913   8.823  0.4126  0.6817 -0.0500
 1126SOL    HW115011   3.473   2.821   8.846  4.0906  1.1330  3.0185
 1126SOL    HW215012   3.428   2.925   8.744 -1.7210 -0.9367  1.1691
 1127SOL     OW15013   2.552   1.986   2.865  0.3149  0.4061 -0.5139
 1127SOL    HW115014   2.545   1.940   2.781 -2.1610  3.2184 -1.8635
 1127SOL    HW215015   2.469   2.033   2.871 -0.3762 -0.8207 -0.6466
 1128SOL     OW15016   3.682   3.141  16.346 -0.8052 -0.3518 -0.5136
 1128SOL    HW115017   3.732   3.124  16.426 -0.9387 -0.5041 -0.4608
 1128SOL    HW215018   3.723   3.090  16.276  0.0581  0.2595 -0.4506
 1129SOL     OW15019   4.345   4.541   2.091  0.4596 -0.5270 -0.0808
 1129SOL    HW115020   4.274   4.600   2.116 -1.4804 -2.8685 -0.0339
 1129SOL    HW215021   4.332   4.470   2.154  1.4622  1.9667  2.9330
 1130SOL     OW15022   0.420   1.680   5.208 -0.0566  0.0709 -0.2195
 1130SOL    HW115023   0.497   1.644   5.252 -1.8251  0.6418  3.3340
 1130SOL    HW215024   0.435   1.774   5.204  0.8079 -0.0448  0.3994
 1131SOL     OW15025   3.350   0.406   7.425 -0.1638 -0.0123  0.5050
 1131SOL    HW115026   3.267   0.363   7.405 -0.0930  0.2760 -0.4169
 1131SOL    HW215027   3.392   0.435   7.344 -2.2667 -0.8272 -0.8743
 1132SOL     OW15028   3.456   2.639   7.514  0.8182 -0.1485 -0.3084
 1132SOL    HW115029   3.432   2.709   7.575  1.0765  0.9702 -1.4672
 1132SOL    HW215030   3.415   2.671   7.433  1.4687  0.0149 -0.5749
 1133SOL     OW15031   1.304   2.434   3.752  0.0553 -0.0449  0.2692
 1133SOL    HW115032   1.350   2.374   3.692 -0.2825 -0.3900  0.3540
 1133SOL    HW215033   1.252   2.478   3.684  0.1442 -2.3763 -1.3193
 1134SOL     OW15034   4.670   1.341  14.540  0.0505 -0.3590 -0.2990
 1134SOL    HW115035   4.640   1.252  14.523 -0.4868 -0.4630  1.1834
 1134SOL    HW215036   4.637   1.369  14.455 -0.2377  1.5775  0.4457
 1135SOL     OW15037   1.129   1.751   4.994 -0.1004 -0.0441 -0.6639
 1135SOL    HW115038   1.156   1.821   5.053 -2.0725  1.1644 -1.1891
 1135SOL    HW215039   1.130   1.668   5.041 -1.2729  0.4012  0.1402
 1136SOL     OW15040   0.082   0.073   7.024 -0.6613  0.1102  0.4103
 1136SOL    HW115041   0.102   0.167   7.033 -4.6166  0.7800  1.7883
 1136SOL    HW215042   4.731   0.086   7.055 -1.0872 -1.8389 -0.0410
 1137SOL     OW15043   1.030   4.658   1.629  0.0214  0.8083  0.5627
 1137SOL    HW115044   0.988   4.705   1.558 -1.6270 -0.0668  0.9459
 1137SOL    HW215045   1.025   4.569   1.593  0.1982  0.2731  1.8233
 1138SOL     OW15046   4.151   0.074   5.701  0.2352  0.0789 -0.5037
 1138SOL    HW115047   4.116   4.725   5.722 -0.9208  0.7015  0.1575
 1138SOL    HW215048   4.153   0.076   5.605 -2.0203 -1.8230 -0.5800
 1139SOL     OW15049   4.404   2.946  15.377  0.5728  0.2230 -0.5551
 1139SOL    HW115050   4.435   2.947  15.467 -1.5071 -0.6752  0.1594
 1139SOL    HW215051   4.491   2.934  15.339  1.1670 -4.1707  2.2463
 1140SOL     OW15052   2.177   2.401   6.790 -0.7296  0.3032 -0.0265
 1140SOL    HW115053   2.171   2.435   6.700 -3.5722 -0.8245 -0.2773
 1140SOL    HW215054   2.086   2.376   6.808  0.0475 -2.2893  0.3226
 1141SOL     OW15055   1.453   2.710   6.520 -0.3773 -0.4708 -0.0727
 1141SOL    HW115056   1.376   2.666   6.484  0.9453 -2.2492 -0.6969
 1141SOL    HW215057   1.410   2.773   6.579  0.1014 -0.7314  0.5571
 1142SOL     OW15058   3.696   0.142   2.777  1.0724  0.2640 -0.1238
 1142SOL    HW115059   3.691   0.185   2.862 -1.9038  0.3850 -0.3573
 1142SOL    HW215060   3.727   0.053   2.795  2.2513  0.3422 -1.7681
 1143SOL     OW15061   0.448   1.871   2.795  0.4568  0.1970  0.7381
 1143SOL    HW115062   0.506   1.945   2.812  2.1884 -0.6779 -1.3809
 1143SOL    HW215063   0.480   1.808   2.861  0.7692  0.2681  0.6543
 1144SOL     OW15064   3.267   4.693   9.841  0.1567  0.2427 -0.0586
 1144SOL    HW115065   3.312   0.023   9.891 -1.5334  2.1046 -1.0255
 1144SOL    HW215066   3.187   4.737   9.810 -1.3984  0.4279  4.3175
 1145SOL     OW15067   3.164   4.484   1.383 -0.3795  0.4953 -0.0662
 1145SOL    HW115068   3.240   4.484   1.325 -1.7374 -0.5409 -1.8472
 1145SOL    HW215069   3.198   4.500   1.471 -0.7510  1.4876 -0.1149
 1146SOL     OW15070   4.156   3.635   3.227  0.2975 -0.6458  0.6846
 1146SOL    HW115071   4.250   3.618   3.221  0.1542 -1.5004  0.9358
 1146SOL    HW215072   4.124   3.593   3.148 -1.0981  0.1380  0.8423
 1147SOL     OW15073   4.604   0.043  16.898  0.2956  0.2490 -0.3563
 1147SOL    HW115074   4.673   0.104  16.872  2.0153 -0.4668  2.5389
 1147SOL    HW215075   4.658   4.702  16.906  2.3135  1.7883  1.1877
 1148SOL     OW15076   3.520   1.047   9.336 -0.4128 -0.2071 -0.4374
 1148SOL    HW115077   3.424   1.047   9.340 -0.4355 -3.0784 -1.3791
 1148SOL    HW215078   3.532   0.952   9.337 -0.6685 -0.2385  0.2167
 1149SOL     OW15079   0.879   1.186   4.111  0.1128 -0.2605 -0.5782
 1149SOL    HW115080   0.960   1.235   4.124  0.7158 -1.3905 -0.0621
 1149SOL    HW215081   0.819   1.260   4.101 -0.0984 -0.5689 -1.5879
 1150SOL     OW15082   3.083   0.241  13.160  0.1901  0.0138  0.1252
 1150SOL    HW115083   3.125   0.294  13.228 -1.1157  0.3924  0.6324
 1150SOL    HW215084   3.119   0.153  13.172 -3.2482 -1.4613 -0.3707
 1151SOL     OW15085   3.274   0.008   1.262 -0.1709  0.3953  0.5478
 1151SOL    HW115086   3.318   4.661   1.256 -0.3922  0.3181  0.0453
 1151SOL    HW215087   3.328   0.056   1.200  0.8203 -1.7817 -0.2829
 1152SOL     OW15088   1.271   1.770   6.073  0.0714 -0.7036  0.2726
 1152SOL    HW115089   1.176   1.782   6.075  0.3098  0.9827  1.3682
 1152SOL    HW215090   1.293   1.786   6.165 -0.4369 -2.2791  0.6824
 1153SOL     OW15091   3.881   0.162   4.511 -0.6946  0.0805 -0.3342
 1153SOL    HW115092   3.900   0.256   4.515 -1.6216  0.2556  0.1216
 1153SOL    HW215093   3.791   0.166   4.480 -1.0468 -0.4619  0.6199
 1154SOL     OW15094   1.155   3.151   8.461 -0.9550 -0.3249  0.1043
 1154SOL    HW115095   1.101   3.223   8.495 -0.5561 -0.6360  1.3571
 1154SOL    HW215096   1.201   3.119   8.538  0.2051 -0.6591 -0.7300
 1155SOL     OW15097   3.172   0.193  12.690  0.1285 -0.1752 -0.1282
 1155SOL    HW115098   3.198   0.188  12.782  0.4698  2.5136 -0.0798
 1155SOL    HW215099   3.213   0.116  12.650  2.8582 -0.4997  3.2954
 1156SOL     OW15100   0.848   3.239  14.967  0.0056  0.2109  0.0297
 1156SOL    HW115101   0.823   3.244  15.059 -0.3945 -5.0744  0.2182
 1156SOL    HW215102   0.838   3.333  14.949 -1.2644  0.0619 -0.0369
 1157SOL     OW15103   2.528   2.450  11.253 -0.1654  0.0976  0.3943
 1157SOL    HW115104   2.484   2.410  11.328  2.8576 -0.4057  1.9345
 1157SOL    HW215105   2.522   2.543  11.276  0.2092 -0.1160  1.3847
 1158SOL     OW15106   0.072   1.087   3.245  0.1871 -0.5996  0.0448
 1158SOL    HW115107   0.092   1.004   3.290 -0.9235 -0.2188  1.2109
 1158SOL    HW215108   4.720   1.063   3.221 -0.3677  2.2889 -0.6861
 1159SOL     OW15109   3.038   1.448   8.676  0.2707 -0.1191 -0.2635
 1159SOL    HW115110   3.066   1.384   8.611  1.2023  1.3528 -1.2894
 1159SOL    HW215111   3.123   1.462   8.717  0.3353  0.9874 -0.7834
 1160SOL     OW15112   3.201   1.243   6.393 -0.5489 -0.2616  0.0507
 1160SOL    HW115113   3.271   1.266   6.331  0.3077  0.5169  1.3048
 1160SOL    HW215114   3.180   1.335   6.406 -1.2427 -0.4523  0.2727
 1161SOL     OW15115   3.402   1.596   3.286  0.2226  0.0890  0.3232
 1161SOL    HW115116   3.494   1.587   3.313  0.0524  1.0106  1.2263
 1161SOL    HW215117   3.381   1.689   3.291  0.2537  0.2218 -2.2724
 1162SOL     OW15118   0.368   1.590   3.592  0.1092 -0.2532 -0.7120
 1162SOL    HW115119   0.445   1.548   3.554  0.6367 -0.2647  0.3930
 1162SOL    HW215120   0.391   1.682   3.599  1.7776 -0.6396 -1.1600
 1163SOL     OW15121   0.636   0.356   5.030  0.2431  0.0541  0.3774
 1163SOL    HW115122   0.669   0.444   5.008  0.0596  0.4576  1.7381
 1163SOL    HW215123   0.715   0.303   5.024  1.9740  2.3152  3.1649
 1164SOL     OW15124   1.709   0.972   6.101 -0.2867 -0.2627 -0.1665
 1164SOL    HW115125   1.708   1.026   6.180  3.1258 -0.0962 -0.2185
 1164SOL    HW215126   1.765   1.012   6.034  0.0365  0.4316  0.5166
 1165SOL     OW15127   4.669   1.513  16.454 -0.1049 -0.2190 -0.4239
 1165SOL    HW115128   4.601   1.472  16.507  2.6780 -1.6539  2.0980
 1165SOL    HW215129   4.696   1.578  16.519  1.0456 -2.0713  0.9683
 1166SOL     OW15130   3.168   0.600  12.357  0.2130  0.6049  0.1506
 1166SOL    HW115131   3.086   0.625  12.401 -0.5560 -0.3635 -0.7329
 1166SOL    HW215132   3.200   0.537  12.421 -0.4945  0.0403 -0.0416
 1167SOL     OW15133   0.722   0.291   8.818  0.0825 -0.3098  0.0332
 1167SOL    HW115134   0.674   0.308   8.899 -2.4877  0.3038 -1.6220
 1167SOL    HW215135   0.706   0.197   8.809 -0.1072 -0.4244  1.6286
 1168SOL     OW15136   0.094   3.277   1.913 -0.1189 -0.2456  0.4447
 1168SOL    HW115137   0.081   3.217   1.987 -0.5716  1.0958  1.4397
 1168SOL    HW215138   0.186   3.303   1.922 -0.7487  2.0733  0.1745
 1169SOL     OW15139   3.367   3.888   7.792 -0.2061  0.2357  0.6372
 1169SOL    HW115140   3.303   3.959   7.780 -0.5016  0.1359  1.6074
 1169SOL    HW215141   3.334   3.856   7.876 -0.4479 -2.6032 -0.5421
 1170SOL     OW15142   1.364   2.913   1.155  0.2902 -0.2628  0.2247
 1170SOL    HW115143   1.353   2.881   1.065  0.6643  2.5880 -0.8125
 1170SOL    HW215144   1.288   2.879   1.202  0.9607  1.9216  2.8757
 1171SOL     OW15145   1.491   0.378   8.974 -0.4063 -0.2652 -0.5159
 1171SOL    HW115146   1.535   0.366   8.890 -0.4922 -0.2707 -0.5601
 1171SOL    HW215147   1.494   0.290   9.012 -0.6930  0.3256  0.8695
 1172SOL     OW15148   1.097   0.519   3.791 -0.3920  0.9805 -0.1085
 1172SOL    HW115149   1.128   0.604   3.822 -0.4055  0.6319  0.8468
 1172SOL    HW215150   1.038   0.502   3.864 -1.4771  2.1143 -0.7218
 1173SOL     OW15151   1.947   3.820   1.015  0.3315  0.2539  0.3771
 1173SOL    HW115152   1.958   3.878   0.939 -1.8706 -1.5871 -1.3871
 1173SOL    HW215153   1.936   3.738   0.967 -0.9254 -0.0378  1.1765
 1174SOL     OW15154   3.139   4.073  12.974 -0.4378  0.3076  0.1218
 1174SOL    HW115155   3.113   4.165  12.984  1.4831  1.2376 -3.3236
 1174SOL    HW215156   3.163   4.075  12.881 -0.1679 -0.4664  0.1775
 1175SOL     OW15157   2.780   2.468   6.391  0.4299 -0.3487  0.0487
 1175SOL    HW115158   2.838   2.450   6.317  0.3966 -0.7842  0.1248
 1175SOL    HW215159   2.687   2.465   6.367 -0.2413  2.2004  2.3255
 1176SOL     OW15160   2.915   4.016  12.275 -0.1619  0.0915 -0.0378
 1176SOL    HW115161   2.939   4.048  12.188  1.2008 -0.3639  0.1690
 1176SOL    HW215162   2.899   3.925  12.253  0.8743 -0.1798  0.3223
 1177SOL     OW15163   0.028   0.461   1.445 -0.1691 -0.4023 -0.1313
 1177SOL    HW115164   4.680   0.420   1.451  0.1158 -0.8163  1.0429
 1177SOL    HW215165   0.015   0.546   1.486 -1.5611 -2.1995  3.1314
 1178SOL     OW15166   2.142   3.525  14.853 -0.4141  0.6492  0.1923
 1178SOL    HW115167   2.190   3.475  14.787  0.2465  2.2252 -0.5191
 1178SOL    HW215168   2.075   3.568  14.800 -0.5241  0.0100 -0.1907
 1179SOL     OW15169   0.417   3.119   0.394  0.1368  0.1156  0.3930
 1179SOL    HW115170   0.454   3.126   0.306  1.4490 -1.4075  0.8249
 1179SOL    HW215171   0.378   3.032   0.385 -2.2273  1.4959 -3.0422
 1180SOL     OW15172   3.926   1.808  15.796  0.3613  0.0701 -1.1175
 1180SOL    HW115173   3.841   1.765  15.798 -0.1726  1.0539 -2.7902
 1180SOL    HW215174   3.982   1.734  15.817  1.4561  1.0768 -0.4790
 1181SOL     OW15175   3.623   1.795  11.489  0.1200  0.4384  0.1417
 1181SOL    HW115176   3.597   1.887  11.479  0.4820  0.7197  1.9221
 1181SOL    HW215177   3.711   1.793  11.451  0.3411  2.2952  0.5617
 1182SOL     OW15178   0.545   3.831  13.917  0.2221 -0.4681  0.2188
 1182SOL    HW115179   0.514   3.762  13.976  0.8589  0.1170  1.2261
 1182SOL    HW215180   0.464   3.853  13.870  0.1028  0.4536  0.8841
 1183SOL     OW15181   3.971   3.329  16.411 -0.5688 -0.2345  0.6511
 1183SOL    HW115182   3.903   3.369  16.356 -1.1399 -2.8321 -0.5370
 1183SOL    HW215183   4.025   3.403  16.439  1.3132 -1.7058  0.8488
 1184SOL     OW15184   3.116   2.449   1.104 -0.5021 -0.5203 -0.4483
 1184SOL    HW115185   3.099   2.397   1.025  1.4353 -1.7314 -0.0743
 1184SOL    HW215186   3.052   2.519   1.095  1.0414  0.8982 -0.4851
 1185SOL     OW15187   4.529   1.842  15.209  0.1902 -0.4409  0.2326
 1185SOL    HW115188   4.508   1.835  15.116  0.9418  1.8115 -0.1148
 1185SOL    HW215189   4.583   1.763  15.211 -0.4335 -0.8166  2.0110
 1186SOL     OW15190   2.640   2.665  15.392  0.5356  0.5396  0.7685
 1186SOL    HW115191   2.641   2.602  15.464  1.2381 -0.1858  0.1195
 1186SOL    HW215192   2.734   2.678  15.383  0.5852 -1.7135 -1.9946
 1187SOL     OW15193   4.643   4.343  16.721 -0.6602  0.2113  0.2324
 1187SOL    HW115194   4.573   4.313  16.663  0.8502 -1.7248 -0.6075
 1187SOL    HW215195   4.695   4.402  16.666  1.6105 -1.1312  0.9285
 1188SOL     OW15196   2.397   0.837  11.867  0.1047 -0.2362 -0.5696
 1188SOL    HW115197   2.348   0.881  11.798  1.7982 -0.8149 -2.1476
 1188SOL    HW215198   2.425   0.761  11.815  2.7895 -0.0174  0.5615
 1189SOL     OW15199   2.055   1.886   7.775  0.0326  0.5088  0.2604
 1189SOL    HW115200   2.082   1.956   7.835  0.1590 -1.0556  2.0228
 1189SOL    HW215201   1.980   1.933   7.737 -0.5357  0.4424  1.3108
 1190SOL     OW15202   2.926   0.324   1.859  0.1221  0.0893  0.6531
 1190SOL    HW115203   2.854   0.283   1.810  0.2817  0.2700  0.2697
 1190SOL    HW215204   2.995   0.258   1.860  0.9490  0.9300 -0.8618
 1191SOL     OW15205   1.495   4.378   5.770  0.4612 -0.6962 -0.2052
 1191SOL    HW115206   1.422   4.331   5.810 -0.5853  0.2755 -0.9611
 1191SOL    HW215207   1.489   4.466   5.808 -1.1928 -1.4231  1.2109
 1192SOL     OW15208   1.773   2.496   9.351 -0.3273 -0.2647  0.0584
 1192SOL    HW115209   1.695   2.441   9.356 -0.1318 -0.6023 -0.6135
 1192SOL    HW215210   1.753   2.543   9.270 -1.6208 -2.5259 -0.9408
 1193SOL     OW15211   1.983   0.854  15.882 -1.0154  0.3971  0.0163
 1193SOL    HW115212   1.955   0.814  15.964 -1.0234 -0.9643 -0.6577
 1193SOL    HW215213   1.902   0.878  15.838 -0.5019  0.8700 -0.6765
 1194SOL     OW15214   3.666   4.117   4.673  0.2591  0.0830 -0.4355
 1194SOL    HW115215   3.684   4.031   4.711 -0.5006  0.1993  0.1849
 1194SOL    HW215216   3.753   4.156   4.668  0.0945  0.7335  1.5104
 1195SOL     OW15217   3.328   1.559  11.612 -0.4979 -0.5834  0.2203
 1195SOL    HW115218   3.366   1.483  11.568  1.3052 -0.3003  1.3088
 1195SOL    HW215219   3.361   1.632  11.560  0.6673 -0.9157  0.4993
 1196SOL     OW15220   2.452   3.731   1.566  0.0765 -0.0527  0.0121
 1196SOL    HW115221   2.530   3.698   1.523 -0.9302 -0.5449 -1.4369
 1196SOL    HW215222   2.470   3.725   1.660  0.9694  0.9408 -0.0984
 1197SOL     OW15223   0.712   3.221  15.217  0.0866  0.5266  0.4762
 1197SOL    HW115224   0.625   3.208  15.255  0.7775 -2.9330  0.8942
 1197SOL    HW215225   0.747   3.134  15.199 -0.3998  0.5625 -0.6119
 1198SOL     OW15226   0.463   0.673   6.151  0.7723  0.3689  0.4893
 1198SOL    HW115227   0.469   0.591   6.200  2.1030 -1.2158 -2.3081
 1198SOL    HW215228   0.538   0.664   6.092  2.0425  1.0138  2.0119
 1199SOL     OW15229   0.145   0.917   3.811 -0.1353 -0.4960 -0.1465
 1199SOL    HW115230   0.112   1.003   3.785 -0.7879 -0.6937  0.0307
 1199SOL    HW215231   0.209   0.898   3.742 -1.8470  0.4925 -1.9932
 1200SOL     OW15232   2.443   3.044   4.482  0.3025 -0.2955  0.5238
 1200SOL    HW115233   2.537   3.040   4.464  0.0103  1.5739 -1.4545
 1200SOL    HW215234   2.407   2.974   4.427  2.1731 -1.0874  0.3079
 1201SOL     OW15235   0.346   0.886   7.692 -0.5972 -0.0972  0.0979
 1201SOL    HW115236   0.405   0.917   7.760  0.2798 -0.6991 -0.3792
 1201SOL    HW215237   0.266   0.928   7.722 -0.5193  0.0860  0.0471
 1202SOL     OW15238   2.199   4.342  14.076  0.3402 -0.3138  0.2447
 1202SOL    HW115239   2.287   4.311  14.052  0.5202  0.5413 -0.2025
 1202SOL    HW215240   2.149   4.264  14.100  0.2371 -0.4012 -0.2389
 1203SOL     OW15241   3.470   0.904  12.253 -0.5013 -0.1234 -0.6756
 1203SOL    HW115242   3.519   0.947  12.182  0.0094 -1.6940 -1.2629
 1203SOL    HW215243   3.543   0.859  12.296 -1.9221  0.7435  2.6512
 1204SOL     OW15244   1.914   2.052   6.652 -0.2562  0.1247  0.0826
 1204SOL    HW115245   1.947   2.120   6.592 -2.6937  3.4737  2.5310
 1204SOL    HW215246   1.822   2.077   6.645 -0.7622 -0.5589  4.3825
 1205SOL     OW15247   2.027   4.146   4.969  0.4626 -0.0679  0.0668
 1205SOL    HW115248   2.050   4.193   5.049 -2.1932  0.6833  0.3909
 1205SOL    HW215249   1.943   4.191   4.962  1.0205  0.8895 -0.4080
 1206SOL     OW15250   2.130   3.532   8.940 -0.1423  0.2036  0.2105
 1206SOL    HW115251   2.111   3.468   9.009  1.3162  4.1366  4.1915
 1206SOL    HW215252   2.045   3.530   8.896  0.6757 -1.7871 -1.2908
 1207SOL     OW15253   2.013   1.426   4.951  0.0924 -0.2792  0.1313
 1207SOL    HW115254   2.019   1.344   5.001 -1.6266 -1.6851 -1.9512
 1207SOL    HW215255   1.919   1.442   4.946  0.2679  0.9945  1.0699
 1208SOL     OW15256   2.696   2.583  13.781 -0.3536 -0.8394 -0.0873
 1208SOL    HW115257   2.600   2.578  13.776 -0.3764 -2.3370  1.6376
 1208SOL    HW215258   2.696   2.492  13.752  2.0511 -0.5818 -0.9043
 1209SOL     OW15259   2.018   0.860   9.321 -0.1279 -0.0566 -0.0341
 1209SOL    HW115260   1.955   0.856   9.249 -1.2920 -1.7434  1.0628
 1209SOL    HW215261   2.036   0.952   9.339 -3.1651  0.0984  2.1991
 1210SOL     OW15262   3.304   1.368   9.068  0.0432 -0.2401 -0.2496
 1210SOL    HW115263   3.210   1.385   9.057  0.0572  0.1702  0.2225
 1210SOL    HW215264   3.316   1.378   9.163  1.8537  0.3046 -0.5266
 1211SOL     OW15265   4.365   1.388  12.583  0.1409 -0.0271 -0.1649
 1211SOL    HW115266   4.318   1.461  12.622 -0.8317 -0.7036 -0.0511
 1211SOL    HW215267   4.411   1.359  12.661 -0.0944  0.4850  0.1602
 1212SOL     OW15268   4.257   3.614   2.632  0.2519 -0.2821 -0.4279
 1212SOL    HW115269   4.318   3.549   2.596  0.3056 -0.7881  0.5839
 1212SOL    HW215270   4.220   3.571   2.709 -0.9667  1.8109  0.1538
 1213SOL     OW15271   1.542   3.924  16.058 -0.1037 -0.0303 -0.2405
 1213SOL    HW115272   1.559   3.905  16.150  0.1113 -3.5673 -1.0182
 1213SOL    HW215273   1.490   3.845  16.040 -1.5512  0.4403  1.9673
 1214SOL     OW15274   3.485   0.824   5.838 -0.0257 -0.2502 -0.1469
 1214SOL    HW115275   3.450   0.762   5.774 -2.3657 -0.8483  1.7350
 1214SOL    HW215276   3.425   0.803   5.909  2.0602  1.9617  2.2588
 1215SOL     OW15277   1.875   1.559   9.392 -0.0159  0.3557 -0.5240
 1215SOL    HW115278   1.788   1.529   9.367 -0.2737  0.6523  0.0312
 1215SOL    HW215279   1.870   1.652   9.369 -1.4124  0.3864 -0.0775
 1216SOL     OW15280   3.638   4.208   3.984  0.5644 -0.0171  0.7385
 1216SOL    HW115281   3.622   4.129   4.036  0.1572  0.5071  1.4175
 1216SOL    HW215282   3.732   4.220   3.971  0.6179 -0.0412  1.0818
 1217SOL     OW15283   1.678   3.946   7.288 -0.5033 -0.4775 -0.3577
 1217SOL    HW115284   1.744   3.973   7.352 -0.6418 -1.5090  0.2328
 1217SOL    HW215285   1.721   3.865   7.258 -1.1760 -0.8667 -0.2691
 1218SOL     OW15286   4.157   0.816  17.554  0.0227 -0.3266  0.0591
 1218SOL    HW115287   4.170   0.859  17.470 -0.1384 -1.0357 -0.3216
 1218SOL    HW215288   4.098   0.746  17.527  2.0628 -2.3298  0.7536
 1219SOL     OW15289   3.419   1.382   6.275 -0.3699 -0.3802 -0.7097
 1219SOL    HW115290   3.449   1.331   6.199  0.1805 -1.5673  0.3120
 1219SOL    HW215291   3.422   1.466   6.228 -1.5041 -0.4601 -0.9282
 1220SOL     OW15292   1.741   0.565   1.734  0.0337  0.0158  0.0268
 1220SOL    HW115293   1.712   0.499   1.797  0.7360  0.1450  0.4789
 1220SOL    HW215294   1.776   0.510   1.664 -0.0159 -3.0810  2.4162
 1221SOL     OW15295   3.289   2.430   2.307  0.1530  0.5318  0.3698
 1221SOL    HW115296   3.370   2.380   2.296 -1.8577 -2.0362 -3.0106
 1221SOL    HW215297   3.283   2.415   2.401 -1.7188 -1.7357 -0.0938
 1222SOL     OW15298   2.243   1.612   6.164 -0.3539 -0.3830 -0.2865
 1222SOL    HW115299   2.258   1.665   6.242  0.2082 -0.3522 -0.4175
 1222SOL    HW215300   2.313   1.637   6.104 -0.3521 -1.8416 -0.8908
 1223SOL     OW15301   2.331   3.641   7.992 -0.5143 -0.6541 -0.2832
 1223SOL    HW115302   2.251   3.627   7.942 -1.1736  0.5010  0.4480
 1223SOL    HW215303   2.305   3.609   8.078  0.4819 -2.7946 -0.7779
 1224SOL     OW15304   0.827   1.854   1.710 -0.0253  0.5152 -0.1589
 1224SOL    HW115305   0.854   1.856   1.802  0.1616  1.0764 -0.2275
 1224SOL    HW215306   0.910   1.840   1.665  0.9101  0.6636  1.5177
 1225SOL     OW15307   3.493   2.117  12.170 -0.2335  0.0826  0.3802
 1225SOL    HW115308   3.483   2.111  12.075  0.2603  0.9104  0.2721
 1225SOL    HW215309   3.551   2.041  12.177  0.5748  0.5254 -1.3772
 1226SOL     OW15310   2.096   4.484  12.810 -0.0630 -0.1455 -0.2277
 1226SOL    HW115311   2.099   4.531  12.727 -1.2447  0.4429  0.0641
 1226SOL    HW215312   2.074   4.397  12.777  0.3898 -0.6669  0.8196
 1227SOL     OW15313   3.996   2.969   1.047  0.4571 -0.0485  0.2916
 1227SOL    HW115314   3.911   2.988   1.087 -0.3228 -0.1714 -1.3361
 1227SOL    HW215315   3.961   2.910   0.980  0.0931  0.4260  0.0720
 1228SOL     OW15316   2.344   2.740   4.064 -0.4452  0.0419  0.0966
 1228SOL    HW115317   2.341   2.647   4.084 -1.0850 -0.3442 -1.7133
 1228SOL    HW215318   2.274   2.745   3.998 -1.9690 -1.6065  1.6186
 1229SOL     OW15319   2.870   3.284   2.736  0.1382  0.6139 -0.1809
 1229SOL    HW115320   2.883   3.260   2.827 -0.2422  0.4639 -0.1644
 1229SOL    HW215321   2.831   3.204   2.699  0.2212 -0.0381  1.1673
 1230SOL     OW15322   4.284   0.253   1.940 -0.1236 -0.1010 -0.8578
 1230SOL    HW115323   4.214   0.278   1.999 -1.7833 -0.7437 -2.5426
 1230SOL    HW215324   4.266   0.326   1.881 -2.9303  1.4015  1.8621
 1231SOL     OW15325   2.849   3.607   6.143  0.1693  0.6901 -0.0630
 1231SOL    HW115326   2.775   3.663   6.117 -0.8125 -0.6235 -0.1265
 1231SOL    HW215327   2.907   3.677   6.172 -1.9328  1.6104  1.9560
 1232SOL     OW15328   2.456   2.285  12.605  0.0837 -0.7141 -0.0064
 1232SOL    HW115329   2.464   2.347  12.533  0.1523 -0.7417 -0.0226
 1232SOL    HW215330   2.379   2.323  12.646  0.7726  2.6789 -1.7943
 1233SOL     OW15331   4.271   1.877  15.358 -0.4177 -0.4328 -0.0574
 1233SOL    HW115332   4.211   1.914  15.293 -1.3141  0.5420  1.3468
 1233SOL    HW215333   4.352   1.885  15.307 -0.1665 -0.1912  0.3765
 1234SOL     OW15334   4.655   1.623   7.528 -0.0346 -0.1901  0.4157
 1234SOL    HW115335   4.602   1.583   7.459 -1.3275  1.6489  0.3450
 1234SOL    HW215336   4.659   1.551   7.592  1.2054 -2.9707 -2.7900
 1235SOL     OW15337   0.813   3.788   1.388 -0.3232  0.1175  0.4657
 1235SOL    HW115338   0.874   3.841   1.439 -1.0871  0.5533  0.9429
 1235SOL    HW215339   0.730   3.831   1.411 -2.7538 -3.1561 -2.1718
 1236SOL     OW15340   1.373   1.466   8.209 -0.3931 -0.0596  0.3643
 1236SOL    HW115341   1.457   1.450   8.250 -0.0009  1.5958  0.2197
 1236SOL    HW215342   1.399   1.496   8.122 -0.6967  4.1838  1.7081
 1237SOL     OW15343   1.718   3.420   3.502 -0.0096  0.1298  0.0314
 1237SOL    HW115344   1.790   3.359   3.489 -1.6558 -1.6597 -0.6494
 1237SOL    HW215345   1.661   3.379   3.566  2.1600 -0.9834  1.2225
 1238SOL     OW15346   3.350   0.788  11.870 -0.1723 -0.8732  0.0137
 1238SOL    HW115347   3.281   0.752  11.813 -2.0544 -0.1821  1.8522
 1238SOL    HW215348   3.307   0.785  11.956  1.4450 -0.0384  0.8468
 1239SOL     OW15349   1.941   1.857  13.396  0.2024 -0.3790 -0.0840
 1239SOL    HW115350   1.976   1.823  13.314  0.8923  0.1609 -0.0147
 1239SOL    HW215351   1.988   1.791  13.446 -1.6087 -1.2121  0.5403
 1240SOL     OW15352   0.981   4.718   6.445 -0.2784 -0.0688 -0.5228
 1240SOL    HW115353   1.028   4.642   6.480 -0.9849 -0.1944  0.1473
 1240SOL    HW215354   0.945   0.029   6.519  0.8412  0.6612 -0.4592
 1241SOL     OW15355   1.004   3.131   9.695  0.2208  0.1398  0.0619
 1241SOL    HW115356   0.952   3.210   9.682 -0.4975 -0.4937 -0.9374
 1241SOL    HW215357   1.008   3.124   9.790  1.3485 -0.7368 -0.0387
 1242SOL     OW15358   1.942   3.615   0.844  0.0208  0.0888  1.1695
 1242SOL    HW115359   1.994   3.545   0.804 -0.0455  1.1084 -0.7214
 1242SOL    HW215360   1.874   3.564   0.886 -0.7755  0.4743  0.3548
 1243SOL     OW15361   3.203   0.318   3.109 -0.1698 -0.4500 -0.1259
 1243SOL    HW115362   3.111   0.292   3.104 -0.0918 -0.9492  1.0264
 1243SOL    HW215363   3.237   0.302   3.021  1.7216  0.8462  0.3682
 1244SOL     OW15364   3.643   2.172   4.747  0.1925 -0.0780  0.0246
 1244SOL    HW115365   3.565   2.119   4.736  1.0258 -1.1668 -0.6296
 1244SOL    HW215366   3.670   2.186   4.657 -0.7035  0.2814 -0.1770
 1245SOL     OW15367   0.699   0.893  12.203 -0.6620  0.1298  0.4698
 1245SOL    HW115368   0.682   0.982  12.173  0.1393 -0.3436 -1.3709
 1245SOL    HW215369   0.608   0.864  12.196  0.1482 -2.0272 -1.1987
 1246SOL     OW15370   1.132   2.665   6.031 -0.5370  0.2002  0.1507
 1246SOL    HW115371   1.156   2.676   5.939  0.5083  2.0721  0.6447
 1246SOL    HW215372   1.106   2.573   6.029  1.0614 -0.2169 -0.7723
 1247SOL     OW15373   0.842   4.503   3.969  1.0999 -0.1304  0.0585
 1247SOL    HW115374   0.855   4.431   4.031  1.1794  0.9929  1.3488
 1247SOL    HW215375   0.813   4.454   3.892  0.4481  0.1614  0.1238
 1248SOL     OW15376   3.026   0.453   9.919  0.0883  1.2130 -0.2367
 1248SOL    HW115377   3.037   0.470   9.826  1.7713  0.6449 -0.1264
 1248SOL    HW215378   2.953   0.512   9.938  0.7107  1.9560 -0.1579
 1249SOL     OW15379   0.063   2.876   5.830 -0.2145  0.0377 -0.5427
 1249SOL    HW115380   0.098   2.913   5.748 -1.3780  0.5134 -0.8152
 1249SOL    HW215381   4.724   2.824   5.804  1.3673 -1.3805 -2.3932
 1250SOL     OW15382   0.619   2.004  16.712 -0.5109  0.0660  0.4010
 1250SOL    HW115383   0.591   1.995  16.622  0.7414  0.9645 -0.0856
 1250SOL    HW215384   0.660   1.918  16.722  1.1497  0.6527 -1.4065
 1251SOL     OW15385   2.107   2.092   5.247  0.5713 -0.0584 -0.0182
 1251SOL    HW115386   2.087   2.034   5.173 -1.9220 -0.0955  0.6991
 1251SOL    HW215387   2.200   2.088   5.267  0.2997  0.8693  1.4191
 1252SOL     OW15388   0.478   1.684   8.833  0.3633 -0.2071 -0.2321
 1252SOL    HW115389   0.426   1.724   8.903 -0.9779 -0.7625 -0.9290
 1252SOL    HW215390   0.435   1.605   8.802  2.8068 -2.3716  1.8198
 1253SOL     OW15391   2.616   3.762   2.366 -0.0087  0.0034 -0.2543
 1253SOL    HW115392   2.615   3.706   2.444  0.8899  0.6983  0.2464
 1253SOL    HW215393   2.708   3.789   2.373  0.5493 -1.5881 -1.5472
 1254SOL     OW15394   4.161   4.294   1.732 -0.4287  0.1338 -0.1401
 1254SOL    HW115395   4.209   4.328   1.657 -0.3498  0.4940  0.0749
 1254SOL    HW215396   4.216   4.323   1.806  1.5709  0.9710 -1.9604
 1255SOL     OW15397   0.411   2.684   8.732 -0.0491  0.4421 -0.0446
 1255SOL    HW115398   0.328   2.683   8.778  0.0505 -0.4586  0.1144
 1255SOL    HW215399   0.403   2.614   8.667 -3.0410 -0.5206  1.3591
 1256SOL     OW15400   2.708   3.020   4.416  0.0144 -0.0374 -0.4865
 1256SOL    HW115401   2.788   3.060   4.450  0.8779 -2.5986  0.4731
 1256SOL    HW215402   2.723   3.016   4.321 -0.6087 -2.0596 -0.4881
 1257SOL     OW15403   1.275   4.436   8.137 -0.2788 -0.5621 -0.3470
 1257SOL    HW115404   1.335   4.453   8.209 -1.1555  1.9582 -0.1945
 1257SOL    HW215405   1.191   4.447   8.181  0.3114  2.1695  0.1134
 1258SOL     OW15406   2.704   3.213   5.986  0.1024 -0.0952 -0.3376
 1258SOL    HW115407   2.653   3.131   5.982 -0.2529  0.1830 -1.3025
 1258SOL    HW215408   2.797   3.195   5.996  0.4480  1.3578 -1.0426
 1259SOL     OW15409   0.651   3.624   4.634 -0.2393  0.6517  0.0057
 1259SOL    HW115410   0.716   3.583   4.576 -0.8032 -0.5139  0.2013
 1259SOL    HW215411   0.716   3.678   4.679  0.6064 -1.3276  1.1660
 1260SOL     OW15412   1.247   0.069   1.753 -0.0892  0.6222  0.2041
 1260SOL    HW115413   1.201   0.129   1.812 -0.0323 -0.6409  1.5268
 1260SOL    HW215414   1.175   0.044   1.695 -1.8812 -1.3316  3.2809
 1261SOL     OW15415   1.175   1.045   3.261  0.0960 -0.3976 -0.1069
 1261SOL    HW115416   1.123   0.966   3.250  1.2945 -1.3354  1.0715
 1261SOL    HW215417   1.183   1.055   3.356  1.4293 -1.0255 -0.1556
 1262SOL     OW15418   1.975   0.190  17.626  0.3881 -0.7940  0.3792
 1262SOL    HW115419   1.908   0.156  17.685 -0.4330 -1.3784 -0.9076
 1262SOL    HW215420   1.949   0.161  17.539 -1.1398  0.2728  0.4916
 1263SOL     OW15421   2.679   0.724  10.446 -0.7325 -0.1949  0.4281
 1263SOL    HW115422   2.689   0.751  10.537  1.9182 -2.6980  0.8898
 1263SOL    HW215423   2.598   0.675  10.457 -1.4208  1.3172  2.2332
 1264SOL     OW15424   0.277   2.738  15.241 -0.3334 -0.1530  0.0474
 1264SOL    HW115425   0.249   2.653  15.273 -1.4010  0.6054  1.1281
 1264SOL    HW215426   0.271   2.731  15.146  1.7610  0.9621 -0.1856
 1265SOL     OW15427   1.787   1.439   2.708 -0.5871  0.7731  0.0710
 1265SOL    HW115428   1.734   1.427   2.629  0.1379 -0.6081 -0.2131
 1265SOL    HW215429   1.826   1.525   2.694 -0.1608  0.7662  1.2174
 1266SOL     OW15430   2.907   4.698   3.518 -0.6462  0.5684 -0.2517
 1266SOL    HW115431   2.920   4.626   3.579  0.4483  2.4278  1.7207
 1266SOL    HW215432   2.878   0.036   3.570 -1.9135 -1.4678  1.9876
 1267SOL     OW15433   0.609   2.129   5.767 -0.0658  0.2583 -0.8546
 1267SOL    HW115434   0.542   2.100   5.706 -0.5122 -1.8991  0.6565
 1267SOL    HW215435   0.559   2.106   5.846  0.2510  0.6145 -0.5497
 1268SOL     OW15436   2.774   4.226  11.358  0.3164  0.0281  0.4917
 1268SOL    HW115437   2.816   4.140  11.361 -0.1991 -0.1843  1.7533
 1268SOL    HW215438   2.682   4.202  11.353 -0.2176  2.7358 -2.1054
 1269SOL     OW15439   0.882   3.343  12.605 -0.0374 -0.2892  0.3901
 1269SOL    HW115440   0.933   3.315  12.681 -0.9317  0.6503  1.3339
 1269SOL    HW215441   0.793   3.344  12.640 -0.2707 -0.6627 -0.1960
 1270SOL     OW15442   3.387   1.767   7.975 -0.4092  0.0632 -0.7532
 1270SOL    HW115443   3.370   1.748   7.883  1.2153 -0.5561 -0.9315
 1270SOL    HW215444   3.400   1.862   7.973  1.3476 -0.2104 -2.0897
 1271SOL     OW15445   4.405   1.875   5.291 -0.6274 -0.3803  0.0200
 1271SOL    HW115446   4.499   1.892   5.284 -0.6739  0.0392  0.3997
 1271SOL    HW215447   4.392   1.783   5.267  0.0214  0.3951 -3.3315
 1272SOL     OW15448   3.506   3.027   1.264 -0.2991  0.4774 -0.0564
 1272SOL    HW115449   3.535   3.106   1.310  1.3238  0.0737 -0.3858
 1272SOL    HW215450   3.486   2.958   1.327 -2.7012  0.1801 -1.1400
 1273SOL     OW15451   0.065   3.269  13.785  0.2342 -0.5160  0.4987
 1273SOL    HW115452   0.122   3.197  13.756 -0.1177  0.0717 -1.6032
 1273SOL    HW215453   4.717   3.227  13.792 -0.0084 -0.2625 -0.9284
 1274SOL     OW15454   0.963   4.143  11.707  0.1046 -0.0696 -0.3348
 1274SOL    HW115455   0.905   4.218  11.695 -1.2440 -1.2310 -1.0437
 1274SOL    HW215456   1.008   4.160  11.624  3.2176 -3.0629  0.7442
 1275SOL     OW15457   0.007   3.619   1.713 -0.2571 -0.3313  0.0395
 1275SOL    HW115458   0.047   3.693   1.760  0.4769 -0.4533 -0.3943
 1275SOL    HW215459   0.044   3.621   1.625 -1.6308  2.4654 -0.4488
 1276SOL     OW15460   3.399   0.602   7.845  0.6581  0.1488  0.1000
 1276SOL    HW115461   3.474   0.543   7.849  0.0458 -0.6249  0.1107
 1276SOL    HW215462   3.332   0.552   7.797  2.2504 -1.3161 -0.5789
 1277SOL     OW15463   0.793   1.832   8.384 -0.0740 -0.1591 -0.1238
 1277SOL    HW115464   0.883   1.802   8.401 -0.1616 -0.9835 -1.1429
 1277SOL    HW215465   0.766   1.761   8.326 -0.2940  0.7180 -1.0987
 1278SOL     OW15466   0.103   2.321  11.608 -0.4333  0.1131 -0.2094
 1278SOL    HW115467   0.162   2.345  11.537 -0.6762  0.3705 -0.3221
 1278SOL    HW215468   0.140   2.237  11.634 -0.0790  0.0758 -0.8384
 1279SOL     OW15469   4.273   2.536   1.488  0.5578  0.1970  0.3370
 1279SOL    HW115470   4.191   2.586   1.490  0.2863 -0.2339 -0.0031
 1279SOL    HW215471   4.317   2.581   1.416 -0.9979  1.1550  0.0043
 1280SOL     OW15472   1.044   4.167  11.458 -0.2416  0.3501 -0.2776
 1280SOL    HW115473   1.126   4.118  11.459 -0.2121  0.4405  1.4934
 1280SOL    HW215474   1.030   4.188  11.366  2.5232  0.4138 -0.6845
 1281SOL     OW15475   4.027   3.900  12.335  0.5842 -0.2319  0.2117
 1281SOL    HW115476   3.967   3.960  12.290  0.8829  0.9261  1.3631
 1281SOL    HW215477   4.112   3.934  12.305  0.2003  1.6060  1.2020
 1282SOL     OW15478   2.597   2.384   5.861  0.8735  0.1257  0.9975
 1282SOL    HW115479   2.566   2.469   5.893 -1.4994  0.0178 -0.9761
 1282SOL    HW215480   2.556   2.331   5.929  1.1514 -1.0453  0.2682
 1283SOL     OW15481   3.438   1.559   4.292 -0.3486 -0.1000  0.0975
 1283SOL    HW115482   3.393   1.589   4.213  0.7993  2.2391  0.3253
 1283SOL    HW215483   3.377   1.598   4.355 -0.2292  0.9572 -0.4381
 1284SOL     OW15484   3.214   1.384   2.609  0.0672  0.2195  0.2553
 1284SOL    HW115485   3.307   1.395   2.587 -0.2699  0.0100 -1.2391
 1284SOL    HW215486   3.200   1.472   2.643 -1.8793 -0.9354  2.4830
 1285SOL     OW15487   2.163   1.316  15.567  0.4654 -0.8408  0.0115
 1285SOL    HW115488   2.122   1.232  15.590 -0.7915  0.3457  2.1282
 1285SOL    HW215489   2.083   1.358  15.535  0.4727 -0.5232  0.4074
 1286SOL     OW15490   0.669   0.253   7.784  0.2983  0.1934 -0.2603
 1286SOL    HW115491   0.647   0.171   7.739  3.5087 -0.1104 -1.2329
 1286SOL    HW215492   0.678   0.220   7.873  4.4768  2.5055  0.1754
 1287SOL     OW15493   2.230   3.022   3.380 -0.2414  0.4938 -0.5469
 1287SOL    HW115494   2.192   3.007   3.466 -0.2050  1.3552 -0.3763
 1287SOL    HW215495   2.289   2.947   3.375 -0.2158  0.4963 -0.2602
 1288SOL     OW15496   1.293   2.903   7.019 -0.0486  0.4270  0.2994
 1288SOL    HW115497   1.353   2.847   7.069  0.8658 -1.8401 -3.3286
 1288SOL    HW215498   1.212   2.852   7.017  0.9724 -1.1135 -1.8708
 1289SOL     OW15499   0.316   2.551   2.401 -0.0894 -0.1113 -0.5424
 1289SOL    HW115500   0.231   2.529   2.362 -0.2474 -0.0715 -0.2242
 1289SOL    HW215501   0.321   2.491   2.476  0.2221  0.6467  0.0438
 1290SOL     OW15502   0.018   1.390  16.818 -0.7605 -0.1736 -0.0567
 1290SOL    HW115503   0.076   1.342  16.877 -0.7588  0.3335  0.3544
 1290SOL    HW215504   0.028   1.339  16.738 -3.1709 -0.4648 -0.1609
 1291SOL     OW15505   0.951   2.027  17.700 -0.0609 -0.4905 -0.2385
 1291SOL    HW115506   1.043   2.052  17.710 -0.0041 -1.7183  2.4457
 1291SOL    HW215507   0.950   1.941  17.741  0.1807 -0.7669 -0.8197
 1292SOL     OW15508   1.851   1.970   3.549  0.3443 -0.2015 -0.3463
 1292SOL    HW115509   1.786   1.912   3.588 -1.7318  0.6113 -2.5974
 1292SOL    HW215510   1.914   1.905   3.519 -1.3762 -2.1623  0.3275
 1293SOL     OW15511   1.266   3.759  13.495  0.3773  0.2037 -0.1276
 1293SOL    HW115512   1.245   3.847  13.465  0.2209 -0.0981 -0.8921
 1293SOL    HW215513   1.359   3.767  13.514  0.0885 -0.1988  1.5070
 1294SOL     OW15514   1.019   2.686   6.368 -0.1152  0.3294  0.2447
 1294SOL    HW115515   0.955   2.642   6.311  0.2127 -1.6608  1.3989
 1294SOL    HW215516   0.976   2.689   6.454 -0.8242  1.2463 -0.1460
 1295SOL     OW15517   2.208   3.308   9.994  0.3571 -0.0942 -0.9597
 1295SOL    HW115518   2.254   3.392   9.994  0.6678 -0.2611 -0.2723
 1295SOL    HW215519   2.275   3.252   9.953 -0.6278 -1.8478 -0.1798
 1296SOL     OW15520   0.478   4.352   1.341 -0.7135 -0.2986 -0.1556
 1296SOL    HW115521   0.516   4.394   1.263 -1.6410 -1.2363 -1.1023
 1296SOL    HW215522   0.502   4.261   1.322 -1.4107 -0.6007  0.4499
 1297SOL     OW15523   1.345   3.213   7.205  0.5607  0.8430 -0.3884
 1297SOL    HW115524   1.424   3.267   7.197  2.2049 -1.7352 -1.4033
 1297SOL    HW215525   1.323   3.215   7.299 -0.3653  1.1261 -0.6130
 1298SOL     OW15526   1.611   0.126   9.826  0.1665 -0.2337  0.1653
 1298SOL    HW115527   1.654   0.210   9.843  1.8829 -0.8622 -1.0928
 1298SOL    HW215528   1.543   0.172   9.775 -0.0926 -1.8719 -0.9839
 1299SOL     OW15529   1.868   0.673   8.577  0.3386 -0.9966 -0.2772
 1299SOL    HW115530   1.954   0.635   8.559  1.1549  0.1864  1.0963
 1299SOL    HW215531   1.817   0.628   8.510 -1.3289  1.7894 -0.8884
 1300SOL     OW15532   1.090   0.157  15.807  0.1491 -0.0933  0.3155
 1300SOL    HW115533   1.157   0.215  15.769 -0.1666 -0.9979 -1.6288
 1300SOL    HW215534   1.035   0.137  15.731  2.4009 -3.4552 -0.4006
 1301SOL     OW15535   4.448   3.311   5.863  0.3007 -0.8592  0.2699
 1301SOL    HW115536   4.528   3.358   5.886 -1.8591  2.8602  0.1587
 1301SOL    HW215537   4.388   3.384   5.848  0.1311 -1.0461  0.0450
 1302SOL     OW15538   1.361   0.173  14.449 -0.1091  0.0517 -0.2854
 1302SOL    HW115539   1.406   0.257  14.458  2.9647 -1.5047 -1.1082
 1302SOL    HW215540   1.296   0.197  14.382 -0.7424 -2.2113 -0.4898
 1303SOL     OW15541   1.673   1.795   3.656  0.1859 -0.1217 -0.3069
 1303SOL    HW115542   1.657   1.847   3.735  0.5126 -0.3120 -0.1161
 1303SOL    HW215543   1.659   1.712   3.701  2.5318  1.4727  3.4108
 1304SOL     OW15544   3.259   3.233   2.330 -0.9927  0.4044  0.4953
 1304SOL    HW115545   3.339   3.228   2.278 -0.7652  1.1925  0.7705
 1304SOL    HW215546   3.287   3.282   2.407  1.2703  0.5392 -0.4406
 1305SOL     OW15547   3.845   1.642   9.103  0.1897 -0.4300  0.4522
 1305SOL    HW115548   3.915   1.618   9.165  2.3487  1.0125 -1.4141
 1305SOL    HW215549   3.843   1.572   9.038 -2.7424 -0.9808  1.1601
 1306SOL     OW15550   3.165   3.111   6.333  0.1760  0.1376 -0.7546
 1306SOL    HW115551   3.182   3.030   6.285 -0.3044 -1.2164  1.3526
 1306SOL    HW215552   3.194   3.091   6.422  0.7761  1.7137 -0.5969
 1307SOL     OW15553   0.196   0.436   3.009  0.2775  0.0214 -0.1242
 1307SOL    HW115554   0.141   0.359   3.019 -0.4173  0.4017 -1.0755
 1307SOL    HW215555   0.216   0.437   2.916 -3.2380  1.1989 -0.8536
 1308SOL     OW15556   3.895   3.660   7.947 -0.4685  0.3062  0.6709
 1308SOL    HW115557   3.942   3.609   7.880  0.3496  0.3472  1.2265
 1308SOL    HW215558   3.967   3.680   8.006  2.4452 -0.3444 -2.6779
 1309SOL     OW15559   1.165   3.152   8.209 -0.0219  0.2247 -0.1882
 1309SOL    HW115560   1.175   3.157   8.304 -1.8285  0.4416 -0.0110
 1309SOL    HW215561   1.076   3.123   8.190 -0.6522  0.7133  2.0061
 1310SOL     OW15562   0.531   0.322   9.021  0.2954  0.8666 -0.7201
 1310SOL    HW115563   0.467   0.390   9.042 -0.0201 -0.6847  3.2688
 1310SOL    HW215564   0.517   0.261   9.094  0.3782 -0.4455 -1.7903
 1311SOL     OW15565   1.683   2.110   8.802 -0.3094 -0.7294  0.2282
 1311SOL    HW115566   1.634   2.043   8.755  0.8204 -3.3933  2.8658
 1311SOL    HW215567   1.669   2.078   8.891  0.1294 -0.0316  0.5541
 1312SOL     OW15568   2.244   0.640  14.042 -0.2965 -0.0304  0.0985
 1312SOL    HW115569   2.235   0.703  14.114  0.8720 -0.1010  0.2976
 1312SOL    HW215570   2.338   0.644  14.026 -0.1672  1.9435  1.3383
 1313SOL     OW15571   4.736   1.554  13.735 -0.3405  0.0249  0.0877
 1313SOL    HW115572   0.072   1.596  13.779  0.0667 -0.4630 -0.1226
 1313SOL    HW215573   4.679   1.535  13.810  0.0953  1.1284  0.6968
 1314SOL     OW15574   1.964   2.372   9.977 -0.2712  0.3166 -0.1067
 1314SOL    HW115575   2.016   2.373  10.057  0.9825  0.9063 -0.9309
 1314SOL    HW215576   1.932   2.281   9.977  0.9663 -0.1126  0.9128
 1315SOL     OW15577   0.573   3.240   5.332  0.6902 -0.1643 -0.6056
 1315SOL    HW115578   0.585   3.322   5.379  0.2816 -0.7647  0.5524
 1315SOL    HW215579   0.573   3.263   5.239  0.3774  1.3077 -0.2316
 1316SOL     OW15580   0.743   4.480   8.120 -0.6542 -0.4735 -0.1345
 1316SOL    HW115581   0.698   4.426   8.055 -0.3126 -1.9579  0.8755
 1316SOL    HW215582   0.687   4.555   8.143 -1.6313 -0.1802 -3.3337
 1317SOL     OW15583   1.120   4.139   7.844 -0.2193 -0.5483 -0.0881
 1317SOL    HW115584   1.128   4.157   7.938 -0.6628 -1.5159  0.1339
 1317SOL    HW215585   1.082   4.219   7.807  2.5498 -0.0834 -1.8780
 1318SOL     OW15586   1.863   3.418  16.109  0.4641  0.2057  0.1741
 1318SOL    HW115587   1.828   3.330  16.100 -1.3389  0.8340  0.8957
 1318SOL    HW215588   1.909   3.429  16.026 -0.6804  0.6544 -0.3970
 1319SOL     OW15589   4.266   0.185   7.941 -0.5541 -0.2883  0.0148
 1319SOL    HW115590   4.357   0.155   7.933 -0.4324 -0.5067  2.0917
 1319SOL    HW215591   4.223   0.100   7.941 -0.0250 -0.5607  0.6798
 1320SOL     OW15592   4.066   0.451   6.305 -0.1749 -0.3166 -0.3122
 1320SOL    HW115593   4.111   0.386   6.360 -0.1256 -0.5050 -0.5713
 1320SOL    HW215594   4.112   0.435   6.222 -1.1634  1.4258 -1.1832
 1321SOL     OW15595   3.371   0.049   7.370  0.3623  0.6545 -0.1688
 1321SOL    HW115596   3.312   0.048   7.446 -0.2870  0.2617 -0.6792
 1321SOL    HW215597   3.428   0.118   7.405 -0.2022 -0.2579  2.5519
 1322SOL     OW15598   0.642   2.120  15.325  0.4999  0.4712  0.1557
 1322SOL    HW115599   0.597   2.038  15.348  2.0288 -0.5324 -0.3942
 1322SOL    HW215600   0.728   2.098  15.361  0.9890  1.9686 -0.1154
 1323SOL     OW15601   0.729   3.663  16.172  0.0685 -0.9871  0.5661
 1323SOL    HW115602   0.766   3.655  16.084 -2.6645 -2.6615 -0.4261
 1323SOL    HW215603   0.796   3.640  16.236 -0.4865 -2.8612  0.4595
 1324SOL     OW15604   2.601   1.197   7.812  0.3030 -0.5405  0.0023
 1324SOL    HW115605   2.550   1.125   7.776  1.2058 -0.2467 -1.8570
 1324SOL    HW215606   2.533   1.252   7.852 -0.5274  0.3346 -2.6496
 1325SOL     OW15607   0.482   3.656   3.871 -0.1501 -0.1094 -0.0561
 1325SOL    HW115608   0.469   3.584   3.810 -0.1819 -0.1599  0.0117
 1325SOL    HW215609   0.400   3.705   3.869  0.1588  0.4651  1.1620
 1326SOL     OW15610   4.676   0.891   8.613 -0.0031  0.1240  0.4101
 1326SOL    HW115611   4.737   0.963   8.602  0.3856 -0.2526  0.1352
 1326SOL    HW215612   4.627   0.889   8.531  2.2845 -1.3391 -0.8940
 1327SOL     OW15613   4.645   1.005   9.165  0.1406 -0.5578 -0.0504
 1327SOL    HW115614   4.661   0.992   9.072  1.8332 -2.7661  0.5466
 1327SOL    HW215615   4.571   0.947   9.186 -0.1511  0.0507  0.6042
 1328SOL     OW15616   2.286   0.057   0.317 -0.2563  0.1556 -0.4195
 1328SOL    HW115617   2.219   0.047   0.249  0.0473 -1.2080 -0.5297
 1328SOL    HW215618   2.318   4.705   0.326 -0.6693  0.1410  0.9130
 1329SOL     OW15619   4.409   2.238  12.747 -0.5662 -0.2790  0.0849
 1329SOL    HW115620   4.491   2.191  12.758  0.1150  0.4010 -2.0986
 1329SOL    HW215621   4.371   2.191  12.673  2.0706  0.0983 -1.5106
 1330SOL     OW15622   1.739   0.881  17.255 -0.3334 -0.2658  0.3787
 1330SOL    HW115623   1.761   0.848  17.343  0.0077  0.8574  0.7110
 1330SOL    HW215624   1.670   0.817  17.238 -0.9000  0.4669 -0.0531
 1331SOL     OW15625   1.274   1.216   7.804  0.0938 -0.3236  0.3822
 1331SOL    HW115626   1.212   1.147   7.782 -0.6423  1.4300 -3.0892
 1331SOL    HW215627   1.304   1.236   7.715 -0.7200  0.0600  0.1940
 1332SOL     OW15628   3.247   3.795  16.683  0.5066  0.1890  0.2309
 1332SOL    HW115629   3.287   3.866  16.733 -0.6610 -0.3805  2.0031
 1332SOL    HW215630   3.230   3.836  16.598  2.5890 -0.2135 -0.3660
 1333SOL     OW15631   3.225   2.684   3.486  0.4735  0.0198  0.4293
 1333SOL    HW115632   3.222   2.772   3.523  2.8582 -0.2424  1.2344
 1333SOL    HW215633   3.187   2.631   3.556  0.3948 -1.0743 -0.4158
 1334SOL     OW15634   2.184   4.696   4.462 -0.5836  0.0597  0.1897
 1334SOL    HW115635   2.247   4.634   4.498 -0.6389  0.0612  0.2891
 1334SOL    HW215636   2.229   0.043   4.465 -0.6254  0.0807  0.2270
 1335SOL     OW15637   1.090   3.916   8.234  0.3054  0.4579 -0.1383
 1335SOL    HW115638   1.058   3.836   8.275  2.2592 -0.3679 -0.2295
 1335SOL    HW215639   1.008   3.952   8.198 -1.0521 -1.1627  1.3425
 1336SOL     OW15640   2.478   2.865   1.567  0.6291 -0.1391 -0.3319
 1336SOL    HW115641   2.553   2.923   1.555 -0.2816  1.1647  0.2305
 1336SOL    HW215642   2.414   2.933   1.590  0.3166 -1.2375  2.0291
 1337SOL     OW15643   0.112   2.218   4.502  0.3528  0.5113  0.0055
 1337SOL    HW115644   0.158   2.197   4.583  1.1133  0.4778 -0.4330
 1337SOL    HW215645   0.031   2.172   4.523  0.8284 -0.4074 -0.1585
 1338SOL     OW15646   3.510   3.185   7.545 -0.0709 -0.6946  0.4311
 1338SOL    HW115647   3.443   3.238   7.587  0.6840  1.1372 -0.6925
 1338SOL    HW215648   3.586   3.220   7.592  0.6899  1.6704 -2.5397
 1339SOL     OW15649   0.850   3.792   4.427 -0.3648 -0.1236 -0.2142
 1339SOL    HW115650   0.923   3.850   4.450 -0.6416  0.0251  0.2633
 1339SOL    HW215651   0.777   3.834   4.472 -0.6486  0.2604 -1.0221
 1340SOL     OW15652   4.707   1.879   6.610 -0.5341  0.2292 -0.2467
 1340SOL    HW115653   4.626   1.885   6.661  0.6307 -0.8487  1.7560
 1340SOL    HW215654   4.670   1.878   6.522 -2.7285  2.1126  0.6498
 1341SOL     OW15655   1.503   3.570   9.280  0.1080 -0.7545 -0.1342
 1341SOL    HW115656   1.457   3.522   9.349  0.0827 -0.7775 -0.1667
 1341SOL    HW215657   1.443   3.641   9.256  0.4756  0.0767  1.4000
 1342SOL     OW15658   0.553   3.505   7.746  0.1795  0.3521  0.2929
 1342SOL    HW115659   0.588   3.418   7.730  0.5048  0.2371  1.6580
 1342SOL    HW215660   0.519   3.491   7.834 -0.1412 -0.7342 -0.0054
 1343SOL     OW15661   2.421   3.896   2.205 -0.0298 -0.2063 -0.4454
 1343SOL    HW115662   2.489   3.836   2.234  3.0198  2.3415 -2.2856
 1343SOL    HW215663   2.373   3.905   2.288  1.8433 -0.6265  0.6784
 1344SOL     OW15664   0.887   1.358   9.044 -0.3647  0.6611  0.5085
 1344SOL    HW115665   0.843   1.436   9.011 -2.1547  0.6163  2.7335
 1344SOL    HW215666   0.910   1.305   8.968 -0.3792  0.4263  0.6682
 1345SOL     OW15667   0.786   2.041   2.436 -0.7123 -0.1944  0.7394
 1345SOL    HW115668   0.698   2.004   2.443 -0.7239 -0.4184 -0.5904
 1345SOL    HW215669   0.766   2.132   2.416 -0.9902 -0.4577 -0.2063
 1346SOL     OW15670   0.889   3.899   6.183  0.4628  0.0907 -0.1611
 1346SOL    HW115671   0.854   3.975   6.135  2.2611  0.6931 -0.5068
 1346SOL    HW215672   0.920   3.944   6.261  0.2744  0.6645 -0.4125
 1347SOL     OW15673   0.719   0.014   5.182 -0.0528  0.4830 -0.1174
 1347SOL    HW115674   0.626   0.031   5.199 -0.1279  0.2681 -0.3241
 1347SOL    HW215675   0.736   0.074   5.109  0.1715  0.1656 -0.3226
 1348SOL     OW15676   2.099   4.596   4.988  0.6226 -0.0577 -0.3156
 1348SOL    HW115677   2.047   4.675   4.973  3.2492  2.0321  1.5692
 1348SOL    HW215678   2.042   4.542   5.043  0.0041  1.9077  0.9856
 1349SOL     OW15679   1.431   0.543   9.724 -0.4616  0.4127 -0.0894
 1349SOL    HW115680   1.511   0.593   9.706 -1.0150  1.0856 -0.6813
 1349SOL    HW215681   1.442   0.520   9.817 -2.8533  0.6779  0.2668
 1350SOL     OW15682   1.016   4.355  17.081  0.6799  0.6250  0.2934
 1350SOL    HW115683   0.992   4.374  16.990  0.7036 -1.3314 -0.1075
 1350SOL    HW215684   0.934   4.313  17.104 -0.8748  3.3403 -0.2454
 1351SOL     OW15685   4.446   2.897   3.321 -0.3458  0.3156 -0.3550
 1351SOL    HW115686   4.458   2.852   3.405  1.5490 -1.2812 -1.5012
 1351SOL    HW215687   4.442   2.987   3.354 -1.0265  0.2236 -0.1844
 1352SOL     OW15688   0.385   2.221   5.920  0.2027 -0.0753 -0.2731
 1352SOL    HW115689   0.388   2.312   5.949  0.4695 -0.5552  1.1589
 1352SOL    HW215690   0.351   2.227   5.830 -0.8258 -0.0067  0.1117
 1353SOL     OW15691   4.532   1.943   1.810 -0.0655 -0.3881 -0.9280
 1353SOL    HW115692   4.622   1.909   1.818  0.3192  0.3712 -2.0950
 1353SOL    HW215693   4.497   1.876   1.752 -2.4508 -1.4017  1.7331
 1354SOL     OW15694   3.593   3.018   5.443 -0.3967 -0.2064  0.0335
 1354SOL    HW115695   3.513   3.055   5.480 -1.4734 -0.8353 -1.6671
 1354SOL    HW215696   3.558   2.941   5.398 -1.0245 -1.0552  1.9905
 1355SOL     OW15697   1.875   3.136   8.354  0.1047  0.0801  0.2079
 1355SOL    HW115698   1.950   3.078   8.340 -1.2604 -1.4511 -0.6666
 1355SOL    HW215699   1.799   3.081   8.336  1.3956 -1.6949  0.2104
 1356SOL     OW15700   4.028   3.835  13.892  0.1509 -0.4876 -0.0100
 1356SOL    HW115701   4.097   3.884  13.937  0.4948 -0.0925 -0.9484
 1356SOL    HW215702   4.051   3.746  13.918 -0.3612 -0.1955  1.4391
 1357SOL     OW15703   0.787   2.071   9.298 -0.0025  0.5488  0.1550
 1357SOL    HW115704   0.785   2.096   9.390 -0.1003 -0.0196  0.3091
 1357SOL    HW215705   0.860   2.127   9.271  1.4157 -1.3193  0.0745
 1358SOL     OW15706   4.639   0.679   6.065 -0.3407  0.1315  0.6436
 1358SOL    HW115707   4.716   0.708   6.115  0.3923  0.7940 -0.8523
 1358SOL    HW215708   4.628   0.590   6.097 -1.9996  0.4682  0.9723
 1359SOL     OW15709   3.543   4.191   2.901  1.0107  1.3285 -0.8754
 1359SOL    HW115710   3.490   4.112   2.912  2.1803  0.2080 -3.1450
 1359SOL    HW215711   3.632   4.155   2.900  0.4437 -0.1318  0.3210
 1360SOL     OW15712   1.128   2.358   7.042  0.5633 -0.3352  0.8038
 1360SOL    HW115713   1.067   2.431   7.055  0.7269 -0.4510  2.2474
 1360SOL    HW215714   1.127   2.327   7.133 -0.9564  1.6188  1.4608
 1361SOL     OW15715   4.155   1.734   7.337  0.0832  0.3207  0.4972
 1361SOL    HW115716   4.158   1.731   7.241  3.2180  0.9098  0.5481
 1361SOL    HW215717   4.106   1.653   7.339 -0.1171  0.4418  0.4770
 1362SOL     OW15718   0.100   3.594  17.696  0.3929 -0.1042 -0.0569
 1362SOL    HW115719   0.048   3.619  17.619 -0.1183  0.3209  0.4206
 1362SOL    HW215720   0.049   3.634   0.018 -1.1145 -1.5238 -0.3491
 1363SOL     OW15721   0.469   0.256   8.483  0.4355  0.0801  0.3693
 1363SOL    HW115722   0.535   0.308   8.530  0.2148 -0.5903  1.4090
 1363SOL    HW215723   0.392   0.300   8.519 -0.7491 -0.1626 -1.8617
 1364SOL     OW15724   1.259   4.212   4.157 -0.3623  0.2429  0.2699
 1364SOL    HW115725   1.315   4.278   4.197  0.1313  0.8036 -1.3341
 1364SOL    HW215726   1.310   4.132   4.165  0.0902  0.5189  0.1530
 1365SOL     OW15727   1.846   0.333   0.264  0.1363  0.4512 -0.6013
 1365SOL    HW115728   1.909   0.328   0.336 -1.6127 -0.2087  0.8918
 1365SOL    HW215729   1.810   0.245   0.258  0.3910  0.4092 -1.5225
 1366SOL     OW15730   0.249   0.458  14.260  0.5366 -0.4599  0.2423
 1366SOL    HW115731   0.314   0.468  14.190 -1.3531  1.7125 -1.2126
 1366SOL    HW215732   0.196   0.384  14.231 -1.3758  1.2329 -0.6229
 1367SOL     OW15733   2.407   0.519   6.277  0.3149  0.4058  0.0519
 1367SOL    HW115734   2.437   0.570   6.352 -1.3084  1.0707  0.2591
 1367SOL    HW215735   2.329   0.468   6.302  0.5375  0.0276 -0.0299
 1368SOL     OW15736   2.825   1.337  17.506  0.1039 -0.3312 -0.3141
 1368SOL    HW115737   2.836   1.399  17.579 -0.5279 -0.3793 -0.1804
 1368SOL    HW215738   2.812   1.257  17.557  0.9936 -0.3408 -0.1020
 1369SOL     OW15739   0.325   4.604   9.427  0.2888 -0.1234 -0.1126
 1369SOL    HW115740   0.399   4.567   9.475 -0.6015 -1.0984  0.4963
 1369SOL    HW215741   0.337   4.552   9.348  1.8354  0.2354 -0.1194
 1370SOL     OW15742   4.412   0.233   6.478 -0.1638  0.4881 -0.0721
 1370SOL    HW115743   4.320   0.218   6.499 -0.3963  1.5414 -0.3665
 1370SOL    HW215744   4.419   0.320   6.516 -0.0800  0.7062 -0.5871
 1371SOL     OW15745   0.856   2.774   9.339 -0.6666  0.8746 -0.2108
 1371SOL    HW115746   0.823   2.862   9.357 -1.4861  1.0379 -2.6441
 1371SOL    HW215747   0.922   2.768   9.409  1.0208  0.3327 -1.8418
 1372SOL     OW15748   3.294   0.797   3.606 -0.4977  0.1429 -0.0639
 1372SOL    HW115749   3.335   0.772   3.523  2.0640 -2.3897  1.9664
 1372SOL    HW215750   3.308   0.891   3.604 -1.5881  0.2946 -0.7717
 1373SOL     OW15751   2.503   1.881   6.242  0.2072 -0.3954  0.3408
 1373SOL    HW115752   2.477   1.962   6.199  0.1579  1.1003  3.1441
 1373SOL    HW215753   2.575   1.845   6.191  1.1445  3.3286 -0.9360
 1374SOL     OW15754   4.165   3.814   6.782 -0.2526 -0.8661  0.1594
 1374SOL    HW115755   4.125   3.732   6.811 -3.0840  1.0279  1.6101
 1374SOL    HW215756   4.255   3.782   6.769 -0.0446  0.3787 -1.4868
 1375SOL     OW15757   4.026   2.299   4.133 -0.0204 -0.3402 -0.7941
 1375SOL    HW115758   4.092   2.230   4.132  0.0380 -0.2865 -0.6885
 1375SOL    HW215759   4.076   2.376   4.161  1.3866 -1.6383  0.2409
 1376SOL     OW15760   1.545   4.148   9.387 -0.2228 -0.6387  0.0034
 1376SOL    HW115761   1.622   4.189   9.426 -0.8974  0.4859  0.1450
 1376SOL    HW215762   1.493   4.133   9.466  0.0297 -1.9393 -0.0726
 1377SOL     OW15763   1.394   4.423   2.265 -0.7215 -0.3171 -0.4270
 1377SOL    HW115764   1.453   4.367   2.317  1.4840 -0.0984 -2.6612
 1377SOL    HW215765   1.448   4.442   2.189  1.7143 -1.6499  0.9402
 1378SOL     OW15766   3.927   1.324  10.554  0.0385  0.1694  0.3524
 1378SOL    HW115767   3.976   1.268  10.494 -0.7778 -1.1425  0.8848
 1378SOL    HW215768   3.973   1.406  10.537 -1.5344  0.9744 -0.0558
 1379SOL     OW15769   3.564   1.891   1.270  0.1400  0.6490 -1.0093
 1379SOL    HW115770   3.518   1.870   1.352 -0.6803  0.4922 -1.5052
 1379SOL    HW215771   3.586   1.801   1.246  0.1467  0.1894  0.7196
 1380SOL     OW15772   3.111   2.644   6.532 -0.0206  0.1763 -0.0321
 1380SOL    HW115773   3.183   2.587   6.557  0.3101 -0.5662 -2.7404
 1380SOL    HW215774   3.041   2.582   6.555 -1.5916  2.2213  0.7475
 1381SOL     OW15775   4.485   3.919   8.749  0.9051  0.3177 -0.0380
 1381SOL    HW115776   4.506   3.924   8.655 -0.9649  1.4287 -0.4087
 1381SOL    HW215777   4.563   3.884   8.791  1.2952  1.2602  0.0136
 1382SOL     OW15778   1.590   1.446   4.793 -0.0858  0.3362  0.7368
 1382SOL    HW115779   1.498   1.465   4.810  0.2148  1.0030  1.6372
 1382SOL    HW215780   1.593   1.396   4.711 -1.1452 -1.0873  1.5701
 1383SOL     OW15781   2.963   1.195   5.779  0.4269  0.0182 -0.1183
 1383SOL    HW115782   2.943   1.166   5.868  0.2385  0.0398 -0.1544
 1383SOL    HW215783   2.890   1.252   5.756 -0.1350  0.5566  3.0473
 1384SOL     OW15784   2.297   3.895   4.101 -0.3542  0.4393 -0.9243
 1384SOL    HW115785   2.272   3.957   4.032  0.4421  2.1296  0.3039
 1384SOL    HW215786   2.334   3.956   4.166  0.0401  1.3389 -1.9924
 1385SOL     OW15787   4.449   2.282  10.475 -0.1446  0.0206 -0.3994
 1385SOL    HW115788   4.495   2.328  10.545  1.1860 -0.2065 -1.1316
 1385SOL    HW215789   4.378   2.342  10.451 -1.1824 -0.3453  1.7573
 1386SOL     OW15790   3.352   2.323   6.151 -0.2498 -0.1357  0.4818
 1386SOL    HW115791   3.436   2.277   6.151  1.5152  3.0152 -0.7851
 1386SOL    HW215792   3.379   2.415   6.149  2.6457 -1.0272 -1.0530
 1387SOL     OW15793   1.808   2.327   7.500 -0.1193 -0.2722 -0.2586
 1387SOL    HW115794   1.787   2.381   7.576 -1.7702  0.7470 -1.4401
 1387SOL    HW215795   1.725   2.323   7.452 -2.0566 -0.8523  3.1036
 1388SOL     OW15796   4.256   4.198  17.525  0.7622 -0.1968  0.2130
 1388SOL    HW115797   4.268   4.293  17.535 -1.0647  0.2658 -2.1424
 1388SOL    HW215798   4.280   4.181  17.434  0.1869 -0.0172  0.0278
 1389SOL     OW15799   3.213   4.323   4.877 -0.1346  0.4720  0.1677
 1389SOL    HW115800   3.249   4.321   4.966 -1.4294  0.8572  0.7082
 1389SOL    HW215801   3.278   4.271   4.831  1.0402  2.0614  0.0516
 1390SOL     OW15802   3.976   1.340   8.669 -0.4558  0.2138  0.1557
 1390SOL    HW115803   3.893   1.357   8.713 -0.6123  0.9032 -0.3983
 1390SOL    HW215804   3.949   1.287   8.594  0.9110  0.7476 -0.7260
 1391SOL     OW15805   4.572   0.037   2.791 -0.2384  0.9368 -0.0031
 1391SOL    HW115806   4.558   4.681   2.775  1.8992  0.8076 -1.0581
 1391SOL    HW215807   4.568   0.068   2.701 -0.3290 -1.6856 -0.9003
 1392SOL     OW15808   0.875   3.552  12.819 -0.1491 -0.0557 -0.0725
 1392SOL    HW115809   0.823   3.628  12.793 -0.7478 -0.8579 -1.2028
 1392SOL    HW215810   0.925   3.529  12.741  0.5464 -2.4037  1.0758
 1393SOL     OW15811   1.470   4.023   6.093  0.3934 -0.3288  0.1118
 1393SOL    HW115812   1.530   4.098   6.099 -0.4922  0.4774 -1.0054
 1393SOL    HW215813   1.387   4.069   6.096 -0.9099 -2.7038  0.3578
 1394SOL     OW15814   3.130   0.037   0.982  0.2560 -0.3535 -0.0252
 1394SOL    HW115815   3.067   0.107   0.998  1.5332  0.6514  0.6472
 1394SOL    HW215816   3.186   0.055   1.057  0.7100 -0.0216 -0.4523
 1395SOL     OW15817   4.150   1.799   8.936  0.6909  0.1551  0.2076
 1395SOL    HW115818   4.213   1.728   8.951 -1.0542 -0.7664  3.1166
 1395SOL    HW215819   4.175   1.832   8.850 -0.2740  2.0056  0.6451
 1396SOL     OW15820   2.028   4.086   8.831 -0.2228 -0.6749  0.0344
 1396SOL    HW115821   2.091   4.121   8.768 -0.4478  1.8406  1.2269
 1396SOL    HW215822   1.992   4.168   8.865 -0.7656 -1.0632  0.3934
 1397SOL     OW15823   3.862   3.050   1.763 -0.3092  0.3765  0.1878
 1397SOL    HW115824   3.916   3.113   1.811 -0.1089  0.7572 -0.5340
 1397SOL    HW215825   3.891   2.976   1.816 -1.8040  0.8290  1.6515
 1398SOL     OW15826   1.396   1.077  10.701  0.1759  0.4100  0.3054
 1398SOL    HW115827   1.454   1.129  10.757  1.3886 -2.6528  1.8892
 1398SOL    HW215828   1.323   1.139  10.706  1.4307  2.0493 -2.0679
 1399SOL     OW15829   2.975   3.856   7.586  0.3264 -0.4094 -0.2511
 1399SOL    HW115830   2.893   3.829   7.547  0.3355 -0.6685 -0.0892
 1399SOL    HW215831   2.968   3.952   7.581 -2.5185 -0.5642  0.8993
 1400SOL     OW15832   2.083   0.789   1.025 -0.5386 -0.0753 -0.1535
 1400SOL    HW115833   2.117   0.816   1.111 -1.9399 -0.0581  0.3896
 1400SOL    HW215834   2.166   0.803   0.979  0.0656  3.0061  1.8715
 1401SOL     OW15835   4.722   2.954   2.641  0.0248  0.1618 -0.0764
 1401SOL    HW115836   0.064   2.916   2.602 -0.4987 -0.8294 -0.1904
 1401SOL    HW215837   0.018   2.967   2.729  1.8550 -0.5897 -0.6476
 1402SOL     OW15838   1.906   0.052   0.914 -0.0471  0.3256  0.0484
 1402SOL    HW115839   1.884   0.090   0.999 -2.8133  1.1709 -1.0584
 1402SOL    HW215840   1.958   4.713   0.940  0.1534 -0.1141 -1.6395
 1403SOL     OW15841   1.954   1.057   3.065  0.2551 -0.2744  0.5976
 1403SOL    HW115842   1.920   1.121   3.003  2.9373  0.2762 -0.3092
 1403SOL    HW215843   1.992   0.985   3.015 -0.5347 -1.7909  2.1695
 1404SOL     OW15844   2.781   4.109   5.760  1.0273 -0.5151 -0.0190
 1404SOL    HW115845   2.868   4.137   5.732  0.5181  2.5751  1.4206
 1404SOL    HW215846   2.725   4.185   5.748  0.0813 -0.9384  1.6212
 1405SOL     OW15847   2.103   0.893   4.149 -0.3488 -0.2160 -0.7780
 1405SOL    HW115848   2.060   0.843   4.218 -2.2721  1.1080 -1.0114
 1405SOL    HW215849   2.047   0.970   4.161  0.5558  0.4723 -0.8741
 1406SOL     OW15850   3.127   0.856   8.597 -0.5425  0.2511  0.0525
 1406SOL    HW115851   3.173   0.805   8.530  1.0777 -0.1255  1.4607
 1406SOL    HW215852   3.190   0.924   8.622  1.5477 -1.8435  0.5021
 1407SOL     OW15853   0.076   2.559  15.527  0.0512  0.0520 -0.0482
 1407SOL    HW115854   0.124   2.519  15.455 -0.0108  1.0451 -0.6445
 1407SOL    HW215855   0.089   2.489  15.591  2.3745 -0.3418 -0.9406
 1408SOL     OW15856   1.250   2.784   6.249 -0.3416 -0.2394 -0.3077
 1408SOL    HW115857   1.191   2.771   6.323  1.6420  0.3100  1.3551
 1408SOL    HW215858   1.188   2.753   6.183 -0.7503 -1.3406  0.5916
 1409SOL     OW15859   0.814   2.791   7.411 -0.8620 -0.1731 -0.3142
 1409SOL    HW115860   0.820   2.824   7.501  1.4094  2.9456 -1.6100
 1409SOL    HW215861   0.798   2.697   7.418  0.5075 -0.3684  0.2349
 1410SOL     OW15862   4.555   2.720  14.344  0.5538  0.4459  0.1486
 1410SOL    HW115863   4.603   2.643  14.314  1.0207  1.1316 -0.8385
 1410SOL    HW215864   4.616   2.768  14.400  1.5453 -0.6488  0.0145
 1411SOL     OW15865   2.291   0.817   7.807  0.2734  0.1083 -0.6917
 1411SOL    HW115866   2.258   0.765   7.733 -0.8518 -1.5162  0.9539
 1411SOL    HW215867   2.363   0.868   7.770 -0.6813 -0.1986 -2.9588
 1412SOL     OW15868   0.608   2.537  13.527  0.4113  0.8504 -0.3003
 1412SOL    HW115869   0.532   2.482  13.508  2.2543 -1.4508 -0.9778
 1412SOL    HW215870   0.562   2.619  13.543 -0.4114  0.1695  0.7922
 1413SOL     OW15871   4.117   0.935   0.530  0.2445  0.6330 -0.0844
 1413SOL    HW115872   4.208   0.916   0.506  0.6493  1.9102  0.3932
 1413SOL    HW215873   4.124   0.941   0.626 -0.5867  1.3709 -0.0679
 1414SOL     OW15874   0.048   0.283  12.992  0.6564 -0.2139  0.1031
 1414SOL    HW115875   0.140   0.290  12.965  0.7932  2.4406  1.2635
 1414SOL    HW215876   0.055   0.241  13.078  1.6308  0.0702  0.1642
 1415SOL     OW15877   3.377   1.992   6.960  0.6269  0.0428  0.1511
 1415SOL    HW115878   3.433   2.005   6.884 -0.7207  2.0106 -0.5304
 1415SOL    HW215879   3.305   1.947   6.915  1.0642 -0.8526  0.3467
 1416SOL     OW15880   2.775   3.871   7.888  0.0710  0.2876 -0.0532
 1416SOL    HW115881   2.712   3.884   7.817  1.9269 -2.3902 -2.1763
 1416SOL    HW215882   2.740   3.925   7.959  0.0269 -0.7152  0.6848
 1417SOL     OW15883   3.251   0.107  10.962  0.1668  0.4388  0.1376
 1417SOL    HW115884   3.335   0.117  10.919  0.7552 -1.0568  0.9618
 1417SOL    HW215885   3.198   0.078  10.888  0.2437  0.7996 -0.0563
 1418SOL     OW15886   4.718   3.450  17.186  0.1191 -0.0391 -0.1841
 1418SOL    HW115887   4.686   3.499  17.262 -0.2401 -0.6975  0.0856
 1418SOL    HW215888   0.041   3.386  17.224 -1.0179 -0.4645  0.8948
 1419SOL     OW15889   3.904   3.769  11.660  0.0462 -0.0347 -0.2155
 1419SOL    HW115890   3.864   3.750  11.576  0.1316  0.8007 -0.4362
 1419SOL    HW215891   3.875   3.697  11.717  0.0873  0.7045  0.7425
 1420SOL     OW15892   0.039   1.236   7.604  0.0644  0.2691 -0.0356
 1420SOL    HW115893   0.020   1.257   7.513 -0.2243 -0.0370 -0.0456
 1420SOL    HW215894   4.730   1.307   7.650  1.4169 -1.3350  3.8364
 1421SOL     OW15895   1.106   0.967   1.321  0.2520 -0.6306 -0.4760
 1421SOL    HW115896   1.097   0.952   1.227 -0.2335 -1.8206 -0.2372
 1421SOL    HW215897   1.139   1.055   1.337 -0.4195 -0.5523  0.4405
 1422SOL     OW15898   1.350   3.373   2.055 -0.4613  0.1326  0.2676
 1422SOL    HW115899   1.406   3.328   2.118  0.4566  0.3612 -0.3846
 1422SOL    HW215900   1.321   3.441   2.116  0.7583 -0.1841  1.1748
 1423SOL     OW15901   4.686   0.638  10.031 -0.1431 -0.7605  0.0727
 1423SOL    HW115902   0.001   0.562  10.005  0.5862 -0.1958 -0.1128
 1423SOL    HW215903   4.722   0.657  10.117  0.0367  2.9415 -0.8139
 1424SOL     OW15904   3.864   0.766   8.079 -0.1890  0.1029 -0.4669
 1424SOL    HW115905   3.866   0.855   8.046  1.3290 -0.1840 -1.1614
 1424SOL    HW215906   3.770   0.748   8.088  0.4478 -1.3591  3.2356
 1425SOL     OW15907   0.073   2.260  11.020 -0.0796  0.3452  0.0331
 1425SOL    HW115908   4.724   2.220  11.030 -0.5241  1.2236 -0.2379
 1425SOL    HW215909   0.071   2.322  11.094 -0.5285  2.8580 -2.0726
 1426SOL     OW15910   4.201   3.019   1.241  0.1352 -0.2515  0.6554
 1426SOL    HW115911   4.280   2.989   1.195  0.2655  0.9963  0.0535
 1426SOL    HW215912   4.136   3.011   1.171 -0.2508  0.0795  0.9779
 1427SOL     OW15913   0.858   0.843   3.803  0.3438  0.7465  0.0318
 1427SOL    HW115914   0.818   0.929   3.792 -1.9790 -0.3204  0.1836
 1427SOL    HW215915   0.895   0.838   3.891  2.3653 -0.3382 -0.8742
 1428SOL     OW15916   0.421   2.793   2.912  0.2858  0.1729 -0.2848
 1428SOL    HW115917   0.421   2.765   3.003  0.2485  0.0327 -0.3293
 1428SOL    HW215918   0.515   2.810   2.908  0.5409 -1.8510 -2.7768
 1429SOL     OW15919   3.556   0.229  12.864  0.1795  0.1867 -0.6276
 1429SOL    HW115920   3.586   0.144  12.897  0.6638  0.3656 -0.6190
 1429SOL    HW215921   3.461   0.233  12.881  0.2735  1.2820 -0.3823
 1430SOL     OW15922   0.124   4.378   6.560 -0.0332  0.6039  0.4878
 1430SOL    HW115923   0.184   4.424   6.501  0.7060  1.3770  1.8362
 1430SOL    HW215924   0.046   4.433   6.558  1.2309  2.3396 -0.7784
 1431SOL     OW15925   2.491   3.450   3.579  0.3789  0.5032 -0.2237
 1431SOL    HW115926   2.565   3.475   3.523 -1.8250  1.6465 -2.5971
 1431SOL    HW215927   2.541   3.467   3.659 -1.9860  1.4092  1.0316
 1432SOL     OW15928   1.389   0.380   1.169 -0.1956  0.3087  0.2421
 1432SOL    HW115929   1.480   0.364   1.144 -0.2791  0.6115 -0.2563
 1432SOL    HW215930   1.398   0.338   1.255  2.0432  2.4466  1.0392
 1433SOL     OW15931   1.152   2.993   6.681 -0.1091 -0.1926  0.1020
 1433SOL    HW115932   1.200   3.064   6.640 -1.2680  0.2146 -0.5381
 1433SOL    HW215933   1.221   2.928   6.664  0.7746  0.6867  0.3495
 1434SOL     OW15934   3.764   3.238   9.487 -0.0480 -0.1247 -0.1081
 1434SOL    HW115935   3.713   3.314   9.459  0.5326 -0.3878 -1.8823
 1434SOL    HW215936   3.823   3.239   9.412  0.2743 -2.4693  0.1351
 1435SOL     OW15937   2.229   0.306   3.980  0.6145 -0.4522 -0.0616
 1435SOL    HW115938   2.249   0.235   3.919  0.5724 -1.1748  0.7731
 1435SOL    HW215939   2.231   0.270   4.068 -2.2494 -0.9982 -0.2185
 1436SOL     OW15940   1.153   3.691   4.292  0.3934 -0.3639  0.2035
 1436SOL    HW115941   1.137   3.779   4.323  1.3816  0.1517 -0.7348
 1436SOL    HW215942   1.070   3.649   4.313 -0.5084  0.1101 -2.4359
 1437SOL     OW15943   2.646   1.229   6.081 -0.0785 -0.0796 -0.3408
 1437SOL    HW115944   2.626   1.302   6.140  0.9868 -0.9218  1.0512
 1437SOL    HW215945   2.568   1.174   6.072 -0.4947  0.8266 -2.2823
 1438SOL     OW15946   1.175   1.661   0.088  0.1121 -0.5208 -0.8034
 1438SOL    HW115947   1.260   1.691   0.056  0.0151 -0.3818 -0.9303
 1438SOL    HW215948   1.194   1.567   0.080  0.2399 -1.0205  5.2731
 1439SOL     OW15949   3.144   2.672   7.529  0.1321 -0.1338 -0.1668
 1439SOL    HW115950   3.142   2.593   7.476  0.8135  0.9930 -1.8687
 1439SOL    HW215951   3.206   2.731   7.486  2.1059 -3.0588 -1.2554
 1440SOL     OW15952   4.029   0.372  15.804 -0.2098 -0.0972 -0.0965
 1440SOL    HW115953   4.074   0.452  15.777  1.3924 -0.7386  0.7152
 1440SOL    HW215954   3.972   0.363  15.728 -1.1480  1.5651  0.4124
 1441SOL     OW15955   2.175   2.726   2.688  0.1020  0.2654 -0.2346
 1441SOL    HW115956   2.230   2.803   2.674 -1.7252  1.6911  0.4937
 1441SOL    HW215957   2.194   2.719   2.781 -0.8367 -1.8994 -0.2041
 1442SOL     OW15958   1.693   1.251   1.947  0.2036  0.3922 -0.0656
 1442SOL    HW115959   1.655   1.188   1.886  1.1359  0.4782 -0.7296
 1442SOL    HW215960   1.612   1.267   1.995  1.1710 -0.9634  2.0113
 1443SOL     OW15961   0.230   1.901   5.849  0.4437 -0.1397 -0.0211
 1443SOL    HW115962   0.270   1.971   5.797 -1.1969  1.0102  0.2453
 1443SOL    HW215963   0.294   1.899   5.920 -0.8676 -1.6344  1.1252
 1444SOL     OW15964   0.292   1.668  16.341 -0.0853 -0.1669  0.4704
 1444SOL    HW115965   0.276   1.739  16.279 -0.0397 -0.5341  0.0396
 1444SOL    HW215966   0.216   1.686  16.396 -0.3715 -0.3560  0.1332
 1445SOL     OW15967   2.832   1.925  13.675 -0.0103  0.5742 -0.3099
 1445SOL    HW115968   2.754   1.978  13.657 -1.9419 -1.6221  1.5349
 1445SOL    HW215969   2.835   1.939  13.770  2.0511 -1.8093 -0.0303
 1446SOL     OW15970   4.291   3.129   2.173 -0.5280 -0.9603 -0.4866
 1446SOL    HW115971   4.348   3.205   2.177 -0.2642 -1.2343  0.9662
 1446SOL    HW215972   4.284   3.107   2.080  0.1161  1.7859 -1.1779
 1447SOL     OW15973   3.171   2.220   3.108  0.0514 -0.2749 -0.0932
 1447SOL    HW115974   3.123   2.140   3.088 -0.1788 -0.2075  0.2005
 1447SOL    HW215975   3.233   2.198   3.177  0.3491  2.6295  0.5346
 1448SOL     OW15976   4.608   3.610   4.590  0.0357 -0.1437 -0.2383
 1448SOL    HW115977   4.629   3.535   4.535  0.9425 -1.1069  1.4345
 1448SOL    HW215978   4.645   3.586   4.675 -0.1963  0.3666  0.0044
 1449SOL     OW15979   0.850   2.134   5.090  0.2009  0.2211  0.1600
 1449SOL    HW115980   0.815   2.181   5.166  0.9458 -0.6504  1.0440
 1449SOL    HW215981   0.786   2.139   5.020  1.3387  0.5142 -0.8609
 1450SOL     OW15982   1.983   2.468   7.805 -0.2188 -0.5508  0.3009
 1450SOL    HW115983   2.019   2.397   7.858 -0.8946 -1.8112 -0.9171
 1450SOL    HW215984   2.023   2.535   7.860 -0.1837 -0.4382  0.1374
 1451SOL     OW15985   4.062   0.986   3.574  0.1613 -0.6340  0.0841
 1451SOL    HW115986   4.157   0.978   3.578  0.2055  0.9257  1.9828
 1451SOL    HW215987   4.056   1.070   3.620  0.2454 -1.1361  1.0037
 1452SOL     OW15988   0.642   2.074   2.793  0.1703  0.1495  0.0479
 1452SOL    HW115989   0.609   2.116   2.713 -0.8564  1.1892  1.0153
 1452SOL    HW215990   0.724   2.030   2.769  0.1664  0.8397 -1.2207
 1453SOL     OW15991   0.885   0.573  12.095  0.3268  0.0973  0.5952
 1453SOL    HW115992   0.790   0.578  12.109 -0.0045 -1.3484 -1.1413
 1453SOL    HW215993   0.898   0.651  12.041  2.1926 -0.7825 -0.2248
 1454SOL     OW15994   1.368   0.952   2.448 -0.5091  0.0322 -0.1715
 1454SOL    HW115995   1.400   0.967   2.358 -2.7497  0.4858 -0.8845
 1454SOL    HW215996   1.443   0.900   2.476  1.1402  2.0542 -0.8213
 1455SOL     OW15997   3.179   4.458   2.895 -0.1627  0.1424  0.2005
 1455SOL    HW115998   3.145   4.535   2.942  0.2470  0.2995  0.2397
 1455SOL    HW215999   3.199   4.388   2.957  0.6985  1.3577  1.2930
 1456SOL     OW16000   0.161   3.727   5.519 -0.0986 -0.5170 -0.2255
 1456SOL    HW116001   0.246   3.707   5.480  1.0703  2.4042  0.8602
 1456SOL    HW216002   0.112   3.731   5.438  0.1899  0.0624 -0.3671
 1457SOL     OW16003   3.095   0.824  15.565 -0.4206  0.2133 -0.0678
 1457SOL    HW116004   3.089   0.847  15.473 -0.6221 -0.5429 -0.2386
 1457SOL    HW216005   3.189   0.819  15.582 -0.2570 -0.4584 -1.1947
 1458SOL     OW16006   4.425   3.385   0.645 -0.0012 -0.2746  0.3608
 1458SOL    HW116007   4.382   3.333   0.576 -0.5294  0.2445  0.2897
 1458SOL    HW216008   4.385   3.342   0.721 -1.5585  1.4003  0.4946
 1459SOL     OW16009   2.799   2.790   5.032  0.4933  0.1844 -0.5909
 1459SOL    HW116010   2.715   2.831   5.011  0.0885 -0.9817 -1.2326
 1459SOL    HW216011   2.784   2.773   5.125 -2.7466 -1.1009 -1.3654
 1460SOL     OW16012   2.215   2.492   5.705  0.1821 -0.5703  0.2746
 1460SOL    HW116013   2.173   2.569   5.665  2.0362  0.4487  0.2769
 1460SOL    HW216014   2.214   2.423   5.638  1.8514 -0.7255  0.4125
 1461SOL     OW16015   0.116   1.509   8.623  0.1370 -0.6930 -0.4347
 1461SOL    HW116016   0.211   1.505   8.621  0.2634  2.8356 -1.4801
 1461SOL    HW216017   0.103   1.538   8.532 -0.7899 -2.1039 -0.7483
 1462SOL     OW16018   2.560   1.776   7.808 -0.4203 -0.2798  0.4863
 1462SOL    HW116019   2.624   1.760   7.877 -1.9367  0.2953  2.0241
 1462SOL    HW216020   2.606   1.831   7.744 -1.9360 -0.7105 -0.9663
 1463SOL     OW16021   3.862   4.575   4.947 -0.6264  0.0033  0.1245
 1463SOL    HW116022   3.781   4.528   4.925  0.1525 -1.4393  0.3037
 1463SOL    HW216023   3.880   4.629   4.870 -0.5485 -1.0922 -0.6273
 1464SOL     OW16024   3.751   1.743   7.850 -0.2441 -0.4639  0.0503
 1464SOL    HW116025   3.693   1.819   7.853  0.4947  0.1288 -0.8389
 1464SOL    HW216026   3.794   1.743   7.765  1.0837 -0.2621  0.7245
 1465SOL     OW16027   4.664   3.705   5.701 -0.1433  0.4685  0.7540
 1465SOL    HW116028   4.690   3.631   5.756  0.6208  1.2379  1.4206
 1465SOL    HW216029   4.730   3.697   5.632 -3.0459 -0.5549 -1.9138
 1466SOL     OW16030   4.113   2.607   4.820  0.0717 -0.1561 -0.4335
 1466SOL    HW116031   4.061   2.648   4.890  1.4720  0.3707  0.2850
 1466SOL    HW216032   4.063   2.644   4.747 -0.6206 -0.4834 -0.1346
 1467SOL     OW16033   2.815   4.054  13.134  0.1071 -0.1194 -0.0382
 1467SOL    HW116034   2.776   3.972  13.104  0.2904 -0.1122 -0.2946
 1467SOL    HW216035   2.907   4.030  13.124 -0.0925  0.1724 -2.5915
 1468SOL     OW16036   0.636   0.285   6.704  0.0600  0.9651 -0.0982
 1468SOL    HW116037   0.695   0.348   6.747 -1.4078  1.3105  1.3744
 1468SOL    HW216038   0.647   0.216   6.770  0.4372 -0.6368 -1.8323
 1469SOL     OW16039   2.576   1.505   5.327  0.4168 -0.4836 -0.6088
 1469SOL    HW116040   2.640   1.492   5.397 -0.6122 -0.5741  0.3158
 1469SOL    HW216041   2.623   1.459   5.257 -0.6571 -1.1633 -0.8792
 1470SOL     OW16042   0.583   4.081   8.762 -0.2004  0.4121  0.4984
 1470SOL    HW116043   0.597   4.166   8.720  1.4843  0.2879  0.7991
 1470SOL    HW216044   0.489   4.075   8.751 -0.3504 -2.4125  3.3120
 1471SOL     OW16045   3.275   0.510  15.949 -0.0929  0.3317 -0.1426
 1471SOL    HW116046   3.183   0.484  15.955  0.3883 -1.3194  0.1206
 1471SOL    HW216047   3.305   0.428  15.988 -0.8951  0.3118  0.4442
 1472SOL     OW16048   0.802   3.397   4.560 -0.0263  0.2602  0.3318
 1472SOL    HW116049   0.743   3.370   4.489  0.7012 -0.6100  0.0643
 1472SOL    HW216050   0.755   3.366   4.637  0.5789 -2.9145 -0.6098
 1473SOL     OW16051   3.824   2.965   9.342  0.0000 -0.1243  0.2747
 1473SOL    HW116052   3.876   3.043   9.360  0.2649 -0.5547  1.3915
 1473SOL    HW216053   3.748   3.015   9.312  2.3085  1.2887 -3.2318
 1474SOL     OW16054   0.241   1.183   2.340  0.3153  0.1682  0.2413
 1474SOL    HW116055   0.159   1.217   2.304  0.4699  1.0721  0.7525
 1474SOL    HW216056   0.263   1.114   2.276 -1.5330 -0.7239  0.5767
 1475SOL     OW16057   1.259   3.852   5.674  0.2409  0.3059 -0.1591
 1475SOL    HW116058   1.206   3.884   5.746 -1.3652 -0.0990 -1.1590
 1475SOL    HW216059   1.338   3.830   5.724  1.4479  0.4083 -2.0248
 1476SOL     OW16060   1.498   0.380   3.670  0.7449 -0.0469 -0.1485
 1476SOL    HW116061   1.433   0.363   3.738  0.9575 -0.5208 -0.0673
 1476SOL    HW216062   1.576   0.398   3.723  0.0393 -0.8116  1.1598
 1477SOL     OW16063   4.626   4.034   1.103 -0.7661 -0.2919  0.3040
 1477SOL    HW116064   4.546   4.058   1.057 -1.1291  2.5560  2.4079
 1477SOL    HW216065   4.694   4.032   1.036  0.1727 -1.3580  1.2705
 1478SOL     OW16066   1.516   2.838   4.820  0.2844  0.2151 -0.1970
 1478SOL    HW116067   1.605   2.856   4.789  1.4502 -2.4423  1.6826
 1478SOL    HW216068   1.478   2.925   4.833  3.8014  1.7990 -0.4839
 1479SOL     OW16069   4.332   0.753  15.581  0.8579  0.1817 -0.2368
 1479SOL    HW116070   4.309   0.784  15.494 -1.9060 -3.3827 -0.7657
 1479SOL    HW216071   4.311   0.830  15.634 -0.5425 -1.9029  2.2523
 1480SOL     OW16072   2.288   4.399   7.815  0.2447  0.0891  0.0740
 1480SOL    HW116073   2.307   4.319   7.866  1.0730  0.0049 -0.3717
 1480SOL    HW216074   2.197   4.394   7.787  0.0480  0.8169  0.5817
 1481SOL     OW16075   1.314   2.275  10.068  0.4551 -0.3330 -0.1040
 1481SOL    HW116076   1.316   2.364  10.035  0.3180  1.7796  5.4938
 1481SOL    HW216077   1.407   2.251  10.067  0.2104 -1.2984  0.2223
 1482SOL     OW16078   4.307   1.360   6.670  0.1185 -0.2460  0.1344
 1482SOL    HW116079   4.337   1.270   6.682 -2.4785 -0.9360  1.4105
 1482SOL    HW216080   4.305   1.377   6.576  0.4238 -1.3584 -0.0695
 1483SOL     OW16081   1.748   3.774  13.481 -0.5162 -0.0336  0.2521
 1483SOL    HW116082   1.816   3.787  13.415  1.0333  1.9095  2.2411
 1483SOL    HW216083   1.754   3.678  13.486  2.3441  0.3648  3.8208
 1484SOL     OW16084   3.310   1.969   8.580 -0.0256  0.5856 -0.1819
 1484SOL    HW116085   3.361   1.974   8.661 -1.3127 -1.5734  0.7813
 1484SOL    HW216086   3.238   1.912   8.608  0.8383  0.4734  1.8464
 1485SOL     OW16087   2.666   0.605  16.353  0.1771 -0.7169 -0.1150
 1485SOL    HW116088   2.754   0.624  16.385  0.5332 -1.8377 -0.4015
 1485SOL    HW216089   2.676   0.627  16.260  0.2955  0.8661  0.2716
 1486SOL     OW16090   2.677   2.735   1.112  0.3506 -0.3220  0.2247
 1486SOL    HW116091   2.762   2.763   1.079  0.7128 -0.5089  1.0096
 1486SOL    HW216092   2.673   2.785   1.194  1.7746  1.1552 -0.6000
 1487SOL     OW16093   3.696   1.555   4.676  0.0658  0.2122 -0.2009
 1487SOL    HW116094   3.646   1.509   4.609  0.6054 -0.2034 -0.3143
 1487SOL    HW216095   3.777   1.566   4.627  0.7925 -0.8646  0.7383
 1488SOL     OW16096   0.489   0.431   4.267 -0.0433  0.3970  0.3154
 1488SOL    HW116097   0.545   0.508   4.267 -0.5063  0.7322 -0.1181
 1488SOL    HW216098   0.535   0.382   4.199 -2.3198  0.4999 -1.3207
 1489SOL     OW16099   0.191   2.566   0.611  0.3086 -0.2147  0.0108
 1489SOL    HW116100   0.160   2.511   0.539  0.1607 -0.4980  0.2877
 1489SOL    HW216101   0.203   2.502   0.681  3.1000  0.0705 -0.2080
 1490SOL     OW16102   3.515   0.962  17.686 -0.5500  0.5767  0.5454
 1490SOL    HW116103   3.500   1.034  17.624 -0.9445 -0.9830 -1.1875
 1490SOL    HW216104   3.448   0.903  17.650 -0.1266 -0.5480  1.6212
 1491SOL     OW16105   0.543   0.105  11.728  0.1962  1.1960 -0.4974
 1491SOL    HW116106   0.558   0.188  11.681 -0.1317  1.0484 -0.8576
 1491SOL    HW216107   0.556   0.137  11.817 -1.4912 -2.2390  0.9521
 1492SOL     OW16108   1.288   0.800  16.159 -0.0949 -0.1244 -0.4309
 1492SOL    HW116109   1.193   0.795  16.150  0.0611 -2.1401 -0.8215
 1492SOL    HW216110   1.313   0.857  16.086  1.0248  0.9161  0.7567
 1493SOL     OW16111   2.456   1.332   7.565 -0.6617  0.3143  0.3907
 1493SOL    HW116112   2.416   1.388   7.631 -0.0166  0.0527  0.9992
 1493SOL    HW216113   2.384   1.313   7.505 -1.5995  0.1182  1.5824
 1494SOL     OW16114   1.305   2.910   4.408 -0.6838  0.2478  0.2572
 1494SOL    HW116115   1.311   2.867   4.493 -2.9238 -0.3527  0.0872
 1494SOL    HW216116   1.210   2.912   4.398 -0.4365 -0.4430 -2.1912
 1495SOL     OW16117   4.652   1.360   3.268 -0.1470 -0.2451  0.0992
 1495SOL    HW116118   4.608   1.348   3.352 -2.3447 -4.0127 -1.5885
 1495SOL    HW216119   4.631   1.271   3.241  0.0161 -0.0207 -0.7779
 1496SOL     OW16120   4.165   4.342  16.414 -0.6908  0.7407 -0.0803
 1496SOL    HW116121   4.074   4.327  16.441 -0.6074  0.9268  0.3062
 1496SOL    HW216122   4.189   4.260  16.371  0.8341  0.6582  0.9232
 1497SOL     OW16123   3.622   4.092   0.563 -0.6470 -0.4054  0.5677
 1497SOL    HW116124   3.558   4.090   0.492  0.1996  1.0494 -0.2244
 1497SOL    HW216125   3.628   4.188   0.561 -0.0137 -0.4297  1.3532
 1498SOL     OW16126   2.929   1.130   7.694 -0.1180 -0.2401 -0.7998
 1498SOL    HW116127   2.905   1.196   7.629 -1.2110  0.5971  0.4466
 1498SOL    HW216128   3.000   1.181   7.733  0.5786 -1.8273  0.0140
 1499SOL     OW16129   1.023   3.255   4.316  0.1231 -0.1378  0.4185
 1499SOL    HW116130   0.942   3.222   4.275 -1.1371  1.3221  1.7371
 1499SOL    HW216131   1.076   3.288   4.244 -0.3759 -1.4775 -0.5649
 1500SOL     OW16132   0.239   4.082   1.484 -0.9415 -0.2487 -0.1675
 1500SOL    HW116133   0.288   4.108   1.406 -1.1241 -0.4268 -0.3400
 1500SOL    HW216134   0.194   4.011   1.439  1.0966 -0.9334 -1.1571
 1501SOL     OW16135   0.637   1.304   8.432  0.5070  0.2817  0.9103
 1501SOL    HW116136   0.604   1.353   8.357 -0.5552 -1.0785  0.4928
 1501SOL    HW216137   0.703   1.250   8.389  0.2408 -1.3137  2.5239
 1502SOL     OW16138   4.648   3.874  15.346  0.2144 -0.0782  0.1127
 1502SOL    HW116139   4.573   3.884  15.406 -0.1224  2.0207 -0.6707
 1502SOL    HW216140   4.622   3.796  15.296 -0.3047  0.1559  0.0185
 1503SOL     OW16141   1.182   4.719  10.315 -0.0759 -0.1776  0.3224
 1503SOL    HW116142   1.144   0.068  10.306  0.2827 -0.1656 -1.1033
 1503SOL    HW216143   1.238   4.730  10.239  0.0351 -0.6214  0.3392
 1504SOL     OW16144   4.452   4.143   6.175  0.6011 -0.3830 -0.1672
 1504SOL    HW116145   4.536   4.119   6.136  1.0542  0.1337  0.4849
 1504SOL    HW216146   4.456   4.120   6.267 -1.9474 -1.1088 -0.2365
 1505SOL     OW16147   2.505   1.617  12.873 -0.4947 -0.1241  0.1894
 1505SOL    HW116148   2.576   1.680  12.861  1.9730 -2.8391  0.7725
 1505SOL    HW216149   2.505   1.582  12.784 -3.4501  0.9807 -0.2689
 1506SOL     OW16150   4.127   3.555   5.057  0.5459  0.2527  0.0010
 1506SOL    HW116151   4.159   3.508   4.979  0.0690 -0.2548  0.1111
 1506SOL    HW216152   4.035   3.548   5.033  0.1851 -1.0637  1.7338
 1507SOL     OW16153   1.849   0.242  10.085  0.1597  0.1639 -0.2096
 1507SOL    HW116154   1.798   0.268  10.008  1.4446  2.4955 -0.2686
 1507SOL    HW216155   1.905   0.174  10.049  0.9188  1.1624 -0.9346
 1508SOL     OW16156   2.203   2.262   4.598  0.2686 -0.1442  0.4902
 1508SOL    HW116157   2.233   2.181   4.557  1.9962  0.9309 -0.3982
 1508SOL    HW216158   2.176   2.244   4.688 -0.3378 -0.5877  0.2191
 1509SOL     OW16159   3.705   2.804   7.228  0.0292 -0.1077  0.2053
 1509SOL    HW116160   3.666   2.839   7.308 -0.6920 -2.8295  1.0405
 1509SOL    HW216161   3.800   2.804   7.238 -0.0340 -0.4686  0.7719
 1510SOL     OW16162   2.973   3.828   7.175 -0.0168 -0.0333 -0.7235
 1510SOL    HW116163   2.916   3.857   7.246  0.3282 -2.4618  0.5461
 1510SOL    HW216164   2.997   3.740   7.202  2.2209  1.1773  1.2345
 1511SOL     OW16165   0.443   1.221   9.531 -0.0123  0.8784 -0.1559
 1511SOL    HW116166   0.429   1.231   9.625 -0.3064 -0.7025 -0.0336
 1511SOL    HW216167   0.493   1.139   9.530 -2.5231 -0.6579 -0.1804
 1512SOL     OW16168   2.275   4.113   7.572  0.0969 -0.5173  0.3328
 1512SOL    HW116169   2.249   4.114   7.664 -0.4702  0.8471  0.1577
 1512SOL    HW216170   2.208   4.161   7.523  0.6342 -0.7484 -0.6304
 1513SOL     OW16171   2.372   1.418   5.503 -0.1264  0.3467 -0.7590
 1513SOL    HW116172   2.369   1.326   5.477  0.2753  0.1944 -0.2573
 1513SOL    HW216173   2.447   1.444   5.449  0.6882  0.4149  0.4269
 1514SOL     OW16174   0.810   1.316  11.098  0.0527  0.7085 -0.3405
 1514SOL    HW116175   0.871   1.242  11.102 -1.1067 -0.2451 -0.1889
 1514SOL    HW216176   0.837   1.360  11.178 -0.4856 -0.8981  0.7211
 1515SOL     OW16177   3.179   1.090   0.397 -0.7365 -0.6725  0.0855
 1515SOL    HW116178   3.208   1.042   0.475  0.6379  0.1456  0.0762
 1515SOL    HW216179   3.220   1.039   0.327  1.0325  2.1750 -0.9736
 1516SOL     OW16180   2.020   1.955   2.430 -0.0320 -0.1964  0.1739
 1516SOL    HW116181   2.103   1.913   2.451  0.6364  1.2114  0.3186
 1516SOL    HW216182   1.952   1.888   2.440 -1.3164  1.2452  1.2783
 1517SOL     OW16183   1.915   1.049   4.344  0.2954  0.2545 -0.7658
 1517SOL    HW116184   1.941   1.040   4.435  0.0019 -0.5495 -0.7664
 1517SOL    HW216185   1.840   0.991   4.328  0.1344  0.6499 -1.4799
 1518SOL     OW16186   3.537   1.535   7.868  0.2733 -0.4602  0.3570
 1518SOL    HW116187   3.507   1.611   7.817  0.0963  0.3682  1.7191
 1518SOL    HW216188   3.632   1.543   7.873  0.1051  1.9798 -0.3930
 1519SOL     OW16189   3.988   2.314  16.065  0.3052 -0.4519  0.0904
 1519SOL    HW116190   3.982   2.372  16.141 -0.1150 -0.0093 -0.2776
 1519SOL    HW216191   3.919   2.345  16.007 -2.5768 -2.1430  2.5980
 1520SOL     OW16192   3.578   0.565   4.368  0.2700  0.3517 -0.0715
 1520SOL    HW116193   3.484   0.578   4.377  0.2973  0.2835  0.2948
 1520SOL    HW216194   3.612   0.654   4.363  2.2343 -0.3550  0.5492
 1521SOL     OW16195   2.641   0.838  15.071 -0.5980 -0.2987  0.2986
 1521SOL    HW116196   2.634   0.862  15.163  1.1160 -1.0545  0.6187
 1521SOL    HW216197   2.579   0.766  15.076  0.1785 -0.9409  0.5859
 1522SOL     OW16198   0.359   1.864   4.246 -0.4071  0.3405  0.6346
 1522SOL    HW116199   0.284   1.916   4.219 -0.5126 -1.1961 -2.0488
 1522SOL    HW216200   0.370   1.795   4.180  0.5349  0.0099  1.1309
 1523SOL     OW16201   2.914   2.824  11.669 -0.2683  0.7245 -0.3047
 1523SOL    HW116202   2.863   2.772  11.606  1.6504 -1.1718 -0.3311
 1523SOL    HW216203   2.846   2.836  11.735  0.8604  1.0449  0.7950
 1524SOL     OW16204   3.277   2.359   2.594 -0.0511  0.5870  0.2056
 1524SOL    HW116205   3.190   2.399   2.603  0.2472  1.1144  0.7534
 1524SOL    HW216206   3.290   2.317   2.679  0.7436  2.0079  0.7815
 1525SOL     OW16207   4.508   0.643  13.563 -0.2176  0.1451  0.2061
 1525SOL    HW116208   4.489   0.616  13.653  2.8187 -2.9582 -0.0737
 1525SOL    HW216209   4.555   0.571  13.521 -1.7319 -1.3483  1.0920
 1526SOL     OW16210   2.609   3.085   1.382 -0.1641  0.0902 -0.2133
 1526SOL    HW116211   2.627   3.096   1.475 -1.8633  1.1933 -0.0080
 1526SOL    HW216212   2.671   3.013   1.376  1.1035  1.2281 -0.8090
 1527SOL     OW16213   1.785   0.091   1.774  0.3070 -0.2704  0.2826
 1527SOL    HW116214   1.722   0.111   1.843 -0.1158 -1.7087  0.3157
 1527SOL    HW216215   1.831   0.019   1.818  2.0423  0.6739  0.0282
 1528SOL     OW16216   2.107   2.508  16.608  0.3174  0.0845  0.5210
 1528SOL    HW116217   2.033   2.448  16.603  0.4932 -0.1998  1.3305
 1528SOL    HW216218   2.149   2.472  16.686  1.8823  0.9305  0.0780
 1529SOL     OW16219   4.617   3.842  17.424 -0.7848  0.2279  0.0801
 1529SOL    HW116220   4.610   3.898  17.347 -3.2106 -0.2541 -0.0506
 1529SOL    HW216221   4.615   3.910  17.491 -0.8746  0.8139 -0.5129
 1530SOL     OW16222   0.949   0.898  10.231 -0.3260 -0.4182 -0.8562
 1530SOL    HW116223   0.921   0.989  10.236  0.6588 -0.0967 -1.2599
 1530SOL    HW216224   0.879   0.861  10.177 -1.6949  0.4051  0.3542
 1531SOL     OW16225   4.323   1.466   1.645  0.0642 -0.3118 -0.4600
 1531SOL    HW116226   4.294   1.377   1.622  0.2082 -0.4517 -0.1048
 1531SOL    HW216227   4.360   1.441   1.730  0.2971  1.8897  0.0626
 1532SOL     OW16228   3.552   1.069   5.765  0.3224  0.0895 -0.5608
 1532SOL    HW116229   3.523   0.979   5.755  1.0732 -0.6552  3.8998
 1532SOL    HW216230   3.480   1.127   5.740  2.4310  2.7530 -0.5708
 1533SOL     OW16231   1.188   0.233   6.630 -0.4230 -0.2497 -0.0515
 1533SOL    HW116232   1.115   0.171   6.638 -1.0566  0.3189 -1.3883
 1533SOL    HW216233   1.156   0.297   6.693  1.0316 -0.3551  0.8090
 1534SOL     OW16234   4.185   0.421   8.044  0.1024  0.7547 -0.3567
 1534SOL    HW116235   4.096   0.431   8.011 -0.2293 -0.0563  0.2714
 1534SOL    HW216236   4.205   0.332   8.016 -2.9767 -0.2153  0.4777
 1535SOL     OW16237   1.535   0.076   3.296  0.0966 -0.0188 -0.3983
 1535SOL    HW116238   1.492   0.117   3.371  1.3686 -1.3548  1.0787
 1535SOL    HW216239   1.464   0.053   3.237 -1.8062  1.6010  1.2680
 1536SOL     OW16240   3.416   3.155   7.289 -0.1000 -0.2340  0.0296
 1536SOL    HW116241   3.430   3.197   7.374  0.9057  0.6886 -0.5912
 1536SOL    HW216242   3.342   3.100   7.313 -1.2433  0.3832 -2.0956
 1537SOL     OW16243   4.689   3.302  16.959  0.1398 -0.0622  0.1324
 1537SOL    HW116244   0.035   3.337  16.928  0.5697 -1.3290 -0.1471
 1537SOL    HW216245   4.683   3.347  17.043  2.2284 -2.3050  1.4781
 1538SOL     OW16246   3.359   0.851   1.392  0.3918 -0.4827  0.0266
 1538SOL    HW116247   3.320   0.885   1.312 -0.5666  1.7062  1.4161
 1538SOL    HW216248   3.335   0.759   1.395 -0.4423 -0.3211 -1.8730
 1539SOL     OW16249   4.517   4.192   0.395  0.0084  0.4722  0.5222
 1539SOL    HW116250   4.476   4.126   0.451  0.0925  1.3321  1.5923
 1539SOL    HW216251   4.458   4.268   0.405 -1.1371 -0.3867  0.2651
 1540SOL     OW16252   4.286   3.131   6.658 -0.0489 -0.0780  0.0904
 1540SOL    HW116253   4.368   3.138   6.707  0.9557 -3.3596 -1.1245
 1540SOL    HW216254   4.305   3.191   6.586  0.3542 -0.0957  0.1808
 1541SOL     OW16255   1.539   1.072   2.253  0.2784 -0.1946 -0.4556
 1541SOL    HW116256   1.586   1.150   2.222  2.1228 -0.4882  1.5997
 1541SOL    HW216257   1.588   1.057   2.334  0.7726  1.6851 -0.3871
 1542SOL     OW16258   0.621   4.026   4.277 -0.3602  0.4608  0.7115
 1542SOL    HW116259   0.536   4.070   4.284 -1.0111 -0.5671 -0.7375
 1542SOL    HW216260   0.621   3.977   4.359  3.1695  0.0478  0.4440
 1543SOL     OW16261   0.268   1.764  17.128  0.2454  0.0124 -0.8223
 1543SOL    HW116262   0.282   1.691  17.188  2.2042  2.4278  1.6464
 1543SOL    HW216263   0.342   1.820  17.151  0.4318 -0.2518 -0.7866
 1544SOL     OW16264   4.364   1.051  17.516 -0.2197 -0.4242 -0.5822
 1544SOL    HW116265   4.436   0.992  17.497 -0.9447 -1.3335 -0.5083
 1544SOL    HW216266   4.311   1.020  17.443 -0.6910 -3.6696  1.1388
 1545SOL     OW16267   1.241   0.343   7.842  0.4652  0.6725  0.6926
 1545SOL    HW116268   1.295   0.264   7.837  0.9368  1.2193 -2.6852
 1545SOL    HW216269   1.307   0.386   7.896 -0.3392  2.2418  0.4226
 1546SOL     OW16270   1.987   2.442   2.395  0.6099  0.1354  0.1110
 1546SOL    HW116271   1.963   2.359   2.355 -0.4471  0.4354  0.1385
 1546SOL    HW216272   1.943   2.510   2.344 -0.0146 -0.9079 -0.7326
 1547SOL     OW16273   2.281   1.701   9.321  0.0692 -0.2487  0.0296
 1547SOL    HW116274   2.301   1.712   9.228  0.4412 -0.9201  0.0257
 1547SOL    HW216275   2.211   1.764   9.340 -0.1760 -0.0103 -1.6633
 1548SOL     OW16276   3.604   0.265  10.150 -0.2347  0.6443  0.4186
 1548SOL    HW116277   3.700   0.274  10.154 -0.0923 -1.3549  1.5198
 1548SOL    HW216278   3.580   0.337  10.208 -0.2218 -0.3704  1.6974
 1549SOL     OW16279   4.215   3.875   2.693 -0.0908 -0.2966  0.1194
 1549SOL    HW116280   4.244   3.785   2.678 -0.2024 -0.2869 -0.1646
 1549SOL    HW216281   4.197   3.907   2.604  0.1613  2.0122  0.8996
 1550SOL     OW16282   0.296   2.263   9.098 -0.3415  0.3968 -0.1495
 1550SOL    HW116283   0.340   2.251   9.182 -0.1162 -2.0766 -0.6313
 1550SOL    HW216284   0.365   2.315   9.056  1.0008 -0.7105  0.7030
 1551SOL     OW16285   4.315   0.857   4.996 -0.0082  0.1476  0.1990
 1551SOL    HW116286   4.386   0.867   4.932 -0.1379  1.2079  0.2272
 1551SOL    HW216287   4.246   0.921   4.976 -0.5706 -0.5752 -0.1855
 1552SOL     OW16288   1.976   1.911   5.890  0.0013 -0.5274  0.0422
 1552SOL    HW116289   1.992   1.969   5.815 -0.6991  0.7451  0.8681
 1552SOL    HW216290   2.043   1.951   5.945  1.0140 -0.7017 -1.0677
 1553SOL     OW16291   3.773   1.457  13.908  0.1544  0.3614 -0.0257
 1553SOL    HW116292   3.689   1.467  13.864 -0.7454  1.2254  1.9040
 1553SOL    HW216293   3.747   1.375  13.950  1.3471  0.8621  1.6993
 1554SOL     OW16294   2.637   1.906   8.373 -0.0701 -0.2741 -0.2761
 1554SOL    HW116295   2.585   1.967   8.424  0.1301 -1.1924  1.0157
 1554SOL    HW216296   2.721   1.949   8.363 -0.2059 -0.2175 -1.2502
 1555SOL     OW16297   4.427   1.785   2.837 -0.1750 -0.2755 -0.3525
 1555SOL    HW116298   4.499   1.724   2.848 -0.3613 -0.7952 -2.0443
 1555SOL    HW216299   4.460   1.854   2.779 -0.3276 -0.4911 -0.6923
 1556SOL     OW16300   0.754   4.434   9.226  0.1400  0.2300 -0.3081
 1556SOL    HW116301   0.669   4.477   9.233  0.2945  0.4306  0.3374
 1556SOL    HW216302   0.803   4.502   9.180 -0.4592 -0.0435 -1.3656
 1557SOL     OW16303   0.142   1.783  13.852 -0.6958 -0.6675 -0.0944
 1557SOL    HW116304   0.065   1.803  13.799  0.4235  0.8687 -1.1749
 1557SOL    HW216305   0.134   1.830  13.935  0.4541  0.9471 -0.8927
 1558SOL     OW16306   2.263   2.386   1.863  0.1630  0.2554 -0.0961
 1558SOL    HW116307   2.197   2.448   1.833 -0.4128 -0.7022 -0.7948
 1558SOL    HW216308   2.226   2.352   1.944 -1.3595  0.6861 -0.6175
 1559SOL     OW16309   2.497   1.244   6.343 -0.8027  0.2367 -0.0708
 1559SOL    HW116310   2.487   1.335   6.315  1.3755  0.4459 -0.1159
 1559SOL    HW216311   2.422   1.197   6.305 -1.8254  0.3356  1.8569
 1560SOL     OW16312   3.769   3.691  13.954 -0.8435  0.1906  0.1924
 1560SOL    HW116313   3.847   3.708  13.902 -0.1865 -3.3857  0.0259
 1560SOL    HW216314   3.795   3.717  14.043  0.0166  4.2596 -1.2251
 1561SOL     OW16315   3.746   2.135   2.298 -0.1246  0.5320 -0.3972
 1561SOL    HW116316   3.760   2.040   2.296 -3.2938  0.0579  0.2697
 1561SOL    HW216317   3.749   2.145   2.393 -1.4452  0.9382 -0.4013
 1562SOL     OW16318   3.862   3.440   2.368  0.4853 -0.6713  0.2444
 1562SOL    HW116319   3.842   3.458   2.459 -1.5342 -0.3952 -0.2418
 1562SOL    HW216320   3.833   3.350   2.357  2.2269 -1.3761  1.5290
 1563SOL     OW16321   0.887   1.275  11.414 -0.2768  0.2402 -0.8459
 1563SOL    HW116322   0.976   1.309  11.403  0.1369 -0.5908 -0.0699
 1563SOL    HW216323   0.888   1.284  11.509  2.9186  3.3364 -1.1756
 1564SOL     OW16324   1.334   3.349  10.364 -0.2669  0.0515 -0.4535
 1564SOL    HW116325   1.362   3.389  10.282  2.2856 -0.6560  0.0907
 1564SOL    HW216326   1.315   3.424  10.419 -1.2846  0.4578 -1.3444
 1565SOL     OW16327   0.134   0.262   9.530 -0.7066 -0.1317 -0.6374
 1565SOL    HW116328   0.214   0.219   9.561 -1.9472 -0.2233  2.4526
 1565SOL    HW216329   0.080   0.184   9.544  1.5232 -1.4223  0.8382
 1566SOL     OW16330   3.202   4.710   2.464  0.0085  0.0193 -0.7101
 1566SOL    HW116331   3.268   4.680   2.401  0.3271  0.2986 -0.5048
 1566SOL    HW216332   3.137   0.017   2.409  1.0827  2.6080  0.1536
 1567SOL     OW16333   2.790   1.903  14.833  0.7579  0.0710 -0.2634
 1567SOL    HW116334   2.734   1.919  14.908 -0.0315 -1.5151 -0.5169
 1567SOL    HW216335   2.803   1.991  14.798 -3.0558  0.0514 -1.7406
 1568SOL     OW16336   4.274   3.233   0.498 -0.5732 -0.0266  0.1667
 1568SOL    HW116337   4.179   3.223   0.488 -0.6748  0.1246  0.9779
 1568SOL    HW216338   4.309   3.145   0.512  1.6567  0.5224 -1.9303
 1569SOL     OW16339   2.952   2.176   2.401  0.6017 -0.0939  0.0854
 1569SOL    HW116340   2.948   2.125   2.320 -2.9527 -0.3563  0.4240
 1569SOL    HW216341   2.932   2.104   2.461 -0.9811 -0.2286 -0.6269
 1570SOL     OW16342   4.485   4.730   4.284  0.3577 -0.2732  0.4566
 1570SOL    HW116343   4.464   4.638   4.293  1.6606 -0.7192 -1.0575
 1570SOL    HW216344   4.482   0.012   4.190  0.6996  0.5473  0.6145
 1571SOL     OW16345   1.275   1.578   3.527 -0.2333 -0.5828  0.0556
 1571SOL    HW116346   1.289   1.490   3.561  0.3345 -0.6748 -0.4250
 1571SOL    HW216347   1.286   1.632   3.605 -1.9227 -0.7069  0.3906
 1572SOL     OW16348   0.196   4.307   5.376 -0.0888  0.1120 -0.1678
 1572SOL    HW116349   0.142   4.227   5.379  2.1185 -1.4660 -2.3493
 1572SOL    HW216350   0.221   4.320   5.467 -0.7134  0.1808 -0.0076
 1573SOL     OW16351   1.882   3.891   5.647 -0.0819 -0.2427  0.2515
 1573SOL    HW116352   1.926   3.926   5.724  0.7339  1.0973 -0.8144
 1573SOL    HW216353   1.794   3.899   5.685 -0.6871  0.4906 -1.2772
 1574SOL     OW16354   2.315   3.015  14.987  0.4612 -0.1783 -0.8408
 1574SOL    HW116355   2.385   3.020  15.053 -1.1123 -3.7705  1.1523
 1574SOL    HW216356   2.240   3.055  15.031  0.1781 -0.1650 -1.3464
 1575SOL     OW16357   1.567   0.249  12.001 -1.1054 -0.0861 -0.3183
 1575SOL    HW116358   1.641   0.295  12.041 -1.0158 -1.4370  1.0757
 1575SOL    HW216359   1.513   0.326  11.984 -1.4734  0.3698  2.8997
 1576SOL     OW16360   3.544   2.592   2.208 -0.5097 -0.0860  0.1014
 1576SOL    HW116361   3.589   2.610   2.126  2.0786 -2.1505  1.0649
 1576SOL    HW216362   3.543   2.497   2.196  1.5766 -0.2975  1.5554
 1577SOL     OW16363   2.995   0.399   6.893  0.0354 -0.3156 -0.4286
 1577SOL    HW116364   3.007   0.468   6.958  0.2807 -1.5206  0.8120
 1577SOL    HW216365   3.076   0.350   6.909  0.9762  1.4512  0.2817
 1578SOL     OW16366   0.342   1.593   2.342  0.0613  0.1387 -0.1459
 1578SOL    HW116367   0.324   1.503   2.369 -1.8467  0.8528  0.9552
 1578SOL    HW216368   0.330   1.648   2.420 -1.2390  0.3539 -0.5093
 1579SOL     OW16369   3.276   2.792   1.623 -0.7311 -0.1912  0.1251
 1579SOL    HW116370   3.270   2.701   1.654 -0.4026 -0.0249  0.6643
 1579SOL    HW216371   3.304   2.851   1.692 -1.0481  2.1168 -1.7247
 1580SOL     OW16372   3.576   0.100  12.429 -0.1838  0.0855  0.0866
 1580SOL    HW116373   3.667   0.072  12.423 -0.7454 -2.2571  2.1434
 1580SOL    HW216374   3.558   0.116  12.337  0.6483 -0.6563 -0.1964
 1581SOL     OW16375   0.595   3.608   3.453 -0.0417  0.0746 -0.0512
 1581SOL    HW116376   0.690   3.606   3.464 -0.0129  2.7072  0.3226
 1581SOL    HW216377   0.564   3.678   3.511 -2.1303 -1.1795  0.3479
 1582SOL     OW16378   2.957   1.099   2.536  0.1405  0.1086  0.2292
 1582SOL    HW116379   3.053   1.097   2.544  0.1346 -0.9227  0.0416
 1582SOL    HW216380   2.934   1.013   2.500 -1.3979  0.5668  0.1435
 1583SOL     OW16381   3.171   0.576   4.964 -0.2393 -0.2396 -0.4600
 1583SOL    HW116382   3.262   0.551   4.981 -0.0177  1.2116  0.4708
 1583SOL    HW216383   3.178   0.670   4.980  0.7641 -0.3137 -0.4294
 1584SOL     OW16384   3.137   3.866   5.895  0.1745  0.3559  0.0105
 1584SOL    HW116385   3.052   3.897   5.927 -0.8361 -2.0263 -0.3414
 1584SOL    HW216386   3.190   3.874   5.973 -1.1811 -3.3284  1.3447
 1585SOL     OW16387   3.633   1.853   3.042 -0.0857  0.4943 -0.3631
 1585SOL    HW116388   3.575   1.873   3.116 -1.2616 -0.5974 -0.9946
 1585SOL    HW216389   3.689   1.788   3.084 -0.5442 -0.9153 -1.9346
 1586SOL     OW16390   1.466   1.828   5.171 -0.5158 -0.1361  0.0869
 1586SOL    HW116391   1.416   1.909   5.159 -0.5010 -0.3516 -1.4336
 1586SOL    HW216392   1.552   1.866   5.188 -1.1116  1.4959 -0.5464
 1587SOL     OW16393   1.879   4.410   4.598  0.0798 -0.5781 -0.0669
 1587SOL    HW116394   1.882   4.351   4.523 -0.4035 -0.7976  0.0846
 1587SOL    HW216395   1.862   4.491   4.550 -1.2385 -1.0930 -0.4811
 1588SOL     OW16396   1.183   3.323   5.200  0.3948  0.5629 -0.5187
 1588SOL    HW116397   1.202   3.336   5.108  0.7437  2.4420 -0.1730
 1588SOL    HW216398   1.101   3.371   5.210  0.6541  0.7603  0.6518
 1589SOL     OW16399   3.387   0.753  15.899 -0.1753 -0.0834  0.0300
 1589SOL    HW116400   3.432   0.782  15.820 -1.0197 -1.9997 -1.1694
 1589SOL    HW216401   3.358   0.662  15.891  0.5043 -0.1810 -1.2090
 1590SOL     OW16402   2.542   1.895   4.854  0.3684 -0.8390 -0.2918
 1590SOL    HW116403   2.610   1.838   4.891  1.5093  0.7462  0.0620
 1590SOL    HW216404   2.510   1.836   4.785  1.6593  0.2704 -1.8314
 1591SOL     OW16405   4.179   0.106   3.856 -0.3960  0.4704  0.3274
 1591SOL    HW116406   4.248   0.162   3.820  0.9478  0.4339  2.8651
 1591SOL    HW216407   4.117   0.170   3.891  1.1728  1.6226  0.9527
 1592SOL     OW16408   2.708   0.481   6.476  0.0170  0.2360  0.4901
 1592SOL    HW116409   2.739   0.401   6.433  0.5522  0.1324  1.0656
 1592SOL    HW216410   2.727   0.452   6.565 -0.3676 -2.3300 -0.2463
 1593SOL     OW16411   0.353   3.364   1.817 -0.3235  0.0430  0.4097
 1593SOL    HW116412   0.338   3.374   1.723  1.0488  2.0100  0.4194
 1593SOL    HW216413   0.399   3.446   1.833  1.8362 -0.9630 -0.6821
 1594SOL     OW16414   2.779   1.337  16.690  0.3396 -0.3166  0.1933
 1594SOL    HW116415   2.758   1.275  16.759  1.8514 -2.3522 -1.1509
 1594SOL    HW216416   2.711   1.313  16.627  0.3818  2.0132 -0.7508
 1595SOL     OW16417   2.533   0.306  15.413  0.4273 -0.3055 -0.1551
 1595SOL    HW116418   2.506   0.282  15.501 -0.3519 -3.4884 -1.2444
 1595SOL    HW216419   2.496   0.246  15.348  1.6115  1.0059 -2.0529
 1596SOL     OW16420   1.045   1.584  17.046 -0.1998 -0.6469 -0.2612
 1596SOL    HW116421   0.963   1.622  17.016  1.0897 -0.9249 -4.2530
 1596SOL    HW216422   1.035   1.498  17.004 -0.1404 -2.5852  3.7420
 1597SOL     OW16423   4.369   2.562   3.021 -0.1348  0.1929 -0.5213
 1597SOL    HW116424   4.434   2.565   2.951  0.2064  0.0637 -0.2106
 1597SOL    HW216425   4.413   2.532   3.101 -1.1024  0.7246  0.2010
 1598SOL     OW16426   0.497   1.553   4.339  0.1977 -0.4334  0.1727
 1598SOL    HW116427   0.439   1.609   4.286  0.3770 -1.2574 -0.8979
 1598SOL    HW216428   0.432   1.484   4.355  0.5115 -0.8813 -0.4905
 1599SOL     OW16429   3.998   2.302  16.790  0.4604 -0.0113 -0.3159
 1599SOL    HW116430   3.979   2.209  16.800  0.5207  0.0762  0.5528
 1599SOL    HW216431   4.043   2.301  16.705  2.6015 -0.5618  0.8235
 1600SOL     OW16432   3.921   3.994   4.259  0.2450  0.4103 -0.2741
 1600SOL    HW116433   4.004   3.951   4.237 -0.9846 -3.1486  2.1342
 1600SOL    HW216434   3.864   3.931   4.216  1.2369  0.6856 -1.9811
 1601SOL     OW16435   0.400   0.628  10.794  0.2175 -0.5520 -0.4013
 1601SOL    HW116436   0.327   0.661  10.847  1.1794  3.0682 -1.3454
 1601SOL    HW216437   0.374   0.668  10.711 -1.2430  0.8859  0.7465
 1602SOL     OW16438   4.306   3.726   8.874 -0.3132 -0.1058  0.0602
 1602SOL    HW116439   4.351   3.782   8.811 -0.9940 -2.1226 -2.2441
 1602SOL    HW216440   4.257   3.793   8.921 -0.8890 -1.6242  1.6061
 1603SOL     OW16441   1.003   4.226   8.639  0.2497 -0.2278 -0.5468
 1603SOL    HW116442   0.940   4.249   8.707  1.0484 -5.1774  1.8841
 1603SOL    HW216443   1.084   4.236   8.689 -0.0275  0.3190 -0.2068
 1604SOL     OW16444   1.137   3.439   6.554  0.4208  0.4686 -0.2982
 1604SOL    HW116445   1.052   3.478   6.532 -1.0422 -2.3598  0.2246
 1604SOL    HW216446   1.150   3.472   6.643  1.8191  1.1928 -0.7688
 1605SOL     OW16447   2.784   1.785   5.856  0.2443 -0.1224  0.0463
 1605SOL    HW116448   2.803   1.878   5.840 -0.7441 -0.1316 -1.1863
 1605SOL    HW216449   2.856   1.742   5.810 -0.4962  1.6653 -2.7874
 1606SOL     OW16450   1.405   0.418   2.791  0.1438 -0.7395  0.4361
 1606SOL    HW116451   1.392   0.473   2.869  0.1008 -0.5189  0.2735
 1606SOL    HW216452   1.367   0.482   2.731 -3.8258 -4.1664 -0.6987
 1607SOL     OW16453   2.878   1.866   3.689 -0.1999  0.0393  0.4909
 1607SOL    HW116454   2.800   1.812   3.684  0.3150 -0.6801  0.2738
 1607SOL    HW216455   2.882   1.927   3.615 -1.3704  1.3562  1.5119
 1608SOL     OW16456   0.808   2.938   2.119 -0.2777  0.9273 -0.3632
 1608SOL    HW116457   0.836   2.993   2.046 -0.1861  0.4730 -0.6637
 1608SOL    HW216458   0.717   2.919   2.099  0.1975  0.0070 -1.6334
 1609SOL     OW16459   2.723   0.212   5.360 -0.0177 -0.3972 -0.5676
 1609SOL    HW116460   2.717   0.238   5.452  0.9489 -2.4017  0.0609
 1609SOL    HW216461   2.781   0.274   5.317  0.8469 -0.8644 -0.0756
 1610SOL     OW16462   0.738   2.511   4.131  0.3618  0.2723  0.2319
 1610SOL    HW116463   0.790   2.444   4.086  1.2321  1.3678 -0.3857
 1610SOL    HW216464   0.734   2.574   4.059  1.9026  1.1854  0.9555
 1611SOL     OW16465   3.132   3.529   6.767 -0.4201  0.4528 -0.0384
 1611SOL    HW116466   3.188   3.592   6.812 -0.9989 -0.7233  2.3095
 1611SOL    HW216467   3.065   3.504   6.830 -0.5080  1.1810  0.1557
 1612SOL     OW16468   0.832   0.041  10.779  0.1392  0.1921 -0.2006
 1612SOL    HW116469   0.920   0.011  10.802  0.8776  2.2175 -0.3574
 1612SOL    HW216470   0.771   0.016  10.848  0.8576  1.3222  0.8444
 1613SOL     OW16471   3.531   3.966   0.792 -0.0118 -0.1207 -0.1110
 1613SOL    HW116472   3.537   4.019   0.712  2.2863 -1.2156 -0.6762
 1613SOL    HW216473   3.470   3.897   0.766 -1.0501  1.3132 -1.4460
 1614SOL     OW16474   0.371   3.588   7.565  0.3708  0.0803  0.7299
 1614SOL    HW116475   0.408   3.560   7.649 -1.0993 -0.4501  1.1921
 1614SOL    HW216476   0.376   3.684   7.573  0.5272  0.1625 -0.4039
 1615SOL     OW16477   4.264   3.650   6.370  0.5112  0.0778  0.1144
 1615SOL    HW116478   4.261   3.716   6.300  0.3319  1.6892  1.6424
 1615SOL    HW216479   4.179   3.667   6.410  2.1012  2.6652  2.3979
 1616SOL     OW16480   1.746   1.897   8.016 -0.1499  0.3761  0.2002
 1616SOL    HW116481   1.712   1.931   7.933  0.0417  2.1615  0.8596
 1616SOL    HW216482   1.664   1.854   8.041  0.4346 -0.4560  0.6685
 1617SOL     OW16483   4.737   4.680   3.716 -0.2956 -0.4610  0.2683
 1617SOL    HW116484   4.664   4.644   3.766  0.3031 -0.4366  1.1547
 1617SOL    HW216485   4.710   4.689   3.625 -2.3312  0.1894  0.9334
 1618SOL     OW16486   2.634   4.728   3.305  0.3777  0.0587 -0.5107
 1618SOL    HW116487   2.686   4.671   3.362  0.3312 -0.2901 -0.8193
 1618SOL    HW216488   2.691   0.021   3.235 -1.3591  4.3905 -0.0230
 1619SOL     OW16489   4.531   4.737   9.580 -0.8527 -0.4538  0.1485
 1619SOL    HW116490   4.549   4.647   9.553  2.5469  0.1814  0.3046
 1619SOL    HW216491   4.466   4.714   9.647 -2.3863  0.1896 -1.1262
 1620SOL     OW16492   4.559   1.359   0.659 -0.2056 -0.3376  0.2774
 1620SOL    HW116493   4.618   1.341   0.585 -2.7593  1.0768 -2.1204
 1620SOL    HW216494   4.625   1.384   0.723  0.2811  0.5982 -0.5901
 1621SOL     OW16495   0.823   3.037   9.446 -0.0716 -0.3620  0.0936
 1621SOL    HW116496   0.848   3.128   9.461  0.8744 -0.3466 -1.5262
 1621SOL    HW216497   0.749   3.034   9.507 -0.8046 -0.5001 -0.7972
 1622SOL     OW16498   2.042   1.442  12.548 -0.2056  0.1235 -0.0059
 1622SOL    HW116499   2.126   1.487  12.537 -0.3478  0.0374 -1.4646
 1622SOL    HW216500   2.055   1.361  12.499 -0.5853  0.0240  0.0650
 1623SOL     OW16501   0.648   3.179   7.168  0.1388  0.9099  0.0799
 1623SOL    HW116502   0.682   3.095   7.198 -0.3672  0.4376 -0.6895
 1623SOL    HW216503   0.726   3.235   7.171  0.9117 -0.0801 -1.3660
 1624SOL     OW16504   1.999   2.320   5.111 -0.0587 -0.0067 -0.1759
 1624SOL    HW116505   2.015   2.265   5.187  1.3344 -0.2174 -0.6223
 1624SOL    HW216506   2.017   2.275   5.029  0.3133  0.6642 -0.4683
 1625SOL     OW16507   2.551   1.093  11.110  0.0774  0.2809  0.2836
 1625SOL    HW116508   2.524   1.174  11.067  1.6445  1.1916  1.0249
 1625SOL    HW216509   2.643   1.100  11.133 -0.1813 -1.1394  1.7368
 1626SOL     OW16510   2.586   1.368   6.675  0.1164  0.1593  0.0996
 1626SOL    HW116511   2.620   1.337   6.759 -0.6434  0.9550  0.6982
 1626SOL    HW216512   2.653   1.341   6.613 -0.2414 -0.2567 -0.1030
 1627SOL     OW16513   4.187   0.933  13.358 -0.0612 -0.2974 -0.2046
 1627SOL    HW116514   4.228   0.880  13.426  1.1648  0.4916 -0.3369
 1627SOL    HW216515   4.183   1.026  13.378 -0.7605  0.1247 -2.3380
 1628SOL     OW16516   2.616   3.691  10.238  0.3411  0.4237 -0.3157
 1628SOL    HW116517   2.644   3.722  10.324  0.4145  1.2337 -0.6352
 1628SOL    HW216518   2.637   3.598  10.230  3.5227  1.2087 -0.9332
 1629SOL     OW16519   4.463   4.232   8.101  0.0901  0.5960  0.2447
 1629SOL    HW116520   4.424   4.155   8.060  1.1100  0.0166  0.3534
 1629SOL    HW216521   4.552   4.196   8.108 -0.0301  0.2181 -0.2184
 1630SOL     OW16522   1.780   2.357   8.719  0.1172 -0.1208  0.0062
 1630SOL    HW116523   1.807   2.381   8.807 -2.9754  0.0562  0.9236
 1630SOL    HW216524   1.756   2.265   8.734  1.5306 -0.1702  1.9728
 1631SOL     OW16525   2.420   1.147   5.476 -0.3741 -0.0961  0.4837
 1631SOL    HW116526   2.376   1.087   5.536 -1.4008 -1.3779 -1.5453
 1631SOL    HW216527   2.451   1.088   5.408 -1.8529  1.0855 -1.2113
 1632SOL     OW16528   3.832   0.945   0.439  0.0946  0.1524  0.3847
 1632SOL    HW116529   3.917   0.959   0.481  0.4185 -0.3768 -0.1042
 1632SOL    HW216530   3.847   0.968   0.348  1.0946  0.6303  0.6731
 1633SOL     OW16531   2.513   1.570   4.081 -0.0893 -0.4894  0.1504
 1633SOL    HW116532   2.503   1.664   4.065 -1.4342 -0.1259  3.1448
 1633SOL    HW216533   2.421   1.543   4.085  0.0152 -0.9359 -0.6216
 1634SOL     OW16534   1.103   1.003  16.930 -0.2438  0.2573 -0.3026
 1634SOL    HW116535   1.173   1.056  16.968  0.1001 -0.3528 -0.0760
 1634SOL    HW216536   1.039   0.995  17.002  0.0204 -0.5302 -0.1539
 1635SOL     OW16537   3.000   4.210   1.612  0.2470  0.1278  0.0066
 1635SOL    HW116538   3.057   4.153   1.664 -1.2891 -0.1887  1.3600
 1635SOL    HW216539   2.933   4.152   1.574 -0.0032  0.1561  0.4026
 1636SOL     OW16540   2.585   3.493   3.828  0.3144  0.5639 -0.0891
 1636SOL    HW116541   2.536   3.565   3.867 -0.0087  0.4327 -0.2510
 1636SOL    HW216542   2.676   3.518   3.846  0.6471  0.6278 -1.8207
 1637SOL     OW16543   3.220   0.996   4.684  0.5864  0.3343 -0.2417
 1637SOL    HW116544   3.154   1.051   4.727  0.7862  0.4982 -0.1454
 1637SOL    HW216545   3.172   0.924   4.643 -2.5264  1.9476  0.5340
 1638SOL     OW16546   3.252   4.228   9.785  0.0201  0.3925 -0.2973
 1638SOL    HW116547   3.243   4.135   9.802  1.7961  0.1788 -0.4549
 1638SOL    HW216548   3.166   4.264   9.767 -0.1905 -0.9524 -1.9464
 1639SOL     OW16549   4.426   1.148   0.038  0.5475  0.1704 -0.1616
 1639SOL    HW116550   4.388   1.136  17.699  0.1700 -3.7674  0.5370
 1639SOL    HW216551   4.361   1.185   0.098  0.3583 -2.0348  0.9900
 1640SOL     OW16552   0.287   1.388   2.511 -0.0205 -0.4921  0.2935
 1640SOL    HW116553   0.254   1.315   2.458 -0.2946 -0.1302 -0.0297
 1640SOL    HW216554   0.380   1.368   2.515  0.0223 -0.7097 -1.7251
 1641SOL     OW16555   3.933   2.675   7.074  0.0640  0.2837 -0.2263
 1641SOL    HW116556   3.842   2.680   7.103 -0.7541 -3.4282 -2.1957
 1641SOL    HW216557   3.984   2.706   7.150 -0.6319  0.1218  0.3107
 1642SOL     OW16558   0.527   2.168   2.556  0.2231  0.6095 -0.4966
 1642SOL    HW116559   0.580   2.225   2.500 -0.6409  1.4683 -0.4413
 1642SOL    HW216560   0.462   2.228   2.592  0.1504 -0.9642  1.9585
 1643SOL     OW16561   1.817   3.566   6.900 -0.3307  0.0268 -0.0377
 1643SOL    HW116562   1.901   3.562   6.854 -0.7638 -2.5617 -0.5783
 1643SOL    HW216563   1.754   3.585   6.831 -0.9001  0.9711  0.7474
 1644SOL     OW16564   2.302   0.553  16.952  0.2511 -0.5793  0.0102
 1644SOL    HW116565   2.301   0.524  16.861 -0.2307  0.6930 -0.3880
 1644SOL    HW216566   2.304   0.648  16.937  0.3079 -0.2667  2.0507
 1645SOL     OW16567   0.685   1.312   2.837  0.6237 -0.1027 -0.0217
 1645SOL    HW116568   0.642   1.389   2.802  0.9531 -0.1788 -0.5996
 1645SOL    HW216569   0.736   1.274   2.765  0.5346  0.5999 -0.4501
 1646SOL     OW16570   3.240   0.469   8.094  0.4748 -0.2719 -0.2602
 1646SOL    HW116571   3.326   0.457   8.135 -0.0675 -1.1849  0.5727
 1646SOL    HW216572   3.251   0.404   8.024 -1.2755 -1.3009  0.4597
 1647SOL     OW16573   3.074   3.747   2.612 -0.5649 -0.2516  0.0066
 1647SOL    HW116574   3.140   3.696   2.566 -1.1639 -2.5148  1.6548
 1647SOL    HW216575   3.020   3.672   2.636  0.1811 -0.2903  1.5751
 1648SOL     OW16576   2.436   4.046   6.710  0.0230  0.7195  0.0148
 1648SOL    HW116577   2.493   3.979   6.748  1.2738  2.0373  0.4634
 1648SOL    HW216578   2.465   4.036   6.619  1.8329  1.9445  0.4574
 1649SOL     OW16579   4.346   0.682   7.562 -0.0001 -0.2624  0.2992
 1649SOL    HW116580   4.278   0.690   7.629 -3.2541  1.5462 -3.1816
 1649SOL    HW216581   4.313   0.739   7.491 -0.3406 -1.2484 -0.3375
 1650SOL     OW16582   2.237   4.473   7.401  0.5772 -0.2149 -0.4830
 1650SOL    HW116583   2.251   4.380   7.387  0.8481 -0.0974 -1.0034
 1650SOL    HW216584   2.143   4.482   7.419  0.8645  0.6132  0.6445
 1651SOL     OW16585   4.114   0.112   6.944 -0.1763 -0.1820 -0.0141
 1651SOL    HW116586   4.023   0.096   6.919 -0.2127  0.1984 -0.1252
 1651SOL    HW216587   4.128   0.054   7.019 -0.1586  0.9667  0.8790
 1652SOL     OW16588   3.811   3.876   1.905 -0.1954 -0.2591 -0.2962
 1652SOL    HW116589   3.904   3.888   1.923 -0.5501  0.1825  1.2384
 1652SOL    HW216590   3.781   3.966   1.919 -3.0120 -1.3421  0.5955
 1653SOL     OW16591   2.536   0.898   7.456 -0.1248 -0.2503  0.1114
 1653SOL    HW116592   2.515   0.806   7.440 -1.2215 -0.0838  0.6202
 1653SOL    HW216593   2.609   0.920   7.398  0.0380  1.7947  1.0730
 1654SOL     OW16594   0.055   0.609  11.848 -0.2185 -0.6038  0.2015
 1654SOL    HW116595   0.057   0.519  11.881 -0.8516 -0.7305 -0.0995
 1654SOL    HW216596   0.125   0.642  11.903  0.7496  0.7487 -1.8499
 1655SOL     OW16597   2.384   0.915   5.621  0.1760  0.0151 -0.1080
 1655SOL    HW116598   2.334   0.920   5.702 -0.3226 -1.8007 -0.3074
 1655SOL    HW216599   2.322   0.859   5.575  0.4192 -2.0743  2.1188
 1656SOL     OW16600   2.067   2.962   8.318  0.3253  0.5077  0.2885
 1656SOL    HW116601   2.106   2.912   8.389 -1.3844  0.5225  1.2543
 1656SOL    HW216602   2.106   2.915   8.244 -0.8017 -2.9529  1.8727
 1657SOL     OW16603   2.137   3.777   5.342 -0.1524  0.2036  0.1422
 1657SOL    HW116604   2.211   3.793   5.284  0.6219  0.7344  1.2951
 1657SOL    HW216605   2.088   3.857   5.361  1.0118  0.7482  0.8719
 1658SOL     OW16606   1.929   2.122  13.359  0.3253  0.1449 -0.4790
 1658SOL    HW116607   1.966   2.114  13.271  1.4178  1.2591 -0.1032
 1658SOL    HW216608   1.939   2.029  13.379 -0.5488  0.1847  0.1373
 1659SOL     OW16609   2.279   1.810   2.380 -0.2860  0.0710 -0.3499
 1659SOL    HW116610   2.273   1.768   2.466  0.0737 -0.6566 -0.6906
 1659SOL    HW216611   2.360   1.775   2.344  0.9648  2.0723  0.5093
 1660SOL     OW16612   0.523   3.738   4.116 -0.1574 -0.2142 -0.3320
 1660SOL    HW116613   0.520   3.738   4.020 -0.8929  1.9354 -0.3150
 1660SOL    HW216614   0.615   3.712   4.123  0.4189  1.7951 -0.3805
 1661SOL     OW16615   1.873   2.855  16.365  0.6774  0.3031  0.6333
 1661SOL    HW116616   1.945   2.797  16.340  0.2662  0.9041 -1.9257
 1661SOL    HW216617   1.860   2.818  16.453  1.4054  2.5386  1.6807
 1662SOL     OW16618   2.457   1.254   8.471 -0.6548 -0.0417 -0.7977
 1662SOL    HW116619   2.443   1.335   8.521 -0.6144 -0.3073 -0.3521
 1662SOL    HW216620   2.553   1.246   8.476 -0.7336 -0.9691 -0.9008
 1663SOL     OW16621   2.198   3.093   1.383  0.1144 -0.2581  0.1716
 1663SOL    HW116622   2.269   3.087   1.447 -0.3017  0.0123  0.6585
 1663SOL    HW216623   2.129   3.047   1.431 -0.4613  0.5047  0.0731
 1664SOL     OW16624   3.408   1.596  12.637  0.3574  0.2161 -0.2633
 1664SOL    HW116625   3.351   1.673  12.642 -0.8893 -0.6008 -1.9703
 1664SOL    HW216626   3.492   1.632  12.609 -0.2734  1.6050 -0.4124
 1665SOL     OW16627   1.512   1.572   5.133 -0.3210  0.3847 -0.7779
 1665SOL    HW116628   1.542   1.569   5.223 -1.7687 -2.1289 -0.3898
 1665SOL    HW216629   1.472   1.659   5.126 -1.8143 -0.0554  2.5707
 1666SOL     OW16630   3.974   4.261   5.464  0.6368  0.0714 -0.2660
 1666SOL    HW116631   4.027   4.271   5.543 -0.4799 -1.5092  0.6885
 1666SOL    HW216632   4.001   4.328   5.401 -0.7408 -0.1177 -1.0719
 1667SOL     OW16633   4.066   2.963  11.437  0.3775  0.2573  0.2711
 1667SOL    HW116634   4.033   2.937  11.522 -1.5819 -2.7448 -1.4182
 1667SOL    HW216635   4.032   3.052  11.427 -3.7077 -0.9179  3.9315
 1668SOL     OW16636   0.595   4.466   4.935  0.0239 -0.1007  0.1194
 1668SOL    HW116637   0.621   4.374   4.945 -0.1664  0.1457  2.8423
 1668SOL    HW216638   0.633   4.482   4.848  0.9000 -2.4455  0.0753
 1669SOL     OW16639   0.782   3.315   7.581  0.0600  0.0143  0.0489
 1669SOL    HW116640   0.832   3.314   7.663 -2.7322 -0.7453  1.7237
 1669SOL    HW216641   0.703   3.268   7.607  0.5626 -0.4084  0.8134
 1670SOL     OW16642   2.866   3.753   9.691  0.2497  0.1855  0.3138
 1670SOL    HW116643   2.881   3.827   9.633 -2.1661  0.1272 -0.4122
 1670SOL    HW216644   2.816   3.799   9.758  1.7539 -1.0873  2.3199
 1671SOL     OW16645   1.232   1.570  16.485  0.4828 -0.7228  0.5693
 1671SOL    HW116646   1.324   1.549  16.502  0.0438 -2.6793  0.5724
 1671SOL    HW216647   1.242   1.640  16.421 -1.0653 -1.5398 -0.5714
 1672SOL     OW16648   2.508   3.914   6.992  0.8895  0.1013  0.0860
 1672SOL    HW116649   2.550   3.828   6.995  0.6077 -0.0815 -1.1502
 1672SOL    HW216650   2.459   3.910   6.910 -0.8658  0.7094  1.1096
 1673SOL     OW16651   1.686   1.044   1.122  0.3040  0.2497 -0.5700
 1673SOL    HW116652   1.622   0.999   1.067 -0.6068  1.4224 -0.4849
 1673SOL    HW216653   1.654   1.134   1.125  0.5438  0.3071  0.2310
 1674SOL     OW16654   1.221   3.295  14.723 -0.3394 -0.2637  0.4444
 1674SOL    HW116655   1.174   3.231  14.777 -0.6780  0.3571  0.8821
 1674SOL    HW216656   1.286   3.239  14.680 -1.2488 -1.6228  0.8226
 1675SOL     OW16657   0.840   1.039   3.431 -0.1044 -0.7428 -0.0740
 1675SOL    HW116658   0.809   0.949   3.436  1.9631 -1.3941  0.7112
 1675SOL    HW216659   0.913   1.025   3.371 -1.1704  0.2426 -1.6352
 1676SOL     OW16660   4.467   1.141   7.748 -0.3535  0.1122  0.2213
 1676SOL    HW116661   4.378   1.158   7.716 -0.5092  0.0065  0.6096
 1676SOL    HW216662   4.469   1.205   7.818  2.5938  0.8247 -0.5108
 1677SOL     OW16663   0.714   0.355  13.830  0.0674  0.3719  0.1226
 1677SOL    HW116664   0.661   0.417  13.879 -0.6539 -1.9491  2.3060
 1677SOL    HW216665   0.764   0.405  13.765  0.3259  1.2741  1.0254
 1678SOL     OW16666   2.083   4.553   8.704 -0.9102 -0.0988  0.1918
 1678SOL    HW116667   2.047   4.633   8.665  1.6476  0.1454 -1.6065
 1678SOL    HW216668   2.106   4.582   8.792 -1.2736 -0.1661  0.3111
 1679SOL     OW16669   2.716   4.027   2.594 -0.4372 -0.1530 -0.1746
 1679SOL    HW116670   2.781   4.097   2.592 -0.7902  0.1926  0.6036
 1679SOL    HW216671   2.760   3.957   2.544 -3.4254 -1.6305 -0.7479
 1680SOL     OW16672   1.991   1.630  15.141 -0.1869  0.3401  0.2447
 1680SOL    HW116673   2.028   1.683  15.071  0.1386  0.7038  0.6944
 1680SOL    HW216674   2.011   1.696  15.207  0.8615 -2.1549  2.4705
 1681SOL     OW16675   4.674   2.818   6.477  0.1572  0.1853  0.1416
 1681SOL    HW116676   4.734   2.794   6.407 -2.1100  1.0851 -2.1522
 1681SOL    HW216677   4.588   2.816   6.435  0.2446  0.2290 -0.0366
 1682SOL     OW16678   0.209   1.280  16.297  0.0706 -0.1404  0.1256
 1682SOL    HW116679   0.139   1.329  16.253  0.7618  0.6669 -0.0857
 1682SOL    HW216680   0.200   1.187  16.276 -0.5229 -0.2564  0.8921
 1683SOL     OW16681   0.473   2.331  12.995  0.4598  0.1237  0.9360
 1683SOL    HW116682   0.504   2.372  12.914 -0.0128 -1.2793  0.0439
 1683SOL    HW216683   0.548   2.349  13.052  3.2416 -1.7606 -2.1197
 1684SOL     OW16684   3.425   3.419  14.521  0.5696 -0.2956  0.4596
 1684SOL    HW116685   3.353   3.466  14.563  0.1757 -0.5991  0.1271
 1684SOL    HW216686   3.375   3.352  14.474  0.8057 -1.2764  1.6054
 1685SOL     OW16687   2.836   0.126   6.755  0.4677  0.2639  0.3611
 1685SOL    HW116688   2.772   0.055   6.750  0.6317  0.2264 -1.1852
 1685SOL    HW216689   2.784   0.204   6.734  2.5382  1.5436 -0.0565
 1686SOL     OW16690   0.827   3.910   6.558  0.2299  0.6713  0.0127
 1686SOL    HW116691   0.913   3.920   6.600 -0.0688  0.2704  0.7111
 1686SOL    HW216692   0.790   3.852   6.624  0.6130  2.9265  2.1896
 1687SOL     OW16693   2.649   4.311  16.270  0.1005  0.0804 -0.1133
 1687SOL    HW116694   2.674   4.334  16.360 -2.0810  1.3138  0.1655
 1687SOL    HW216695   2.559   4.342  16.276 -0.7557 -2.3291 -0.4761
 1688SOL     OW16696   2.208   1.530   5.144  0.2281  0.4360  0.0396
 1688SOL    HW116697   2.136   1.505   5.086 -0.2215 -1.3343  1.3518
 1688SOL    HW216698   2.170   1.529   5.231  2.4610  0.9529  1.0293
 1689SOL     OW16699   1.686   4.693   1.213 -0.4626 -0.2590  0.2321
 1689SOL    HW116700   1.599   4.688   1.174  0.5447 -1.4131 -1.8287
 1689SOL    HW216701   1.711   0.048   1.211  0.3863 -0.5566 -2.6379
 1690SOL     OW16702   3.006   4.226  11.839  0.2258  0.3355  0.0764
 1690SOL    HW116703   3.008   4.314  11.801  1.9093  0.2923  0.0861
 1690SOL    HW216704   3.010   4.179  11.757  1.2824 -2.3642  1.6768
 1691SOL     OW16705   3.754   2.858   9.082  0.4132  0.2905 -0.4378
 1691SOL    HW116706   3.773   2.885   9.172 -0.3954  0.4226 -0.3107
 1691SOL    HW216707   3.711   2.934   9.041  2.7881  1.1292 -1.4283
 1692SOL     OW16708   0.774   0.825   5.725  0.3572 -0.1163 -0.0859
 1692SOL    HW116709   0.809   0.898   5.775  1.7829 -0.6013 -0.3947
 1692SOL    HW216710   0.690   0.822   5.772 -0.9123 -0.3121 -2.3967
 1693SOL     OW16711   3.429   1.551   7.455  0.6759 -0.1894  0.2692
 1693SOL    HW116712   3.350   1.604   7.443  0.4343 -0.2854  1.3502
 1693SOL    HW216713   3.496   1.619   7.462 -0.5149  1.0518 -0.1988
 1694SOL     OW16714   4.159   1.770   7.053 -0.2363 -0.0409  0.5716
 1694SOL    HW116715   4.226   1.762   6.985 -0.7393 -2.2887  0.3393
 1694SOL    HW216716   4.079   1.738   7.012 -0.2114  1.0237 -0.3211
 1695SOL     OW16717   3.045   1.993   4.357  0.2372 -0.1090  0.4139
 1695SOL    HW116718   3.055   2.051   4.432  1.8443  1.0691 -0.6970
 1695SOL    HW216719   3.028   1.911   4.403  0.4288 -0.5226 -0.2425
 1696SOL     OW16720   3.882   1.486   5.603 -0.4202 -0.2502  0.2637
 1696SOL    HW116721   3.906   1.474   5.695 -1.6203  0.8840  0.7162
 1696SOL    HW216722   3.908   1.407   5.554  1.4774 -0.3611  1.4434
 1697SOL     OW16723   4.140   1.324   1.853 -0.1472 -0.2137  0.1889
 1697SOL    HW116724   4.046   1.327   1.834 -0.0253  0.5379 -0.3187
 1697SOL    HW216725   4.178   1.285   1.775  2.5640 -1.0332  1.8923
 1698SOL     OW16726   1.066   2.313   7.310  0.2522 -0.0429  0.0515
 1698SOL    HW116727   1.090   2.395   7.355  1.4641 -1.8474  2.6991
 1698SOL    HW216728   0.972   2.319   7.323  0.1719 -0.3315 -0.4068
 1699SOL     OW16729   2.545   0.933   7.724  0.2692 -0.0189 -0.0920
 1699SOL    HW116730   2.633   0.898   7.740 -0.1510 -0.9112  0.2397
 1699SOL    HW216731   2.545   0.929   7.628  0.0094 -3.3970  0.0497
 1700SOL     OW16732   4.128   1.804   3.146 -0.0997  0.9495  0.2511
 1700SOL    HW116733   4.098   1.889   3.179 -1.7966 -0.1080  1.4478
 1700SOL    HW216734   4.189   1.763   3.207 -0.3273 -0.6963 -0.6292
 1701SOL     OW16735   1.064   4.207  10.171 -0.2372 -0.8108 -0.1159
 1701SOL    HW116736   1.059   4.296  10.207  1.2918 -0.1344 -1.5789
 1701SOL    HW216737   1.153   4.206  10.136 -0.4629 -3.0591 -0.6032
 1702SOL     OW16738   2.767   0.853  11.608  0.9989 -0.3500 -0.3328
 1702SOL    HW116739   2.775   0.943  11.641  1.2736 -0.0251 -1.2946
 1702SOL    HW216740   2.774   0.865  11.513 -0.7959 -0.9035 -0.5415
 1703SOL     OW16741   2.980   3.472   3.757  0.2166  0.2770 -0.1077
 1703SOL    HW116742   2.954   3.457   3.848 -1.0737  2.3839 -0.1436
 1703SOL    HW216743   2.980   3.567   3.759 -0.8157  0.2739 -0.3058
 1704SOL     OW16744   1.569   2.491   2.567  0.5681 -0.2417  0.2077
 1704SOL    HW116745   1.584   2.418   2.508  0.9105  0.3304 -0.3988
 1704SOL    HW216746   1.513   2.446   2.630 -0.3435 -0.6132 -0.8673
 1705SOL     OW16747   0.474   4.200   6.044 -0.0860 -0.2682  0.4424
 1705SOL    HW116748   0.404   4.231   5.987  0.0656 -1.4262 -0.3685
 1705SOL    HW216749   0.432   4.212   6.129 -0.0167  0.8720  0.3239
 1706SOL     OW16750   3.437   4.200   4.809 -0.3515  0.6633  0.8658
 1706SOL    HW116751   3.462   4.166   4.895 -0.2560  0.0918  0.6151
 1706SOL    HW216752   3.514   4.176   4.759 -1.0034  0.3260  0.0277
 1707SOL     OW16753   0.113   3.588   1.357  0.5937 -0.0772  0.4136
 1707SOL    HW116754   0.131   3.633   1.274 -0.2865 -1.4143 -0.4897
 1707SOL    HW216755   0.157   3.503   1.352 -0.3710 -0.6516  1.8151
 1708SOL     OW16756   1.405   3.838   3.256 -0.3058 -0.2063  0.0014
 1708SOL    HW116757   1.384   3.926   3.224  0.7127 -1.3548 -3.8489
 1708SOL    HW216758   1.500   3.845   3.254 -0.4270  0.7911 -2.2960
 1709SOL     OW16759   1.970   2.625   6.818 -0.1319  0.0495 -0.6034
 1709SOL    HW116760   1.876   2.641   6.828 -0.5529 -2.2599 -0.8876
 1709SOL    HW216761   1.983   2.566   6.893  2.0366  1.8766  0.4682
 1710SOL     OW16762   0.854   4.348   8.428 -0.3064 -0.0312 -0.0513
 1710SOL    HW116763   0.874   4.439   8.450  1.1393 -0.8082  1.8218
 1710SOL    HW216764   0.903   4.298   8.493 -1.6113 -2.0206 -0.5801
 1711SOL     OW16765   2.032   4.664   8.101 -0.8364 -0.8404 -0.4804
 1711SOL    HW116766   2.059   4.706   8.020 -1.3321 -1.5233 -0.9980
 1711SOL    HW216767   1.960   4.608   8.074 -0.4217 -2.6898  2.1904
 1712SOL     OW16768   3.864   3.579  11.869 -0.1687  0.1289 -0.4990
 1712SOL    HW116769   3.819   3.567  11.952  1.9433 -0.7057  0.5240
 1712SOL    HW216770   3.953   3.594  11.901  0.2671 -0.7889 -1.3070
 1713SOL     OW16771   2.544   2.454   4.294 -0.0303 -0.4968 -0.0790
 1713SOL    HW116772   2.600   2.522   4.259 -1.9006  1.8989  1.5799
 1713SOL    HW216773   2.557   2.375   4.241  0.9831 -0.5863  0.3217
 1714SOL     OW16774   2.992   1.434   8.032 -0.1076 -0.1255 -0.6187
 1714SOL    HW116775   2.957   1.478   7.955  0.6069  2.4902  0.5430
 1714SOL    HW216776   3.039   1.499   8.085  0.0059 -0.2709 -0.5394
 1715SOL     OW16777   1.299   1.626   2.367  0.4636  0.0480 -0.2195
 1715SOL    HW116778   1.233   1.557   2.379  0.1208  0.5275  0.6546
 1715SOL    HW216779   1.361   1.603   2.435  1.1593 -0.0651 -0.8864
 1716SOL     OW16780   0.176   3.195   5.097 -0.1860  0.1890 -0.5069
 1716SOL    HW116781   0.210   3.284   5.093  0.1972  0.0061 -1.2156
 1716SOL    HW216782   0.230   3.161   5.169 -1.4646 -1.4031 -0.3159
 1717SOL     OW16783   0.882   3.025   6.029  0.7999  0.4130 -0.0145
 1717SOL    HW116784   0.804   3.037   5.974 -0.2226  0.7178  1.5061
 1717SOL    HW216785   0.900   3.112   6.065  0.4279  0.1154  0.8924
 1718SOL     OW16786   3.797   3.111  16.578  0.1519  0.6171 -0.1499
 1718SOL    HW116787   3.790   3.203  16.603 -0.5419 -0.0008  1.9355
 1718SOL    HW216788   3.793   3.079  16.668  1.2362 -0.7147 -0.5770
 1719SOL     OW16789   1.829   0.376   1.543 -0.2938 -0.5011 -0.2076
 1719SOL    HW116790   1.779   0.295   1.536 -0.9282 -0.0306 -1.0868
 1719SOL    HW216791   1.922   0.359   1.526  0.2458  0.4443  1.6977
 1720SOL     OW16792   3.677   2.509  17.183 -0.5119  0.2785 -0.1523
 1720SOL    HW116793   3.713   2.498  17.095 -1.3186 -0.5130 -0.3810
 1720SOL    HW216794   3.630   2.592  17.177 -0.1666  0.5332  0.7807
 1721SOL     OW16795   3.974   0.700   9.402  0.6366  0.3870  0.1401
 1721SOL    HW116796   4.002   0.723   9.491 -0.4168  0.9423  0.3317
 1721SOL    HW216797   3.883   0.677   9.421  0.4929  0.6418 -0.2252
 1722SOL     OW16798   0.233   1.142  15.210 -0.2575  0.5306  0.2167
 1722SOL    HW116799   0.216   1.061  15.257  3.6426 -1.0762 -1.1597
 1722SOL    HW216800   0.303   1.121  15.147 -0.0470  0.2929  0.5348
 1723SOL     OW16801   2.944   0.517   9.636  0.0529 -0.3473 -0.3159
 1723SOL    HW116802   2.860   0.560   9.655 -0.1037 -1.3663  1.3102
 1723SOL    HW216803   2.918   0.437   9.591 -0.9818  0.5247 -1.2551
 1724SOL     OW16804   1.782   0.412   0.632 -0.5256  0.5873  0.6199
 1724SOL    HW116805   1.874   0.386   0.620 -1.3600 -2.1030  0.0188
 1724SOL    HW216806   1.746   0.343   0.688 -1.7921 -1.2711 -2.5217
 1725SOL     OW16807   4.675   4.035   8.038  0.0017 -0.0192  0.5994
 1725SOL    HW116808   4.705   4.045   8.129 -2.3350 -1.9206  1.5629
 1725SOL    HW216809   0.021   4.049   7.994  0.4119  0.6040  1.5650
 1726SOL     OW16810   3.424   2.079   9.577 -0.4288  0.0381  0.3623
 1726SOL    HW116811   3.474   2.016   9.526  1.7374  0.2318  2.2545
 1726SOL    HW216812   3.379   2.130   9.509  1.4549  0.4047 -0.5964
 1727SOL     OW16813   4.591   0.968   3.531  0.0290  0.5280  0.0950
 1727SOL    HW116814   4.638   0.930   3.458  0.0477  1.5489 -0.4263
 1727SOL    HW216815   4.625   0.914   3.602 -1.6811  0.2058  0.6909
 1728SOL     OW16816   3.314   2.308   7.991  0.4657  0.3335 -0.7503
 1728SOL    HW116817   3.327   2.281   7.900 -2.3093 -1.5320 -0.6000
 1728SOL    HW216818   3.309   2.403   7.984 -3.4684  0.2802  1.0099
 1729SOL     OW16819   3.760   4.622   2.743 -0.2380  0.0792  0.1418
 1729SOL    HW116820   3.855   4.612   2.747 -0.2177  0.4818  0.6396
 1729SOL    HW216821   3.736   4.583   2.828  1.7323  2.3856  1.7332
 1730SOL     OW16822   1.740   3.836  12.444  0.2210  0.0671  0.0529
 1730SOL    HW116823   1.790   3.866  12.368 -0.2411 -0.7537 -0.5702
 1730SOL    HW216824   1.764   3.914  12.494  1.5491 -0.1972 -0.1583
 1731SOL     OW16825   0.533   0.688   8.403 -0.6958  0.0328  0.0919
 1731SOL    HW116826   0.454   0.718   8.448 -1.3816 -1.7341  0.0717
 1731SOL    HW216827   0.556   0.622   8.468 -0.3709  2.2803  2.2492
 1732SOL     OW16828   0.893   1.614   6.914 -0.3516 -0.2666 -0.4172
 1732SOL    HW116829   0.875   1.706   6.932  0.3712 -0.4060  0.9731
 1732SOL    HW216830   0.810   1.584   6.952 -0.7792  0.8144 -0.5032
 1733SOL     OW16831   4.361   1.361   9.130  0.3331  0.5751 -0.2885
 1733SOL    HW116832   4.441   1.312   9.151 -0.9706 -0.5696  2.0091
 1733SOL    HW216833   4.348   1.409   9.211  0.5017  0.1275  0.0076
 1734SOL     OW16834   2.934   2.994   0.929  0.4145 -0.1170 -0.5433
 1734SOL    HW116835   2.990   3.063   0.963 -1.4271  0.8227  0.5972
 1734SOL    HW216836   2.849   3.037   0.924  0.1601 -0.3289  2.1762
 1735SOL     OW16837   2.339   4.660   3.417  0.1772 -0.0636  0.4847
 1735SOL    HW116838   2.358   4.595   3.349  0.2659  0.5914 -0.1121
 1735SOL    HW216839   2.428   4.694   3.431  0.1398  0.2489 -0.0204
 1736SOL     OW16840   4.685   1.294  17.536  0.3150 -0.7484  0.0426
 1736SOL    HW116841   4.720   1.372  17.493  2.0582 -0.8354  1.2975
 1736SOL    HW216842   4.644   1.254  17.460 -1.0763  1.1782 -0.2125
 1737SOL     OW16843   4.677   1.921   9.440 -0.7935 -0.1859  0.0921
 1737SOL    HW116844   4.671   1.986   9.371 -1.5659  0.3258  0.6467
 1737SOL    HW216845   4.592   1.935   9.482 -1.1426 -3.2763  0.4465
 1738SOL     OW16846   3.058   2.916   7.026 -0.0267 -0.2539  0.2047
 1738SOL    HW116847   2.994   2.987   7.036 -2.1523 -2.0654 -0.3920
 1738SOL    HW216848   3.007   2.837   7.043 -1.8091  1.2518  1.9153
 1739SOL     OW16849   1.627   4.372  12.316  0.4796  0.0111 -0.2367
 1739SOL    HW116850   1.543   4.326  12.313  0.0838  0.3817  5.0317
 1739SOL    HW216851   1.612   4.435  12.387 -0.9209 -1.3134  0.6607
 1740SOL     OW16852   2.139   2.481   4.474 -0.0421  1.0603  0.6146
 1740SOL    HW116853   2.058   2.519   4.509  0.9635  1.5327  2.4577
 1740SOL    HW216854   2.145   2.404   4.530  0.5595  0.5467 -0.1680
 1741SOL     OW16855   1.251   0.072   4.493 -0.0411 -0.2045  0.3338
 1741SOL    HW116856   1.229   0.163   4.475  0.0798  0.2295  2.3458
 1741SOL    HW216857   1.238   0.033   4.407  0.4670  0.7789 -0.1854
 1742SOL     OW16858   0.688   1.700  14.597 -0.6154 -0.4119 -0.1445
 1742SOL    HW116859   0.735   1.692  14.680 -2.5150  1.2756  1.0790
 1742SOL    HW216860   0.696   1.612  14.559 -3.3965 -0.0810 -1.5192
 1743SOL     OW16861   2.075   0.493   7.048 -0.0442  0.0980  0.1868
 1743SOL    HW116862   2.092   0.438   6.971 -0.5232 -0.3300  0.3851
 1743SOL    HW216863   2.041   0.574   7.010 -3.0369 -1.0803  0.3185
 1744SOL     OW16864   0.539   3.663   9.093  0.1875 -0.5276  0.5995
 1744SOL    HW116865   0.524   3.647   9.186  1.2295  0.3601  0.9189
 1744SOL    HW216866   0.547   3.571   9.066 -1.5026 -0.8704  1.3054
 1745SOL     OW16867   1.777   0.239   3.267  0.0482 -0.2226 -0.6003
 1745SOL    HW116868   1.775   0.247   3.363 -1.2194 -2.5814 -0.4244
 1745SOL    HW216869   1.697   0.189   3.251 -0.2218  0.2734 -0.7990
 1746SOL     OW16870   2.979   1.970   6.542 -0.2204 -0.6162  0.7424
 1746SOL    HW116871   2.947   2.014   6.620  0.7978  0.4219  0.5861
 1746SOL    HW216872   3.062   1.940   6.579 -0.6944 -0.0087  2.2693
 1747SOL     OW16873   1.973   4.055   5.458  0.0826 -0.2539 -0.4972
 1747SOL    HW116874   1.943   3.994   5.525 -0.8150  1.8353  1.0074
 1747SOL    HW216875   1.901   4.035   5.398  0.2805  0.6556 -1.0400
 1748SOL     OW16876   1.154   3.291  14.426 -0.1556  0.3699 -0.2391
 1748SOL    HW116877   1.191   3.315  14.512  0.7782  2.7039 -1.2789
 1748SOL    HW216878   1.161   3.196  14.434  0.0281  0.2900 -1.3328
 1749SOL     OW16879   3.231   1.894  12.002  0.3721 -0.0967  0.3717
 1749SOL    HW116880   3.268   1.888  12.090 -1.3975 -3.2006  0.9109
 1749SOL    HW216881   3.208   1.801  11.989 -0.7745  0.6806 -3.1727
 1750SOL     OW16882   3.856   1.012   0.746 -0.3064  0.1527 -0.2004
 1750SOL    HW116883   3.946   1.042   0.759  0.0747 -0.4613 -1.4194
 1750SOL    HW216884   3.805   1.093   0.736  0.4288  0.7165  0.6617
 1751SOL     OW16885   0.407   2.632   3.155  0.0533 -0.1374  0.5881
 1751SOL    HW116886   0.430   2.641   3.247  1.1351 -2.3500  0.5425
 1751SOL    HW216887   0.460   2.556   3.130  0.3316 -0.0884  1.0315
 1752SOL     OW16888   3.229   4.513   3.488 -0.5762 -0.3560  0.5599
 1752SOL    HW116889   3.280   4.548   3.562 -0.3142  1.5194 -0.5039
 1752SOL    HW216890   3.139   4.537   3.510 -0.5856  1.2188 -1.1768
 1753SOL     OW16891   1.348   4.456  12.281  0.1460  0.1729 -0.0316
 1753SOL    HW116892   1.344   4.544  12.318 -1.3211 -0.1453  0.5604
 1753SOL    HW216893   1.282   4.417  12.339  0.0182  0.2862 -0.0992
 1754SOL     OW16894   1.878   0.052   5.603  0.8558  0.1546 -0.2960
 1754SOL    HW116895   1.808   0.057   5.669  0.7915 -0.2478 -0.3322
 1754SOL    HW216896   1.846   4.708   5.564 -2.7386  0.6475  1.5415
 1755SOL     OW16897   3.010   3.971   6.780  0.3282 -0.0567 -0.1649
 1755SOL    HW116898   3.030   4.042   6.720  0.5743 -0.5662 -0.6921
 1755SOL    HW216899   3.068   3.983   6.855  1.1564 -0.6619 -0.7075
 1756SOL     OW16900   3.862   0.069   7.920  0.1321 -0.4891  0.2357
 1756SOL    HW116901   3.872   4.726   7.971 -0.0142 -0.2571  0.6240
 1756SOL    HW216902   3.792   0.053   7.858 -1.7996 -1.4938  2.6993
 1757SOL     OW16903   1.131   1.996   9.313 -0.1092 -0.0656  0.1996
 1757SOL    HW116904   1.221   2.029   9.319 -0.9379  2.0404  1.0448
 1757SOL    HW216905   1.115   1.948   9.232 -2.5965  2.3122 -0.6680
 1758SOL     OW16906   3.668   4.715   7.329 -0.3292  0.1687 -0.2711
 1758SOL    HW116907   3.600   4.724   7.396  0.2661  1.1992  0.2008
 1758SOL    HW216908   3.614   4.690   7.255  0.8166 -2.2958 -0.2695
 1759SOL     OW16909   2.622   1.419   8.952 -0.8358  0.2205 -0.4279
 1759SOL    HW116910   2.548   1.454   8.903  0.5315  2.3497 -0.9597
 1759SOL    HW216911   2.593   1.400   9.041 -0.8484  1.6284 -0.1447
 1760SOL     OW16912   4.132   1.387   8.306 -0.1218 -0.6417  0.1126
 1760SOL    HW116913   4.164   1.438   8.231  0.1714 -1.2761 -0.1921
 1760SOL    HW216914   4.058   1.442   8.332 -0.5665 -1.7853  1.2691
 1761SOL     OW16915   3.275   2.072   1.049  0.3766 -0.5568  0.2622
 1761SOL    HW116916   3.216   2.057   0.975  2.2400 -0.7887 -1.2003
 1761SOL    HW216917   3.261   1.995   1.104 -1.0654 -2.5559 -2.8815
 1762SOL     OW16918   1.602   2.146   6.741 -0.5189 -0.6601 -0.1405
 1762SOL    HW116919   1.521   2.116   6.781  0.6034 -2.6022  0.6745
 1762SOL    HW216920   1.574   2.226   6.696 -2.1728 -1.5543 -0.6765
 1763SOL     OW16921   4.561   3.114   5.716 -0.4176 -0.0532 -0.0990
 1763SOL    HW116922   4.520   3.187   5.762  4.0258  1.2023  1.8566
 1763SOL    HW216923   4.506   3.089   5.642 -0.5292  0.9568 -0.3471
 1764SOL     OW16924   3.308   2.236   3.514  0.4795  0.1476  0.4199
 1764SOL    HW116925   3.385   2.293   3.517 -0.6553  1.6794  0.0598
 1764SOL    HW216926   3.332   2.178   3.441 -0.7669 -0.2306  0.3175
 1765SOL     OW16927   0.596   1.181   1.050 -0.2062 -0.4127 -0.5698
 1765SOL    HW116928   0.545   1.261   1.045 -0.4786 -0.4479  1.6476
 1765SOL    HW216929   0.681   1.224   1.052 -0.0355 -0.7735 -0.1167
 1766SOL     OW16930   0.545   2.181   3.055 -0.3721 -0.3734  0.3199
 1766SOL    HW116931   0.591   2.158   2.974  0.3962  0.3141  0.5599
 1766SOL    HW216932   0.585   2.117   3.114  1.5364  1.1833  0.7103
 1767SOL     OW16933   4.061   4.712  16.684 -0.5786  0.4050  0.2669
 1767SOL    HW116934   4.090   0.060  16.652  1.5323  0.6420  2.8429
 1767SOL    HW216935   4.114   4.657  16.626 -0.2111 -0.1129  1.0958
 1768SOL     OW16936   0.292   2.342  11.402 -0.7802  0.1634  0.1375
 1768SOL    HW116937   0.352   2.410  11.433 -2.1318  1.4689 -0.1255
 1768SOL    HW216938   0.348   2.293  11.343 -2.0545  0.4165 -1.2731
 1769SOL     OW16939   2.765   1.012   9.671  0.3935 -0.2982  0.3522
 1769SOL    HW116940   2.723   1.079   9.618  0.7687 -0.3107  0.0409
 1769SOL    HW216941   2.708   1.020   9.747  2.1947 -4.2072  2.1658
 1770SOL     OW16942   1.745   4.537   0.975 -0.8417 -0.1877 -0.0400
 1770SOL    HW116943   1.743   4.586   1.057 -0.8266 -1.5641  0.7743
 1770SOL    HW216944   1.706   4.459   1.015 -1.0357  0.0722  0.2750
 1771SOL     OW16945   4.509   3.671   1.287  0.5796 -0.0082 -0.0029
 1771SOL    HW116946   4.510   3.734   1.215 -2.5699  2.2353  1.9055
 1771SOL    HW216947   4.516   3.586   1.245  0.6324  1.4137 -2.8568
 1772SOL     OW16948   4.614   1.839   4.444  0.1187 -0.0341  0.0023
 1772SOL    HW116949   4.659   1.842   4.359  0.1587  1.6522  0.0923
 1772SOL    HW216950   4.596   1.745   4.454 -0.0696 -0.0826 -0.7316
 1773SOL     OW16951   4.310   2.313   4.817  0.5719 -0.2075 -0.2467
 1773SOL    HW116952   4.221   2.299   4.851 -0.1575  1.6516 -1.3984
 1773SOL    HW216953   4.356   2.249   4.871 -0.3532 -1.4931 -0.9757
 1774SOL     OW16954   2.501   3.526   2.818 -0.1655  0.4207 -0.4020
 1774SOL    HW116955   2.446   3.509   2.894  0.4903  2.4300  0.5366
 1774SOL    HW216956   2.477   3.442   2.779 -2.8399 -0.2419  2.7645
 1775SOL     OW16957   3.083   0.046   1.944  0.4724  0.2719  0.2390
 1775SOL    HW116958   3.177   0.047   1.964  0.1313 -0.1058  1.8472
 1775SOL    HW216959   3.075   4.733   1.862 -1.8514  1.0291  0.0030
 1776SOL     OW16960   1.996   1.190   5.084  0.4413 -0.2094 -0.0112
 1776SOL    HW116961   2.054   1.118   5.106 -0.3420 -0.6178  0.6919
 1776SOL    HW216962   1.926   1.159   5.141  1.9436  0.0036  1.9312
 1777SOL     OW16963   0.703   1.090  11.517 -0.0478  0.7641  0.5837
 1777SOL    HW116964   0.724   1.157  11.453  0.7890 -0.6079 -0.5759
 1777SOL    HW216965   0.619   1.117  11.553 -0.6114 -1.3666  0.8930
 1778SOL     OW16966   3.335   0.781   6.058 -0.6135 -0.2616  0.0122
 1778SOL    HW116967   3.367   0.723   6.127 -0.9035 -0.4580 -0.0184
 1778SOL    HW216968   3.254   0.814   6.096 -0.7246  1.1269 -1.4458
 1779SOL     OW16969   0.253   1.897   6.643 -0.1865  0.1581  0.1910
 1779SOL    HW116970   0.304   1.852   6.711  0.5181 -0.7939 -0.9705
 1779SOL    HW216971   0.163   1.885   6.672 -0.1763  2.3686  1.1392
 1780SOL     OW16972   3.776   3.925   1.276 -1.2100  0.1610 -0.3376
 1780SOL    HW116973   3.721   3.991   1.234  1.2801  2.0577 -0.6402
 1780SOL    HW216974   3.860   3.930   1.231 -0.0904 -3.3731  1.3276
 1781SOL     OW16975   1.541   4.322   0.984 -0.2967  0.2007  0.0843
 1781SOL    HW116976   1.493   4.329   1.066 -1.2419 -0.0094 -0.4558
 1781SOL    HW216977   1.568   4.231   0.973 -0.5954  0.1209  0.0262
 1782SOL     OW16978   2.528   2.200   7.042  0.1704 -0.3688 -0.6001
 1782SOL    HW116979   2.517   2.127   7.104 -0.5630  0.2473 -0.0081
 1782SOL    HW216980   2.611   2.183   6.999 -0.3149 -0.8246 -1.3695
 1783SOL     OW16981   3.089   4.499  10.954  0.5352 -0.3086  0.5942
 1783SOL    HW116982   3.086   4.566  11.022 -0.8326 -0.2509  0.4757
 1783SOL    HW216983   3.183   4.480  10.954  1.0357  2.0892  0.1704
 1784SOL     OW16984   0.594   1.264   4.080  0.3415  0.1112 -0.1977
 1784SOL    HW116985   0.581   1.354   4.051  1.3514  0.3283  0.0186
 1784SOL    HW216986   0.551   1.258   4.166  1.6024 -0.0375  0.4308
 1785SOL     OW16987   1.115   1.152   5.097 -0.1207 -0.0386 -0.2996
 1785SOL    HW116988   1.141   1.232   5.051 -0.3140  0.2363  0.0732
 1785SOL    HW216989   1.189   1.094   5.075  0.5434  0.0210  1.7745
 1786SOL     OW16990   1.662   1.168   7.780 -0.2128  0.7406  0.3607
 1786SOL    HW116991   1.692   1.089   7.824  0.3214  0.4364 -0.5700
 1786SOL    HW216992   1.600   1.137   7.715 -0.9821  2.2156  0.3788
 1787SOL     OW16993   2.016   2.929   3.570  0.7548  0.3491  0.4468
 1787SOL    HW116994   1.967   2.896   3.646 -2.3391  1.2078 -1.1611
 1787SOL    HW216995   2.047   2.841   3.547 -0.3652 -0.2544  1.2098
 1788SOL     OW16996   1.431   3.535   5.513  0.3111  0.0548  0.2614
 1788SOL    HW116997   1.418   3.624   5.481 -0.5535  0.1348  0.8139
 1788SOL    HW216998   1.471   3.549   5.598 -3.6961  0.6670  2.0336
 1789SOL     OW16999   4.284   4.357   0.465  0.0618 -0.4039 -0.1582
 1789SOL    HW117000   4.220   4.423   0.440  2.4694  1.1626 -2.1808
 1789SOL    HW217001   4.239   4.279   0.431  0.1481 -0.2951 -0.5203
 1790SOL     OW17002   0.723   1.834   9.673 -0.3346 -0.6999 -0.7412
 1790SOL    HW117003   0.786   1.762   9.679  1.6591  1.3628  2.9467
 1790SOL    HW217004   0.717   1.841   9.578 -0.0010 -1.2551 -0.8080
 1791SOL     OW17005   4.412   0.710   3.878  0.2620  0.0808  0.0973
 1791SOL    HW117006   4.376   0.774   3.938 -0.8974 -0.2245 -0.2818
 1791SOL    HW217007   4.502   0.743   3.882 -0.2654  1.4606  0.5689
 1792SOL     OW17008   2.959   0.999  17.556  0.2452 -0.1417  0.0049
 1792SOL    HW117009   2.881   1.043  17.587 -0.5585 -1.0494 -0.6977
 1792SOL    HW217010   3.030   1.063  17.552  0.6101 -0.6056 -1.2698
 1793SOL     OW17011   4.264   0.452   2.948  0.0156  0.2820  0.3803
 1793SOL    HW117012   4.311   0.385   2.997  1.1516  0.9363  0.1753
 1793SOL    HW217013   4.241   0.398   2.873  0.1338 -0.1223  0.6371
 1794SOL     OW17014   0.393   3.654   3.195  0.3321 -0.0136  0.2567
 1794SOL    HW117015   0.455   3.598   3.242  1.9207  1.0588 -0.5682
 1794SOL    HW217016   0.374   3.585   3.132 -1.4087 -0.9496  1.7918
 1795SOL     OW17017   0.286   3.561   4.406 -0.1590  0.1519 -0.1457
 1795SOL    HW117018   0.190   3.569   4.411 -0.1230 -0.1648  1.0439
 1795SOL    HW217019   0.303   3.512   4.486 -0.4050 -0.8201 -0.6868
 1796SOL     OW17020   2.546   0.458   7.532  0.8281  0.0284 -0.2702
 1796SOL    HW117021   2.539   0.370   7.495 -2.1038  0.7530 -1.4826
 1796SOL    HW217022   2.636   0.463   7.564  0.5877 -0.4235  0.4849
 1797SOL     OW17023   1.178   4.505   8.515  0.3772  0.1890 -0.3393
 1797SOL    HW117024   1.199   4.411   8.516  1.6010  0.4695 -0.3207
 1797SOL    HW217025   1.229   4.529   8.592 -1.0920 -1.1433  1.0553
 1798SOL     OW17026   0.903   3.566   6.454  0.0652  0.1271  0.3884
 1798SOL    HW117027   0.872   3.491   6.403  0.1969 -0.4590  1.1693
 1798SOL    HW217028   0.819   3.611   6.462 -0.3831 -0.8207  0.9537
 1799SOL     OW17029   2.408   2.591  15.097  0.1232 -0.2572 -0.3212
 1799SOL    HW117030   2.324   2.552  15.074  0.7990 -0.3407 -2.6998
 1799SOL    HW217031   2.466   2.518  15.119 -0.2697 -0.4450  0.0805
 1800SOL     OW17032   0.175   3.314   5.388 -0.7988 -0.7171  0.0294
 1800SOL    HW117033   0.160   3.364   5.308 -0.7916 -0.4275  0.2089
 1800SOL    HW217034   0.234   3.243   5.363 -0.9505 -1.2655  1.2316
 1801SOL     OW17035   1.932   3.074   1.128  0.0521  0.9886  0.1400
 1801SOL    HW117036   1.886   3.072   1.212 -0.2755 -2.4877 -0.0987
 1801SOL    HW217037   1.988   3.149   1.144  0.1058  1.0198 -0.1966
 1802SOL     OW17038   1.641   1.086   4.831 -0.2133  0.0427 -0.3793
 1802SOL    HW117039   1.659   1.112   4.921 -0.3664 -1.6933  0.1540
 1802SOL    HW217040   1.549   1.111   4.837  0.5684  2.9455 -0.8485
 1803SOL     OW17041   2.359   1.877   1.552  0.0701 -0.6410 -0.3230
 1803SOL    HW117042   2.284   1.876   1.493  0.2015 -1.4662 -0.4841
 1803SOL    HW217043   2.420   1.935   1.507  1.0015  0.7836  2.7347
 1804SOL     OW17044   2.425   3.552   9.257 -0.2981 -0.4057  0.5025
 1804SOL    HW117045   2.398   3.473   9.304 -2.0268 -0.1568 -0.0465
 1804SOL    HW217046   2.359   3.602   9.305 -0.9288  0.0921 -0.8602
 1805SOL     OW17047   3.231   1.809  10.083 -0.1111 -0.1910 -0.3215
 1805SOL    HW117048   3.280   1.864  10.022  0.1149  0.1189  0.1337
 1805SOL    HW217049   3.184   1.753  10.022 -0.1067 -1.5953  0.9564
 1806SOL     OW17050   4.342   3.358  11.690  0.7526  0.3853 -0.1458
 1806SOL    HW117051   4.352   3.432  11.750  0.3898  1.7373 -1.7487
 1806SOL    HW217052   4.372   3.295  11.756  1.4183  0.5027 -0.3424
 1807SOL     OW17053   0.507   4.522   7.152  0.0472  0.4330 -0.2913
 1807SOL    HW117054   0.541   4.560   7.071 -0.4857 -0.0235 -0.7321
 1807SOL    HW217055   0.463   4.598   7.190 -1.9052 -0.9486  0.2265
 1808SOL     OW17056   0.357   0.201   6.936 -0.5684 -0.5491  0.1338
 1808SOL    HW117057   0.301   0.279   6.934  0.0498 -0.1010  0.3652
 1808SOL    HW217058   0.320   0.156   6.860 -0.5331  0.4455 -0.4783
 1809SOL     OW17059   2.390   3.993   8.871  0.9775 -0.3073  0.3318
 1809SOL    HW117060   2.389   3.898   8.859  0.5188 -0.1585 -0.9013
 1809SOL    HW217061   2.345   4.004   8.954 -1.1057  0.1218 -0.8481
 1810SOL     OW17062   4.333   0.493   6.224  0.0612 -0.4557 -0.2989
 1810SOL    HW117063   4.413   0.469   6.177  0.8476  0.9787  0.3034
 1810SOL    HW217064   4.365   0.551   6.293  0.2729 -1.2373  0.2607
 1811SOL     OW17065   0.543   3.002   2.302 -0.1321 -0.3315  0.1877
 1811SOL    HW117066   0.537   2.955   2.218  1.6568 -0.3492  0.0671
 1811SOL    HW217067   0.501   2.932   2.352 -1.2795 -0.2771 -0.6905
 1812SOL     OW17068   4.512   2.715   3.529 -0.0908 -0.0614  0.7872
 1812SOL    HW117069   4.511   2.628   3.489  1.9485 -0.1820  0.9875
 1812SOL    HW217070   4.598   2.749   3.503 -0.8882  0.0770 -1.6686
 1813SOL     OW17071   3.680   0.065   3.222  0.0952 -0.2011  0.1785
 1813SOL    HW117072   3.640   4.721   3.252  3.0317 -0.8786  2.2847
 1813SOL    HW217073   3.607   0.124   3.203  1.0061  0.1596 -2.1211
 1814SOL     OW17074   1.738   1.803   5.744  0.3457 -0.0651  0.0176
 1814SOL    HW117075   1.798   1.874   5.768  1.8881 -1.0015 -1.0425
 1814SOL    HW217076   1.657   1.827   5.789  0.4720  0.3528  0.0158
 1815SOL     OW17077   2.497   1.824   8.169 -0.2970 -0.2993  0.2945
 1815SOL    HW117078   2.563   1.812   8.100 -0.0983  1.4462  0.1744
 1815SOL    HW217079   2.552   1.865   8.235  0.0549 -1.0044  0.4289
 1816SOL     OW17080   3.031   4.207   2.742 -0.1157  0.1041  0.1200
 1816SOL    HW117081   2.982   4.203   2.824 -2.3070 -1.3966 -1.2519
 1816SOL    HW217082   3.088   4.282   2.758 -0.0751  0.1008 -0.0030
 1817SOL     OW17083   0.313   2.999   4.467 -0.4673  0.1069 -0.2541
 1817SOL    HW117084   0.375   2.979   4.396  2.0321  4.4586  0.7167
 1817SOL    HW217085   0.269   2.914   4.473  1.9866 -1.0859  1.1252
 1818SOL     OW17086   0.444   2.438  10.333 -0.3533 -0.3564 -0.7254
 1818SOL    HW117087   0.457   2.397  10.418 -2.2313  0.5429 -0.0135
 1818SOL    HW217088   0.458   2.530  10.357 -1.7168 -0.2435 -0.3630
 1819SOL     OW17089   3.892   0.715  10.051 -0.2377  0.6179  0.0218
 1819SOL    HW117090   3.931   0.777   9.989  1.2263 -0.2867  0.0451
 1819SOL    HW217091   3.977   0.682  10.077  0.7656  0.2231 -3.7708
 1820SOL     OW17092   2.775   4.667  10.113 -0.2369  0.3002 -0.0233
 1820SOL    HW117093   2.739   4.593  10.162 -2.3556  1.2949 -0.0947
 1820SOL    HW217094   2.826   4.616  10.050 -1.0787  0.6253 -0.9663
 1821SOL     OW17095   4.550   4.299  14.413 -0.4298  0.1316  0.0210
 1821SOL    HW117096   4.460   4.268  14.400 -0.6445  0.4878  0.6650
 1821SOL    HW217097   4.579   4.302  14.322  0.7043  0.4581  0.3982
 1822SOL     OW17098   1.873   2.700   1.314 -0.3231  0.0961  0.4339
 1822SOL    HW117099   1.850   2.771   1.375  0.9086  0.8811 -0.0165
 1822SOL    HW217100   1.850   2.623   1.367 -0.4980  0.6543  1.1769
 1823SOL     OW17101   4.636   4.304  17.338 -0.0340  0.1092  0.4037
 1823SOL    HW117102   4.579   4.369  17.296  0.4090  0.2372  0.0075
 1823SOL    HW217103   4.719   4.351  17.335 -1.5494  2.7771 -0.8432
 1824SOL     OW17104   1.535   0.829   6.877 -0.2079  0.3472  0.0487
 1824SOL    HW117105   1.449   0.870   6.872  0.9793  2.9331  0.5063
 1824SOL    HW217106   1.516   0.747   6.832 -1.4281  0.8120 -0.2759
 1825SOL     OW17107   0.459   0.740   5.511  0.2838  0.2864 -0.5032
 1825SOL    HW117108   0.395   0.777   5.572 -0.8105  0.4679 -1.7795
 1825SOL    HW217109   0.543   0.751   5.556 -0.5865  2.6681  0.5611
 1826SOL     OW17110   3.652   4.564  11.032 -0.3330 -0.4322  0.3042
 1826SOL    HW117111   3.656   4.576  10.937  0.2396 -0.3762  0.3329
 1826SOL    HW217112   3.716   4.493  11.037 -0.1589 -0.3238 -0.3602
 1827SOL     OW17113   3.846   3.968   7.858 -0.1335 -0.6554  0.2240
 1827SOL    HW117114   3.851   3.998   7.949  0.0230 -1.6014  0.5290
 1827SOL    HW217115   3.938   3.964   7.830  0.2984 -0.0936  1.5336
 1828SOL     OW17116   3.130   0.693   9.530 -0.3235 -0.7390 -0.5734
 1828SOL    HW117117   3.074   0.649   9.593  0.7923 -2.9119 -1.1113
 1828SOL    HW217118   3.107   0.644   9.452 -1.5141  1.8641 -1.8699
 1829SOL     OW17119   1.356   4.173  15.656 -0.4003  0.2035  0.1266
 1829SOL    HW117120   1.269   4.151  15.691 -1.2697  3.0288 -0.3184
 1829SOL    HW217121   1.409   4.124  15.719 -0.3051 -0.4371 -0.4533
 1830SOL     OW17122   3.932   4.074   0.217  0.3587  0.1854 -0.4680
 1830SOL    HW117123   3.970   4.064   0.129 -1.8422 -0.6243 -1.3359
 1830SOL    HW217124   3.860   4.011   0.207  1.6386 -1.3343 -0.1660
 1831SOL     OW17125   3.747   1.512   6.885  0.3964 -0.2673 -0.4332
 1831SOL    HW117126   3.740   1.422   6.852 -0.8527 -0.0975 -0.6279
 1831SOL    HW217127   3.670   1.514   6.941 -1.1656 -1.5326 -2.5476
 1832SOL     OW17128   0.236   0.330   1.197 -0.3155 -0.3845 -0.2473
 1832SOL    HW117129   0.148   0.362   1.176 -0.5133 -0.9774 -0.3055
 1832SOL    HW217130   0.229   0.236   1.184 -1.4879 -0.4617  0.8707
 1833SOL     OW17131   0.408   3.234   2.223 -0.1252 -0.0081  0.1957
 1833SOL    HW117132   0.399   3.185   2.141 -3.2230  1.4221 -0.3194
 1833SOL    HW217133   0.417   3.164   2.288 -1.2141  0.4303  0.8125
 1834SOL     OW17134   4.013   2.762   9.409  0.0461  0.2427 -0.2096
 1834SOL    HW117135   3.935   2.815   9.394 -0.6999 -0.6663  0.4573
 1834SOL    HW217136   3.986   2.726   9.494  1.2766  1.4420  0.7029
 1835SOL     OW17137   3.592   3.136   9.250  0.1193 -0.1969  0.6925
 1835SOL    HW117138   3.522   3.198   9.271  0.0833  0.2014 -0.6144
 1835SOL    HW217139   3.597   3.168   9.160 -1.0656 -1.0103  0.3297
 1836SOL     OW17140   1.806   1.303   8.639  0.2334  0.8719  0.0974
 1836SOL    HW117141   1.777   1.394   8.627 -1.0586  0.5478  0.6762
 1836SOL    HW217142   1.901   1.303   8.647  0.3368 -2.7269 -0.9748
 1837SOL     OW17143   3.545   3.406   9.764  0.1818  0.5045 -0.3543
 1837SOL    HW117144   3.565   3.478   9.824  0.2276  0.0042  0.2363
 1837SOL    HW217145   3.491   3.451   9.699 -2.5030 -2.2258 -0.0364
 1838SOL     OW17146   0.911   2.678  10.122  0.2613  0.0205 -0.4709
 1838SOL    HW117147   0.846   2.734  10.080 -1.5738 -1.8041 -0.0784
 1838SOL    HW217148   0.902   2.591  10.082  0.9182  0.8517 -2.4298
 1839SOL     OW17149   3.451   2.246   6.508 -0.3858  0.0104  0.0073
 1839SOL    HW117150   3.539   2.236   6.543  0.1180  0.5084 -1.1243
 1839SOL    HW217151   3.431   2.164   6.462  0.9104 -1.3795  1.9243
 1840SOL     OW17152   4.255   1.596   3.656  0.5779 -0.5075 -0.6071
 1840SOL    HW117153   4.346   1.624   3.642  0.5986 -1.1111 -1.6947
 1840SOL    HW217154   4.272   1.542   3.733  0.4515  1.7687  1.0062
 1841SOL     OW17155   4.332   1.275   4.037  0.1700 -0.0280 -0.1110
 1841SOL    HW117156   4.269   1.296   4.106  1.3530 -2.7412  1.8053
 1841SOL    HW217157   4.387   1.209   4.080 -1.4991 -0.8233  0.8040
 1842SOL     OW17158   0.366   4.372   5.590  0.2432 -0.4375 -0.1734
 1842SOL    HW117159   0.393   4.458   5.557  1.7761 -0.5264  0.8401
 1842SOL    HW217160   0.364   4.375   5.686  0.5419 -0.4153 -0.1668
 1843SOL     OW17161   2.365   2.423   6.982  0.6527 -0.1981 -0.1735
 1843SOL    HW117162   2.409   2.340   6.966 -1.2681 -1.3562  0.5444
 1843SOL    HW217163   2.294   2.413   6.919  0.3822  0.2312  0.0607
 1844SOL     OW17164   3.058   0.646   8.046 -0.0489  0.0063 -0.3615
 1844SOL    HW117165   2.993   0.591   8.001  2.2235 -1.9108 -1.3154
 1844SOL    HW217166   3.135   0.590   8.058 -0.5812  0.0799  3.4642
 1845SOL     OW17167   2.094   1.752   8.087 -0.4870 -0.1264 -0.7345
 1845SOL    HW117168   2.163   1.787   8.031  2.1666 -1.4627  1.6979
 1845SOL    HW217169   2.076   1.676   8.032  2.9047 -0.3863 -1.5107
 1846SOL     OW17170   2.920   4.436   1.304 -0.4599  0.6329  0.1709
 1846SOL    HW117171   3.004   4.456   1.344  0.0451  2.1157 -1.6398
 1846SOL    HW217172   2.881   4.380   1.372 -1.4749 -2.1149 -2.6616
 1847SOL     OW17173   4.383   3.679   7.360 -0.3593  0.0554 -0.1131
 1847SOL    HW117174   4.468   3.717   7.383 -1.0092  0.2237  2.0124
 1847SOL    HW217175   4.369   3.717   7.273  1.3281  2.9181  0.8795
 1848SOL     OW17176   4.568   1.210   8.434  0.3130  0.6045 -0.1450
 1848SOL    HW117177   4.474   1.226   8.444  0.4799  0.2421  1.8745
 1848SOL    HW217178   4.572   1.115   8.430  0.4559  0.7252 -2.7789
 1849SOL     OW17179   3.563   4.446  13.586 -0.2370 -0.5875  0.9328
 1849SOL    HW117180   3.608   4.366  13.610 -0.1107 -0.1962  1.9845
 1849SOL    HW217181   3.580   4.444  13.491  0.8729 -0.6476  1.1288
 1850SOL     OW17182   0.976   0.517  11.524 -0.0991  0.0287 -0.0729
 1850SOL    HW117183   1.035   0.589  11.502  1.9638 -1.6263  0.0353
 1850SOL    HW217184   0.951   0.541  11.614 -1.1576  0.1109 -0.3872
 1851SOL     OW17185   1.868   4.341   6.008  0.2640  0.0146 -0.3801
 1851SOL    HW117186   1.887   4.418   6.062 -1.6636  1.5393 -1.8759
 1851SOL    HW217187   1.867   4.381   5.921  0.3432 -0.5961 -0.6641
 1852SOL     OW17188   0.280   2.557  10.131 -0.1052  0.6745 -0.1906
 1852SOL    HW117189   0.327   2.481  10.164 -1.0942 -0.2879 -0.9794
 1852SOL    HW217190   0.217   2.563  10.203 -0.8186 -1.1982 -0.6495
 1853SOL     OW17191   2.586   0.561   8.283 -0.1826 -0.1109  0.3058
 1853SOL    HW117192   2.637   0.586   8.359 -1.5183  1.9912  0.5138
 1853SOL    HW217193   2.573   0.645   8.240 -2.5477 -0.3192  0.5994
 1854SOL     OW17194   2.685   0.053   4.667 -0.1767 -0.1122 -0.4240
 1854SOL    HW117195   2.625   0.127   4.655 -0.8167 -0.3354  1.4291
 1854SOL    HW217196   2.645   4.730   4.730 -1.6571  0.7965 -0.4882
 1855SOL     OW17197   3.595   2.281   6.874 -0.5684  0.0755  0.1796
 1855SOL    HW117198   3.568   2.366   6.837  2.7475  0.7061 -0.8704
 1855SOL    HW217199   3.512   2.259   6.915 -1.0598  0.0878 -0.8099
 1856SOL     OW17200   3.202   3.615   4.515  0.5912  0.3562  0.1545
 1856SOL    HW117201   3.125   3.591   4.462  1.9246 -1.4995 -0.9437
 1856SOL    HW217202   3.262   3.671   4.466 -0.3414 -0.0213 -1.4378
 1857SOL     OW17203   2.261   1.476  10.959 -0.0660 -0.4829  0.3829
 1857SOL    HW117204   2.210   1.451  10.882  2.2169 -0.5016 -1.0942
 1857SOL    HW217205   2.187   1.485  11.020 -0.5428  3.3923 -0.7875
 1858SOL     OW17206   1.409   1.314   6.420 -0.2780  0.1003 -0.7314
 1858SOL    HW117207   1.489   1.296   6.468 -0.7475 -1.7419 -0.6440
 1858SOL    HW217208   1.341   1.247   6.430 -0.6578  0.5690 -0.1676
 1859SOL     OW17209   2.541   0.241  13.713 -0.7159  0.2495  0.4380
 1859SOL    HW117210   2.486   0.206  13.643 -1.0438  2.3605 -0.3641
 1859SOL    HW217211   2.622   0.219  13.668 -2.0108 -3.8057  0.0452
 1860SOL     OW17212   1.641   2.756   8.254 -0.1283 -0.0180 -0.2639
 1860SOL    HW117213   1.557   2.738   8.297 -0.5015  2.0730 -0.1101
 1860SOL    HW217214   1.704   2.709   8.309 -0.9941 -1.0178 -0.1302
 1861SOL     OW17215   2.175   0.075   6.692  0.0934  0.7158 -0.1796
 1861SOL    HW117216   2.089   0.102   6.658  0.0631  1.9010  0.8492
 1861SOL    HW217217   2.149   0.004   6.750 -0.2580  0.1610 -1.0138
 1862SOL     OW17218   2.853   1.768   2.852 -0.1465 -0.3530 -0.7928
 1862SOL    HW117219   2.924   1.821   2.817  1.6011 -1.8116  0.5456
 1862SOL    HW217220   2.909   1.712   2.906  0.6406  1.7031  0.5118
 1863SOL     OW17221   4.481   3.473   4.320  0.4028  0.0068  0.2415
 1863SOL    HW117222   4.447   3.554   4.358  0.3050  0.9821 -1.9554
 1863SOL    HW217223   4.531   3.505   4.245  1.1713  2.0238  1.6156
 1864SOL     OW17224   0.909   3.732   8.364 -0.0765 -0.2881  0.6168
 1864SOL    HW117225   0.937   3.812   8.408  0.4042  0.5094 -1.1298
 1864SOL    HW217226   0.866   3.677   8.429  3.1587 -2.0579  1.2144
 1865SOL     OW17227   1.536   0.305   7.170  0.2379  0.0404  0.2602
 1865SOL    HW117228   1.536   0.250   7.249  1.2690 -0.8282 -0.3473
 1865SOL    HW217229   1.452   0.348   7.187  1.3205  2.4025 -0.3556
 1866SOL     OW17230   0.297   4.693   7.686  0.4379 -0.1845  0.1270
 1866SOL    HW117231   0.316   0.028   7.626 -0.0248  0.8307  1.1966
 1866SOL    HW217232   0.352   4.619   7.659 -0.6993 -1.0727  0.2860
 1867SOL     OW17233   2.711   2.523   7.537  0.2705  0.4803  0.7652
 1867SOL    HW117234   2.710   2.497   7.445  0.0377  0.5454  0.7482
 1867SOL    HW217235   2.690   2.617   7.530 -1.0246  0.2846  1.9708
 1868SOL     OW17236   2.223   4.117   5.528  0.2584 -0.6520 -0.2113
 1868SOL    HW117237   2.232   4.200   5.481  1.1528  0.0450  1.1630
 1868SOL    HW217238   2.133   4.097   5.504  0.5815  0.7844 -2.5619
 1869SOL     OW17239   3.399   1.256   0.140  0.1558  0.5160 -0.1941
 1869SOL    HW117240   3.436   1.172   0.113 -2.1405 -0.6656  0.3747
 1869SOL    HW217241   3.470   1.279   0.201 -0.2854  2.2280 -0.3339
 1870SOL     OW17242   3.365   1.349   7.966 -0.2612 -0.2458  0.1107
 1870SOL    HW117243   3.337   1.418   8.026  1.6806  2.1945 -1.7363
 1870SOL    HW217244   3.442   1.389   7.925 -0.9027 -0.2919 -1.1539
 1871SOL     OW17245   0.016   2.713   2.922  0.0496 -0.5149  0.3456
 1871SOL    HW117246   4.700   2.635   2.912  0.0231 -0.2150 -1.7428
 1871SOL    HW217247   4.685   2.764   2.965 -0.4731 -3.1356  2.6446
 1872SOL     OW17248   4.321   3.647   0.442 -0.3431  0.4271  0.1890
 1872SOL    HW117249   4.334   3.573   0.501 -1.1180 -0.4246 -0.6945
 1872SOL    HW217250   4.245   3.686   0.486 -1.0185  0.9224 -1.3857
 1873SOL     OW17251   2.731   0.780   7.100 -0.1297 -0.4458  0.1075
 1873SOL    HW117252   2.741   0.820   7.186  0.8822 -2.4954  0.9426
 1873SOL    HW217253   2.696   0.860   7.060 -1.0604 -0.5403  0.7554
 1874SOL     OW17254   0.171   4.251   3.917 -0.5201 -0.0401 -0.4998
 1874SOL    HW117255   0.130   4.309   3.982 -0.6312  0.2957 -0.8666
 1874SOL    HW217256   0.229   4.301   3.859 -0.6653  0.0114 -0.6018
 1875SOL     OW17257   3.723   0.771   5.733  0.1331 -0.5565  0.3052
 1875SOL    HW117258   3.645   0.801   5.779  0.0026  0.9727 -0.9171
 1875SOL    HW217259   3.697   0.694   5.681 -0.9784 -0.1584  0.2736
 1876SOL     OW17260   4.551   0.161   7.896 -0.3396 -0.0586  0.3228
 1876SOL    HW117261   4.536   0.086   7.837 -1.3391 -0.6844  1.3698
 1876SOL    HW217262   4.595   0.225   7.840 -1.3321 -1.7882 -2.4836
 1877SOL     OW17263   2.699   0.799   4.131 -0.6313  0.1023  0.2065
 1877SOL    HW117264   2.748   0.857   4.072  1.4972 -1.1783  0.7246
 1877SOL    HW217265   2.757   0.792   4.207 -0.6270  2.4775  0.4418
 1878SOL     OW17266   4.179   1.479  16.667  0.0497 -0.4739  0.0467
 1878SOL    HW117267   4.100   1.524  16.696  1.4067  1.5120  0.7246
 1878SOL    HW217268   4.212   1.461  16.755  0.5827 -2.7176 -0.6232
 1879SOL     OW17269   0.712   2.476   3.314 -0.3139  0.3596  0.4271
 1879SOL    HW117270   0.787   2.532   3.294  0.6903 -0.4089  2.0325
 1879SOL    HW217271   0.700   2.445   3.225 -1.5066 -0.8752  1.0087
 1880SOL     OW17272   0.693   0.601   9.262  0.3118 -0.0378  0.6578
 1880SOL    HW117273   0.627   0.665   9.233  0.7256 -0.2521 -0.7473
 1880SOL    HW217274   0.770   0.636   9.216 -0.2528 -1.3993 -1.3146
 1881SOL     OW17275   3.243   2.328   5.087  0.1670 -0.4253 -0.4509
 1881SOL    HW117276   3.241   2.417   5.053  1.1476 -0.8571 -1.6330
 1881SOL    HW217277   3.250   2.349   5.180 -0.2786  0.6798 -0.6718
 1882SOL     OW17278   4.018   3.333   5.895 -0.1209  0.0591  0.3988
 1882SOL    HW117279   4.090   3.396   5.890  0.3720 -0.5520 -0.1838
 1882SOL    HW217280   3.995   3.345   5.987  0.3675  0.6343  0.4463
 1883SOL     OW17281   4.675   0.491   6.750  0.0193 -0.5430 -0.2244
 1883SOL    HW117282   4.721   0.409   6.731  1.7590  0.0966  1.2623
 1883SOL    HW217283   0.004   0.541   6.798 -0.3973 -0.3392  0.1374
 1884SOL     OW17284   4.089   0.903   7.808 -0.1269 -0.1437  0.1934
 1884SOL    HW117285   4.000   0.930   7.832 -0.4140 -0.6109 -0.3525
 1884SOL    HW217286   4.121   0.974   7.752 -0.5131 -2.4813 -2.9607
 1885SOL     OW17287   2.438   3.742   3.882 -0.2853 -0.1856  0.2244
 1885SOL    HW117288   2.399   3.819   3.841 -0.4944  0.0933  0.9386
 1885SOL    HW217289   2.470   3.788   3.960  0.1040 -0.7953  0.4266
 1886SOL     OW17290   2.535   4.142   4.043 -1.0008 -0.0140 -0.8473
 1886SOL    HW117291   2.515   4.146   3.949 -0.4481 -0.2371 -0.9754
 1886SOL    HW217292   2.630   4.148   4.039 -0.8529 -1.9709 -0.1724
 1887SOL     OW17293   2.089   0.336   8.290 -0.2873  0.0746 -0.1794
 1887SOL    HW117294   2.010   0.336   8.343 -0.2282 -0.8027 -0.0930
 1887SOL    HW217295   2.092   0.421   8.246 -1.0330 -0.3243 -0.9942
 1888SOL     OW17296   1.415   1.359   0.839 -0.4087  0.2239  0.3455
 1888SOL    HW117297   1.435   1.347   0.931 -2.1353  0.0344  0.6919
 1888SOL    HW217298   1.440   1.452   0.832 -0.3992  0.1945 -0.0467
 1889SOL     OW17299   0.922   3.753   2.075  0.4183 -0.0443  0.1163
 1889SOL    HW117300   0.953   3.831   2.122  2.3211 -0.6026 -0.2141
 1889SOL    HW217301   0.957   3.682   2.129 -1.5595 -1.1673 -0.0743
 1890SOL     OW17302   2.025   2.581   7.547  0.1625  0.2569  0.2129
 1890SOL    HW117303   1.983   2.511   7.596  0.0157  0.1649 -0.0413
 1890SOL    HW217304   2.074   2.531   7.482  1.3245 -1.0347  2.0786
 1891SOL     OW17305   3.035   2.035  15.590  0.2901  0.1590 -0.5328
 1891SOL    HW117306   3.116   2.085  15.594 -0.3248  1.2717 -1.9842
 1891SOL    HW217307   3.055   1.967  15.654 -0.4549 -0.6580 -1.1616
 1892SOL     OW17308   0.997   3.385   8.544 -0.5306 -0.1036 -0.2610
 1892SOL    HW117309   1.044   3.440   8.606  0.1046 -3.7892  2.5508
 1892SOL    HW217310   0.916   3.436   8.539 -0.3067  0.4867  1.9331
 1893SOL     OW17311   3.294   4.555  11.245  0.4338  0.2665 -0.1346
 1893SOL    HW117312   3.346   4.622  11.290  0.8288  1.6594 -2.6851
 1893SOL    HW217313   3.350   4.508  11.183  1.0102 -0.7154  1.1218
 1894SOL     OW17314   4.191   4.483   3.129 -0.2148  0.0142 -0.8223
 1894SOL    HW117315   4.191   4.578   3.133 -1.1991  0.0264 -1.0692
 1894SOL    HW217316   4.122   4.472   3.195 -1.3323  1.7444 -1.7195
 1895SOL     OW17317   1.356   4.234   7.127 -0.0459 -0.2639 -0.4057
 1895SOL    HW117318   1.295   4.160   7.128 -0.5939  0.2208  2.3861
 1895SOL    HW217319   1.426   4.190   7.080 -0.1931 -0.4310 -0.4681
 1896SOL     OW17320   4.164   1.562   8.083  0.0719  0.4997  1.0203
 1896SOL    HW117321   4.071   1.571   8.065  0.4771 -2.4916 -2.5824
 1896SOL    HW217322   4.197   1.641   8.040  0.0246  0.5477  1.0715
 1897SOL     OW17323   3.772   4.434  14.789  0.3944  0.2190 -0.7295
 1897SOL    HW117324   3.802   4.476  14.869  0.3903  0.5046 -0.8803
 1897SOL    HW217325   3.860   4.399  14.772  0.1448 -1.3698  1.2991
 1898SOL     OW17326   2.937   2.753   2.773 -0.0315 -0.4281 -0.2712
 1898SOL    HW117327   2.974   2.682   2.721  0.4437 -1.0212  0.8811
 1898SOL    HW217328   3.016   2.785   2.818 -0.5809  1.1441 -0.4132
 1899SOL     OW17329   3.965   3.816   3.761 -0.3442 -0.3819  0.2516
 1899SOL    HW117330   3.909   3.867   3.703 -2.3046  0.7222  3.1498
 1899SOL    HW217331   3.923   3.733   3.782 -0.8662 -0.2571 -0.3103
 1900SOL     OW17332   3.435   4.616   1.809  0.2985 -0.6337 -0.3137
 1900SOL    HW117333   3.395   4.640   1.725  0.4597  0.8443  0.0289
 1900SOL    HW217334   3.514   4.579   1.770 -0.0215 -1.3592 -0.2552
 1901SOL     OW17335   0.632   0.043  10.170 -0.1985  0.1092  0.6172
 1901SOL    HW117336   0.679   0.096  10.105  0.9398 -0.4824  0.9562
 1901SOL    HW217337   0.612   4.709  10.110 -1.4333  0.4116  0.6752
 1902SOL     OW17338   3.680   0.133  17.131  0.6111 -0.3054 -0.2567
 1902SOL    HW117339   3.771   0.120  17.158  0.3723 -0.9197  0.2605
 1902SOL    HW217340   3.655   0.043  17.152  0.5892 -0.6691 -1.8365
 1903SOL     OW17341   0.192   3.130  15.692  0.0737 -1.0226  0.2153
 1903SOL    HW117342   0.128   3.081  15.641 -1.6101  0.0843  1.2418
 1903SOL    HW217343   0.252   3.058  15.710 -0.4261 -0.4912  4.1859
 1904SOL     OW17344   3.826   3.685  16.213  0.2324 -0.1723  0.4319
 1904SOL    HW117345   3.762   3.614  16.217 -0.3620  0.4517  1.6603
 1904SOL    HW217346   3.807   3.749  16.281 -2.2173  0.5338 -0.9106
 1905SOL     OW17347   0.965   2.306   9.017  0.2470  0.2638 -0.0175
 1905SOL    HW117348   1.014   2.261   9.086 -0.5008 -3.7564 -2.1140
 1905SOL    HW217349   1.027   2.372   8.987  0.9249  0.4137  1.7042
 1906SOL     OW17350   0.482   2.183   5.331 -0.3614  0.0046 -0.5691
 1906SOL    HW117351   0.573   2.200   5.306 -0.3027  0.0930 -0.2950
 1906SOL    HW217352   0.470   2.254   5.393 -0.9250 -0.7873  0.2267
 1907SOL     OW17353   2.353   4.473   3.224 -0.5036  0.3007  0.3625
 1907SOL    HW117354   2.403   4.392   3.217  0.0729  1.0883 -4.1590
 1907SOL    HW217355   2.293   4.465   3.150  1.5506 -0.2648 -1.2461
 1908SOL     OW17356   1.116   4.686   2.089 -0.3375  0.1964  0.1610
 1908SOL    HW117357   1.047   4.721   2.145  1.3943  0.8537  1.8661
 1908SOL    HW217358   1.060   4.625   2.040 -0.8144  0.6044  0.2063
 1909SOL     OW17359   3.407   4.458  10.982  0.0316 -0.9400 -0.1484
 1909SOL    HW117360   3.494   4.498  10.990 -0.3818  0.3353 -2.1291
 1909SOL    HW217361   3.408   4.450  10.887  0.2488 -0.1813 -0.2052
 1910SOL     OW17362   3.620   1.022   4.987 -0.5476  0.1568 -0.1554
 1910SOL    HW117363   3.635   1.033   5.081 -1.4664  0.7522 -0.0874
 1910SOL    HW217364   3.556   1.089   4.963 -2.1009 -1.6933 -1.1599
 1911SOL     OW17365   2.574   1.977   5.700  0.3724 -0.1464  0.7693
 1911SOL    HW117366   2.567   2.066   5.665  1.2097 -0.9972 -1.6095
 1911SOL    HW217367   2.602   1.928   5.623 -2.5779  1.7572 -1.5103
 1912SOL     OW17368   3.340   3.320   2.573 -0.0511 -0.4037 -0.1604
 1912SOL    HW117369   3.363   3.325   2.666 -0.5633  0.5661 -0.0882
 1912SOL    HW217370   3.257   3.278   2.595 -0.1632  0.5630  1.2512
 1913SOL     OW17371   1.939   0.535   6.212 -0.4350  0.4633  0.7522
 1913SOL    HW117372   1.923   0.474   6.140  0.4541 -0.5956  1.4582
 1913SOL    HW217373   2.020   0.579   6.184 -0.5809  0.2586 -0.0034
 1914SOL     OW17374   4.133   0.276   2.168  0.1107  0.5004  0.2828
 1914SOL    HW117375   4.141   0.314   2.256  1.1595 -0.8885  0.7853
 1914SOL    HW217376   4.038   0.271   2.156  0.1624  0.3514 -0.0497
 1915SOL     OW17377   2.669   1.020   2.145 -0.1919  0.0734 -0.3034
 1915SOL    HW117378   2.652   1.102   2.192  1.4054 -0.1652  0.6792
 1915SOL    HW217379   2.582   1.000   2.110  0.3800 -3.1549  0.0964
 1916SOL     OW17380   3.604   2.470  16.697  1.0276 -0.1004  0.2199
 1916SOL    HW117381   3.613   2.391  16.643  0.6275 -0.0141  0.0241
 1916SOL    HW217382   3.534   2.439  16.755 -1.0624  1.7009 -1.3128
 1917SOL     OW17383   4.565   1.151   7.149  0.4737 -1.1332 -0.0549
 1917SOL    HW117384   4.470   1.153   7.139  0.6791  0.2239 -1.7512
 1917SOL    HW217385   4.600   1.081   7.094  0.1220  0.0258 -1.7743
 1918SOL     OW17386   0.453   3.792   8.621 -0.1078  0.5475 -0.1810
 1918SOL    HW117387   0.427   3.823   8.708  2.0962 -1.2002  1.1066
 1918SOL    HW217388   0.480   3.708   8.658 -3.1750 -0.2014  0.3933
 1919SOL     OW17389   3.096   1.507   0.626  0.0691  0.2889 -0.2688
 1919SOL    HW117390   3.151   1.585   0.616  0.1006  0.2965 -0.0401
 1919SOL    HW217391   3.168   1.447   0.606 -0.3293  0.2474 -1.5657
 1920SOL     OW17392   3.289   1.818   7.401 -0.3439  0.1921  0.0093
 1920SOL    HW117393   3.323   1.795   7.315  0.7661  2.2245 -0.0889
 1920SOL    HW217394   3.323   1.907   7.405  1.7151 -0.4933 -2.1105
 1921SOL     OW17395   1.599   3.163   4.385 -0.4173 -0.1301  0.3719
 1921SOL    HW117396   1.589   3.123   4.471 -1.6217 -1.0886 -0.2237
 1921SOL    HW217397   1.548   3.118   4.318  0.1878 -0.2611 -0.0041
 1922SOL     OW17398   2.022   0.001  10.830  0.4601  0.7559 -0.7699
 1922SOL    HW117399   2.075   4.728  10.909  0.6801 -1.6375 -1.2233
 1922SOL    HW217400   1.939   4.723  10.875  0.1962 -0.2436 -1.5980
 1923SOL     OW17401   0.324   2.807   8.446 -0.4335 -0.6422 -0.6065
 1923SOL    HW117402   0.322   2.863   8.368  0.5765  0.5252  0.1965
 1923SOL    HW217403   0.335   2.869   8.518  0.5755 -2.2445  0.6053
 1924SOL     OW17404   1.260   3.768   8.995  0.5436 -0.7250  0.0615
 1924SOL    HW117405   1.244   3.677   9.019 -0.0022 -0.8845 -0.9193
 1924SOL    HW217406   1.172   3.805   9.003  1.5422  1.9758 -1.1430
 1925SOL     OW17407   2.992   4.204   7.601  0.6030  0.0171  0.3222
 1925SOL    HW117408   2.922   4.152   7.560  0.5198 -1.4195  2.2935
 1925SOL    HW217409   2.934   4.263   7.649  1.5325  2.2060 -1.2657
 1926SOL     OW17410   3.116   0.325   7.335  0.2362  0.3090 -0.2011
 1926SOL    HW117411   3.118   0.266   7.260 -0.1599  0.9184 -0.6815
 1926SOL    HW217412   3.055   0.393   7.307  0.3863 -0.4767 -2.3848
 1927SOL     OW17413   1.326   3.194   7.483  0.4213  0.5312  0.0391
 1927SOL    HW117414   1.370   3.113   7.511  0.1089  0.0475 -0.8671
 1927SOL    HW217415   1.369   3.261   7.536 -2.8355  0.7515  2.4198
 1928SOL     OW17416   1.650   1.242   5.121  0.0943 -0.1419 -0.3858
 1928SOL    HW117417   1.557   1.263   5.125  0.2079  0.3955 -0.4916
 1928SOL    HW217418   1.691   1.314   5.072  2.6953  0.6791  3.0106
 1929SOL     OW17419   3.684   3.577   7.519  0.6153  0.0562 -0.6995
 1929SOL    HW117420   3.596   3.560   7.551  0.1167  2.3173 -0.8886
 1929SOL    HW217421   3.697   3.670   7.537  0.3730 -0.3314  1.4407
 1930SOL     OW17422   4.182   0.919   6.636  0.3274  0.1027  0.1495
 1930SOL    HW117423   4.198   0.826   6.655  0.9600  0.3177  0.6720
 1930SOL    HW217424   4.090   0.926   6.610  0.7115  1.1093 -0.8941
 1931SOL     OW17425   3.989   1.437  13.450 -0.1005  0.2775 -0.2809
 1931SOL    HW117426   4.046   1.492  13.504 -0.4893  0.3539  0.0495
 1931SOL    HW217427   3.956   1.392  13.527 -1.0654 -0.9829 -1.4249
 1932SOL     OW17428   0.190   3.468   9.195  0.6800  0.4001 -0.6782
 1932SOL    HW117429   0.211   3.375   9.180  0.1057  0.0044  0.9848
 1932SOL    HW217430   0.135   3.490   9.120  0.6595  0.8691 -0.5247
 1933SOL     OW17431   4.650   4.355   3.602 -0.1650 -0.7930 -0.3772
 1933SOL    HW117432   4.572   4.323   3.559 -1.0264  0.5961  0.1519
 1933SOL    HW217433   4.675   4.405   3.524 -0.4741 -0.8023 -0.4785
 1934SOL     OW17434   0.432   0.717   5.075  0.0567 -0.1997  0.1743
 1934SOL    HW117435   0.401   0.666   5.149 -0.8774  1.0484  0.6522
 1934SOL    HW217436   0.390   0.665   5.006  0.8639  0.1671 -0.5863
 1935SOL     OW17437   3.548   1.674  11.894 -0.2084  0.1184 -0.2795
 1935SOL    HW117438   3.590   1.621  11.962 -0.6155  0.1178 -0.0235
 1935SOL    HW217439   3.460   1.636  11.897 -0.6691  1.2422  0.3130
 1936SOL     OW17440   1.262   0.355   4.466  0.1495 -0.5819  0.0410
 1936SOL    HW117441   1.242   0.447   4.486 -1.0951 -1.4393  2.7738
 1936SOL    HW217442   1.357   0.363   4.455  0.1469  0.8328  1.0279
 1937SOL     OW17443   2.222   3.743   6.245 -0.1445  0.1566 -0.2076
 1937SOL    HW117444   2.150   3.768   6.302  0.2362  2.8137 -0.8822
 1937SOL    HW217445   2.256   3.830   6.225  0.8096 -0.4760 -1.3397
 1938SOL     OW17446   1.572   0.535  11.644 -0.1402 -0.3010  0.6197
 1938SOL    HW117447   1.562   0.629  11.660  2.0462  0.5925 -3.2878
 1938SOL    HW217448   1.602   0.507  11.730  0.3096 -0.1459  0.5142
 1939SOL     OW17449   4.682   0.339   7.735  0.6097  0.0426  0.4385
 1939SOL    HW117450   0.022   0.336   7.679 -0.1399  1.2975 -0.6793
 1939SOL    HW217451   4.617   0.360   7.668 -0.1932 -1.0148  0.8847
 1940SOL     OW17452   4.251   2.821   9.038  0.0534 -0.4813  0.2151
 1940SOL    HW117453   4.240   2.767   9.117  1.0141 -1.5480 -0.3872
 1940SOL    HW217454   4.334   2.866   9.055  0.6820 -0.5107 -2.8100
 1941SOL     OW17455   3.323   3.193   2.843  0.0770  0.0879 -0.1035
 1941SOL    HW117456   3.311   3.111   2.796 -1.3682  0.2048  0.0719
 1941SOL    HW217457   3.252   3.200   2.907  0.8449  0.3100  0.7202
 1942SOL     OW17458   2.406   3.505   7.022  0.3995  0.0894 -0.1108
 1942SOL    HW117459   2.333   3.558   7.055  1.1263  2.6898 -2.6361
 1942SOL    HW217460   2.365   3.419   7.024  0.8682 -0.1968 -2.3221
 1943SOL     OW17461   1.382   2.208   3.549 -0.0439  0.0068  0.0002
 1943SOL    HW117462   1.411   2.117   3.548  1.1004  0.3643  0.2897
 1943SOL    HW217463   1.305   2.209   3.492  1.0489 -0.5654 -1.5119
 1944SOL     OW17464   2.050   0.002   7.733  0.2513  0.1880 -0.1924
 1944SOL    HW117465   2.099   0.021   7.654  0.2124 -0.8905 -0.4702
 1944SOL    HW217466   2.103   0.023   7.810  0.0944  0.9019 -0.2738
 1945SOL     OW17467   1.632   3.333  14.104 -0.4879 -0.0872 -0.3808
 1945SOL    HW117468   1.667   3.271  14.040 -1.1144 -0.9947  0.1562
 1945SOL    HW217469   1.568   3.381  14.053 -0.5488 -0.6833 -0.8620
 1946SOL     OW17470   1.282   0.966   6.177  0.3174 -0.4951 -0.0067
 1946SOL    HW117471   1.309   1.054   6.152 -0.9267 -0.1817 -0.2882
 1946SOL    HW217472   1.254   0.974   6.269 -1.4743  0.2708 -0.6085
 1947SOL     OW17473   1.577   4.307   8.604 -0.2406 -0.3304 -0.0119
 1947SOL    HW117474   1.573   4.324   8.698 -3.3123 -0.7084 -0.0783
 1947SOL    HW217475   1.618   4.388   8.575 -0.1640  0.1585  1.4499
 1948SOL     OW17476   1.858   3.975   7.757 -0.0425 -0.1196  0.1487
 1948SOL    HW117477   1.824   3.900   7.806 -0.7020 -0.1534 -0.3695
 1948SOL    HW217478   1.807   4.041   7.803 -0.0297  0.8365 -1.2201
 1949SOL     OW17479   2.943   3.249   6.780 -0.1970 -0.4140 -0.0128
 1949SOL    HW117480   2.998   3.171   6.787  0.8572  0.3630  0.2959
 1949SOL    HW217481   2.968   3.311   6.849 -1.0249  0.8129 -0.8287
 1950SOL     OW17482   2.998   4.365   9.711 -0.4153  0.0757 -0.1853
 1950SOL    HW117483   2.976   4.315   9.633  1.0206 -0.5109 -0.2174
 1950SOL    HW217484   3.008   4.452   9.673 -0.5683  0.7986  1.4360
 1951SOL     OW17485   2.418   3.665   8.861  0.1860  0.0025  0.2182
 1951SOL    HW117486   2.380   3.618   8.935 -0.1397  0.6127  0.4382
 1951SOL    HW217487   2.382   3.620   8.784 -1.2576  0.6888  0.5091
 1952SOL     OW17488   2.980   2.481   4.809  0.1094  0.0741  0.5504
 1952SOL    HW117489   2.914   2.418   4.778  0.3307 -0.1500  0.5379
 1952SOL    HW217490   3.059   2.427   4.805 -0.4938 -0.6950 -1.2262
 1953SOL     OW17491   2.899   2.079   8.737 -0.2813 -0.5081 -0.0472
 1953SOL    HW117492   2.894   2.020   8.811 -1.1874  2.1341  1.9984
 1953SOL    HW217493   2.886   2.164   8.780 -1.0584 -2.4459  3.5053
 1954SOL     OW17494   4.058   3.837  12.824  0.3424 -1.1379  0.0593
 1954SOL    HW117495   4.007   3.856  12.745  0.7152  0.3084  0.1746
 1954SOL    HW217496   4.063   3.741  12.829 -1.6733 -1.2676 -0.4588
 1955SOL     OW17497   3.542   1.692   7.180  0.2190  0.2938  0.1868
 1955SOL    HW117498   3.576   1.739   7.104  0.9298 -0.6790 -0.1080
 1955SOL    HW217499   3.553   1.600   7.155  1.2029  0.1822  1.0022
 1956SOL     OW17500   4.688   2.714   1.730 -0.0284  0.3266  0.4135
 1956SOL    HW117501   4.673   2.764   1.810  2.2454 -0.7843  1.5483
 1956SOL    HW217502   4.618   2.650   1.720 -0.0956  0.3050  1.0330
 1957SOL     OW17503   1.578   3.623   5.721  0.7867  0.5736 -0.5466
 1957SOL    HW117504   1.574   3.718   5.729  0.4623  0.5902 -0.8859
 1957SOL    HW217505   1.633   3.602   5.796  1.1772 -0.2213 -1.0505
 1958SOL     OW17506   3.206   1.366   5.792  0.7187  0.4112  0.2498
 1958SOL    HW117507   3.136   1.305   5.817  0.2113  0.3506 -1.3219
 1958SOL    HW217508   3.249   1.323   5.718  2.4989 -0.9654  2.0697
 1959SOL     OW17509   2.015   2.949   6.260  0.1582  0.6403  0.1967
 1959SOL    HW117510   1.976   2.862   6.263  2.6992 -0.5558 -0.9803
 1959SOL    HW217511   1.993   2.992   6.343 -2.9044 -0.6265  0.0254
 1960SOL     OW17512   1.927   4.285   0.396  0.6309 -0.3368  0.0370
 1960SOL    HW117513   1.901   4.367   0.439  1.2120  0.8748 -1.9451
 1960SOL    HW217514   1.860   4.281   0.328  0.0296 -0.2722  0.6235
 1961SOL     OW17515   0.110   0.884   6.764 -0.0297  0.0571  0.0116
 1961SOL    HW117516   0.185   0.910   6.710 -0.1959 -0.1570 -0.3211
 1961SOL    HW217517   0.151   0.876   6.850 -0.5491 -1.7673  0.0856
 1962SOL     OW17518   1.583   1.171   7.174 -0.0481 -0.1034 -0.2827
 1962SOL    HW117519   1.580   1.259   7.211  1.1140 -0.4680  0.6561
 1962SOL    HW217520   1.573   1.186   7.080  2.6490  0.9602 -0.4102
 1963SOL     OW17521   0.083   4.458   2.388 -0.1045  0.5203  0.0023
 1963SOL    HW117522   0.161   4.408   2.366 -0.8461 -0.0246 -1.3924
 1963SOL    HW217523   0.069   4.519   2.316 -0.0424  0.8451  0.2681
 1964SOL     OW17524   1.729   4.682  13.239 -0.3020  0.4052  0.3164
 1964SOL    HW117525   1.744   4.712  13.329  0.4915 -0.8719  0.6084
 1964SOL    HW217526   1.637   4.659  13.253  0.5114 -2.7357  0.6017
 1965SOL     OW17527   3.848   1.178   3.981  0.4544 -0.5779  0.2639
 1965SOL    HW117528   3.850   1.262   4.028  1.4160 -1.3427  1.5933
 1965SOL    HW217529   3.758   1.171   3.950 -0.1306 -1.1055  2.0306
 1966SOL     OW17530   1.185   0.511   0.873  0.1654  0.2234 -0.3441
 1966SOL    HW117531   1.214   0.426   0.840 -0.1435  0.0372 -0.1398
 1966SOL    HW217532   1.197   0.504   0.968 -1.1156  0.9745 -0.1133
 1967SOL     OW17533   2.267   2.975   5.849  0.2148 -0.3096 -0.1420
 1967SOL    HW117534   2.238   2.949   5.762  1.0300  4.1951 -1.7371
 1967SOL    HW217535   2.181   2.995   5.887 -0.2362  0.3769 -1.5280
 1968SOL     OW17536   0.426   3.943  14.935  0.4843  0.5374  0.1594
 1968SOL    HW117537   0.511   3.982  14.913  0.1615  1.3505  0.3534
 1968SOL    HW217538   0.372   4.018  14.911  0.4410  0.0619 -1.1827
 1969SOL     OW17539   3.277   1.854  11.707 -0.1142  0.2566  0.2078
 1969SOL    HW117540   3.239   1.875  11.792 -0.1674  0.5894  0.1002
 1969SOL    HW217541   3.325   1.775  11.731 -0.8473 -0.2106  0.1295
 1970SOL     OW17542   4.409   1.076   6.688  0.0882 -0.1888  0.3838
 1970SOL    HW117543   4.345   1.009   6.667  1.3004 -1.2424  0.0405
 1970SOL    HW217544   4.450   1.080   6.601 -1.5929  0.9283 -0.3491
 1971SOL     OW17545   3.092   0.929   3.208  0.5325 -0.3297 -0.4439
 1971SOL    HW117546   3.175   0.902   3.169  1.3750  0.0795  1.0676
 1971SOL    HW217547   3.033   0.854   3.199  0.6535 -0.4143 -0.5314
 1972SOL     OW17548   1.810   2.403   3.382  0.3242  0.0006 -0.1877
 1972SOL    HW117549   1.747   2.386   3.452 -0.7051 -2.6801 -1.7847
 1972SOL    HW217550   1.806   2.318   3.339  0.2672  0.4555 -1.0852
 1973SOL     OW17551   4.267   1.362  16.926 -0.4262  0.3450  0.1028
 1973SOL    HW117552   4.267   1.267  16.938  1.1921  0.3042 -0.2692
 1973SOL    HW217553   4.351   1.382  16.966  0.3618 -0.5465 -1.1296
 1974SOL     OW17554   1.183   1.270   8.488 -0.3375 -0.4361  0.0389
 1974SOL    HW117555   1.165   1.241   8.398 -1.7711  0.2377  0.0976
 1974SOL    HW217556   1.233   1.195   8.519  0.5161 -0.3088 -1.0209
 1975SOL     OW17557   3.922   3.140   5.250 -0.1626  0.6017  0.4995
 1975SOL    HW117558   3.885   3.151   5.162 -2.4145  2.9649  1.7525
 1975SOL    HW217559   4.016   3.131   5.231 -0.2351 -0.5555  0.7002
 1976SOL     OW17560   3.073   2.625   4.419  0.2647  0.5058  0.3678
 1976SOL    HW117561   2.984   2.617   4.453 -1.1937  1.1819 -3.2327
 1976SOL    HW217562   3.106   2.536   4.417  0.5660  0.5743  2.9667
 1977SOL     OW17563   1.128   3.144   7.759  0.2720 -0.3868  0.3998
 1977SOL    HW117564   1.059   3.095   7.804 -2.6245  1.3753 -2.0627
 1977SOL    HW217565   1.073   3.216   7.726  1.3445  0.4678  0.4836
 1978SOL     OW17566   1.694   4.229   9.168  0.1131 -0.4439 -0.2301
 1978SOL    HW117567   1.688   4.162   9.236  1.9158 -0.4165 -0.0550
 1978SOL    HW217568   1.669   4.179   9.091  0.6484  1.0736 -1.3867
 1979SOL     OW17569   3.538   1.356  10.795  0.3581 -0.2038  0.6863
 1979SOL    HW117570   3.547   1.432  10.737  0.5809  1.0326  2.3155
 1979SOL    HW217571   3.551   1.284  10.734 -0.5558  0.7145 -0.6095
 1980SOL     OW17572   2.607   4.641   4.204  0.3507 -0.2280  0.2217
 1980SOL    HW117573   2.571   4.690   4.130  1.0871 -1.5340 -0.9894
 1980SOL    HW217574   2.538   4.578   4.227 -0.4943 -0.4150 -2.8097
 1981SOL     OW17575   3.045   2.422   2.938  0.3374  0.7431 -0.3662
 1981SOL    HW117576   2.971   2.429   2.998 -2.1131  0.8169 -3.4382
 1981SOL    HW217577   3.093   2.355   2.987 -1.5145 -0.7028 -0.5394
 1982SOL     OW17578   0.752   4.052   3.060 -0.1814 -0.0198  0.1814
 1982SOL    HW117579   0.771   4.097   2.978 -0.2715  0.4551  0.4220
 1982SOL    HW217580   0.657   4.054   3.053 -0.2177  1.7018  1.1000
 1983SOL     OW17581   0.133   3.306   7.235 -0.4597  0.4388 -0.0064
 1983SOL    HW117582   0.214   3.357   7.237 -1.3073  1.6990  2.1300
 1983SOL    HW217583   0.172   3.219   7.232 -3.3557 -0.8915  0.8939
 1984SOL     OW17584   3.874   0.991   6.202  0.4730  0.1410  0.1663
 1984SOL    HW117585   3.923   1.011   6.122 -0.2867  0.8540 -0.1222
 1984SOL    HW217586   3.790   0.955   6.175  2.0785 -3.0880 -0.4812
 1985SOL     OW17587   3.380   0.646   4.588  0.7177 -0.5891  0.5184
 1985SOL    HW117588   3.412   0.731   4.618 -0.7787  0.0807  0.1768
 1985SOL    HW217589   3.287   0.667   4.581  1.2619  1.7498  0.1588
 1986SOL     OW17590   4.578   1.252   9.258 -0.4438  0.6844 -0.0791
 1986SOL    HW117591   4.606   1.162   9.241 -0.6684  0.8053 -1.0625
 1986SOL    HW217592   4.616   1.277   9.342  0.3216 -0.9174  0.0433
 1987SOL     OW17593   1.729   0.598   2.255 -0.4783 -0.1349  0.3725
 1987SOL    HW117594   1.824   0.585   2.264  0.1913  3.5239 -1.6716
 1987SOL    HW217595   1.706   0.505   2.252 -0.6779 -0.0672 -0.1768
 1988SOL     OW17596   0.274   0.552   4.948  0.2249 -0.5601 -0.1432
 1988SOL    HW117597   0.306   0.462   4.952  0.2413 -0.5351  0.2246
 1988SOL    HW217598   0.198   0.546   4.890 -1.6283  1.0595  2.1180
 1989SOL     OW17599   0.997   1.343  16.943 -0.1279 -0.1291  0.4349
 1989SOL    HW117600   0.938   1.276  16.908 -0.9685  0.7737  0.1041
 1989SOL    HW217601   1.066   1.354  16.877 -0.1566  0.0598  0.4358
 1990SOL     OW17602   0.645   4.261   8.271 -0.1871 -0.6684  0.5302
 1990SOL    HW117603   0.720   4.306   8.310 -0.2475  0.2304 -0.4052
 1990SOL    HW217604   0.602   4.330   8.221 -0.1748 -1.9627 -1.2859
 1991SOL     OW17605   3.779   0.509   3.134  0.5336 -0.2682 -0.5726
 1991SOL    HW117606   3.874   0.520   3.124  0.2594  1.1992 -1.5688
 1991SOL    HW217607   3.759   0.575   3.201  0.1508  0.3348 -1.2763
 1992SOL     OW17608   1.706   0.224   7.621 -0.4907  0.2975 -0.4182
 1992SOL    HW117609   1.628   0.249   7.670 -0.8939 -0.3229 -0.7426
 1992SOL    HW217610   1.782   0.224   7.679  1.0124 -2.6919 -2.4082
 1993SOL     OW17611   1.171   0.228   4.035  0.2799 -0.3047 -0.3277
 1993SOL    HW117612   1.119   0.151   4.011 -0.6864  1.1114 -2.7977
 1993SOL    HW217613   1.104   0.279   4.080  1.4993 -0.4156  1.5764
 1994SOL     OW17614   4.616   3.077  16.774  0.2220 -0.3430  0.0074
 1994SOL    HW117615   4.691   3.040  16.728 -0.4819 -1.0352 -0.5740
 1994SOL    HW217616   4.659   3.136  16.836  0.7844 -0.1407 -0.5793
 1995SOL     OW17617   4.707   2.142   3.623  0.1694 -0.6328 -0.0429
 1995SOL    HW117618   0.057   2.104   3.621 -0.4260 -1.8583 -3.1200
 1995SOL    HW217619   4.725   2.222   3.672 -0.4838 -0.1888 -0.5396
 1996SOL     OW17620   1.373   1.173   2.892 -0.0159 -0.1166  0.5926
 1996SOL    HW117621   1.462   1.141   2.905 -0.9996 -2.9908  0.3489
 1996SOL    HW217622   1.377   1.202   2.801 -1.1442 -0.8914  0.2927
 1997SOL     OW17623   2.551   2.944   6.781  0.5417  0.1499  0.7589
 1997SOL    HW117624   2.459   2.956   6.759  1.2753  1.9112 -1.3758
 1997SOL    HW217625   2.591   3.009   6.723  1.3611 -0.2265  0.8901
 1998SOL     OW17626   0.951   3.891   7.227  0.0434 -0.1620  0.7221
 1998SOL    HW117627   0.901   3.966   7.195  3.1155  1.3315 -0.5423
 1998SOL    HW217628   1.009   3.937   7.288 -0.4006  1.4295 -0.0702
 1999SOL     OW17629   3.550   0.610   1.849  0.0991 -0.1679  0.0045
 1999SOL    HW117630   3.513   0.698   1.851  0.5699  0.0250  0.0742
 1999SOL    HW217631   3.497   0.574   1.921 -2.1057 -0.4095 -1.7274
 2000SOL     OW17632   2.237   4.294   6.462  0.2280 -0.2193 -0.5305
 2000SOL    HW117633   2.195   4.353   6.399  0.7879 -0.6034 -1.2560
 2000SOL    HW217634   2.200   4.326   6.545 -1.5818 -1.8545 -0.6964
 2001SOL     OW17635   1.878   0.291   4.221  0.0422  0.0360  0.7897
 2001SOL    HW117636   1.818   0.350   4.266  1.0285  0.7580  1.1532
 2001SOL    HW217637   1.864   0.321   4.132  2.3347  1.0258  0.7641
 2002SOL     OW17638   3.954   1.509   1.508 -0.1820  0.3340 -0.4370
 2002SOL    HW117639   3.973   1.597   1.542 -0.4885  0.4840 -0.6464
 2002SOL    HW217640   3.938   1.460   1.589  1.9338  0.0462 -0.1940
 2003SOL     OW17641   0.244   0.742   4.110  0.4549 -0.0762  0.0912
 2003SOL    HW117642   0.208   0.831   4.109  2.0668  0.5917  1.4875
 2003SOL    HW217643   0.331   0.760   4.074 -0.0101  0.2049 -0.9007
 2004SOL     OW17644   0.083   1.850   8.403  0.0462  0.0826  0.3193
 2004SOL    HW117645   0.157   1.798   8.372  0.0193 -0.3823  1.0425
 2004SOL    HW217646   0.060   1.805   8.485  0.4270  1.5835  1.2525
 2005SOL     OW17647   2.895   1.950  12.639  0.0685  0.5464 -0.1706
 2005SOL    HW117648   2.823   1.984  12.588 -0.4325 -3.1650 -1.9469
 2005SOL    HW217649   2.964   1.936  12.574  0.9624  1.2809  0.6074
 2006SOL     OW17650   1.726   1.150   8.843 -0.2239 -0.3244  0.3220
 2006SOL    HW117651   1.758   1.201   8.769 -0.7066 -1.2966 -0.5627
 2006SOL    HW217652   1.646   1.109   8.809 -2.1073  0.8808  3.2721
 2007SOL     OW17653   2.184   0.621  15.045  0.1585  0.0283 -0.2716
 2007SOL    HW117654   2.168   0.571  15.125 -0.5533  2.3275  1.0184
 2007SOL    HW217655   2.191   0.557  14.974  0.3022  1.0566 -1.1888
 2008SOL     OW17656   3.558   4.079   5.690  0.0831 -0.4826  0.3167
 2008SOL    HW117657   3.574   3.987   5.669  1.9393  0.4008 -2.1224
 2008SOL    HW217658   3.640   4.118   5.659  0.0504  0.7827  1.7850
 2009SOL     OW17659   0.976   1.013  11.337 -0.1988  0.1171  0.7862
 2009SOL    HW117660   0.913   1.045  11.403 -0.9848  1.8762 -0.8047
 2009SOL    HW217661   0.994   1.078  11.269  0.1672  0.1886  0.9502
 2010SOL     OW17662   0.624   4.611   7.819 -0.4265 -0.2924  0.0963
 2010SOL    HW117663   0.548   4.636   7.871 -1.1740 -3.0109  0.3301
 2010SOL    HW217664   0.585   4.568   7.743  0.9505 -0.6628 -0.3927
 2011SOL     OW17665   1.048   0.681  11.004  0.0594 -0.4504  0.0192
 2011SOL    HW117666   1.021   0.729  11.082  1.8791 -1.4056  1.2463
 2011SOL    HW217667   1.087   0.600  11.037  0.3482 -0.4512 -0.3210
 2012SOL     OW17668   3.286   2.202  16.523 -0.2517 -0.3172  0.4663
 2012SOL    HW117669   3.274   2.121  16.573  1.7141 -1.9313 -1.6913
 2012SOL    HW217670   3.202   2.245  16.541  0.2906  0.7807  0.3443
 2013SOL     OW17671   1.496   4.586   8.967 -0.4425  0.6269 -0.0720
 2013SOL    HW117672   1.476   4.558   9.056 -0.0299  1.7414  0.3760
 2013SOL    HW217673   1.468   4.675   8.991 -2.5897 -0.2291  0.5907
 2014SOL     OW17674   1.849   3.103   0.874  0.7382  0.2147 -0.0298
 2014SOL    HW117675   1.758   3.131   0.889  0.4911 -0.4687 -0.2782
 2014SOL    HW217676   1.879   3.095   0.965 -0.0299  2.0211  0.3823
 2015SOL     OW17677   4.384   0.746   6.037  0.2739 -0.2856  0.5746
 2015SOL    HW117678   4.462   0.714   6.084 -0.9460 -1.4828  1.7746
 2015SOL    HW217679   4.383   0.682   5.966 -0.1892  1.2126 -0.7562
 2016SOL     OW17680   2.139   2.159   8.240 -0.8535 -0.8678 -0.2742
 2016SOL    HW117681   2.219   2.211   8.231 -1.2242 -0.2425  0.0547
 2016SOL    HW217682   2.164   2.075   8.278 -0.9298 -0.6253  0.3189
 2017SOL     OW17683   2.991   0.313   0.225 -0.0271  0.2933  0.0729
 2017SOL    HW117684   2.948   0.364   0.156  0.6629 -1.0669 -1.3478
 2017SOL    HW217685   3.019   0.237   0.174 -1.1534  1.2152 -1.9360
 2018SOL     OW17686   3.613   1.339   5.097  0.0037  0.3878 -0.7079
 2018SOL    HW117687   3.667   1.412   5.128 -0.1786 -0.1702  0.9163
 2018SOL    HW217688   3.550   1.389   5.045 -1.0117  0.8955  1.0139
 2019SOL     OW17689   4.207   2.771   6.456 -0.2520 -0.4106  0.8825
 2019SOL    HW117690   4.268   2.788   6.528  2.5408  1.0696 -1.8475
 2019SOL    HW217691   4.141   2.840   6.468 -0.9066 -0.9978  0.6394
 2020SOL     OW17692   2.103   3.481   8.017  0.7003  0.0854  0.4060
 2020SOL    HW117693   2.169   3.412   8.017 -1.1837 -1.7225 -0.8670
 2020SOL    HW217694   2.068   3.468   8.106  1.1220  3.3249  1.0462
 2021SOL     OW17695   1.662   0.913  17.712 -0.2863 -0.3244  0.0891
 2021SOL    HW117696   1.675   0.991   0.018  1.0082 -0.1952 -0.3867
 2021SOL    HW217697   1.656   0.847   0.033  0.3242 -0.1030  0.3531
 2022SOL     OW17698   2.415   3.079   9.028 -0.0381  0.0257  0.3878
 2022SOL    HW117699   2.381   3.093   9.116  2.9387 -0.5863  1.6251
 2022SOL    HW217700   2.480   3.009   9.035 -0.3630 -0.2424  0.6921
 2023SOL     OW17701   0.515   2.634   5.366 -0.3195  1.0246  0.0634
 2023SOL    HW117702   0.572   2.634   5.288  2.5580 -1.1538  2.1644
 2023SOL    HW217703   0.547   2.559   5.416 -1.3994 -0.6793 -1.7739
 2024SOL     OW17704   0.004   0.681   7.654  0.0186 -0.5253 -0.0946
 2024SOL    HW117705   0.020   0.774   7.640  0.1564 -0.6514 -0.7929
 2024SOL    HW217706   0.080   0.667   7.711 -0.5902  1.1920  1.1455
 2025SOL     OW17707   4.112   2.214   8.219 -0.0096 -0.0529 -0.6693
 2025SOL    HW117708   4.026   2.253   8.237 -0.5713 -2.1840  1.2578
 2025SOL    HW217709   4.173   2.272   8.264  0.1097 -1.5077  1.0662
 2026SOL     OW17710   0.696   2.617   2.720  0.3159  0.0901 -0.3179
 2026SOL    HW117711   0.662   2.700   2.756 -0.3046 -0.3130  0.0341
 2026SOL    HW217712   0.679   2.634   2.628  0.9200  1.5376 -0.1635
 2027SOL     OW17713   3.642   0.966   0.178 -0.7622 -0.4274 -0.3674
 2027SOL    HW117714   3.734   0.982   0.197 -0.6316 -2.4441  0.6879
 2027SOL    HW217715   3.637   0.983   0.084  0.0655 -0.1317 -0.3599
 2028SOL     OW17716   1.896   3.944  16.065 -0.7765  1.3206 -0.1359
 2028SOL    HW117717   1.853   3.873  16.113  0.9859  1.5852  1.8015
 2028SOL    HW217718   1.864   3.925  15.976  1.0540  1.0933 -0.7531
 2029SOL     OW17719   0.501   2.276   9.301  0.2891  0.1493  0.0897
 2029SOL    HW117720   0.463   2.355   9.338 -0.0563 -0.1690  0.4087
 2029SOL    HW217721   0.593   2.280   9.330  0.9925 -1.0104 -1.9754
 2030SOL     OW17722   1.475   3.824   0.221  0.2946 -0.0970  0.1744
 2030SOL    HW117723   1.526   3.785   0.151  0.0921  2.3808 -1.3516
 2030SOL    HW217724   1.420   3.883   0.169 -2.0563 -1.6962  0.8317
 2031SOL     OW17725   4.124   2.493   5.386 -0.0135  0.5593  0.2658
 2031SOL    HW117726   4.066   2.486   5.309 -0.0454  1.4534  0.2072
 2031SOL    HW217727   4.128   2.588   5.393 -0.7570  0.5257  1.0653
 2032SOL     OW17728   2.209   1.484   3.558  0.4040  0.4966  0.4005
 2032SOL    HW117729   2.199   1.527   3.473  2.1551  1.0496  0.4780
 2032SOL    HW217730   2.251   1.402   3.533  0.0401  0.4425 -0.0355
 2033SOL     OW17731   4.573   2.724   5.832 -0.5464 -0.4515 -0.4428
 2033SOL    HW117732   4.527   2.742   5.750 -1.3226 -0.0953  0.0736
 2033SOL    HW217733   4.500   2.732   5.893  0.9379 -0.0316  1.2738
 2034SOL     OW17734   0.916   0.828   6.103 -0.0213  0.5794  0.2113
 2034SOL    HW117735   0.893   0.921   6.107 -1.6348  0.2327 -1.0724
 2034SOL    HW217736   1.002   0.823   6.062  0.0139 -0.2907  0.3948
 2035SOL     OW17737   3.377   4.684   8.090 -0.3972  0.0507 -0.1698
 2035SOL    HW117738   3.286   4.677   8.060 -0.1241 -2.1647 -0.4906
 2035SOL    HW217739   3.389   4.593   8.116  4.5694  0.5193 -0.7131
 2036SOL     OW17740   0.206   4.306   4.684  0.5454 -0.4490  0.3231
 2036SOL    HW117741   0.273   4.321   4.617 -0.7066  1.9919 -0.3640
 2036SOL    HW217742   0.240   4.358   4.757  1.1919 -0.6451  0.1661
 2037SOL     OW17743   1.170   1.537   6.993  0.2392 -0.2672  0.1309
 2037SOL    HW117744   1.201   1.618   6.953  2.4117 -0.5419  1.2913
 2037SOL    HW217745   1.081   1.549   6.958 -0.1465  0.3768  1.3406
 2038SOL     OW17746   3.021   2.753   8.851 -0.1788 -0.3854  0.1365
 2038SOL    HW117747   3.063   2.700   8.918  2.0661  0.3959 -0.6334
 2038SOL    HW217748   2.977   2.822   8.901  2.2995  0.9813  0.4446
 2039SOL     OW17749   3.785   3.767   8.601  0.7285 -0.5439 -0.1208
 2039SOL    HW117750   3.736   3.688   8.621  2.0303 -2.0310 -2.7111
 2039SOL    HW217751   3.868   3.748   8.646  0.9714  0.9939  0.0652
 2040SOL     OW17752   4.207   3.320   7.711  0.0816 -0.4020 -0.6070
 2040SOL    HW117753   4.279   3.307   7.649  1.8120  0.3850  1.2332
 2040SOL    HW217754   4.246   3.275   7.786 -1.5080 -0.2669  0.2882
 2041SOL     OW17755   2.331   2.101   3.391  0.4814 -0.2988 -0.8427
 2041SOL    HW117756   2.381   2.112   3.311  1.7166  1.6588  0.1991
 2041SOL    HW217757   2.392   2.070   3.459 -0.3915 -1.5681 -0.6378
 2042SOL     OW17758   1.570   0.796   3.027 -0.3357  0.1458 -0.3341
 2042SOL    HW117759   1.655   0.753   3.028 -0.2332  0.3889  1.7589
 2042SOL    HW217760   1.513   0.719   3.026 -0.4875  0.3129 -3.2297
 2043SOL     OW17761   2.757   2.456  15.029 -0.1865 -0.1177 -0.4327
 2043SOL    HW117762   2.697   2.436  15.101 -3.3337 -0.5115 -3.1806
 2043SOL    HW217763   2.786   2.367  15.006 -0.7796 -0.8038  1.4522
 2044SOL     OW17764   4.396   3.377   9.792  0.5437  0.2264 -0.2279
 2044SOL    HW117765   4.419   3.395   9.884  1.2199  2.2256 -0.7811
 2044SOL    HW217766   4.323   3.316   9.803 -1.3385  2.6530  0.7207
 2045SOL     OW17767   4.180   3.940   0.847 -0.4497 -0.0460 -0.1079
 2045SOL    HW117768   4.147   3.959   0.759 -1.3468  0.0122  0.2415
 2045SOL    HW217769   4.147   3.854   0.872  3.1431 -1.5879 -0.7697
 2046SOL     OW17770   3.398   3.135   3.495 -0.2033 -0.1473 -0.4781
 2046SOL    HW117771   3.409   3.177   3.580  0.9147  0.5382 -0.9580
 2046SOL    HW217772   3.362   3.206   3.442 -0.5029  1.5887  2.0886
 2047SOL     OW17773   2.646   2.514   8.706 -0.0888  0.4546 -0.3796
 2047SOL    HW117774   2.599   2.469   8.635 -4.0184  0.4414  2.2359
 2047SOL    HW217775   2.606   2.469   8.780 -0.4292  1.8941  0.3186
 2048SOL     OW17776   2.865   2.089   6.758 -0.2498 -0.0254  0.8301
 2048SOL    HW117777   2.879   2.066   6.850  0.9843 -0.6596  0.4840
 2048SOL    HW217778   2.770   2.076   6.756 -0.3802  0.9887  0.5584
 2049SOL     OW17779   1.774   1.494   3.125  0.3036  0.8638  0.3026
 2049SOL    HW117780   1.723   1.500   3.045 -0.6610  0.0838  0.8572
 2049SOL    HW217781   1.855   1.456   3.091 -1.0371 -1.0641 -0.6885
 2050SOL     OW17782   0.625   0.299   2.814  0.4514  0.0947 -0.1903
 2050SOL    HW117783   0.706   0.247   2.807 -0.4484 -1.1933 -1.1344
 2050SOL    HW217784   0.647   0.359   2.885 -0.0133 -0.1939  0.1921
 2051SOL     OW17785   1.388   2.258  10.401 -0.0046 -0.3069 -0.3279
 2051SOL    HW117786   1.395   2.165  10.422 -1.0907 -0.4099 -0.4292
 2051SOL    HW217787   1.395   2.255  10.306 -0.3405 -1.2770 -0.3220
 2052SOL     OW17788   1.537   1.400   3.564  0.3656 -0.0065  1.1023
 2052SOL    HW117789   1.609   1.412   3.502  0.8325 -4.8978  0.6548
 2052SOL    HW217790   1.479   1.346   3.509  1.3402  1.9518 -1.8027
 2053SOL     OW17791   1.875   3.558   4.101 -0.2757 -0.0132 -0.3809
 2053SOL    HW117792   1.912   3.588   4.018 -2.0283  2.2918 -0.3439
 2053SOL    HW217793   1.898   3.635   4.154  1.5118 -2.3027  2.1497
 2054SOL     OW17794   1.564   0.571  10.826  0.3206  0.6120  0.7111
 2054SOL    HW117795   1.502   0.632  10.785 -0.0430  0.3691  0.8957
 2054SOL    HW217796   1.609   0.544  10.746 -2.1774  0.0337 -0.5187
 2055SOL     OW17797   0.422   1.296   9.805  0.9442  0.1648  0.0726
 2055SOL    HW117798   0.475   1.243   9.864 -0.4595 -0.6469  0.6148
 2055SOL    HW217799   0.357   1.345   9.855  1.1196  0.7098 -0.2313
 2056SOL     OW17800   0.101   3.526   0.694  0.2783  0.4993  0.2994
 2056SOL    HW117801   0.069   3.436   0.690 -0.3560  0.8580 -2.7957
 2056SOL    HW217802   0.193   3.509   0.715  0.2726 -1.8407 -1.5986
 2057SOL     OW17803   0.667   1.163   3.066  0.4010  0.0410 -0.9930
 2057SOL    HW117804   0.762   1.153   3.078  0.4014 -0.6899 -1.6110
 2057SOL    HW217805   0.668   1.178   2.972  0.9798 -0.5814 -1.0881
 2058SOL     OW17806   2.273   0.191   3.022 -0.5865 -0.6495 -0.0371
 2058SOL    HW117807   2.189   0.210   3.065  0.5604  0.6547  1.6322
 2058SOL    HW217808   2.245   0.183   2.931  0.1162  1.1563 -0.4075
 2059SOL     OW17809   0.428   2.894   5.751 -0.1709 -0.2450  0.0256
 2059SOL    HW117810   0.346   2.943   5.745  0.5165  0.6993 -1.6135
 2059SOL    HW217811   0.465   2.923   5.835 -0.7497  2.7523 -0.7549
 2060SOL     OW17812   3.536   1.455   7.066  0.1172  0.4299 -0.2381
 2060SOL    HW117813   3.494   1.428   7.147  0.1252 -0.2228 -0.4509
 2060SOL    HW217814   3.482   1.424   6.993 -0.3464 -1.5330  0.9433
 2061SOL     OW17815   1.988   2.330  15.270  0.5866  0.4745  0.0034
 2061SOL    HW117816   2.082   2.337  15.286  0.5871  0.8724 -0.1751
 2061SOL    HW217817   1.981   2.317  15.175 -0.5622 -0.2986  0.1949
 2062SOL     OW17818   1.928   0.658   8.051  0.1089  0.1815  0.1424
 2062SOL    HW117819   2.011   0.705   8.056  2.3790 -3.8183  0.1303
 2062SOL    HW217820   1.928   0.639   7.957 -3.2748  0.1825  0.1612
 2063SOL     OW17821   4.416   2.406   5.579 -0.1356 -0.2777  0.0660
 2063SOL    HW117822   4.403   2.464   5.653 -1.8892 -2.4580  1.4728
 2063SOL    HW217823   4.511   2.416   5.569  0.0573 -0.1753  2.0461
 2064SOL     OW17824   0.647   1.455   6.979  0.4934  0.0280  0.2712
 2064SOL    HW117825   0.595   1.410   6.913  1.3381  0.8424 -0.9301
 2064SOL    HW217826   0.678   1.377   7.026 -0.1306  0.6859  1.7799
 2065SOL     OW17827   1.374   2.354   9.062  0.3522 -0.2238 -0.9348
 2065SOL    HW117828   1.305   2.411   9.026  0.9183  0.5868 -0.7377
 2065SOL    HW217829   1.446   2.388   9.009  1.7243 -2.6308 -0.5903
 2066SOL     OW17830   3.694   0.324   3.497 -0.7736 -0.4044 -0.8473
 2066SOL    HW117831   3.737   0.405   3.526  1.5609 -1.0471 -2.4884
 2066SOL    HW217832   3.616   0.328   3.552 -0.4785  0.3955 -0.4848
 2067SOL     OW17833   4.584   2.269   8.885 -0.5283  0.0165 -0.1933
 2067SOL    HW117834   4.679   2.263   8.871 -0.4692  1.6700 -0.4374
 2067SOL    HW217835   4.589   2.342   8.947 -0.8130 -0.2491  0.1428
 2068SOL     OW17836   0.503   1.631  11.363  0.6439 -0.2839  0.0990
 2068SOL    HW117837   0.594   1.621  11.388  0.7127  1.1679  0.4142
 2068SOL    HW217838   0.523   1.723  11.343 -2.6456  0.6344  1.0592
 2069SOL     OW17839   3.952   2.732  15.822 -0.7843  0.5514 -0.4732
 2069SOL    HW117840   3.990   2.663  15.767 -2.3041  0.2901 -1.1998
 2069SOL    HW217841   3.870   2.745  15.774 -1.2132 -1.5660 -0.3180
 2070SOL     OW17842   2.922   1.470   4.790  0.2277  0.1931  0.4107
 2070SOL    HW117843   2.833   1.504   4.800 -0.5183 -1.6954  0.2788
 2070SOL    HW217844   2.922   1.444   4.698  0.4747 -0.0393  0.4751
 2071SOL     OW17845   0.027   1.446   4.919 -0.2784 -0.2995  0.2317
 2071SOL    HW117846   0.088   1.402   4.978 -1.1355 -0.2363  1.1572
 2071SOL    HW217847   0.043   1.540   4.928  1.3402 -0.5674  0.1917
 2072SOL     OW17848   0.917   1.520   7.430 -0.1966 -0.0612  0.4219
 2072SOL    HW117849   0.944   1.553   7.516 -0.3085 -0.9512  0.7970
 2072SOL    HW217850   0.947   1.595   7.379  1.2294 -0.2815  0.9580
 2073SOL     OW17851   2.065   2.634   2.041 -0.4007  0.2083 -0.4886
 2073SOL    HW117852   1.994   2.629   2.104  0.9002  0.1060  0.9825
 2073SOL    HW217853   2.137   2.654   2.101 -1.6058 -1.4932  1.5281
 2074SOL     OW17854   0.966   2.623   8.643  0.5115  0.0427  0.0126
 2074SOL    HW117855   0.950   2.714   8.667  0.1558  0.0390 -0.2140
 2074SOL    HW217856   0.899   2.567   8.683 -0.0950  2.1779  1.9517
 2075SOL     OW17857   2.378   0.920   9.143  0.1740  0.0805 -0.7028
 2075SOL    HW117858   2.428   0.958   9.072 -2.0853  0.0081 -2.3278
 2075SOL    HW217859   2.294   0.963   9.128 -0.5761 -0.8308  0.8140
 2076SOL     OW17860   1.573   1.477   5.405  0.6142  0.4976 -0.1398
 2076SOL    HW117861   1.628   1.414   5.452 -2.6187 -1.4876  0.9544
 2076SOL    HW217862   1.553   1.533   5.481  2.3497  1.1646 -0.1610
 2077SOL     OW17863   0.766   4.201   2.832 -0.6273  0.6064 -0.0520
 2077SOL    HW117864   0.670   4.201   2.834 -0.6054  0.5130  1.5228
 2077SOL    HW217865   0.782   4.232   2.743 -1.0615  0.4928 -0.1717
 2078SOL     OW17866   2.890   2.643   2.294  0.1904 -0.0023  0.1758
 2078SOL    HW117867   2.855   2.587   2.363 -1.2867 -0.2385 -0.7849
 2078SOL    HW217868   2.985   2.638   2.309  0.0388 -1.2875  0.7529
 2079SOL     OW17869   3.013   1.683   3.869 -0.1226 -0.6098 -0.1553
 2079SOL    HW117870   2.956   1.748   3.827 -1.3145 -2.1518 -0.9069
 2079SOL    HW217871   3.095   1.709   3.827 -0.1736 -0.8684 -0.4090
 2080SOL     OW17872   0.468   4.709   1.827 -0.3572  0.3590 -0.4778
 2080SOL    HW117873   0.488   4.683   1.738 -0.0961  0.9052 -0.5760
 2080SOL    HW217874   0.401   4.644   1.849 -0.1154  1.0000  2.1528
 2081SOL     OW17875   2.462   2.225   2.245  0.3322  0.1414  0.4646
 2081SOL    HW117876   2.385   2.259   2.199  1.5898  0.6963 -1.2232
 2081SOL    HW217877   2.531   2.274   2.200  0.0579 -1.2872 -1.5062
 2082SOL     OW17878   2.782   1.408   5.758  0.1665 -0.0190  0.1261
 2082SOL    HW117879   2.816   1.482   5.808 -0.0586 -0.9984  1.7268
 2082SOL    HW217880   2.690   1.434   5.757  0.8859  2.4716 -0.2701
 2083SOL     OW17881   2.909   4.283   5.414  0.2630 -0.2387 -0.4286
 2083SOL    HW117882   2.859   4.362   5.394  1.7257  0.6302 -0.6248
 2083SOL    HW217883   2.974   4.299   5.346 -0.5354 -0.5016 -1.2509
 2084SOL     OW17884   2.063   0.607   5.822  0.0555  0.6808  0.1792
 2084SOL    HW117885   2.005   0.675   5.856 -0.0707  0.6971 -0.0667
 2084SOL    HW217886   2.047   0.546   5.893  2.2172  1.6890  1.5298
 2085SOL     OW17887   1.850   2.205   1.800  0.1245 -0.2428  0.1604
 2085SOL    HW117888   1.877   2.288   1.841 -0.6991  1.6976 -3.2919
 2085SOL    HW217889   1.921   2.191   1.737 -0.7137 -1.3196 -0.5451
 2086SOL     OW17890   2.997   1.367   1.690 -0.3531 -0.0362  0.0782
 2086SOL    HW117891   3.019   1.439   1.749  1.7228 -0.4629 -0.1597
 2086SOL    HW217892   2.939   1.315   1.746 -2.6332  2.6682  0.2326
 2087SOL     OW17893   2.923   3.218   5.304  0.1417 -0.1206  0.2416
 2087SOL    HW117894   2.980   3.292   5.329  0.4636  0.2568 -1.6502
 2087SOL    HW217895   2.851   3.258   5.256  1.5331  4.3566  1.8370
 2088SOL     OW17896   0.947   3.340   7.781 -0.4049 -0.2956  0.2568
 2088SOL    HW117897   0.984   3.422   7.813  0.4316 -0.1090 -1.1800
 2088SOL    HW217898   0.907   3.310   7.863  1.0007  3.3761  2.2500
 2089SOL     OW17899   0.010   1.654   1.058  0.4561 -0.3754  0.2532
 2089SOL    HW117900   0.052   1.737   1.036 -1.2126  0.1513 -0.9347
 2089SOL    HW217901   4.687   1.693   1.121  0.8044 -0.4436  0.6338
 2090SOL     OW17902   2.675   1.007   5.123  0.1685 -0.1989 -0.0189
 2090SOL    HW117903   2.688   0.922   5.165  0.0097 -0.9094 -1.4443
 2090SOL    HW217904   2.767   1.035   5.131  0.3618 -1.2397  1.5553
 2091SOL     OW17905   1.512   0.797   6.010 -0.1165 -0.3337  0.2658
 2091SOL    HW117906   1.440   0.831   6.062 -1.0143 -0.2010 -1.0717
 2091SOL    HW217907   1.578   0.846   6.060  1.8287  0.6226 -3.2087
 2092SOL     OW17908   1.849   3.685   5.309  0.4209  0.4437  0.0218
 2092SOL    HW117909   1.874   3.656   5.397  0.9581 -1.2232 -0.6924
 2092SOL    HW217910   1.766   3.637   5.307  1.3132 -1.0215 -0.8724
 2093SOL     OW17911   1.827   3.390   5.572 -0.0262 -0.0013 -0.3786
 2093SOL    HW117912   1.880   3.463   5.540 -0.5009  1.1348  1.4042
 2093SOL    HW217913   1.756   3.433   5.621 -1.4193 -2.5154 -0.2206
 2094SOL     OW17914   2.091   3.678   0.376 -0.5396  0.0920 -0.1064
 2094SOL    HW117915   2.185   3.686   0.388 -0.2249 -2.3107 -1.0836
 2094SOL    HW217916   2.065   3.731   0.452  1.2726  2.2744 -1.0336
 2095SOL     OW17917   4.439   0.634   4.711  0.9462 -0.1610  0.7449
 2095SOL    HW117918   4.344   0.624   4.706  0.3605  5.6801  0.6708
 2095SOL    HW217919   4.471   0.592   4.631  2.1670  0.2709  1.0104
 2096SOL     OW17920   0.646   4.523  13.992  0.1504 -0.4154 -0.1026
 2096SOL    HW117921   0.640   4.601  14.047 -0.2851  0.4107 -1.3081
 2096SOL    HW217922   0.606   4.562  13.914 -0.9405 -0.7826  0.2823
 2097SOL     OW17923   4.111   4.271   5.706  0.1028 -0.4264  0.2585
 2097SOL    HW117924   4.062   4.198   5.744  0.7063 -0.9186  0.0901
 2097SOL    HW217925   4.191   4.270   5.758 -0.5456 -0.3946  1.2548
 2098SOL     OW17926   4.173   0.957   3.888 -0.0605  0.7143  0.2872
 2098SOL    HW117927   4.157   1.038   3.840  0.2292  1.3561  1.2850
 2098SOL    HW217928   4.112   0.961   3.962 -0.7240 -0.3423 -0.1897
 2099SOL     OW17929   1.960   1.880   7.153 -0.1620  0.1973  0.3100
 2099SOL    HW117930   1.948   1.965   7.195  0.1791 -0.1767  1.1669
 2099SOL    HW217931   2.054   1.869   7.144 -0.4702 -0.5435 -2.0594
 2100SOL     OW17932   4.126   4.434  10.405  0.5297  0.2194  0.2194
 2100SOL    HW117933   4.202   4.384  10.430  0.9904  1.4648  1.2930
 2100SOL    HW217934   4.066   4.365  10.378 -0.3546  1.2710 -0.5370
 2101SOL     OW17935   2.933   3.276   6.471 -0.0244 -0.9624  0.0966
 2101SOL    HW117936   2.936   3.287   6.566  0.5129  0.3461 -0.0673
 2101SOL    HW217937   2.998   3.207   6.459 -0.8725 -1.6671 -0.4471
 2102SOL     OW17938   1.437   0.610   3.525  0.1559  0.2920 -0.3388
 2102SOL    HW117939   1.530   0.631   3.528 -0.0025  0.9090  0.1489
 2102SOL    HW217940   1.435   0.526   3.571 -0.8688 -1.8643 -4.3695
 2103SOL     OW17941   2.565   2.109   4.139  0.7041 -0.3984 -0.5303
 2103SOL    HW117942   2.645   2.116   4.191 -0.7756  1.2348  1.5847
 2103SOL    HW217943   2.590   2.041   4.077  2.1662 -1.6174  1.3971
 2104SOL     OW17944   3.725   0.664   9.476 -0.5091 -0.2971  0.3046
 2104SOL    HW117945   3.722   0.599   9.546  0.2589 -2.6215 -1.7947
 2104SOL    HW217946   3.727   0.741   9.532  0.0077 -0.4892  0.5519
 2105SOL     OW17947   0.323   2.991  11.661  0.8012 -0.4113  0.1968
 2105SOL    HW117948   0.321   2.998  11.566  1.2710 -1.0988  0.1374
 2105SOL    HW217949   0.388   3.058  11.684 -2.0470  1.9827  1.3376
 2106SOL     OW17950   1.124   3.877  13.849 -0.3688 -0.1575 -0.1876
 2106SOL    HW117951   1.205   3.928  13.846 -0.6608  0.4725  2.9621
 2106SOL    HW217952   1.128   3.814  13.920  1.3695 -1.4739 -1.4499
 2107SOL     OW17953   0.673   4.210   2.364 -0.0224 -0.5552  0.1946
 2107SOL    HW117954   0.596   4.232   2.417  1.6144  0.1878  2.2352
 2107SOL    HW217955   0.728   4.164   2.426 -0.3454 -0.3039  0.6688
 2108SOL     OW17956   2.222   0.979  16.135 -0.0931  0.0079 -0.2190
 2108SOL    HW117957   2.158   0.987  16.205 -1.3037  0.4230 -1.3776
 2108SOL    HW217958   2.223   1.065  16.094 -0.8241  0.0160 -0.2154
 2109SOL     OW17959   4.142   2.437   0.727  0.0371 -0.1617  0.0230
 2109SOL    HW117960   4.102   2.495   0.663  0.7892  0.1651 -0.1510
 2109SOL    HW217961   4.136   2.490   0.806  2.5920 -0.3353  0.3219
 2110SOL     OW17962   4.422   3.234   5.296  0.1876 -0.2523 -0.3022
 2110SOL    HW117963   4.491   3.215   5.233 -0.7155 -0.6288 -1.1741
 2110SOL    HW217964   4.394   3.323   5.275  1.6325  0.0341 -1.0398
 2111SOL     OW17965   0.931   1.347   9.323 -0.4418 -0.2063 -1.3847
 2111SOL    HW117966   0.848   1.312   9.355 -0.7862  2.0692  0.2547
 2111SOL    HW217967   0.907   1.369   9.233 -0.9285  4.7104 -0.0593
 2112SOL     OW17968   4.162   0.663   7.764 -0.0210 -0.4781 -0.8239
 2112SOL    HW117969   4.132   0.749   7.790  1.5988 -0.2329  0.2116
 2112SOL    HW217970   4.094   0.619   7.815 -0.7597 -0.1332 -1.5140
 2113SOL     OW17971   1.733   0.366   9.836  0.0942  0.0244  0.0879
 2113SOL    HW117972   1.734   0.445   9.891  1.5776 -1.3369  2.0357
 2113SOL    HW217973   1.818   0.367   9.792 -0.3024 -2.9966 -0.7574
 2114SOL     OW17974   3.748   2.034   0.153  0.3686  0.3233 -0.0537
 2114SOL    HW117975   3.787   2.115   0.186 -1.7879  1.2647  0.1738
 2114SOL    HW217976   3.815   1.990   0.101  0.9329  0.5192  0.5057
 2115SOL     OW17977   2.472   3.654   4.790 -0.2203  0.0861 -0.1052
 2115SOL    HW117978   2.530   3.638   4.715 -2.4340 -1.0986 -1.5998
 2115SOL    HW217979   2.393   3.687   4.747  0.1034  1.3898  0.3279
 2116SOL     OW17980   4.537   0.302   8.150  0.4046 -0.1355 -0.3761
 2116SOL    HW117981   4.583   0.257   8.079 -0.6466 -1.3079 -0.3025
 2116SOL    HW217982   4.500   0.377   8.103 -1.9557 -2.5721 -2.3673
 2117SOL     OW17983   0.906   3.240  11.850  0.0353  0.3174 -0.5245
 2117SOL    HW117984   0.914   3.145  11.841 -0.5191  0.2242 -0.0185
 2117SOL    HW217985   0.816   3.258  11.876  0.3465  2.7360 -1.0958
 2118SOL     OW17986   1.135   0.605   6.218  0.4501  0.5677 -0.1739
 2118SOL    HW117987   1.039   0.604   6.222  0.5979 -0.1985  3.7010
 2118SOL    HW217988   1.151   0.668   6.289 -2.4882  2.5267 -1.2727
 2119SOL     OW17989   4.485   4.464   3.060  0.3499 -0.1957  0.7382
 2119SOL    HW117990   4.526   4.379   3.076  0.8328 -0.2856 -0.9898
 2119SOL    HW217991   4.390   4.454   3.067  0.2623 -0.2740 -0.6312
 2120SOL     OW17992   1.117   4.486   3.730 -0.6188  0.3640 -0.0069
 2120SOL    HW117993   1.037   4.503   3.780  0.4815 -0.4856  2.0526
 2120SOL    HW217994   1.109   4.392   3.718  0.2158  0.5326 -1.8100
 2121SOL     OW17995   0.697   0.866   8.293 -0.1365  0.0420  0.6456
 2121SOL    HW117996   0.646   0.796   8.332  0.4939 -0.0863  1.2424
 2121SOL    HW217997   0.623   0.902   8.244 -0.9082 -1.4649  0.7168
 2122SOL     OW17998   2.113   3.681   5.728  0.2148  0.4541 -0.4028
 2122SOL    HW117999   2.085   3.677   5.819  1.4561 -0.6634 -0.0733
 2122SOL    HW218000   2.133   3.775   5.719  1.0897  0.0832 -2.3960
 2123SOL     OW18001   1.309   2.469   9.399  0.0603  1.1148 -0.3863
 2123SOL    HW118002   1.290   2.530   9.471 -0.1951 -1.5518  1.8151
 2123SOL    HW218003   1.329   2.525   9.325  0.1256  0.8160 -0.5963
 2124SOL     OW18004   1.966   4.313  15.798 -0.1155 -0.5435 -0.3705
 2124SOL    HW118005   2.040   4.321  15.858  0.2748 -0.7739 -0.8235
 2124SOL    HW218006   1.999   4.248  15.737  1.4340 -1.3535  1.3663
 2125SOL     OW18007   1.777   1.329   7.356  0.1641  0.0600 -0.5058
 2125SOL    HW118008   1.736   1.415   7.364  0.7519 -0.0790  4.0695
 2125SOL    HW218009   1.798   1.317   7.449 -2.6253 -0.5880  0.0422
 2126SOL     OW18010   2.611   1.476   6.197  0.0531 -0.4385 -0.1229
 2126SOL    HW118011   2.592   1.543   6.131  0.1616 -1.7672 -1.5148
 2126SOL    HW218012   2.597   1.524   6.278  0.6702  0.3653 -0.5014
 2127SOL     OW18013   3.392   1.221   5.614 -0.2528  0.4581  0.4246
 2127SOL    HW118014   3.345   1.156   5.562 -0.6917  1.0750  0.0468
 2127SOL    HW218015   3.458   1.239   5.547  0.5180  0.6242  1.2359
 2128SOL     OW18016   0.474   1.715   8.084  0.4193  0.4040 -0.7829
 2128SOL    HW118017   0.519   1.794   8.113 -1.9296  1.1106  0.9035
 2128SOL    HW218018   0.382   1.742   8.086  0.2483  0.0066 -2.6136
 2129SOL     OW18019   1.343   2.054   2.792  0.0312  0.5931  0.2602
 2129SOL    HW118020   1.386   2.066   2.707  0.0387 -0.7382  0.0670
 2129SOL    HW218021   1.261   2.013   2.764 -0.0971  1.3260 -0.4672
 2130SOL     OW18022   4.308   3.512   2.980 -0.5856  0.2080 -0.4343
 2130SOL    HW118023   4.216   3.504   3.004 -0.4352  2.0371  0.7801
 2130SOL    HW218024   4.333   3.422   3.001 -0.6793 -0.2068 -2.1150
 2131SOL     OW18025   1.238   2.655   9.576 -0.2025 -0.4122 -0.0962
 2131SOL    HW118026   1.160   2.711   9.580  0.7017  0.6294  3.1097
 2131SOL    HW218027   1.298   2.721   9.542 -2.4468  2.7079  1.9299
 2132SOL     OW18028   4.595   2.021  14.490 -0.6005 -0.2900  0.0230
 2132SOL    HW118029   4.670   2.011  14.432  0.7614 -1.0100  1.9286
 2132SOL    HW218030   4.611   2.106  14.530  2.8571  0.3030 -2.6785
 2133SOL     OW18031   1.522   1.871   6.608  0.1937 -0.3096  0.2311
 2133SOL    HW118032   1.456   1.938   6.591  0.3347 -0.0004  0.8924
 2133SOL    HW218033   1.578   1.889   6.533  0.1380  0.1323  0.2949
 2134SOL     OW18034   1.534   3.197  13.698  0.4310 -0.9948  0.0190
 2134SOL    HW118035   1.465   3.148  13.743  0.7692 -2.1406 -0.7212
 2134SOL    HW218036   1.520   3.277  13.750  0.0441 -1.6708  0.9529
 2135SOL     OW18037   0.145   4.081   2.936  0.3614 -0.0649 -0.3746
 2135SOL    HW118038   0.112   4.046   2.853  3.0627 -0.6496 -1.2170
 2135SOL    HW218039   0.187   4.001   2.968  3.3288  0.9623 -1.6123
 2136SOL     OW18040   4.035   3.956  11.321  0.1304  0.6332  0.4366
 2136SOL    HW118041   3.969   3.888  11.334 -1.6223  2.4798  1.2098
 2136SOL    HW218042   4.050   3.976  11.414 -0.4959  1.6944  0.3029
 2137SOL     OW18043   3.812   2.635   4.073  0.0824 -0.1133  0.0433
 2137SOL    HW118044   3.888   2.689   4.092  0.1410 -0.2486  0.1903
 2137SOL    HW218045   3.811   2.651   3.979  1.5536 -1.2723 -0.1626
 2138SOL     OW18046   4.570   4.096   0.788  0.0318 -0.3205 -0.0699
 2138SOL    HW118047   4.516   4.091   0.709  2.3471  3.5239 -1.8685
 2138SOL    HW218048   4.559   4.003   0.808 -0.6304  0.3451  2.7167
 2139SOL     OW18049   2.927   3.402   4.981  0.0597 -0.2528  0.0968
 2139SOL    HW118050   2.951   3.309   4.981  0.8437 -0.0544  1.2677
 2139SOL    HW218051   2.981   3.452   4.919  0.2489  0.4292  0.8149
 2140SOL     OW18052   2.437   3.637   7.388  0.2121 -0.4894  0.1688
 2140SOL    HW118053   2.377   3.562   7.388 -1.5897  0.9386  2.3391
 2140SOL    HW218054   2.495   3.612   7.459 -1.1114  0.6251  1.6462
 2141SOL     OW18055   0.236   4.648   4.628  0.6150 -0.5286 -0.2376
 2141SOL    HW118056   0.306   4.594   4.665  1.1587  1.6915  1.9527
 2141SOL    HW218057   0.272   4.736   4.635 -1.2164  0.1441  0.8434
 2142SOL     OW18058   1.947   0.733   9.554 -0.4377  0.3013  0.4283
 2142SOL    HW118059   1.945   0.786   9.474 -1.9610  0.4762  0.5771
 2142SOL    HW218060   2.030   0.763   9.591  0.9373  1.0700 -3.3205
 2143SOL     OW18061   3.731   3.017   1.056  0.1260  0.3402  0.0143
 2143SOL    HW118062   3.682   2.955   1.002  3.3959 -1.5388 -0.7812
 2143SOL    HW218063   3.663   3.051   1.114  0.2287  3.1913 -1.5057
 2144SOL     OW18064   1.505   1.267  10.419 -0.0767  0.3908  0.0883
 2144SOL    HW118065   1.435   1.240  10.479 -0.8423  1.1744 -0.4603
 2144SOL    HW218066   1.461   1.264  10.334  1.6979 -0.7248 -0.7909
 2145SOL     OW18067   2.900   4.727   8.680  0.2431 -0.0658 -0.2031
 2145SOL    HW118068   2.927   4.637   8.695 -1.0382 -0.4877 -0.4076
 2145SOL    HW218069   2.985   0.026   8.655 -0.7769  1.1234 -1.9972
 2146SOL     OW18070   0.904   3.954  10.226  0.5743 -0.6566 -0.1023
 2146SOL    HW118071   0.824   3.973  10.274  1.7970  0.2534  1.5510
 2146SOL    HW218072   0.924   4.042  10.193 -2.0429  0.0435  0.1344
 2147SOL     OW18073   4.649   3.962  14.644  0.2479  0.4892  0.3675
 2147SOL    HW118074   4.719   3.947  14.706  1.0504 -2.1633 -1.2053
 2147SOL    HW218075   4.605   3.877  14.647 -0.5413  0.7960 -1.9728
 2148SOL     OW18076   4.482   1.511   6.284 -0.5111 -0.3765  0.1737
 2148SOL    HW118077   4.507   1.479   6.198 -2.4594 -0.7156 -0.2819
 2148SOL    HW218078   4.389   1.527   6.266 -0.3620 -1.7690 -1.8064
 2149SOL     OW18079   1.975   1.216   0.255  0.5487 -0.7483 -0.2581
 2149SOL    HW118080   1.926   1.157   0.198  0.0825 -1.1812  0.5911
 2149SOL    HW218081   1.972   1.293   0.197 -0.3153  0.5246  1.4796
 2150SOL     OW18082   1.759   1.545   3.910 -0.2063  0.6747  0.7424
 2150SOL    HW118083   1.809   1.548   3.991  0.8791 -1.0702  0.1388
 2150SOL    HW218084   1.720   1.632   3.922  1.5411  1.7525 -1.4345
 2151SOL     OW18085   2.189   1.307   4.440  0.2323  0.3755  0.0948
 2151SOL    HW118086   2.159   1.338   4.525 -2.6794 -0.1731 -0.7311
 2151SOL    HW218087   2.284   1.317   4.444  0.3987 -0.9978 -0.4029
 2152SOL     OW18088   3.599   1.781   3.527  0.3784 -0.1226 -0.2596
 2152SOL    HW118089   3.661   1.850   3.551  2.0111 -0.7046 -2.7919
 2152SOL    HW218090   3.530   1.800   3.590 -0.8039  0.8506 -1.8392
 2153SOL     OW18091   3.011   2.245   4.014  0.0716  0.4825 -0.1962
 2153SOL    HW118092   3.058   2.301   4.076  1.9347 -0.5150 -0.7056
 2153SOL    HW218093   3.082   2.237   3.949 -0.7894 -0.9069 -0.9590
 2154SOL     OW18094   0.897   4.288   3.793 -0.0225 -0.0132  0.6468
 2154SOL    HW118095   0.880   4.218   3.730  1.3711  0.8077 -0.6494
 2154SOL    HW218096   0.962   4.238   3.843 -0.5757  3.9237  5.2618
 2155SOL     OW18097   0.604   2.003   7.568 -0.0889  0.1404  0.4945
 2155SOL    HW118098   0.534   1.984   7.631 -0.7838  1.3488  0.1002
 2155SOL    HW218099   0.617   1.915   7.534  0.6204  0.8973 -1.2151
 2156SOL     OW18100   2.820   3.143   2.979 -0.1190 -0.7235  0.0491
 2156SOL    HW118101   2.841   3.050   2.982 -1.0547 -0.9550 -0.9859
 2156SOL    HW218102   2.774   3.156   3.062  2.2696  0.8151  1.1657
 2157SOL     OW18103   4.037   0.822   2.389  0.0020  0.2269  0.2277
 2157SOL    HW118104   4.031   0.847   2.481 -0.2231  1.7825 -0.2039
 2157SOL    HW218105   4.013   0.904   2.347 -0.6352  0.0221  0.1935
 2158SOL     OW18106   0.849   4.652   2.218  0.3000 -0.0245 -0.4957
 2158SOL    HW118107   0.774   4.691   2.171 -0.4289 -2.1893 -1.1473
 2158SOL    HW218108   0.869   4.574   2.166  2.0695  1.1891 -1.5925
 2159SOL     OW18109   4.132   1.487   5.161  0.2607 -0.0194  0.5665
 2159SOL    HW118110   4.191   1.413   5.146 -0.9002 -0.7669 -0.3295
 2159SOL    HW218111   4.068   1.437   5.212 -0.5420  0.0961 -0.3330
 2160SOL     OW18112   1.010   0.121   1.425  0.3217  0.2856  0.3520
 2160SOL    HW118113   1.084   0.175   1.454  1.1330  0.7237 -2.5267
 2160SOL    HW218114   1.007   0.146   1.333 -2.8029  0.5667  0.5039
 2161SOL     OW18115   2.122   0.786  15.652 -0.4069  0.6596  0.2857
 2161SOL    HW118116   2.080   0.795  15.737  0.3947  2.4142  0.4976
 2161SOL    HW218117   2.213   0.811  15.669  0.5934 -0.3681 -3.5250
 2162SOL     OW18118   4.220   1.499   7.758  0.4199  0.2789 -0.1318
 2162SOL    HW118119   4.304   1.456   7.775  0.2572 -0.2598 -0.6971
 2162SOL    HW218120   4.195   1.465   7.672  1.0016 -0.1820 -0.1218
 2163SOL     OW18121   1.822   1.038  13.506  0.0318 -0.5137 -0.3159
 2163SOL    HW118122   1.786   1.126  13.505 -0.0028 -0.5377 -2.2151
 2163SOL    HW218123   1.914   1.059  13.492 -0.2091  0.0129 -1.1030
 2164SOL     OW18124   0.741   3.546  16.725  0.5416  0.1909  0.0901
 2164SOL    HW118125   0.804   3.616  16.707 -1.8854  2.4895  0.6119
 2164SOL    HW218126   0.709   3.574  16.811 -2.6373 -1.5505 -0.5487
 2165SOL     OW18127   0.776   2.604   8.874 -0.4794  0.2583  0.0026
 2165SOL    HW118128   0.826   2.658   8.935  2.4065 -0.9408 -1.2580
 2165SOL    HW218129   0.707   2.663   8.845 -0.2547  1.5528  2.1176
 2166SOL     OW18130   3.149   2.363   4.470  0.0474 -0.8128 -0.3316
 2166SOL    HW118131   3.245   2.359   4.478 -0.0814 -0.5894  1.4430
 2166SOL    HW218132   3.124   2.297   4.535  2.1345 -1.4750 -0.1757
 2167SOL     OW18133   4.686   0.472  15.506  0.4737  0.1074  0.2044
 2167SOL    HW118134   4.621   0.439  15.445 -0.1355 -0.1865  1.0094
 2167SOL    HW218135   4.629   0.536  15.549 -4.7888 -2.2628 -3.3572
 2168SOL     OW18136   2.965   0.049   1.401  0.5240 -0.3136  0.8391
 2168SOL    HW118137   3.049   0.005   1.388  1.7970  1.5992  2.6210
 2168SOL    HW218138   2.997   0.136   1.423  0.3945 -0.0143 -0.1536
 2169SOL     OW18139   0.115   1.581   4.271  0.0375  0.3684  0.5893
 2169SOL    HW118140   0.193   1.611   4.318  1.4253 -0.4287 -1.2059
 2169SOL    HW218141   0.138   1.490   4.255  1.2456  0.4407  1.9161
 2170SOL     OW18142   3.958   0.077  17.160  0.1367  0.1930 -0.1992
 2170SOL    HW118143   4.029   0.098  17.099  2.0618 -3.5487  0.7404
 2170SOL    HW218144   3.992   4.737  17.205  1.0897  1.4686  1.2814
 2171SOL     OW18145   4.551   4.392   6.128  0.1465 -0.2493 -0.4848
 2171SOL    HW118146   4.528   4.307   6.165  0.9281  0.2843  1.2341
 2171SOL    HW218147   4.513   4.386   6.040 -2.0775 -1.6548  0.5695
 2172SOL     OW18148   3.828   4.239   7.666 -0.5774  0.6132  0.3381
 2172SOL    HW118149   3.876   4.222   7.584  0.6690  0.2839  1.1372
 2172SOL    HW218150   3.744   4.196   7.649 -0.9466  1.2657  0.5228
 2173SOL     OW18151   1.371   0.937  17.693  0.3078 -0.4733 -0.7689
 2173SOL    HW118152   1.463   0.954  17.672  0.6984  0.7964  2.0121
 2173SOL    HW218153   1.373   0.939   0.040 -0.7280  2.0472 -0.7974
 2174SOL     OW18154   1.512   2.303   7.387 -0.1910 -0.2014  0.4140
 2174SOL    HW118155   1.504   2.349   7.471 -0.4010 -0.2127  0.3997
 2174SOL    HW218156   1.430   2.254   7.395 -0.3132 -0.1189 -0.4100
 2175SOL     OW18157   3.473   4.346   4.366  1.1290 -0.4030 -0.1678
 2175SOL    HW118158   3.478   4.256   4.399  2.3148 -0.2410  0.0988
 2175SOL    HW218159   3.441   4.403   4.436  0.0065  0.1408 -1.1305
 2176SOL     OW18160   3.408   2.630  11.744 -0.1493 -0.5870  0.6659
 2176SOL    HW118161   3.317   2.611  11.720 -0.2766  2.9244 -1.6308
 2176SOL    HW218162   3.449   2.673  11.669 -1.8751 -0.5794 -0.2721
 2177SOL     OW18163   2.297   0.137  10.750 -0.5261  0.2058 -0.1313
 2177SOL    HW118164   2.309   0.042  10.758  0.9445  0.4579  0.6562
 2177SOL    HW218165   2.301   0.132  10.655  1.0841  0.0682 -0.0544
 2178SOL     OW18166   0.714   3.832  10.631  0.4332 -0.4645 -0.3656
 2178SOL    HW118167   0.639   3.871  10.587 -0.0080  0.9019  1.5953
 2178SOL    HW218168   0.699   3.863  10.720  0.7348  0.6440 -0.6927
 2179SOL     OW18169   2.342   1.068   1.688  0.1857  0.2074  0.4306
 2179SOL    HW118170   2.348   1.119   1.768 -1.1313  1.1053 -0.0279
 2179SOL    HW218171   2.251   1.039   1.684  0.2420 -0.1969  2.4475
 2180SOL     OW18172   1.648   3.718   4.308 -0.1956  0.0507 -0.0920
 2180SOL    HW118173   1.636   3.623   4.302  0.9120  0.0552 -2.4422
 2180SOL    HW218174   1.738   3.722   4.341 -0.3966 -1.6995  0.7123
 2181SOL     OW18175   0.793   1.163  16.914  0.0277  0.1603 -0.2207
 2181SOL    HW118176   0.828   1.099  16.975 -2.1818 -1.7630 -1.0084
 2181SOL    HW218177   0.704   1.162  16.948 -1.1781 -2.8539 -3.4220
 2182SOL     OW18178   3.235   2.639   1.939  0.6094  0.4850  0.2555
 2182SOL    HW118179   3.261   2.599   1.856  0.0213 -0.6495  0.6236
 2182SOL    HW218180   3.176   2.574   1.976 -0.7440  1.5056 -0.0976
 2183SOL     OW18181   2.306   0.330   5.801  0.5622  0.3420 -0.1912
 2183SOL    HW118182   2.381   0.285   5.764  0.6597  2.9567 -3.2342
 2183SOL    HW218183   2.289   0.281   5.882 -0.8290  1.9284  0.4808
 2184SOL     OW18184   0.098   4.568   6.858 -0.0852  0.0551  0.7940
 2184SOL    HW118185   0.110   4.650   6.906 -0.8827  0.2820  0.6003
 2184SOL    HW218186   0.168   4.575   6.793  0.4020  0.8653  1.3980
 2185SOL     OW18187   2.023   3.582   5.503 -0.3204 -0.2683  0.0403
 2185SOL    HW118188   2.058   3.638   5.434 -1.1836  2.8785  2.1396
 2185SOL    HW218189   2.040   3.640   5.578 -1.1464  0.4280 -0.3032
 2186SOL     OW18190   2.584   4.584  14.912 -0.0767 -0.4343  0.2156
 2186SOL    HW118191   2.673   4.619  14.912 -0.5835  0.8464  2.1437
 2186SOL    HW218192   2.536   4.664  14.892 -3.4278 -2.5041  0.0738
 2187SOL     OW18193   3.508   3.620   3.962  0.2394  0.2431  0.1852
 2187SOL    HW118194   3.481   3.539   3.920  1.3828 -0.3727  0.6400
 2187SOL    HW218195   3.529   3.664   3.880  2.8915  0.5829  1.0538
 2188SOL     OW18196   2.502   3.466   3.240 -0.2870  0.2953 -0.0116
 2188SOL    HW118197   2.444   3.407   3.288  0.9878  1.0721  2.5028
 2188SOL    HW218198   2.453   3.455   3.159  0.1873  3.2625 -0.6671
 2189SOL     OW18199   3.434   1.044   2.832  0.2279  0.4451 -0.3161
 2189SOL    HW118200   3.494   0.983   2.788  1.2603  2.3247 -1.4790
 2189SOL    HW218201   3.490   1.118   2.854 -0.2201  0.2164  1.6644
 2190SOL     OW18202   3.422   1.040   4.351  0.7984  0.0148  0.2006
 2190SOL    HW118203   3.401   0.972   4.286  1.7263 -1.5540  1.5341
 2190SOL    HW218204   3.498   0.997   4.391  0.0269 -1.0810  0.4887
 2191SOL     OW18205   1.408   2.770   3.002 -0.4124 -0.0973 -0.2098
 2191SOL    HW118206   1.442   2.770   2.913 -1.2409  0.2644 -0.5152
 2191SOL    HW218207   1.446   2.853   3.031 -0.2325 -0.0481 -0.5866
 2192SOL     OW18208   4.533   0.954   6.208 -0.0768 -0.1450  0.4169
 2192SOL    HW118209   4.626   0.978   6.208  0.2208 -1.2698  0.6556
 2192SOL    HW218210   4.528   0.910   6.123  2.7661 -0.0292  0.1970
 2193SOL     OW18211   3.331   3.814   4.076 -0.3550  0.3583  0.1864
 2193SOL    HW118212   3.288   3.809   3.990 -3.0134 -2.4009  1.6877
 2193SOL    HW218213   3.387   3.738   4.067 -1.7774 -0.6363 -0.2776
 2194SOL     OW18214   4.286   4.045   4.066 -0.3377 -0.1545  0.2896
 2194SOL    HW118215   4.378   4.036   4.044 -0.4166  0.7895 -0.4119
 2194SOL    HW218216   4.249   4.032   3.979 -2.0223  0.7670  0.8632
 2195SOL     OW18217   1.411   2.605   8.320  0.3037  0.5545 -0.0360
 2195SOL    HW118218   1.354   2.548   8.372  1.4868  0.7301  1.4491
 2195SOL    HW218219   1.402   2.551   8.241  0.1455  0.0808  0.3119
 2196SOL     OW18220   2.836   1.224   4.161 -0.3881 -0.1370 -0.0045
 2196SOL    HW118221   2.920   1.270   4.162 -0.1224 -0.5571 -2.1101
 2196SOL    HW218222   2.785   1.282   4.104  0.9510  0.8193 -0.2341
 2197SOL     OW18223   4.451   0.499   6.561 -0.0456 -0.4000  0.3413
 2197SOL    HW118224   4.545   0.501   6.578  0.0104  0.9456 -0.1129
 2197SOL    HW218225   4.453   0.539   6.474  0.7644 -1.1238  0.0329
 2198SOL     OW18226   4.312   2.420  16.774  0.4075 -0.1760  0.3592
 2198SOL    HW118227   4.323   2.505  16.817 -0.6605 -0.1316  0.5486
 2198SOL    HW218228   4.341   2.434  16.683 -2.6296 -0.4431 -0.6544
 2199SOL     OW18229   1.956   3.073   1.523  0.0431  0.2193  0.1286
 2199SOL    HW118230   1.944   3.115   1.609 -3.1130 -1.0916  0.3505
 2199SOL    HW218231   1.881   3.014   1.525 -0.1543  0.4753  0.5308
 2200SOL     OW18232   4.192   0.940  15.374  0.2949 -0.1788  0.1479
 2200SOL    HW118233   4.130   0.911  15.307 -0.6124 -0.3737  1.0808
 2200SOL    HW218234   4.203   1.029  15.341 -2.1418 -0.4551 -1.3706
 2201SOL     OW18235   0.932   1.898  14.963 -0.0407 -0.5684 -0.4163
 2201SOL    HW118236   0.907   1.808  14.941 -0.7531 -0.8924  1.6883
 2201SOL    HW218237   0.919   1.946  14.881 -0.3907  2.1967  1.2598
 2202SOL     OW18238   3.943   2.710   2.520  0.1632  0.1048  0.7019
 2202SOL    HW118239   3.946   2.709   2.615 -2.0079 -1.6151  0.7551
 2202SOL    HW218240   3.926   2.617   2.506  2.3688 -0.2205  0.1506
 2203SOL     OW18241   3.918   2.826   7.813  0.7877 -0.5644 -0.3687
 2203SOL    HW118242   3.834   2.873   7.812  0.7801 -0.5525  0.9959
 2203SOL    HW218243   3.965   2.908   7.825  0.9861 -0.4108 -2.1880
 2204SOL     OW18244   4.073   4.025   0.613  0.1886 -0.1043  0.0084
 2204SOL    HW118245   4.076   4.089   0.542  0.8287  2.4920  2.3847
 2204SOL    HW218246   3.992   3.980   0.588  0.7065 -0.8097 -0.3853
 2205SOL     OW18247   3.157   3.958   6.996  0.0259 -0.1301  0.1589
 2205SOL    HW118248   3.142   4.051   7.010 -2.6746 -0.4114 -0.8464
 2205SOL    HW218249   3.089   3.927   7.055 -1.7854  1.1466 -1.2756
 2206SOL     OW18250   0.642   2.660   9.569 -0.4691 -0.5663 -0.3972
 2206SOL    HW118251   0.555   2.661   9.609 -0.1722 -0.2424  0.2554
 2206SOL    HW218252   0.635   2.677   9.475  1.0796  3.1478  0.1308
 2207SOL     OW18253   4.235   3.416  11.208 -0.2117  0.2415 -0.1335
 2207SOL    HW118254   4.303   3.397  11.144 -1.6672 -1.0079 -1.3067
 2207SOL    HW218255   4.284   3.394  11.288 -0.5873 -1.3749 -0.3389
 2208SOL     OW18256   1.298   4.632   5.355  0.2953 -0.4505  0.0404
 2208SOL    HW118257   1.302   4.584   5.439 -1.0677  0.3008  0.5306
 2208SOL    HW218258   1.380   4.619   5.307  1.0181 -0.6113  1.3149
 2209SOL     OW18259   1.871   1.006   7.901  0.0184 -0.0385  0.2557
 2209SOL    HW118260   1.911   0.922   7.877  0.6561  0.7182 -1.2871
 2209SOL    HW218261   1.944   1.064   7.880  0.4971 -0.8812 -0.3891
 2210SOL     OW18262   1.453   1.675   3.311 -0.2183  0.4543  0.2392
 2210SOL    HW118263   1.394   1.621   3.258  2.7784 -0.6155 -2.0309
 2210SOL    HW218264   1.422   1.644   3.396 -2.3026  0.3291 -0.5706
 2211SOL     OW18265   1.025   3.295   2.236 -0.7428  0.8500 -0.1562
 2211SOL    HW118266   1.006   3.271   2.145 -0.1191 -2.3478  0.5393
 2211SOL    HW218267   1.093   3.230   2.252 -0.7896  1.3284  1.9610
 2212SOL     OW18268   2.250   2.851   5.534 -1.2165 -0.2310  0.0471
 2212SOL    HW118269   2.223   2.932   5.490  0.8641  0.5337  0.1864
 2212SOL    HW218270   2.170   2.800   5.519 -0.6720 -0.6865 -1.3380
 2213SOL     OW18271   1.607   3.384   7.143  0.2957  0.6413  0.3253
 2213SOL    HW118272   1.610   3.371   7.238  2.2710  2.6471  0.5488
 2213SOL    HW218273   1.697   3.363   7.119 -1.2050 -2.5802 -2.4625
 2214SOL     OW18274   1.754   0.721   6.693  0.1496 -0.0009 -0.1314
 2214SOL    HW118275   1.709   0.698   6.612 -1.4261 -0.7916  0.9600
 2214SOL    HW218276   1.676   0.701   6.745  0.0696  0.5256 -0.0453
 2215SOL     OW18277   4.166   1.144   7.682  0.2776 -0.5434  0.0689
 2215SOL    HW118278   4.095   1.208   7.676 -0.8779 -1.7180  1.2658
 2215SOL    HW218279   4.155   1.111   7.594  1.8237  0.9265 -0.6803
 2216SOL     OW18280   1.970   2.178   8.000  0.1656 -0.1610  0.5515
 2216SOL    HW118281   2.033   2.217   8.060  0.5762  0.4953 -0.3263
 2216SOL    HW218282   1.998   2.087   8.008 -0.7602 -0.4840  0.1686
 2217SOL     OW18283   1.298   1.192   5.756  0.1613 -1.0558  0.2576
 2217SOL    HW118284   1.214   1.216   5.717  0.7300 -2.1747 -1.6212
 2217SOL    HW218285   1.283   1.098   5.749 -1.6147 -0.7254 -0.2011
 2218SOL     OW18286   2.889   4.221   0.099  0.8325 -0.1968  0.3569
 2218SOL    HW118287   2.981   4.197   0.109  1.2375  0.8584 -0.7821
 2218SOL    HW218288   2.891   4.281   0.174  1.7718 -0.2777  0.4070
 2219SOL     OW18289   0.885   1.293   5.930  0.2406 -0.1676  0.4738
 2219SOL    HW118290   0.959   1.355   5.933 -0.6495  0.8460  1.3771
 2219SOL    HW218291   0.849   1.302   6.018 -0.6871  1.7895 -0.1177
 2220SOL     OW18292   1.709   3.588   9.553  0.4912  0.3679  0.1964
 2220SOL    HW118293   1.658   3.526   9.502  0.9869 -0.4312  0.6707
 2220SOL    HW218294   1.641   3.648   9.585  0.3560 -0.2188  1.0258
 2221SOL     OW18295   2.373   4.691   8.446  0.9375  0.2734 -0.5312
 2221SOL    HW118296   2.339   0.042   8.429  0.7907  0.2531 -0.3474
 2221SOL    HW218297   2.379   4.696   8.542  0.8771 -2.2834 -0.3947
 2222SOL     OW18298   3.739   1.457  12.761  0.0090 -0.4383 -0.0197
 2222SOL    HW118299   3.720   1.363  12.756  1.1531 -0.7389  1.4812
 2222SOL    HW218300   3.714   1.483  12.850  0.3108 -1.1893  0.2854
 2223SOL     OW18301   0.339   0.198   1.858  0.2451  0.2689  0.1597
 2223SOL    HW118302   0.377   0.112   1.839 -0.5842 -0.6075  2.5883
 2223SOL    HW218303   0.250   0.166   1.873 -0.0504  0.2848 -1.5643
 2224SOL     OW18304   2.396   4.508  17.212 -0.0041 -0.9540  0.0610
 2224SOL    HW118305   2.459   4.482  17.144  1.3607 -0.2754  1.0668
 2224SOL    HW218306   2.356   4.425  17.238  0.4607 -1.8186 -1.9473
 2225SOL     OW18307   0.042   2.608   7.184  0.2979 -0.1059 -0.0126
 2225SOL    HW118308   0.056   2.581   7.093  0.9647 -2.0053  0.6397
 2225SOL    HW218309   0.078   2.696   7.177  0.8957 -0.2874  0.8592
 2226SOL     OW18310   1.205   1.697   5.765 -0.4850 -0.1955  0.1527
 2226SOL    HW118311   1.243   1.750   5.695 -1.5785 -0.4070 -0.6108
 2226SOL    HW218312   1.264   1.726   5.834 -0.2107 -1.6531  0.5285
 2227SOL     OW18313   3.975   3.006   6.190  0.3291  0.1024  0.2603
 2227SOL    HW118314   3.936   3.092   6.170  1.5481  0.2632 -1.4399
 2227SOL    HW218315   3.970   3.012   6.285  1.8900 -2.2670  0.4818
 2228SOL     OW18316   2.595   1.729   0.985 -0.1758  0.0172  0.2554
 2228SOL    HW118317   2.654   1.786   0.936 -1.4143  0.7048 -0.4293
 2228SOL    HW218318   2.548   1.791   1.040  0.3127  0.0729  0.6052
 2229SOL     OW18319   1.763   1.056   8.138  0.0781  0.1306 -0.5123
 2229SOL    HW118320   1.797   0.980   8.186  0.1025 -0.0661 -0.8442
 2229SOL    HW218321   1.792   1.035   8.050  2.1138 -1.1145  0.4586
 2230SOL     OW18322   3.654   2.155   5.210  0.0132  0.7585  0.0158
 2230SOL    HW118323   3.647   2.201   5.126 -0.9789  2.1798  0.8902
 2230SOL    HW218324   3.652   2.238   5.257 -3.1867  0.4565  0.3658
 2231SOL     OW18325   4.143   0.869   8.968  0.1440  0.0170  0.0685
 2231SOL    HW118326   4.094   0.951   8.966  1.1466  0.6329  0.7677
 2231SOL    HW218327   4.203   0.905   9.032 -1.6425 -0.2227  1.8714
 2232SOL     OW18328   2.249   1.963   7.618  0.4974  0.0292 -0.2233
 2232SOL    HW118329   2.198   1.883   7.630  0.5980  0.0501  0.3428
 2232SOL    HW218330   2.192   2.025   7.663 -1.0957 -0.6075 -1.3711
 2233SOL     OW18331   2.333   2.293   5.982  0.8270  0.2470  0.0424
 2233SOL    HW118332   2.394   2.315   6.053 -0.7673 -2.2592  2.1595
 2233SOL    HW218333   2.334   2.377   5.936  2.5678  0.0248 -0.3467
 2234SOL     OW18334   4.216   2.203   1.665  0.2766 -0.3030  0.2008
 2234SOL    HW118335   4.309   2.182   1.677  0.1367 -0.1366  1.5833
 2234SOL    HW218336   4.204   2.180   1.573  3.3348 -0.6961 -0.1072
 2235SOL     OW18337   1.360   1.461   9.231 -0.5283  0.4875  0.0769
 2235SOL    HW118338   1.283   1.516   9.241 -1.1784 -0.0560 -1.9393
 2235SOL    HW218339   1.313   1.389   9.190 -0.7360  1.0503 -0.6665
 2236SOL     OW18340   3.726   2.851  17.518  0.5346  0.0141 -0.1800
 2236SOL    HW118341   3.720   2.777  17.579  0.3479 -0.4001 -0.7073
 2236SOL    HW218342   3.689   2.815  17.437  0.4710 -1.2670  0.4074
 2237SOL     OW18343   3.933   4.252   1.844  0.1829 -0.1728 -0.4640
 2237SOL    HW118344   4.007   4.265   1.785  0.5692 -2.9025 -0.6018
 2237SOL    HW218345   3.987   4.205   1.907 -0.4176 -2.4698 -1.6480
 2238SOL     OW18346   1.066   0.544  15.969  0.0485  0.0652  0.2254
 2238SOL    HW118347   1.066   0.609  15.899  0.1131 -0.4014 -0.2023
 2238SOL    HW218348   1.155   0.508  15.969  0.8958  2.1358  2.1880
 2239SOL     OW18349   4.326   2.955   0.581  0.1235 -0.1778  0.3033
 2239SOL    HW118350   4.286   2.948   0.668  0.1489 -0.8139  0.2653
 2239SOL    HW218351   4.328   2.861   0.562 -0.0054  0.2618 -1.8840
 2240SOL     OW18352   3.235   3.477   1.588  0.7158  0.6310 -0.0182
 2240SOL    HW118353   3.319   3.442   1.617 -0.2587 -0.4419  1.5168
 2240SOL    HW218354   3.251   3.523   1.505  0.6401  1.8969  0.6737
 2241SOL     OW18355   2.774   3.008   5.707 -0.4905  0.5408 -0.2379
 2241SOL    HW118356   2.739   3.098   5.706 -1.2710  0.2166 -2.1319
 2241SOL    HW218357   2.827   3.022   5.629  1.1262  1.1187  0.9575
 2242SOL     OW18358   4.707   3.737   8.761  0.4554  0.1325 -0.3400
 2242SOL    HW118359   4.620   3.710   8.731  0.3508 -2.5435  2.3350
 2242SOL    HW218360   0.027   3.700   8.694 -0.8703 -2.0251 -0.3008
 2243SOL     OW18361   3.371   2.803   2.169  0.2619 -0.3859  0.5053
 2243SOL    HW118362   3.334   2.779   2.084 -0.1265 -0.0395  0.5785
 2243SOL    HW218363   3.410   2.717   2.187 -0.7352 -0.7467  0.9349
 2244SOL     OW18364   1.166   0.693   5.954  0.7779  0.2964 -0.3428
 2244SOL    HW118365   1.191   0.639   6.029 -0.2306  0.1216 -0.1378
 2244SOL    HW218366   1.111   0.640   5.896  0.6984 -1.5691  1.4612
 2245SOL     OW18367   0.938   3.061   6.485  0.0989  0.1544 -0.3814
 2245SOL    HW118368   1.002   3.054   6.556  0.0382 -0.0529 -0.3473
 2245SOL    HW218369   0.987   3.060   6.403  0.7833  2.8635  0.0098
 2246SOL     OW18370   3.847   0.130   6.459 -0.2441 -0.0682 -0.4634
 2246SOL    HW118371   3.849   0.034   6.461 -1.5050 -0.0807  0.9176
 2246SOL    HW218372   3.799   0.151   6.539 -0.3156  0.5309 -0.6655
 2247SOL     OW18373   3.093   1.075   3.440  0.1605 -0.7744  0.0305
 2247SOL    HW118374   3.091   1.034   3.354  1.8710  2.1344 -1.3782
 2247SOL    HW218375   3.039   1.011   3.487 -0.7105  1.0106  1.4689
 2248SOL     OW18376   2.244   0.980   8.763  0.5168  0.2340  0.4881
 2248SOL    HW118377   2.229   1.025   8.846 -0.4327  3.8765 -1.6589
 2248SOL    HW218378   2.185   0.906   8.778  0.5910  0.6453  2.7911
 2249SOL     OW18379   2.442   3.274   6.651  0.1292 -0.0519  0.0908
 2249SOL    HW118380   2.466   3.276   6.558 -1.0798 -0.7149 -0.2226
 2249SOL    HW218381   2.348   3.289   6.641  0.2505  0.1141 -0.7802
 2250SOL     OW18382   1.956   3.632  14.704 -0.1157 -0.0834  0.0137
 2250SOL    HW118383   1.883   3.589  14.659 -0.0723  0.4603 -0.5703
 2250SOL    HW218384   1.917   3.673  14.780 -0.2092  0.6662 -0.4431
 2251SOL     OW18385   4.686   0.919   8.889 -0.3581  0.1347  0.4912
 2251SOL    HW118386   4.652   0.884   8.806 -1.2772 -1.4189  1.5236
 2251SOL    HW218387   4.668   1.012   8.879  1.4852  0.4622  0.1869
 2252SOL     OW18388   1.175   0.769  12.681 -0.0379  0.2926 -0.5373
 2252SOL    HW118389   1.174   0.757  12.776  1.2621  0.5799 -0.4818
 2252SOL    HW218390   1.197   0.679  12.656  0.5809  0.3797 -0.2967
 2253SOL     OW18391   1.561   3.908   6.318  0.0909  0.4064 -0.3483
 2253SOL    HW118392   1.524   3.939   6.235  3.6856  2.9811 -0.9985
 2253SOL    HW218393   1.482   3.862   6.344 -0.5945  2.1407  0.6296
 2254SOL     OW18394   1.966   2.083  10.471 -0.3521 -0.3859 -0.1708
 2254SOL    HW118395   1.912   2.006  10.455 -0.5824 -0.5522  1.3928
 2254SOL    HW218396   2.047   2.064  10.424 -0.1587 -1.7308  0.7085
 2255SOL     OW18397   4.728   0.507   7.440  0.5570  0.4420 -0.1011
 2255SOL    HW118398   0.002   0.577   7.503  1.7255  0.2040 -0.0501
 2255SOL    HW218399   0.068   0.453   7.454  1.2294  1.2683 -0.6471
 2256SOL     OW18400   3.936   3.497   8.526 -0.0619  0.2846 -0.9536
 2256SOL    HW118401   3.843   3.515   8.513  0.2053  0.4544 -2.5547
 2256SOL    HW218402   3.970   3.484   8.438 -0.4195  0.6979 -1.1514
 2257SOL     OW18403   2.028   0.009  12.605 -0.0759 -0.1499 -0.6550
 2257SOL    HW118404   2.085   4.672  12.592  2.0198  1.3542 -0.0474
 2257SOL    HW218405   1.981   0.015  12.522  0.6340 -0.6567 -1.0877
 2258SOL     OW18406   3.699   4.499   5.812 -0.4063 -0.3679 -0.0300
 2258SOL    HW118407   3.681   4.425   5.870 -1.2159 -1.3818 -1.5631
 2258SOL    HW218408   3.781   4.531   5.849 -0.0098 -0.4732 -0.8267
 2259SOL     OW18409   3.362   2.179   1.470  0.1315 -0.0477 -0.1712
 2259SOL    HW118410   3.435   2.195   1.410 -1.5391  1.1735 -1.8977
 2259SOL    HW218411   3.289   2.166   1.410  0.4965  1.8392 -1.0175
 2260SOL     OW18412   3.237   2.726   2.629 -0.5677 -0.3263  0.2767
 2260SOL    HW118413   3.212   2.639   2.662  0.9213 -0.6521  0.5535
 2260SOL    HW218414   3.215   2.712   2.537 -0.0574 -0.0321  0.1116
 2261SOL     OW18415   3.925   1.200   8.455 -0.2049 -0.0897 -0.9240
 2261SOL    HW118416   3.993   1.136   8.473  0.6794  0.5487 -2.0042
 2261SOL    HW218417   3.966   1.265   8.399  1.8452 -2.5763 -2.2584
 2262SOL     OW18418   3.937   3.694   3.401 -0.0035 -0.4596  0.0617
 2262SOL    HW118419   3.978   3.689   3.315 -0.5497 -0.6998 -0.1831
 2262SOL    HW218420   3.869   3.629   3.382 -0.1636 -0.6302  1.2100
 2263SOL     OW18421   0.941   4.436   1.384 -0.1902  0.5425  0.0928
 2263SOL    HW118422   0.971   4.350   1.413  0.4197  0.0541 -1.9993
 2263SOL    HW218423   0.912   4.415   1.295 -1.4563  2.3156  0.0833
 2264SOL     OW18424   4.107   1.416   3.511  0.4006  0.0392 -0.1625
 2264SOL    HW118425   4.141   1.484   3.570  0.4480 -0.1610  0.0442
 2264SOL    HW218426   4.148   1.333   3.537  4.1276  0.8870 -3.3325
 2265SOL     OW18427   0.668   4.035   7.009 -0.3419 -0.3106 -1.1614
 2265SOL    HW118428   0.640   3.952   7.048  1.4825 -0.1262  0.5482
 2265SOL    HW218429   0.652   4.085   7.090  1.2196 -1.5042 -0.1210
 2266SOL     OW18430   1.846   3.341   7.034 -0.0562  0.0975 -0.4345
 2266SOL    HW118431   1.811   3.426   7.007 -1.2772  0.0795  1.0548
 2266SOL    HW218432   1.940   3.350   7.024 -0.1435  0.8989 -0.4673
 2267SOL     OW18433   1.270   1.222   6.075 -0.3065 -0.0024 -0.4738
 2267SOL    HW118434   1.310   1.216   5.988 -1.8462  2.4056 -1.3689
 2267SOL    HW218435   1.286   1.316   6.087  0.6281 -0.4611  1.8199
 2268SOL     OW18436   1.784   0.619   9.235  0.3592 -0.0518 -0.0895
 2268SOL    HW118437   1.824   0.577   9.159  1.5936 -0.8136  0.9945
 2268SOL    HW218438   1.858   0.644   9.290 -1.6347 -0.3121  2.7244
 2269SOL     OW18439   0.692   0.374   7.438  0.1064  0.7246  0.5222
 2269SOL    HW118440   0.773   0.402   7.480  0.8043  0.7052 -0.8078
 2269SOL    HW218441   0.697   0.279   7.452  1.7456  0.9442  1.4018
 2270SOL     OW18442   2.623   1.389   6.980 -0.1132  0.3234 -0.3001
 2270SOL    HW118443   2.587   1.337   7.052  1.4194 -0.3980 -0.0659
 2270SOL    HW218444   2.551   1.446   6.951 -1.7921 -0.2385  2.7773
 2271SOL     OW18445   4.321   3.709  10.550  0.9052 -0.4917 -0.1644
 2271SOL    HW118446   4.375   3.774  10.596 -0.3382  1.4794 -1.5199
 2271SOL    HW218447   4.262   3.682  10.621 -0.5231  0.0239 -1.1733
 2272SOL     OW18448   1.507   4.452   4.605  0.1519  0.1086  0.0068
 2272SOL    HW118449   1.506   4.372   4.552 -0.5116 -0.3367  0.6899
 2272SOL    HW218450   1.511   4.517   4.535 -0.0704  1.4366  1.2324
 2273SOL     OW18451   4.381   2.267  14.196  0.1433  0.1916  0.0067
 2273SOL    HW118452   4.388   2.313  14.280 -0.0281 -0.7757  0.5457
 2273SOL    HW218453   4.309   2.309  14.149 -1.5705 -1.4104  1.1917
 2274SOL     OW18454   1.795   0.780   1.434  0.1103 -0.3579  0.2446
 2274SOL    HW118455   1.725   0.793   1.498 -0.4493 -2.3574  0.0561
 2274SOL    HW218456   1.869   0.779   1.495  0.6668  1.4348 -0.4316
 2275SOL     OW18457   1.136   2.315   2.789  0.6161  0.8413 -0.5481
 2275SOL    HW118458   1.116   2.245   2.851 -0.9929  2.9046  1.2578
 2275SOL    HW218459   1.121   2.267   2.708 -0.8880  0.7660 -0.2224
 2276SOL     OW18460   4.551   0.409   0.202  0.4327 -0.1491 -0.1838
 2276SOL    HW118461   4.548   0.503   0.186 -0.1752 -0.4074 -1.6136
 2276SOL    HW218462   4.640   0.390   0.171  1.1741 -1.3667  2.7348
 2277SOL     OW18463   2.789   0.129   4.307  0.3655 -0.4044  0.2039
 2277SOL    HW118464   2.714   0.183   4.283 -0.3657 -2.0375 -1.1700
 2277SOL    HW218465   2.781   0.048   4.257  0.7897 -0.0825 -0.3932
 2278SOL     OW18466   2.621   3.612   6.333  0.5303 -0.5579 -0.3566
 2278SOL    HW118467   2.687   3.665   6.379  1.7905 -0.5989 -2.0905
 2278SOL    HW218468   2.673   3.533   6.322 -0.9635 -1.4872 -0.6839
 2279SOL     OW18469   2.764   2.815   9.309  0.3007 -0.0651 -0.1967
 2279SOL    HW118470   2.836   2.764   9.346 -1.8894 -3.7335 -1.0070
 2279SOL    HW218471   2.798   2.904   9.301 -1.2499  0.3463 -2.2618
 2280SOL     OW18472   4.163   3.876   5.885  0.6101  0.3511  0.4473
 2280SOL    HW118473   4.231   3.856   5.949  0.9350  4.9073  1.5843
 2280SOL    HW218474   4.083   3.873   5.938  0.4556  2.1309  0.3467
 2281SOL     OW18475   1.109   3.955   4.424 -0.5069 -0.5450  0.0890
 2281SOL    HW118476   1.069   3.985   4.506 -0.4724  0.6329 -0.3323
 2281SOL    HW218477   1.185   4.012   4.420 -2.0383  1.4831 -0.0465
 2282SOL     OW18478   0.711   1.623   2.402 -0.3432 -0.2428 -0.0535
 2282SOL    HW118479   0.659   1.552   2.365  1.3790 -2.2803  1.4564
 2282SOL    HW218480   0.715   1.694   2.338  0.7751  1.2257  1.6125
 2283SOL     OW18481   2.982   0.629  15.710 -0.0106  0.0709  0.3659
 2283SOL    HW118482   3.054   0.566  15.715  0.7369  0.8840 -0.2277
 2283SOL    HW218483   3.018   0.699  15.656  2.0454 -0.1928  1.4142
 2284SOL     OW18484   2.166   0.683   6.592  0.7731 -0.6088  0.3605
 2284SOL    HW118485   2.121   0.655   6.671  2.2998  1.3931  1.9357
 2284SOL    HW218486   2.133   0.773   6.584  0.2734 -0.8592 -0.4221
 2285SOL     OW18487   2.107   0.308   3.251 -0.4148  0.3152 -0.2597
 2285SOL    HW118488   2.111   0.221   3.291 -3.0688  0.4970  0.3836
 2285SOL    HW218489   2.012   0.316   3.242 -0.5768  0.0253  1.1635
 2286SOL     OW18490   1.098   2.316  17.072  0.4904 -0.1739 -0.0669
 2286SOL    HW118491   1.193   2.314  17.081  0.0094  1.6201  5.3870
 2286SOL    HW218492   1.083   2.271  16.989  2.9697  0.2318 -0.7483
 2287SOL     OW18493   0.211   4.671   5.065 -0.2328 -0.8715  0.0596
 2287SOL    HW118494   0.130   4.718   5.050  0.0010 -0.6943 -0.6159
 2287SOL    HW218495   0.204   4.642   5.156  2.0175  0.4924  0.6832
 2288SOL     OW18496   3.778   2.559   1.592 -0.4205  0.1271  0.3190
 2288SOL    HW118497   3.765   2.513   1.509 -0.8044 -1.9212  1.5174
 2288SOL    HW218498   3.691   2.556   1.630 -0.6135  1.3399 -0.0187
 2289SOL     OW18499   1.857   3.728  10.354 -0.0988 -1.1319 -0.2294
 2289SOL    HW118500   1.822   3.689  10.434  0.7678  1.1326  1.2680
 2289SOL    HW218501   1.786   3.712  10.291  0.8847  1.6997 -2.0826
 2290SOL     OW18502   0.838   2.066  14.682  0.4445 -0.0071  0.3267
 2290SOL    HW118503   0.786   2.003  14.632 -0.6261  1.8182 -0.8761
 2290SOL    HW218504   0.891   2.108  14.614  1.4704  0.3675  1.3580
 2291SOL     OW18505   4.301   2.140  11.670 -0.5313  0.1860 -0.6229
 2291SOL    HW118506   4.279   2.099  11.586 -0.1878  2.0349 -1.6169
 2291SOL    HW218507   4.389   2.171  11.651 -0.5263 -0.2867 -1.3588
 2292SOL     OW18508   3.501   1.701   6.732 -0.1762  0.7193  0.6585
 2292SOL    HW118509   3.425   1.675   6.679 -0.2213  1.5476  0.3194
 2292SOL    HW218510   3.561   1.634   6.700 -0.7466  0.2201  0.6241
 2293SOL     OW18511   1.206   1.379   4.975 -0.4442 -0.2960  0.0108
 2293SOL    HW118512   1.244   1.445   4.918  2.5113 -1.5870  0.5084
 2293SOL    HW218513   1.215   1.432   5.054 -0.7577  0.2333 -0.3105
 2294SOL     OW18514   0.455   1.889   7.773  0.3797 -0.2061  0.4115
 2294SOL    HW118515   0.402   1.813   7.750  1.1277 -0.2574 -1.1343
 2294SOL    HW218516   0.395   1.960   7.794  1.8369  1.2194 -0.2613
 2295SOL     OW18517   3.293   4.696   8.504  0.0306 -0.1030 -0.0420
 2295SOL    HW118518   3.223   0.013   8.468 -0.3375 -0.7382 -0.2871
 2295SOL    HW218519   3.254   4.682   8.591  2.4505 -2.7733  0.5974
 2296SOL     OW18520   3.471   3.305   1.669  0.0442  0.0130 -0.3864
 2296SOL    HW118521   3.537   3.237   1.681  0.2444  0.5641  1.7068
 2296SOL    HW218522   3.481   3.347   1.755  1.0555 -1.7113  0.3517
 2297SOL     OW18523   0.162   4.523  15.229 -0.8541 -0.0093 -0.3751
 2297SOL    HW118524   0.111   4.579  15.170 -0.4173  2.6061  1.7274
 2297SOL    HW218525   0.172   4.576  15.308  0.0441 -0.8182  0.0565
 2298SOL     OW18526   3.801   1.960   5.815 -0.0035 -0.0244  0.5867
 2298SOL    HW118527   3.854   1.899   5.763  0.9034  1.7106 -0.5265
 2298SOL    HW218528   3.744   1.993   5.745 -0.5756 -0.7413  0.7152
 2299SOL     OW18529   3.811   1.198   4.879  0.1282 -0.6165 -0.6400
 2299SOL    HW118530   3.766   1.281   4.894  0.8969 -0.4122  0.4757
 2299SOL    HW218531   3.745   1.136   4.910  1.7730 -0.4937  3.0611
 2300SOL     OW18532   2.222   0.801   6.347 -0.1137 -0.3833 -0.4745
 2300SOL    HW118533   2.219   0.737   6.417 -3.2608 -0.9732 -1.1936
 2300SOL    HW218534   2.296   0.857   6.372  0.0945 -0.9151  0.1060
 2301SOL     OW18535   3.414   4.496   2.057  0.0677  0.2250  0.3112
 2301SOL    HW118536   3.445   4.405   2.062 -0.3067  0.1378  0.9719
 2301SOL    HW218537   3.338   4.469   2.006 -1.8547  2.3635  2.0467
 2302SOL     OW18538   4.067   3.292   8.229 -0.6912 -0.4541  0.5769
 2302SOL    HW118539   4.033   3.273   8.142 -0.0917 -0.6239  0.3750
 2302SOL    HW218540   4.088   3.201   8.251 -1.6013 -1.3986 -2.5264
 2303SOL     OW18541   4.095   3.708   0.602 -0.5848  0.5756 -0.1414
 2303SOL    HW118542   4.091   3.709   0.698  1.7501 -0.8977 -0.0345
 2303SOL    HW218543   4.038   3.781   0.581  0.0978  0.7445 -1.3772
 2304SOL     OW18544   0.531   3.483   8.577  0.7609 -0.4624  0.4610
 2304SOL    HW118545   0.519   3.533   8.657  0.0158  1.6810 -0.9935
 2304SOL    HW218546   0.537   3.394   8.613 -0.9377  0.2544  2.5066
 2305SOL     OW18547   1.089   1.475   5.906 -0.0544 -0.2553  0.2998
 2305SOL    HW118548   1.143   1.534   5.854 -0.4632 -0.4078 -0.2905
 2305SOL    HW218549   1.135   1.482   5.990 -0.0787 -0.6002  0.3431
 2306SOL     OW18550   4.681   1.178  14.254 -0.6637 -0.5802  0.1389
 2306SOL    HW118551   4.636   1.094  14.263 -0.0347 -0.8860  0.4478
 2306SOL    HW218552   4.717   1.149  14.171  1.9301  0.6410  0.8229
 2307SOL     OW18553   0.320   4.328   2.697 -0.2158 -1.0096  0.6105
 2307SOL    HW118554   0.279   4.400   2.745 -1.7489 -0.8802 -0.8489
 2307SOL    HW218555   0.361   4.272   2.762  2.1054 -1.3957 -1.1953
 2308SOL     OW18556   0.606   1.618   3.471  0.0701  0.0400 -0.3195
 2308SOL    HW118557   0.544   1.636   3.401 -0.7283  0.4715  0.4920
 2308SOL    HW218558   0.622   1.701   3.516 -2.4316  0.4185 -0.1655
 2309SOL     OW18559   4.101   1.727  12.423 -0.4377  0.0766 -0.0185
 2309SOL    HW118560   4.188   1.763  12.438 -0.8785  0.7455  1.0299
 2309SOL    HW218561   4.127   1.650  12.375 -1.1971 -0.8836  1.1039
 2310SOL     OW18562   3.414   0.752   3.359  0.0163 -0.9145 -0.3848
 2310SOL    HW118563   3.432   0.843   3.332  1.0947 -0.7723  0.8317
 2310SOL    HW218564   3.377   0.709   3.282  0.0621 -0.4476 -0.6706
 2311SOL     OW18565   0.953   0.064  12.398  0.4656  0.2190 -0.1370
 2311SOL    HW118566   0.973   0.004  12.470 -4.4759 -0.4956  0.6234
 2311SOL    HW218567   0.993   0.009  12.331  2.9511  0.8328  0.8704
 2312SOL     OW18568   4.719   1.519  17.352 -0.0744 -0.4754 -0.3591
 2312SOL    HW118569   0.065   1.558  17.380 -0.4468  0.8858 -1.1096
 2312SOL    HW218570   4.736   1.510  17.258 -1.6438  0.4385 -0.7271
 2313SOL     OW18571   4.015   1.484   3.245  0.6025  0.0471  0.2597
 2313SOL    HW118572   4.055   1.498   3.331  1.8156 -0.9771 -0.1291
 2313SOL    HW218573   4.086   1.437   3.201 -1.3265 -3.2755  0.7001
 2314SOL     OW18574   1.098   0.903  10.496  0.2808  0.5360 -0.1629
 2314SOL    HW118575   1.057   0.848  10.429  2.2627 -2.2758  0.9650
 2314SOL    HW218576   1.049   0.883  10.575  0.5736  0.1419 -0.0821
 2315SOL     OW18577   3.669   2.362   2.841 -0.0325  0.6213  0.0845
 2315SOL    HW118578   3.632   2.311   2.768  2.1980  0.0209 -0.6251
 2315SOL    HW218579   3.709   2.284   2.880  0.4315  0.5651 -0.4968
 2316SOL     OW18580   3.929   2.981   3.681  0.3463  0.4225  0.4777
 2316SOL    HW118581   3.963   3.070   3.677 -0.6860  0.7275 -1.3061
 2316SOL    HW218582   3.861   2.996   3.615  0.9107  1.4866  0.1449
 2317SOL     OW18583   1.598   4.118   2.921 -0.3359 -0.2912  0.1555
 2317SOL    HW118584   1.636   4.126   2.833 -3.0040 -0.8018 -1.0606
 2317SOL    HW218585   1.540   4.043   2.913 -0.9522  0.3084 -1.0170
 2318SOL     OW18586   2.726   3.776   7.040  0.1384 -0.1426  0.0794
 2318SOL    HW118587   2.765   3.690   7.061 -0.3661 -0.4918 -0.4194
 2318SOL    HW218588   2.801   3.832   7.020 -0.2132  0.3369  0.1185
 2319SOL     OW18589   2.560   1.240   2.864  0.1442  0.2824  0.7079
 2319SOL    HW118590   2.601   1.185   2.797  0.7582  2.3076 -0.6074
 2319SOL    HW218591   2.635   1.299   2.875  1.1715 -1.0193  0.7059
 2320SOL     OW18592   4.093   0.151  16.947 -0.0694  0.0465 -0.3708
 2320SOL    HW118593   4.070   0.116  16.862 -1.7069  0.0281  0.0840
 2320SOL    HW218594   4.160   0.218  16.930 -0.8358 -0.0406 -3.5369
 2321SOL     OW18595   2.985   0.694   2.121  0.4101 -1.1122 -0.2081
 2321SOL    HW118596   2.963   0.607   2.088  0.8267 -1.9752  1.8304
 2321SOL    HW218597   2.899   0.736   2.115  1.4807  0.9439 -1.2358
 2322SOL     OW18598   2.818   0.748  15.891 -0.2522 -0.6762  0.1543
 2322SOL    HW118599   2.749   0.801  15.850 -0.3808 -1.2159 -0.3378
 2322SOL    HW218600   2.852   0.695  15.819 -1.3587 -2.2177  0.7496
 2323SOL     OW18601   4.402   2.816   5.054  0.2768 -0.3014 -0.5223
 2323SOL    HW118602   4.491   2.828   5.022  0.3867 -2.8589 -1.1512
 2323SOL    HW218603   4.361   2.902   5.041 -1.5867 -0.8301  1.9702
 2324SOL     OW18604   2.594   2.842   2.542 -0.0362  0.4267  0.1699
 2324SOL    HW118605   2.674   2.892   2.555  0.7361 -0.2627 -1.8774
 2324SOL    HW218606   2.599   2.757   2.585  1.7047 -0.1802 -1.2644
 2325SOL     OW18607   3.728   0.425   9.724  0.9956 -0.2109  0.0847
 2325SOL    HW118608   3.767   0.437   9.811  2.5849  0.7885 -0.7670
 2325SOL    HW218609   3.797   0.392   9.667  1.2848  2.0591 -0.8979
 2326SOL     OW18610   3.191   4.689   4.309  0.2114  0.5544 -0.0253
 2326SOL    HW118611   3.100   4.672   4.287  0.4649 -1.1184  0.2501
 2326SOL    HW218612   3.209   0.005   4.232 -1.8502 -0.0751 -0.9404
 2327SOL     OW18613   1.152   3.176   7.000  0.1249  0.1555  0.4202
 2327SOL    HW118614   1.218   3.204   7.064  1.0771  2.3217 -1.5126
 2327SOL    HW218615   1.192   3.095   6.970 -0.2772  0.3160 -0.5459
 2328SOL     OW18616   3.389   2.228  16.265  0.1427  0.1302  0.3388
 2328SOL    HW118617   3.457   2.171  16.300 -1.7933 -2.3306  0.0454
 2328SOL    HW218618   3.326   2.227  16.337 -0.6454  0.2776 -0.3506
 2329SOL     OW18619   0.572   4.037   7.493 -0.5729  0.3742  0.3985
 2329SOL    HW118620   0.649   3.983   7.511  1.2943  3.1391  0.5798
 2329SOL    HW218621   0.518   3.960   7.510 -0.3518 -0.3618 -2.3182
 2330SOL     OW18622   2.421   0.138   3.687 -0.0784  0.3653  0.7867
 2330SOL    HW118623   2.449   0.227   3.665  2.4909 -0.4069  0.9121
 2330SOL    HW218624   2.328   0.142   3.669  0.0898 -0.6997 -0.3604
 2331SOL     OW18625   1.838   2.454   1.074 -0.3688  0.0605  0.1937
 2331SOL    HW118626   1.924   2.440   1.113  0.2899  1.3063 -0.8191
 2331SOL    HW218627   1.844   2.546   1.049  1.3075 -0.6449 -2.0621
 2332SOL     OW18628   1.627   0.909   4.218 -0.5089  0.1740  0.2536
 2332SOL    HW118629   1.678   0.949   4.148  1.8206 -0.8325  1.3631
 2332SOL    HW218630   1.584   0.836   4.173  1.4048 -0.2867 -0.8240
 2333SOL     OW18631   2.241   2.605   1.300 -0.0043  0.0961 -0.3056
 2333SOL    HW118632   2.194   2.663   1.240  2.1989  1.9339 -0.2604
 2333SOL    HW218633   2.332   2.635   1.304  1.5560 -4.4043 -2.3474
 2334SOL     OW18634   0.032   0.331   7.977  0.5507 -0.0759 -0.4033
 2334SOL    HW118635   0.085   0.409   7.958  0.9336  0.4877  3.0790
 2334SOL    HW218636   4.733   0.329   7.888 -0.8978  1.5295  0.1632
 2335SOL     OW18637   2.938   4.524  11.469  0.6792  0.1001 -0.3512
 2335SOL    HW118638   2.953   4.481  11.384  1.9945 -1.4387  0.6634
 2335SOL    HW218639   2.843   4.529  11.463  0.5845  0.1740  1.2723
 2336SOL     OW18640   2.434   2.690   3.621  0.4031 -0.3986  0.3073
 2336SOL    HW118641   2.443   2.777   3.658 -2.9844 -0.1866  0.6434
 2336SOL    HW218642   2.426   2.635   3.699 -0.0433 -0.7168  0.0452
 2337SOL     OW18643   4.420   3.477   5.477 -0.0876 -0.2031  0.0531
 2337SOL    HW118644   4.496   3.429   5.443  0.8077  1.6699 -0.6459
 2337SOL    HW218645   4.359   3.406   5.497 -2.0431  0.9512 -1.7976
 2338SOL     OW18646   2.801   4.325   8.177  0.0279  0.7455 -0.0326
 2338SOL    HW118647   2.751   4.334   8.259 -1.1170 -0.2768 -0.6072
 2338SOL    HW218648   2.765   4.241   8.148  1.0413  0.7974 -1.4183
 2339SOL     OW18649   4.324   3.807   9.883 -0.2770  0.2610 -0.3315
 2339SOL    HW118650   4.301   3.883   9.829  0.2924  2.0290  1.9493
 2339SOL    HW218651   4.321   3.744   9.811  0.8548  0.8031 -0.8579
 2340SOL     OW18652   3.521   0.432   6.875 -0.0853 -0.1247  0.7428
 2340SOL    HW118653   3.478   0.364   6.823  0.5537 -0.5991  0.8309
 2340SOL    HW218654   3.475   0.505   6.834 -0.3762 -0.9483 -0.4169
 2341SOL     OW18655   4.245   3.953  11.690 -0.0134 -0.4755  0.0427
 2341SOL    HW118656   4.159   3.967  11.651 -0.2949 -0.7337  0.5820
 2341SOL    HW218657   4.303   3.931  11.616 -0.5436 -1.1488 -0.1659
 2342SOL     OW18658   4.388   2.979   7.127 -0.6217  0.3391  0.1250
 2342SOL    HW118659   4.387   2.952   7.219  0.2758  3.0283  0.9177
 2342SOL    HW218660   4.410   3.072   7.134  2.2700 -0.2944 -0.4837
 2343SOL     OW18661   0.751   2.857   4.446  0.4934 -0.5536  0.9218
 2343SOL    HW118662   0.701   2.917   4.501  0.4433 -1.9217  2.4037
 2343SOL    HW218663   0.824   2.839   4.506  0.6916  1.0845  1.1584
 2344SOL     OW18664   2.238   2.137   9.078  0.1801  0.2691  0.0399
 2344SOL    HW118665   2.238   2.192   9.157 -2.0416  0.5095 -0.1169
 2344SOL    HW218666   2.147   2.139   9.048 -0.3423 -1.2878  1.4760
 2345SOL     OW18667   0.211   2.189   5.386  0.5232 -0.0777  0.1666
 2345SOL    HW118668   0.302   2.195   5.356  0.0436  3.8304 -0.5115
 2345SOL    HW218669   0.181   2.270   5.347 -0.0644  0.0135  0.8037
 2346SOL     OW18670   4.469   3.829   5.987  0.0006  1.0763 -0.4394
 2346SOL    HW118671   4.523   3.765   6.035  0.5459  1.9382  0.0908
 2346SOL    HW218672   4.489   3.802   5.898 -0.7933  0.4013 -0.4177
 2347SOL     OW18673   2.202   0.772   3.948 -0.1928  0.1406 -0.0035
 2347SOL    HW118674   2.158   0.801   4.028 -1.8594 -2.9890  0.1880
 2347SOL    HW218675   2.289   0.789   3.983 -0.7277 -1.7539  2.2348
 2348SOL     OW18676   4.637   1.361   8.647 -0.1573 -0.0955 -0.4375
 2348SOL    HW118677   4.726   1.392   8.629  0.2584 -1.2846 -0.4628
 2348SOL    HW218678   4.631   1.286   8.588 -0.6868 -1.2982  1.1422
 2349SOL     OW18679   3.925   3.274   5.493  0.1838 -0.5520 -0.0704
 2349SOL    HW118680   3.867   3.231   5.556 -1.6846 -0.0531 -1.4486
 2349SOL    HW218681   3.916   3.217   5.416  0.5217  0.9905 -1.2639
 2350SOL     OW18682   4.607   2.608   6.636  0.0824  0.2118  0.0207
 2350SOL    HW118683   4.652   2.675   6.584  0.6805 -0.1976  0.0093
 2350SOL    HW218684   4.569   2.660   6.706 -1.5535 -0.0767 -0.6504
 2351SOL     OW18685   0.982   0.018   4.272 -0.1670 -0.4362  0.0300
 2351SOL    HW118686   0.985   4.689   4.340 -0.5241  1.1950  1.6537
 2351SOL    HW218687   1.002   4.697   4.199 -3.0985  0.6257 -1.6359
 2352SOL     OW18688   1.189   1.189   3.968 -0.3724 -0.2085 -0.0885
 2352SOL    HW118689   1.195   1.220   4.058  1.1085 -1.9430  0.4140
 2352SOL    HW218690   1.152   1.265   3.924 -0.0538 -0.7453 -1.2953
 2353SOL     OW18691   4.458   4.157   2.030 -0.3421  0.4533 -0.4794
 2353SOL    HW118692   4.458   4.245   1.993 -0.0527  1.0524  0.9297
 2353SOL    HW218693   4.547   4.135   2.003 -0.3567 -1.9846  1.4545
 2354SOL     OW18694   2.296   3.756   7.146 -0.0488  0.2633  0.6893
 2354SOL    HW118695   2.290   3.833   7.202  0.3969 -0.8554  2.2910
 2354SOL    HW218696   2.341   3.702   7.212  0.5476  0.6779  0.6261
 2355SOL     OW18697   1.033   2.883  13.465 -0.1153 -0.0812  0.1899
 2355SOL    HW118698   0.967   2.814  13.459  1.0655 -1.0388 -1.7357
 2355SOL    HW218699   0.988   2.943  13.523 -3.3931 -0.3530 -2.0854
 2356SOL     OW18700   0.126   4.296   4.354  0.1994  0.6240  0.3004
 2356SOL    HW118701   0.057   4.319   4.416 -1.2552 -1.0075 -0.6846
 2356SOL    HW218702   0.084   4.328   4.274  0.4586  0.2780  0.0234
 2357SOL     OW18703   1.408   1.309   5.232 -0.7641 -0.1639  0.1680
 2357SOL    HW118704   1.480   1.357   5.275  0.4812 -2.9430  1.1879
 2357SOL    HW218705   1.355   1.381   5.198 -0.4780 -0.2495 -0.4505
 2358SOL     OW18706   3.885   3.696  17.561  0.3180  0.1995 -0.5079
 2358SOL    HW118707   3.951   3.633  17.531  2.1693  1.6719  0.4785
 2358SOL    HW218708   3.905   3.763  17.497  1.2821  0.2265 -0.1791
 2359SOL     OW18709   0.816   1.066   5.467 -0.2168 -0.1661  0.5309
 2359SOL    HW118710   0.900   1.087   5.507  0.4102 -1.0369 -0.3325
 2359SOL    HW218711   0.815   1.136   5.402 -2.4536 -0.5305  0.1543
 2360SOL     OW18712   0.621   2.053  15.032 -0.0384 -0.4457 -0.1046
 2360SOL    HW118713   0.590   1.998  15.104 -1.3444  0.3064 -0.0970
 2360SOL    HW218714   0.688   2.098  15.082 -0.5520 -0.9328  1.0148
 2361SOL     OW18715   3.492   4.692   0.263 -0.9256 -0.2372  0.3398
 2361SOL    HW118716   3.439   4.691   0.183  1.8080 -0.0679 -1.4828
 2361SOL    HW218717   3.430   4.700   0.335 -0.6917  0.9558  0.4087
 2362SOL     OW18718   2.925   3.597   4.358 -0.2072 -0.1951 -0.1861
 2362SOL    HW118719   2.836   3.572   4.383  0.6336 -3.3263 -0.3355
 2362SOL    HW218720   2.942   3.534   4.288  1.0367  0.2856 -0.3215
 2363SOL     OW18721   2.666   2.860   7.931 -0.1741 -0.6240  0.4779
 2363SOL    HW118722   2.631   2.947   7.955  2.1309 -0.0676  1.7430
 2363SOL    HW218723   2.724   2.837   8.003 -3.8969 -0.7025  3.4990
 2364SOL     OW18724   1.883   3.631   8.620 -0.1855  0.1803 -0.2298
 2364SOL    HW118725   1.823   3.683   8.567  0.9926 -0.6081 -2.3415
 2364SOL    HW218726   1.966   3.679   8.612  1.0443 -1.8072  0.4550
 2365SOL     OW18727   1.927   1.597   4.142  0.4722  0.0440  0.2841
 2365SOL    HW118728   1.883   1.600   4.227 -0.7788 -1.1508 -0.3212
 2365SOL    HW218729   1.951   1.688   4.128 -1.5159  0.1636 -2.1713
 2366SOL     OW18730   0.003   3.832   7.697 -0.1336  0.5816  0.5105
 2366SOL    HW118731   4.661   3.871   7.660 -0.8291  0.7125  2.1611
 2366SOL    HW218732   0.037   3.786   7.620  1.0837 -0.0460  1.4357
 2367SOL     OW18733   0.427   3.401   6.335 -0.3078  0.3955  0.0059
 2367SOL    HW118734   0.366   3.405   6.408 -2.2460  0.7624 -1.6500
 2367SOL    HW218735   0.385   3.462   6.274 -1.8130 -0.2945  0.3798
 2368SOL     OW18736   0.197   3.638  12.105  0.5456  0.3564  0.0817
 2368SOL    HW118737   0.232   3.682  12.183 -0.6261 -1.4666  1.6429
 2368SOL    HW218738   0.266   3.572  12.096 -0.4971 -0.4573 -2.0147
 2369SOL     OW18739   1.332   2.844   4.067  0.4355  0.3070 -0.0959
 2369SOL    HW118740   1.403   2.866   4.128 -0.0736  0.5633  0.4046
 2369SOL    HW218741   1.261   2.845   4.132 -0.2576 -0.7854 -0.8382
 2370SOL     OW18742   3.450   0.414   3.229  0.6313 -0.2249 -0.2625
 2370SOL    HW118743   3.534   0.410   3.183  1.4845  0.2531  1.2588
 2370SOL    HW218744   3.405   0.334   3.201 -1.2502  1.0592 -0.9035
 2371SOL     OW18745   1.442   2.378  16.185 -0.0384  0.1343 -0.0982
 2371SOL    HW118746   1.388   2.455  16.203  0.2040 -0.0250  1.2670
 2371SOL    HW218747   1.530   2.414  16.199 -0.1198  0.0663  0.5775
 2372SOL     OW18748   1.921   0.978   4.842  0.6814 -0.2582  0.3701
 2372SOL    HW118749   1.970   1.022   4.912 -1.3714  2.6951 -0.0402
 2372SOL    HW218750   1.983   0.984   4.769  0.2411  0.8591  0.0830
 2373SOL     OW18751   2.729   3.638  11.935 -0.3627 -0.3033  0.0561
 2373SOL    HW118752   2.752   3.587  11.857  1.6934  1.7783 -0.7032
 2373SOL    HW218753   2.728   3.565  11.997 -0.9986 -0.5043 -0.1918
 2374SOL     OW18754   1.246   0.093   5.177 -0.0210 -0.5632  0.1747
 2374SOL    HW118755   1.246   0.042   5.258  1.3843  1.2044  1.3104
 2374SOL    HW218756   1.339   0.107   5.161  0.3624 -0.8610  2.1395
 2375SOL     OW18757   3.412   3.491   5.273 -0.7036  0.2698 -0.2820
 2375SOL    HW118758   3.375   3.404   5.288  0.5987 -0.3374 -0.5665
 2375SOL    HW218759   3.401   3.534   5.358  2.4759 -0.1347  0.3426
 2376SOL     OW18760   0.604   3.178   2.578 -0.1221  0.0911 -0.1301
 2376SOL    HW118761   0.553   3.104   2.545  0.5686 -0.6081  0.3600
 2376SOL    HW218762   0.669   3.193   2.510 -0.2848 -3.5986 -1.1032
 2377SOL     OW18763   1.514   2.830   5.863  0.3600 -0.2290 -0.0335
 2377SOL    HW118764   1.578   2.809   5.795  1.0414  0.5380  0.3715
 2377SOL    HW218765   1.521   2.924   5.847  0.4279 -0.5947 -2.2256
 2378SOL     OW18766   0.492   4.255   8.973 -0.1002  0.3344  0.3713
 2378SOL    HW118767   0.509   4.287   8.884  1.3876  1.6432  1.1431
 2378SOL    HW218768   0.402   4.284   8.991 -0.8341 -1.5173 -0.2900
 2379SOL     OW18769   3.537   4.018   4.206  0.1849 -0.0208  0.0126
 2379SOL    HW118770   3.460   3.978   4.167  0.5936 -1.3333  0.5334
 2379SOL    HW218771   3.502   4.056   4.286 -1.9490  1.0048 -1.4140
 2380SOL     OW18772   0.057   1.592   3.842  0.1456  0.3961 -0.6997
 2380SOL    HW118773   0.046   1.683   3.870  0.6956  0.9240 -2.1953
 2380SOL    HW218774   0.077   1.597   3.748 -1.7356  1.9964 -1.0212
 2381SOL     OW18775   0.299   4.453   4.904 -0.2634 -0.1228  0.3443
 2381SOL    HW118776   0.239   4.501   4.961 -0.5090 -0.5395  0.4336
 2381SOL    HW218777   0.344   4.401   4.970  0.5376 -0.5161 -0.5177
 2382SOL     OW18778   4.093   0.392   5.354 -0.4651  0.0104 -0.2427
 2382SOL    HW118779   4.038   0.449   5.299 -1.6231 -0.7695  0.1110
 2382SOL    HW218780   4.065   0.410   5.444  1.3348 -0.2319  0.3657
 2383SOL     OW18781   1.536   3.128   6.071  0.1954  0.7650  0.4253
 2383SOL    HW118782   1.459   3.122   6.127  0.2217  2.2434  0.6076
 2383SOL    HW218783   1.520   3.208   6.022  1.7860 -0.1023 -1.4998
 2384SOL     OW18784   2.960   1.088   4.701 -0.0286  0.0276  0.3010
 2384SOL    HW118785   2.932   1.101   4.610  1.5714  1.6660  0.0353
 2384SOL    HW218786   2.877   1.085   4.748 -0.4018 -2.9529 -0.5459
 2385SOL     OW18787   4.314   1.299   5.099  0.2244  0.0406 -0.6200
 2385SOL    HW118788   4.387   1.315   5.159  0.5086  0.8026 -1.1709
 2385SOL    HW218789   4.309   1.203   5.100 -0.1692  0.0629 -0.4922
 2386SOL     OW18790   3.633   0.790   9.705 -0.3718 -0.8985 -0.5728
 2386SOL    HW118791   3.611   0.780   9.798  1.3396  0.7482  0.0078
 2386SOL    HW218792   3.560   0.740   9.667 -1.0619 -0.7526  0.5372
 2387SOL     OW18793   1.127   2.606   4.766  0.0232  0.3437  0.2293
 2387SOL    HW118794   1.140   2.582   4.857  2.4965  1.5716  0.2124
 2387SOL    HW218795   1.085   2.525   4.737  1.9516 -0.5574 -0.1056
 2388SOL     OW18796   2.010   3.510   1.202  0.1778  0.7611 -0.1120
 2388SOL    HW118797   1.931   3.562   1.216 -0.4536 -0.1352 -0.3580
 2388SOL    HW218798   2.020   3.474   1.290 -2.2929 -0.7856 -0.4819
 2389SOL     OW18799   2.702   1.639   4.682 -0.0268 -0.0387  0.4245
 2389SOL    HW118800   2.739   1.719   4.645  1.4693 -0.6434  0.5893
 2389SOL    HW218801   2.611   1.663   4.698  0.3380  0.7441  1.3786
 2390SOL     OW18802   2.241   2.782  12.009  0.1304 -0.0288  0.1520
 2390SOL    HW118803   2.211   2.870  12.030  1.5359  0.0143  2.0027
 2390SOL    HW218804   2.320   2.815  11.965 -0.4230  1.2404  0.1268
 2391SOL     OW18805   0.153   0.750  10.583 -0.7584  0.2551  0.3273
 2391SOL    HW118806   0.106   0.683  10.633  0.9562 -1.4668 -0.3307
 2391SOL    HW218807   0.093   0.824  10.591  0.4294  1.0862  1.4557
 2392SOL     OW18808   0.814   3.752   6.791  0.4263 -0.0835  0.4986
 2392SOL    HW118809   0.781   3.697   6.862  2.6122  0.9313  2.2812
 2392SOL    HW218810   0.889   3.702   6.758  1.7016  1.5795  0.8973
 2393SOL     OW18811   0.417   1.050  15.047  0.8712  0.4335 -0.3545
 2393SOL    HW118812   0.476   1.034  14.973  0.2839  1.5881 -1.0750
 2393SOL    HW218813   0.345   1.086  14.997 -0.8759 -0.9230  1.1720
 2394SOL     OW18814   3.195   0.911  16.009 -0.2321  0.2988 -0.5879
 2394SOL    HW118815   3.252   0.856  15.955  0.6625 -0.5597  1.2462
 2394SOL    HW218816   3.257   0.959  16.062 -0.4343  1.9012 -1.8038
 2395SOL     OW18817   2.758   3.477   3.151 -0.1394  0.5204 -0.2825
 2395SOL    HW118818   2.670   3.495   3.182 -0.1319  1.4029 -0.7750
 2395SOL    HW218819   2.782   3.567   3.126 -2.1288  1.4174  1.0150
 2396SOL     OW18820   0.245   1.220  16.589 -0.2082  0.2831 -0.7736
 2396SOL    HW118821   0.154   1.193  16.581 -0.2315  0.5179 -1.3185
 2396SOL    HW218822   0.260   1.280  16.515  1.4209  0.4989 -0.2826
 2397SOL     OW18823   4.181   1.335   8.930  0.1975 -0.3730 -0.3680
 2397SOL    HW118824   4.144   1.422   8.943  0.9986 -0.0802 -0.0436
 2397SOL    HW218825   4.257   1.332   8.989 -0.1297  0.5484  0.0948
 2398SOL     OW18826   1.789   4.472  12.586  0.1634  0.3887  0.2513
 2398SOL    HW118827   1.812   4.558  12.623  1.7664 -0.9862  2.4652
 2398SOL    HW218828   1.693   4.475  12.586  0.1507 -0.2339 -0.3322
 2399SOL     OW18829   0.801   0.421  13.563  0.4396 -0.0651 -0.4895
 2399SOL    HW118830   0.854   0.382  13.493 -0.1843 -0.9099 -0.4826
 2399SOL    HW218831   0.769   0.501  13.521 -1.1794 -0.0885  0.6883
 2400SOL     OW18832   0.542   2.892   2.046 -0.3688  0.1769 -0.2713
 2400SOL    HW118833   0.500   2.961   1.995 -1.2797  1.5766  2.3632
 2400SOL    HW218834   0.495   2.812   2.023 -1.0724  0.8545 -1.1847
 2401SOL     OW18835   2.614   2.889   9.072  0.4817 -0.1537 -0.2735
 2401SOL    HW118836   2.682   2.886   9.004 -0.1955 -0.4907 -0.9414
 2401SOL    HW218837   2.660   2.863   9.151 -1.1971  1.0661  1.1025
 2402SOL     OW18838   3.841   0.587   6.026 -0.6048  0.1764 -0.8503
 2402SOL    HW118839   3.891   0.507   6.009 -1.2891  0.0584 -2.2260
 2402SOL    HW218840   3.908   0.626   6.083 -1.0867 -0.3178  0.0500
 2403SOL     OW18841   0.800   0.427   6.029  0.1439  0.0437 -0.6181
 2403SOL    HW118842   0.820   0.343   6.070 -0.7021  0.4130  0.5515
 2403SOL    HW218843   0.706   0.409   6.035  0.4277 -0.8814  1.1231
 2404SOL     OW18844   1.128   1.234   9.824  0.0090 -0.0774  0.3347
 2404SOL    HW118845   1.154   1.317   9.865  0.0352  0.3707 -0.5782
 2404SOL    HW218846   1.159   1.172   9.890 -2.0372 -0.3415  1.0335
 2405SOL     OW18847   0.733   4.200   9.067 -0.2149  0.1547 -0.2297
 2405SOL    HW118848   0.645   4.217   9.034  0.3155  2.0796 -0.6784
 2405SOL    HW218849   0.734   4.278   9.124  1.8154 -0.4646  0.5967
 2406SOL     OW18850   3.826   4.547   8.069 -0.0391  0.5326 -0.9202
 2406SOL    HW118851   3.801   4.498   7.990  0.6556 -1.2734 -0.0236
 2406SOL    HW218852   3.882   4.491   8.123  0.5210  1.6310 -0.3798
 2407SOL     OW18853   2.435   0.832   4.076 -0.6003 -0.8283  0.2786
 2407SOL    HW118854   2.524   0.843   4.109 -1.4073 -1.4380  2.6662
 2407SOL    HW218855   2.386   0.904   4.116 -2.5224 -2.1888  0.3445
 2408SOL     OW18856   4.387   0.316   2.417  0.1758 -0.3101  0.2074
 2408SOL    HW118857   4.296   0.338   2.394  0.5496 -0.1703 -1.1557
 2408SOL    HW218858   4.414   0.396   2.461  2.5125  0.6465 -2.9511
 2409SOL     OW18859   3.422   2.004   3.975  0.4490 -0.2375 -0.1891
 2409SOL    HW118860   3.347   1.997   4.034 -0.1757  0.2643 -0.9137
 2409SOL    HW218861   3.407   2.092   3.940 -0.5099 -0.0825  0.5986
 2410SOL     OW18862   2.365   2.984   7.360 -0.4160 -0.1826  0.7035
 2410SOL    HW118863   2.275   3.002   7.330 -0.5120 -0.8138  0.6223
 2410SOL    HW218864   2.388   2.920   7.293 -0.0874 -0.6986  1.3212
 2411SOL     OW18865   0.969   4.031   1.925  0.6224 -0.0434 -0.0798
 2411SOL    HW118866   0.911   4.051   1.998 -0.9454 -0.1809 -1.2809
 2411SOL    HW218867   1.007   4.117   1.912  2.6976 -1.3137 -2.2436
 2412SOL     OW18868   0.959   3.145   6.815 -0.0355  0.8425 -0.1442
 2412SOL    HW118869   1.008   3.079   6.766  0.2188  0.7281  0.2681
 2412SOL    HW218870   1.022   3.176   6.880  1.0892  2.2201 -1.8496
 2413SOL     OW18871   3.295   0.669  16.209 -0.2415  0.0041  0.4750
 2413SOL    HW118872   3.240   0.651  16.133  0.2616  0.3938  0.0138
 2413SOL    HW218873   3.233   0.692  16.278  1.0936  2.3425  0.9070
 2414SOL     OW18874   2.148   3.404   0.985 -1.0848  0.1021  0.2671
 2414SOL    HW118875   2.101   3.465   1.042 -1.2138  0.0079  0.2599
 2414SOL    HW218876   2.164   3.334   1.048  0.5278  0.3114  0.1056
 2415SOL     OW18877   4.064   2.508  14.301  0.1688 -1.1797  0.1806
 2415SOL    HW118878   4.029   2.560  14.374  1.1546  0.0015 -0.1935
 2415SOL    HW218879   4.099   2.429  14.342 -2.6055 -1.1408  2.6566
 2416SOL     OW18880   0.555   3.365   1.593 -0.0345 -0.0860 -0.4087
 2416SOL    HW118881   0.584   3.345   1.683  0.6805  1.3309 -0.3243
 2416SOL    HW218882   0.592   3.451   1.573 -0.4120  0.2398  0.2572
 2417SOL     OW18883   1.423   0.381   0.626 -0.1021 -0.5123  0.1322
 2417SOL    HW118884   1.480   0.343   0.693 -1.1576 -3.2298 -0.5007
 2417SOL    HW218885   1.337   0.347   0.651 -1.3119  1.2875 -1.6145
 2418SOL     OW18886   1.952   3.419  15.315  0.4917 -0.1842 -0.5546
 2418SOL    HW118887   2.024   3.481  15.298  0.4744 -0.1243 -0.4120
 2418SOL    HW218888   1.992   3.357  15.375 -1.1495  0.9407  1.7003
 2419SOL     OW18889   4.711   0.753   3.683 -0.1625 -0.5438  0.1783
 2419SOL    HW118890   0.013   0.665   3.686 -1.1664 -0.9799  0.5740
 2419SOL    HW218891   0.033   0.797   3.744  0.0587 -1.6700  0.7977
 2420SOL     OW18892   2.200   0.128   7.516  1.1341 -0.2165  0.0309
 2420SOL    HW118893   2.257   0.156   7.587 -0.9918  0.6552  1.3713
 2420SOL    HW218894   2.266   0.096   7.454 -0.1846  1.1446 -2.0827
 2421SOL     OW18895   0.404   1.008   4.569 -0.3594  0.7472  0.4434
 2421SOL    HW118896   0.327   1.003   4.512  1.0315  2.8518 -1.6405
 2421SOL    HW218897   0.367   1.057   4.642  0.8805  1.2405  0.7420
 2422SOL     OW18898   1.388   2.863   8.456  0.4310  0.3483 -0.5488
 2422SOL    HW118899   1.302   2.889   8.423  0.2295 -0.7665 -0.8750
 2422SOL    HW218900   1.400   2.784   8.403 -0.2009  0.0325 -0.2194
 2423SOL     OW18901   1.637   4.693   8.695  0.0017  0.0918 -0.4646
 2423SOL    HW118902   1.578   0.009   8.747 -1.5555 -2.0452 -0.0654
 2423SOL    HW218903   1.718   4.722   8.737 -0.2846 -0.9657  0.8033
 2424SOL     OW18904   0.955   2.151   3.421 -0.5116  0.4675 -0.3316
 2424SOL    HW118905   1.023   2.084   3.415 -1.2520 -0.3953  0.9562
 2424SOL    HW218906   0.964   2.158   3.516  0.5274  2.7117 -0.5963
 2425SOL     OW18907   0.197   2.885   1.518  0.4380 -0.3583  0.4857
 2425SOL    HW118908   0.205   2.793   1.493 -1.5023 -0.4521  0.2350
 2425SOL    HW218909   0.201   2.892   1.614 -1.7451 -0.5968  0.5997
 2426SOL     OW18910   1.992   3.097   0.625  0.5298  0.0013 -0.1815
 2426SOL    HW118911   1.934   3.089   0.701 -1.7710  0.4820 -1.8780
 2426SOL    HW218912   2.063   3.148   0.663  1.0515  1.8786 -3.6345
 2427SOL     OW18913   3.139   2.844   5.474  0.0938  0.4868 -0.3165
 2427SOL    HW118914   3.116   2.769   5.418 -1.1025  0.7254 -0.1509
 2427SOL    HW218915   3.057   2.893   5.461 -0.9574 -1.4842 -1.1874
 2428SOL     OW18916   1.128   3.896   2.442 -0.0666 -0.2652  0.1714
 2428SOL    HW118917   1.047   3.907   2.491 -1.6403 -1.4827 -2.1845
 2428SOL    HW218918   1.108   3.813   2.399 -2.6318  0.1981  0.4781
 2429SOL     OW18919   1.513   0.578   6.715 -0.3774 -0.8147 -0.5007
 2429SOL    HW118920   1.511   0.518   6.640  0.5529 -1.6054  0.1019
 2429SOL    HW218921   1.484   0.524   6.789  0.1208  2.1148  1.8297
 2430SOL     OW18922   2.438   2.480  14.133  0.0898 -0.2492  0.1042
 2430SOL    HW118923   2.500   2.547  14.103 -0.7474  0.2075 -0.6390
 2430SOL    HW218924   2.358   2.488  14.080  0.0053 -0.1752  0.2428
 2431SOL     OW18925   2.481   3.721  15.325  0.0157 -0.1565 -0.0512
 2431SOL    HW118926   2.478   3.711  15.230  0.1964 -2.5971  0.1886
 2431SOL    HW218927   2.473   3.816  15.319 -4.0675 -0.4483  0.7743
 2432SOL     OW18928   2.446   0.741   2.095  0.3808  0.4269 -0.1696
 2432SOL    HW118929   2.438   0.827   2.055 -1.8277  0.7985  1.0302
 2432SOL    HW218930   2.448   0.698   2.009 -1.0777  0.2876 -0.1329
 2433SOL     OW18931   3.538   3.758   6.835 -0.2746  0.4028  0.5057
 2433SOL    HW118932   3.452   3.727   6.864  0.2738 -1.4654  0.0860
 2433SOL    HW218933   3.574   3.682   6.790 -3.0028 -0.7746  0.3333
 2434SOL     OW18934   3.113   4.147   6.579  0.5878 -0.7704  0.2534
 2434SOL    HW118935   3.185   4.135   6.517 -0.3544  1.4488 -1.2485
 2434SOL    HW218936   3.158   4.199   6.647 -0.3887  0.9344 -0.4007
 2435SOL     OW18937   1.575   0.349   0.408  0.0761  0.7805 -0.1247
 2435SOL    HW118938   1.671   0.357   0.412  0.1251 -0.0711  0.4509
 2435SOL    HW218939   1.548   0.364   0.498 -2.1020 -0.6111 -0.5377
 2436SOL     OW18940   1.910   4.292  12.417  0.1094  0.1358 -0.5412
 2436SOL    HW118941   1.861   4.353  12.472 -1.0674 -0.1749 -1.2592
 2436SOL    HW218942   1.941   4.217  12.469 -2.1345 -0.8896 -0.6967
 2437SOL     OW18943   0.753   0.563   2.335 -0.1827 -0.1711  0.0834
 2437SOL    HW118944   0.790   0.633   2.390  2.0140 -1.0363 -0.2886
 2437SOL    HW218945   0.695   0.519   2.397  2.0337 -0.7221  1.8028
 2438SOL     OW18946   0.107   2.463   3.102 -0.0792  0.3500 -0.0768
 2438SOL    HW118947   0.153   2.394   3.053 -0.3008  0.6820 -0.7636
 2438SOL    HW218948   0.167   2.536   3.088 -0.7485  0.7357 -0.9322
 2439SOL     OW18949   1.215   2.895   5.018 -0.0546  0.0416 -0.3146
 2439SOL    HW118950   1.136   2.863   4.975  0.1564 -0.3069 -0.4443
 2439SOL    HW218951   1.183   2.948   5.091 -0.4063 -0.2810 -0.2404
 2440SOL     OW18952   0.581   4.536  10.056  0.6267 -0.2756 -0.3107
 2440SOL    HW118953   0.628   4.468  10.105 -2.2180  0.5509  3.5412
 2440SOL    HW218954   0.552   4.490   9.976 -1.7924  2.6253 -1.0925
 2441SOL     OW18955   0.366   0.983  10.595  0.0120 -0.4192 -0.2373
 2441SOL    HW118956   0.297   0.916  10.592 -0.2223 -0.0757 -2.7734
 2441SOL    HW218957   0.413   0.944  10.669 -0.7845 -1.5354 -0.3318
 2442SOL     OW18958   2.939   4.555  15.120 -0.0471  0.5454 -0.3644
 2442SOL    HW118959   2.858   4.544  15.171  0.3645  0.9501  0.3817
 2442SOL    HW218960   2.938   4.469  15.078  0.3577 -0.7005  2.1342
 2443SOL     OW18961   2.495   4.415  11.616 -0.4423 -0.0895  0.3623
 2443SOL    HW118962   2.456   4.388  11.533 -0.3123 -0.7212  0.5077
 2443SOL    HW218963   2.549   4.487  11.585 -0.4756 -0.2501 -0.0655
 2444SOL     OW18964   1.150   2.976   6.040  0.5226  0.0802 -0.4146
 2444SOL    HW118965   1.138   2.881   6.053  0.2633  0.2446  0.5607
 2444SOL    HW218966   1.060   3.002   6.059  1.0391  1.2455  0.4249
 2445SOL     OW18967   2.846   0.230   6.430 -0.0893  0.1510 -0.1339
 2445SOL    HW118968   2.910   0.221   6.501 -1.7227  0.0844  1.3168
 2445SOL    HW218969   2.820   0.140   6.411  1.8001 -0.5425  0.4918
 2446SOL     OW18970   2.049   3.151  14.159 -0.0170  0.6285  0.1222
 2446SOL    HW118971   2.135   3.182  14.189 -0.2726 -0.0739  1.5782
 2446SOL    HW218972   2.029   3.179  14.069 -1.6457 -1.9458 -0.2947
 2447SOL     OW18973   1.147   3.529  10.471 -0.3958  0.0717  0.2665
 2447SOL    HW118974   1.082   3.579  10.422  1.5757  1.1073 -1.2734
 2447SOL    HW218975   1.082   3.478  10.520 -2.1416  1.5405 -0.5483
 2448SOL     OW18976   0.168   3.174   9.311  0.6407 -0.0601  0.1862
 2448SOL    HW118977   0.092   3.201   9.361  0.5373 -0.4328  0.2289
 2448SOL    HW218978   0.215   3.111   9.365 -1.0689 -1.0250  0.5106
 2449SOL     OW18979   3.396   0.328   2.439  0.2643  0.2291  0.1841
 2449SOL    HW118980   3.429   0.248   2.479 -0.1975  1.1934  2.5209
 2449SOL    HW218981   3.477   0.349   2.393 -1.2346  0.0380 -2.5450
 2450SOL     OW18982   1.182   3.740   5.234 -0.1133 -0.3919  0.1232
 2450SOL    HW118983   1.227   3.704   5.158 -0.0352 -2.1342  1.0019
 2450SOL    HW218984   1.255   3.771   5.288 -1.6990  0.4980  1.7627
 2451SOL     OW18985   3.853   2.459   6.527  0.7173  0.5035 -0.9427
 2451SOL    HW118986   3.868   2.373   6.488 -1.1768 -0.5186  0.5868
 2451SOL    HW218987   3.937   2.484   6.567  0.5783 -2.2895  1.0980
 2452SOL     OW18988   1.881   4.457   6.412 -0.5069  0.0050 -0.6739
 2452SOL    HW118989   1.950   4.458   6.346 -0.2527  3.0933 -0.3579
 2452SOL    HW218990   1.920   4.406   6.483  1.9009  0.9111 -1.3709
 2453SOL     OW18991   2.131   0.497   5.194  0.0237 -0.0410 -0.2309
 2453SOL    HW118992   2.100   0.564   5.133 -1.9324 -0.0243  0.7885
 2453SOL    HW218993   2.198   0.555   5.232  2.0322 -0.0118 -3.8036
 2454SOL     OW18994   1.963   0.677   4.249 -0.3920 -0.2639  0.7399
 2454SOL    HW118995   1.894   0.627   4.292  1.3051 -4.1420 -0.9825
 2454SOL    HW218996   1.920   0.684   4.164 -0.3997  1.3918  0.8857
 2455SOL     OW18997   3.660   0.879   3.035  0.5038 -0.6840  0.3182
 2455SOL    HW118998   3.607   0.807   3.000  0.1376 -0.3241  0.1252
 2455SOL    HW218999   3.696   0.913   2.953  0.4390 -2.4201 -0.4352
 2456SOL     OW19000   3.514   4.645   4.099  0.2017 -0.1155  0.1641
 2456SOL    HW119001   3.479   4.561   4.127 -0.9424  0.5580  0.7813
 2456SOL    HW219002   3.554   4.682   4.178 -1.8676  1.9016  0.2795
 2457SOL     OW19003   2.421   0.399   3.119  0.1544 -0.8733 -0.0585
 2457SOL    HW119004   2.378   0.318   3.091  0.0314 -0.8802  0.1487
 2457SOL    HW219005   2.455   0.371   3.204  0.5521  1.3726  0.5084
 2458SOL     OW19006   0.105   2.626   8.485  0.8580  0.3023  0.1362
 2458SOL    HW119007   0.136   2.539   8.460  1.9210  0.5602  0.5600
 2458SOL    HW219008   0.187   2.672   8.504 -0.3208  2.3805  0.2694
 2459SOL     OW19009   2.296   2.130   2.892 -0.1924 -0.6129  0.1524
 2459SOL    HW119010   2.288   2.082   2.975  0.9465 -0.2763  0.4534
 2459SOL    HW219011   2.244   2.209   2.907  0.7506  0.2292 -1.0154
 2460SOL     OW19012   0.312   0.027   3.557  0.0912  0.6136  0.2563
 2460SOL    HW119013   0.260   0.073   3.492 -1.7908  1.0797  2.0829
 2460SOL    HW219014   0.354   0.101   3.602  2.0025 -0.2412 -0.1305
 2461SOL     OW19015   0.878   2.877   2.718  0.4572  0.6385 -0.1597
 2461SOL    HW119016   0.902   2.785   2.702 -0.3697  0.5680 -0.9871
 2461SOL    HW219017   0.870   2.907   2.628 -1.2116 -0.4538 -0.3741
 2462SOL     OW19018   1.291   4.657   3.574 -0.4793 -0.1485  0.5863
 2462SOL    HW119019   1.300   0.008   3.610  0.3362  0.4173 -1.0023
 2462SOL    HW219020   1.247   4.606   3.642 -2.6555  1.8033  0.6484
 2463SOL     OW19021   0.373   1.275   6.405  0.1612 -0.1214 -0.1988
 2463SOL    HW119022   0.286   1.311   6.426 -0.6042 -1.6643 -0.7227
 2463SOL    HW219023   0.439   1.338   6.432 -2.1340  2.3394 -0.3427
 2464SOL     OW19024   2.110   4.444   4.715  0.5629 -1.0538  0.2112
 2464SOL    HW119025   2.021   4.444   4.680 -0.5821  3.4420  3.1689
 2464SOL    HW219026   2.095   4.491   4.797 -0.4441 -2.3250  0.7591
 2465SOL     OW19027   4.573   3.933   3.983  0.0795  0.4078 -0.0951
 2465SOL    HW119028   4.592   3.948   3.890  1.4774  0.5143  0.2116
 2465SOL    HW219029   4.641   3.985   4.026  0.7630  0.1896 -0.9000
 2466SOL     OW19030   4.662   0.272   3.279  0.7069 -0.5148 -0.1904
 2466SOL    HW119031   4.590   0.335   3.271 -0.0215 -1.2601  0.5518
 2466SOL    HW219032   4.682   0.248   3.188  1.4322  0.2426 -0.2339
 2467SOL     OW19033   2.544   2.699  11.385  0.1344 -0.7324  0.1187
 2467SOL    HW119034   2.541   2.794  11.376 -0.5506 -0.6750  0.9916
 2467SOL    HW219035   2.614   2.682  11.448 -1.2394 -1.5863  1.3894
 2468SOL     OW19036   4.662   1.125   5.255  0.8572 -0.0803 -0.2477
 2468SOL    HW119037   4.716   1.069   5.312  0.1686 -2.3965 -1.8475
 2468SOL    HW219038   4.690   1.212   5.282 -0.8344 -0.2103  2.0059
 2469SOL     OW19039   2.902   0.763   8.703  0.1599 -0.1751  0.2793
 2469SOL    HW119040   2.879   0.847   8.743 -0.1103 -0.9123  1.6836
 2469SOL    HW219041   2.994   0.782   8.687  0.0849  0.2165  0.3260
 2470SOL     OW19042   4.193   3.333   5.607  0.0392  0.2038  0.3288
 2470SOL    HW119043   4.098   3.334   5.620  0.1215  0.2561  0.9461
 2470SOL    HW219044   4.218   3.422   5.631  0.3636  0.0656  0.4990
 2471SOL     OW19045   4.530   0.118   7.593  0.4904 -0.1331 -0.0327
 2471SOL    HW119046   4.612   0.088   7.634  1.1422 -0.2741 -1.4482
 2471SOL    HW219047   4.535   0.057   7.520 -3.0064  1.0965 -1.2696
 2472SOL     OW19048   2.993   0.214   2.892 -0.4667  0.7547 -0.1892
 2472SOL    HW119049   3.067   0.154   2.885  0.1097  1.2214  1.7736
 2472SOL    HW219050   2.970   0.236   2.802  2.0995  1.5310 -0.6504
 2473SOL     OW19051   1.353   2.607   2.048  0.2044  0.0349  0.2816
 2473SOL    HW119052   1.362   2.537   2.113  2.3415 -0.9844 -1.1397
 2473SOL    HW219053   1.440   2.648   2.050 -0.0155  0.5121  0.1225
 2474SOL     OW19054   3.962   3.548   8.246 -0.1149  0.5578 -0.3661
 2474SOL    HW119055   4.036   3.596   8.210  1.1395  1.7734  3.7689
 2474SOL    HW219056   3.993   3.459   8.227  0.3611  0.9117 -1.2220
 2475SOL     OW19057   0.607   0.637  14.529  0.2923  0.4144  0.1363
 2475SOL    HW119058   0.550   0.584  14.586 -1.1986  0.2905 -1.4667
 2475SOL    HW219059   0.609   0.595  14.443  0.2859  1.5542 -0.4236
 2476SOL     OW19060   1.475   4.088  10.640  0.1935 -0.1113 -0.0263
 2476SOL    HW119061   1.414   4.149  10.599  0.6440 -1.6482 -2.9872
 2476SOL    HW219062   1.514   4.152  10.699  1.6951 -0.6715 -0.4216
 2477SOL     OW19063   0.086   0.078   8.087 -0.3078  0.2883  0.3777
 2477SOL    HW119064   0.102   0.136   8.161 -3.7277  2.0228 -0.2455
 2477SOL    HW219065   0.033   0.137   8.033  3.0426  1.6813 -1.4383
 2478SOL     OW19066   4.247   4.050  12.224  0.4513 -0.3260 -0.0216
 2478SOL    HW119067   4.235   4.012  12.137 -2.3420  3.3919 -1.2570
 2478SOL    HW219068   4.284   4.132  12.190 -0.4778  0.4147  0.7651
 2479SOL     OW19069   4.223   4.536   0.259 -0.2504  0.9131  0.0552
 2479SOL    HW119070   4.268   4.612   0.295  0.8112  0.1909  0.2577
 2479SOL    HW219071   4.295   4.485   0.222 -0.6459  1.5499 -1.5804
 2480SOL     OW19072   2.391   4.332   8.834  0.0537  0.0128  0.1796
 2480SOL    HW119073   2.336   4.319   8.911  1.0082 -1.3994  0.6255
 2480SOL    HW219074   2.321   4.363   8.777 -0.8802 -1.5264  0.4904
 2481SOL     OW19075   4.105   0.383   8.728  0.1845  0.3156  0.6367
 2481SOL    HW119076   4.193   0.377   8.691  0.3245  0.4443  0.9432
 2481SOL    HW219077   4.119   0.469   8.769 -0.2703  0.7991 -0.2315
 2482SOL     OW19078   1.635   3.210   5.764  0.7582 -0.8787 -0.6519
 2482SOL    HW119079   1.714   3.188   5.714  0.9634 -1.0939 -0.2375
 2482SOL    HW219080   1.655   3.170   5.849  1.0967 -2.4422 -1.4578
 2483SOL     OW19081   3.583   4.238   3.690 -0.2389  0.5841 -0.5778
 2483SOL    HW119082   3.659   4.215   3.637  0.6708 -1.2165  1.5041
 2483SOL    HW219083   3.602   4.253   3.783 -1.6562  1.5187 -0.4459
 2484SOL     OW19084   0.665   1.208   7.129  0.2138  0.7672 -0.2774
 2484SOL    HW119085   0.618   1.138   7.174 -0.1384  0.1649 -1.5729
 2484SOL    HW219086   0.698   1.246   7.210 -1.0282 -0.1484  0.6509
 2485SOL     OW19087   4.589   2.309   3.081  0.0844 -0.2176  0.0942
 2485SOL    HW119088   4.656   2.375   3.095 -2.0327  1.6412  1.5581
 2485SOL    HW219089   4.594   2.266   3.165 -0.6034  1.6004  1.0777
 2486SOL     OW19090   3.142   0.915   4.365 -0.0752 -0.1205  0.1161
 2486SOL    HW119091   3.171   0.824   4.373  1.9313  0.4052 -1.5640
 2486SOL    HW219092   3.225   0.962   4.358  1.3657 -2.8841 -1.1118
 2487SOL     OW19093   1.029   0.997   5.302 -0.3806  0.5156 -0.2953
 2487SOL    HW119094   1.059   1.045   5.225  1.1281 -2.0683 -1.3505
 2487SOL    HW219095   1.081   1.046   5.365  0.5724 -2.0281  0.9072
 2488SOL     OW19096   1.428   0.174   7.910  0.0100  0.3371 -0.0559
 2488SOL    HW119097   1.473   0.176   7.994 -0.0585  1.3621 -0.0550
 2488SOL    HW219098   1.496   0.123   7.866  0.8456  2.5739 -1.3135
 2489SOL     OW19099   4.724   0.357   2.278  0.2999 -0.0232  0.2475
 2489SOL    HW119100   4.692   0.401   2.199  0.4961  0.3208  0.3598
 2489SOL    HW219101   4.706   0.431   2.335  1.3762  1.1444 -0.9140
 2490SOL     OW19102   0.284   1.444   7.570  0.4543 -1.1254  0.3823
 2490SOL    HW119103   0.246   1.494   7.642  2.0978  1.0903 -0.2701
 2490SOL    HW219104   0.304   1.363   7.616 -2.2967 -1.7291  0.5103
 2491SOL     OW19105   1.619   3.450   6.017 -0.1780  0.4436  0.4874
 2491SOL    HW119106   1.529   3.455   5.985 -0.7004 -0.5095  1.8060
 2491SOL    HW219107   1.658   3.537   6.003 -0.3398  0.3311 -0.6224
 2492SOL     OW19108   3.564   3.227   0.560  0.1223 -0.0754  0.2983
 2492SOL    HW119109   3.574   3.321   0.579  1.3745  0.1778 -1.5359
 2492SOL    HW219110   3.618   3.185   0.627 -0.5020 -2.8893 -0.9758
 2493SOL     OW19111   1.948   0.373   7.736  0.2839  0.0041 -0.0697
 2493SOL    HW119112   1.958   0.403   7.646  1.0474  0.1800  0.0781
 2493SOL    HW219113   2.040   0.385   7.758  0.0295 -0.5370  1.3328
 2494SOL     OW19114   4.419   4.256   3.459 -0.3938  0.1537 -0.2898
 2494SOL    HW119115   4.376   4.277   3.377 -1.4251  0.2485  0.2679
 2494SOL    HW219116   4.409   4.161   3.458  1.1765 -0.0037 -0.3795
 2495SOL     OW19117   1.830   1.683   2.578 -0.2908 -0.3698 -0.0047
 2495SOL    HW119118   1.911   1.650   2.537  1.0289  1.1988  1.3716
 2495SOL    HW219119   1.786   1.718   2.501 -2.1537 -0.2903  1.0974
 2496SOL     OW19120   1.773   2.522  12.497 -0.3855  0.3245  0.0759
 2496SOL    HW119121   1.780   2.616  12.511 -1.1440  0.3223  0.4808
 2496SOL    HW219122   1.843   2.484  12.550 -1.1479  0.1840  0.9989
 2497SOL     OW19123   0.119   3.783   9.478 -0.0992 -0.8597  0.2470
 2497SOL    HW119124   0.192   3.722   9.467  1.6443  1.2610  0.1328
 2497SOL    HW219125   0.053   3.726   9.438 -1.2797  1.3340 -0.9132
 2498SOL     OW19126   0.714   4.003  14.905  0.0698  0.3784  0.6948
 2498SOL    HW119127   0.752   3.999  14.992  0.3931 -1.8583  0.4574
 2498SOL    HW219128   0.760   4.072  14.857 -1.1762  0.4992 -0.3484
 2499SOL     OW19129   1.691   1.022   2.476  0.0809 -0.1216 -0.0789
 2499SOL    HW119130   1.702   0.939   2.522 -2.6587  0.5834  1.8485
 2499SOL    HW219131   1.764   1.073   2.513 -1.4566  2.3464 -0.3927
 2500SOL     OW19132   4.038   3.734   1.628  0.0589  0.1674 -0.6011
 2500SOL    HW119133   4.107   3.711   1.691  0.5859 -0.5262 -1.4378
 2500SOL    HW219134   3.963   3.690   1.669  0.7534  2.3670  3.0801
 2501SOL     OW19135   1.893   1.463   2.229 -0.3886 -0.1981  0.3596
 2501SOL    HW119136   1.939   1.431   2.152 -0.7396  1.0917 -0.3826
 2501SOL    HW219137   1.839   1.535   2.195  0.6927 -0.2255 -1.4122
 2502SOL     OW19138   2.107   3.251   2.785 -0.1928 -0.6502  0.4593
 2502SOL    HW119139   2.050   3.180   2.817 -1.0254  0.2469  0.9767
 2502SOL    HW219140   2.113   3.308   2.862  2.7925  0.3068 -0.5022
 2503SOL     OW19141   0.738   4.118  15.178  0.0991  0.4098  0.3211
 2503SOL    HW119142   0.823   4.162  15.179  0.3247  0.0093 -1.5379
 2503SOL    HW219143   0.676   4.190  15.165  0.0725  0.3614  0.1797
 2504SOL     OW19144   2.239   3.563  16.204 -0.0058 -0.1596 -0.8364
 2504SOL    HW119145   2.325   3.600  16.225  0.1725 -2.2744  2.0813
 2504SOL    HW219146   2.262   3.484  16.156  0.0671 -1.6445  1.6267
 2505SOL     OW19147   0.661   3.063   5.545 -0.5142  0.5072 -0.0980
 2505SOL    HW119148   0.621   3.107   5.470 -2.3196  1.3835  1.3793
 2505SOL    HW219149   0.705   2.990   5.502  0.9917 -0.9102  3.8151
 2506SOL     OW19150   0.576   4.334   3.224 -0.6613  0.2873  0.1669
 2506SOL    HW119151   0.651   4.355   3.279  0.4421  0.6712 -1.4817
 2506SOL    HW219152   0.616   4.320   3.138  0.2265  2.1208  0.2791
 2507SOL     OW19153   0.169   2.325   0.433 -0.3466 -0.0011  0.1380
 2507SOL    HW119154   0.193   2.329   0.340  1.9585  0.0473  0.7329
 2507SOL    HW219155   0.075   2.311   0.426 -0.5726  1.4988  0.2622
 2508SOL     OW19156   2.296   3.469   6.156  0.7192  0.1847 -0.3420
 2508SOL    HW119157   2.391   3.466   6.158  0.6972  0.0109  0.7819
 2508SOL    HW219158   2.287   3.555   6.198  0.7088  1.4961 -3.0427
 2509SOL     OW19159   4.200   2.857  14.235  0.5225  0.0289  0.0698
 2509SOL    HW119160   4.186   2.905  14.153  1.3540  0.1507 -0.0062
 2509SOL    HW219161   4.246   2.925  14.285 -2.6517  1.5840  0.9060
 2510SOL     OW19162   4.561   4.543   8.367 -0.1477 -0.0012 -0.1094
 2510SOL    HW119163   4.479   4.512   8.329 -0.1908  0.3072 -0.2622
 2510SOL    HW219164   4.533   4.634   8.374 -0.0346  0.1994 -2.2819
 2511SOL     OW19165   0.754   2.676   6.841  0.6448  0.1103 -0.0888
 2511SOL    HW119166   0.752   2.771   6.858  1.4256  0.1938 -0.4654
 2511SOL    HW219167   0.762   2.640   6.929  1.6688  1.8790  0.5459
 2512SOL     OW19168   0.707   0.573   2.683  0.2814 -0.3996  0.2260
 2512SOL    HW119169   0.783   0.578   2.625 -0.8253  0.1447 -1.1794
 2512SOL    HW219170   0.688   0.480   2.668  0.5697 -0.9443  3.2606
 2513SOL     OW19171   4.094   4.379   3.588  0.0190  0.2750 -0.9703
 2513SOL    HW119172   4.117   4.454   3.643 -1.6747 -1.4398  2.1039
 2513SOL    HW219173   4.117   4.405   3.499  0.7891  0.1347 -0.8121
 2514SOL     OW19174   3.716   1.290   6.447  0.3266  0.1228 -0.2440
 2514SOL    HW119175   3.625   1.277   6.420  0.0938  1.5777 -0.1876
 2514SOL    HW219176   3.749   1.200   6.452  0.8575  0.2887 -0.8526
 2515SOL     OW19177   2.671   2.222   8.170 -0.0470  0.5736  0.2526
 2515SOL    HW119178   2.738   2.160   8.200 -1.1389  0.0341  1.5541
 2515SOL    HW219179   2.730   2.293   8.143  1.7875 -1.7637 -1.9796
 2516SOL     OW19180   0.778   4.353   3.400 -0.2118  0.0929 -0.0184
 2516SOL    HW119181   0.757   4.424   3.460  0.0793  0.4930 -0.3903
 2516SOL    HW219182   0.874   4.356   3.398 -0.2498 -0.3418 -1.9159
 2517SOL     OW19183   2.201   4.479  15.666  0.4813  0.5241  0.0721
 2517SOL    HW119184   2.119   4.461  15.619  0.8387 -2.4417  0.5606
 2517SOL    HW219185   2.161   4.542  15.726 -4.1141 -1.7014 -0.5720
 2518SOL     OW19186   0.286   1.510  14.549 -0.6338  0.8076 -0.5194
 2518SOL    HW119187   0.341   1.490  14.474 -2.8896 -1.4302 -1.5603
 2518SOL    HW219188   0.291   1.605  14.557  1.6751  0.5945  0.7017
 2519SOL     OW19189   3.590   2.683   4.247 -0.0193  0.1979 -0.3896
 2519SOL    HW119190   3.537   2.761   4.261  1.7310  1.2147  0.6162
 2519SOL    HW219191   3.633   2.692   4.162  1.5522  1.0279  0.4889
 2520SOL     OW19192   0.957   0.477   8.744 -0.2359 -0.2452  0.1052
 2520SOL    HW119193   1.037   0.424   8.742  0.6975  1.1564  0.4347
 2520SOL    HW219194   0.892   0.426   8.793  0.3250 -0.9624  0.1096
 2521SOL     OW19195   3.565   1.883   3.300  0.2521 -0.4021 -0.4307
 2521SOL    HW119196   3.564   1.851   3.390 -0.4478  3.0221  0.7638
 2521SOL    HW219197   3.657   1.909   3.300 -0.0792  0.8176 -1.9070
 2522SOL     OW19198   2.866   2.923   2.399  0.0569 -0.0862 -0.3939
 2522SOL    HW119199   2.940   2.971   2.435 -1.0010  0.5252  0.9616
 2522SOL    HW219200   2.899   2.834   2.385  1.5063  0.4031 -0.0467
 2523SOL     OW19201   0.542   3.994   5.768  0.4699  0.0679 -0.1606
 2523SOL    HW119202   0.489   3.919   5.741 -0.5282  1.2566 -1.4683
 2523SOL    HW219203   0.479   4.065   5.758 -0.4930 -1.0350 -1.9222
 2524SOL     OW19204   3.404   0.616   2.087  0.6496 -0.4647  0.2783
 2524SOL    HW119205   3.374   0.548   2.148  0.8277 -1.4807 -0.7581
 2524SOL    HW219206   3.341   0.687   2.099  1.5275  0.2300  0.7756
 2525SOL     OW19207   2.827   4.334  10.298  0.2230  0.3743 -0.4279
 2525SOL    HW119208   2.922   4.324  10.293  0.0988  0.6617 -3.4671
 2525SOL    HW219209   2.793   4.274  10.232  0.1090  1.3111 -1.2378
 2526SOL     OW19210   3.343   0.981  13.980 -0.0964 -0.6372 -0.4192
 2526SOL    HW119211   3.299   0.968  13.896  0.9641 -2.7960 -0.6353
 2526SOL    HW219212   3.397   1.059  13.964 -0.4333 -0.1917  0.6181
 2527SOL     OW19213   3.460   2.793   6.675 -0.3250 -0.3433 -0.3108
 2527SOL    HW119214   3.502   2.774   6.591  2.3082 -3.0057  1.6285
 2527SOL    HW219215   3.479   2.887   6.682 -0.3946 -0.5267  2.3183
 2528SOL     OW19216   3.506   3.894   0.395 -0.2079 -0.2068  0.1156
 2528SOL    HW119217   3.440   3.843   0.347 -1.0362  1.6010 -0.6738
 2528SOL    HW219218   3.528   3.838   0.470  1.3399  1.5179  0.9256
 2529SOL     OW19219   2.056   0.704   3.410  0.2899  0.0955  0.0527
 2529SOL    HW119220   1.995   0.711   3.337  0.1325 -0.6984  0.1153
 2529SOL    HW219221   2.103   0.627   3.378  0.2113  0.3300 -0.6418
 2530SOL     OW19222   4.408   1.528   8.218  0.3217 -0.1245  0.3463
 2530SOL    HW119223   4.323   1.538   8.177 -0.3063  0.1360  1.7102
 2530SOL    HW219224   4.439   1.613   8.186 -1.2858  0.5384  0.5721
 2531SOL     OW19225   0.792   0.738   2.883 -0.4285  0.2168  1.0538
 2531SOL    HW119226   0.757   0.677   2.818 -1.0622  0.6635  0.9843
 2531SOL    HW219227   0.731   0.727   2.956  1.9072 -0.8092  2.8366
 2532SOL     OW19228   1.492   0.746   4.058 -0.1410 -0.0310  0.1863
 2532SOL    HW119229   1.446   0.663   4.049  0.9344 -0.6168  0.0574
 2532SOL    HW219230   1.438   0.801   4.001 -0.1337 -1.4545 -1.1971
 2533SOL     OW19231   4.558   1.736   4.800 -0.0069  0.0291  0.3557
 2533SOL    HW119232   4.551   1.736   4.704  1.0907 -1.2419  0.2887
 2533SOL    HW219233   4.493   1.667   4.815 -1.2789  1.5181  1.6264
 2534SOL     OW19234   1.678   0.665   4.632 -0.2402  0.1259  0.5211
 2534SOL    HW119235   1.665   0.756   4.604 -1.0238 -1.2946 -3.6940
 2534SOL    HW219236   1.770   0.675   4.657 -0.1732 -1.6293  0.9078
 2535SOL     OW19237   1.010   4.447   8.180  0.2840  0.5570  0.3561
 2535SOL    HW119238   0.918   4.463   8.158 -0.7987 -2.9984  2.3255
 2535SOL    HW219239   1.002   4.418   8.271 -2.6774 -1.2298 -0.4519
 2536SOL     OW19240   0.594   2.442   4.344  0.1094  0.5256  0.4210
 2536SOL    HW119241   0.534   2.516   4.355  1.0287  1.2685  0.3584
 2536SOL    HW219242   0.641   2.461   4.263  3.5867 -0.8157  2.1160
 2537SOL     OW19243   3.585   4.292   7.257 -0.4633  0.2127  0.5605
 2537SOL    HW119244   3.551   4.270   7.343 -0.6308 -2.6862 -0.2299
 2537SOL    HW219245   3.515   4.254   7.202 -1.9278  0.8474  1.9937
 2538SOL     OW19246   0.996   0.057   6.733 -0.4258 -0.9469 -0.0555
 2538SOL    HW119247   0.913   0.028   6.770 -1.6065  1.4149 -0.8890
 2538SOL    HW219248   1.053   0.033   6.806  1.9625  0.4168 -1.4542
 2539SOL     OW19249   3.491   3.894   3.020 -0.3449  0.0414  0.5574
 2539SOL    HW119250   3.503   3.861   3.109 -0.8049 -2.8018 -0.4467
 2539SOL    HW219251   3.405   3.933   3.036 -0.6609 -0.6184  0.4641
 2540SOL     OW19252   3.972   1.899   1.394 -0.4906 -0.0584  0.0373
 2540SOL    HW119253   4.060   1.894   1.431 -0.1594 -0.3424 -0.7878
 2540SOL    HW219254   3.974   1.985   1.353  2.1432  0.8087  1.9935
 2541SOL     OW19255   1.840   2.300  16.850 -0.0303 -0.4820 -0.3243
 2541SOL    HW119256   1.857   2.389  16.880  0.2540 -0.4313 -0.6346
 2541SOL    HW219257   1.864   2.300  16.758 -4.9804  2.5755 -1.5745
 2542SOL     OW19258   4.555   1.844   9.106 -0.2360  0.1692  0.6518
 2542SOL    HW119259   4.646   1.871   9.113 -0.3669  0.8020 -0.1136
 2542SOL    HW219260   4.563   1.755   9.142 -1.7208 -0.2983 -0.1684
 2543SOL     OW19261   0.067   0.110  13.760  0.0051  0.1549  0.2574
 2543SOL    HW119262   4.737   0.057  13.802  0.3846 -0.0262  0.6346
 2543SOL    HW219263   0.132   0.126  13.829 -0.6675  0.8597  0.7417
 2544SOL     OW19264   1.863   0.470   7.242 -0.2109 -0.3693 -0.9976
 2544SOL    HW119265   1.812   0.530   7.189  0.5102  1.8570  0.8337
 2544SOL    HW219266   1.947   0.471   7.196  1.1379 -0.7583  1.4000
 2545SOL     OW19267   0.579   3.828   5.019  0.8818  0.2859  0.5452
 2545SOL    HW119268   0.566   3.848   4.926 -0.2287 -0.4741  0.5459
 2545SOL    HW219269   0.511   3.881   5.062 -1.9479 -1.7806 -1.4379
 2546SOL     OW19270   4.649   0.209   6.338  0.2494 -0.1621 -0.1513
 2546SOL    HW119271   4.578   0.201   6.402  1.1803  1.0064  1.0305
 2546SOL    HW219272   4.607   0.267   6.274 -1.4208 -2.7830 -1.4289
 2547SOL     OW19273   2.474   1.745   1.775 -0.3491 -0.2436 -0.6162
 2547SOL    HW119274   2.403   1.699   1.818  0.9664 -1.0425  0.7014
 2547SOL    HW219275   2.428   1.787   1.702 -1.5120  1.7939  1.2803
 2548SOL     OW19276   3.163   1.854  16.828  0.6358  0.0794 -0.0390
 2548SOL    HW119277   3.150   1.847  16.923 -1.0032  1.1497 -0.1752
 2548SOL    HW219278   3.081   1.816  16.797  0.7459  0.0639 -0.3051
 2549SOL     OW19279   2.123   1.530   5.414 -0.0213 -0.0912  0.5966
 2549SOL    HW119280   2.207   1.488   5.432 -0.8557 -0.7263  3.0147
 2549SOL    HW219281   2.056   1.473   5.453 -0.3133  1.2342  2.0197
 2550SOL     OW19282   3.242   4.225  17.014 -0.2960  0.1542  0.1316
 2550SOL    HW119283   3.147   4.217  17.002 -0.6055  0.5467  2.3742
 2550SOL    HW219284   3.251   4.315  16.984  2.5223  0.4062  1.7893
 2551SOL     OW19285   1.670   0.074   5.779  0.4232 -0.3526  0.2999
 2551SOL    HW119286   1.590   0.044   5.737  0.9598  0.8295 -1.5360
 2551SOL    HW219287   1.665   0.165   5.807 -0.9345 -1.2671  3.0290
 2552SOL     OW19288   1.831   1.326   4.319  0.4265 -0.1709 -0.1146
 2552SOL    HW119289   1.878   1.248   4.349 -0.7039 -0.5149  0.7401
 2552SOL    HW219290   1.893   1.341   4.247 -0.1729  1.2984 -0.3152
 2553SOL     OW19291   0.941   3.032   3.536  0.1966 -0.2515 -0.8351
 2553SOL    HW119292   0.850   3.061   3.535 -0.1534 -1.1432  2.1882
 2553SOL    HW219293   0.967   3.062   3.450 -0.5853 -0.4408 -1.1361
 2554SOL     OW19294   0.112   1.761   3.273  0.3851 -0.5399 -0.3252
 2554SOL    HW119295   0.115   1.711   3.191 -0.0752 -2.4321  0.7963
 2554SOL    HW219296   0.184   1.724   3.325 -0.9411  0.9663  2.6049
 2555SOL     OW19297   0.303   1.883   7.170  0.3401  0.1011  0.1606
 2555SOL    HW119298   0.343   1.797   7.156 -1.3175 -0.5542 -0.6205
 2555SOL    HW219299   0.235   1.861   7.234 -1.1403 -0.3002 -1.5513
 2556SOL     OW19300   2.217   1.959   1.312 -0.1218 -0.0856  0.5344
 2556SOL    HW119301   2.222   2.054   1.313  1.5120 -0.1813  2.0541
 2556SOL    HW219302   2.127   1.953   1.280 -0.5720 -0.0957  1.8042
 2557SOL     OW19303   1.617   2.847   6.812 -0.6015  0.1482 -0.2702
 2557SOL    HW119304   1.665   2.764   6.822  0.0355  0.5259 -0.2218
 2557SOL    HW219305   1.644   2.912   6.876  1.6811 -0.8492 -0.2142
 2558SOL     OW19306   3.547   0.203  17.745 -0.3340  0.0971 -0.2701
 2558SOL    HW119307   3.509   0.279   0.039 -2.1888 -1.0743  0.2011
 2558SOL    HW219308   3.566   0.244  17.661 -0.0903  0.6302  0.0502
 2559SOL     OW19309   0.250   2.325   1.773  0.1516  0.0199  0.2275
 2559SOL    HW119310   0.164   2.333   1.731 -1.1524 -1.2302  2.6469
 2559SOL    HW219311   0.256   2.408   1.820 -1.0529  0.6284 -0.6761
 2560SOL     OW19312   2.899   0.531   3.452 -0.1457 -0.5666  0.1882
 2560SOL    HW119313   2.853   0.495   3.528  2.1673 -0.8031  1.4552
 2560SOL    HW219314   2.928   0.607   3.503 -0.5827 -1.3212  1.5880
 2561SOL     OW19315   3.938   3.299   1.329 -0.0458  0.1070 -0.2554
 2561SOL    HW119316   3.898   3.251   1.401  1.9601 -0.5165  0.4300
 2561SOL    HW219317   4.014   3.334   1.374 -0.6213  0.9995  0.0288
 2562SOL     OW19318   1.185   4.457   3.198 -0.1570 -0.9061 -0.8669
 2562SOL    HW119319   1.129   4.396   3.247 -0.2244 -0.1412  0.0016
 2562SOL    HW219320   1.139   4.479   3.117 -0.5880  1.5029  0.0136
 2563SOL     OW19321   1.823   3.566  12.501  0.0969  0.0007 -0.5111
 2563SOL    HW119322   1.755   3.506  12.469  1.1888 -1.5068  0.0004
 2563SOL    HW219323   1.791   3.651  12.472  0.0132  0.3804  0.7068
 2564SOL     OW19324   3.394   2.695   3.868  0.2589 -0.6439  0.8071
 2564SOL    HW119325   3.457   2.641   3.820 -1.8142 -2.5629  0.2355
 2564SOL    HW219326   3.422   2.781   3.837 -0.8280 -0.8824 -0.8648
 2565SOL     OW19327   1.175   0.261  11.260 -0.1056 -0.0412  0.0936
 2565SOL    HW119328   1.215   0.174  11.256 -2.9218 -1.2421 -2.2896
 2565SOL    HW219329   1.100   0.241  11.315 -0.2167  1.6598  0.5499
 2566SOL     OW19330   3.928   2.173   2.552  0.3095  0.2523  0.4819
 2566SOL    HW119331   3.950   2.105   2.488  2.3054  1.5488 -0.2219
 2566SOL    HW219332   3.942   2.125   2.633  1.8753 -0.3009 -0.1046
 2567SOL     OW19333   0.944   0.569   9.908 -0.4796  0.2983 -0.3911
 2567SOL    HW119334   0.884   0.626   9.861 -1.4830  0.8612  1.5640
 2567SOL    HW219335   0.990   0.632   9.964 -0.5909 -1.4539  1.6554
 2568SOL     OW19336   2.472   1.192   3.887  0.2875  0.4030 -0.6362
 2568SOL    HW119337   2.378   1.192   3.870  0.2243  0.8638 -0.2949
 2568SOL    HW219338   2.487   1.257   3.819  2.7523 -0.9028 -1.3289
 2569SOL     OW19339   0.748   4.113   6.757  0.2978 -0.2229  0.6807
 2569SOL    HW119340   0.817   4.049   6.774 -0.3642 -1.0604  0.1884
 2569SOL    HW219341   0.715   4.137   6.844 -1.8056 -1.8797  0.3276
 2570SOL     OW19342   3.296   4.407   1.607  0.6524  0.3337  0.6617
 2570SOL    HW119343   3.335   4.492   1.591 -1.6259  1.1654 -0.4957
 2570SOL    HW219344   3.330   4.373   1.690  0.2848 -1.3366  0.1320
 2571SOL     OW19345   0.160   0.186  17.425 -0.6168  0.3594  0.1631
 2571SOL    HW119346   0.103   0.204  17.499 -1.9046 -1.3788 -0.3952
 2571SOL    HW219347   0.108   0.122  17.375 -0.3873  2.6206 -2.9510
 2572SOL     OW19348   0.340   4.303   5.138  0.3484 -0.1132  0.1740
 2572SOL    HW119349   0.411   4.366   5.149  0.9837 -0.7647 -0.2002
 2572SOL    HW219350   0.279   4.322   5.209 -0.0152 -1.8009  0.3116
 2573SOL     OW19351   3.038   1.597   5.765 -0.7033  0.5325  1.0262
 2573SOL    HW119352   3.068   1.589   5.675 -2.9528  0.7601  0.2466
 2573SOL    HW219353   3.073   1.511   5.789  0.1451  0.1918 -1.3873
 2574SOL     OW19354   2.889   3.201  14.377  0.5876 -0.4255  0.3326
 2574SOL    HW119355   2.877   3.270  14.442 -0.7496  0.2339 -0.6060
 2574SOL    HW219356   2.893   3.253  14.297 -1.1713  0.1357  0.6085
 2575SOL     OW19357   3.526   0.862   7.753 -0.6122  0.5130 -0.1013
 2575SOL    HW119358   3.464   0.792   7.775 -1.0327  1.0226  0.3306
 2575SOL    HW219359   3.489   0.934   7.803 -1.3697 -0.1429  0.2753
 2576SOL     OW19360   0.128   4.304   1.961  0.3353 -0.4775  0.0743
 2576SOL    HW119361   0.066   4.241   1.997 -0.6733  0.2843 -0.3120
 2576SOL    HW219362   0.120   4.292   1.866  0.7675  0.7327 -0.1156
 2577SOL     OW19363   2.621   0.948  17.238  0.2530 -0.1835  0.1304
 2577SOL    HW119364   2.614   0.853  17.231 -1.1272 -0.1211  0.6783
 2577SOL    HW219365   2.573   0.982  17.163  0.6902  1.0317  0.4057
 2578SOL     OW19366   0.242   4.603  11.652 -0.0035  1.0340  0.0895
 2578SOL    HW119367   0.244   4.509  11.633 -1.7933  0.8542  0.8242
 2578SOL    HW219368   0.310   4.613  11.719 -0.2892 -1.2413  0.7302
 2579SOL     OW19369   1.725   2.528   1.955  0.2593 -0.1906 -0.1257
 2579SOL    HW119370   1.676   2.592   2.006 -1.1385  0.5666 -2.4644
 2579SOL    HW219371   1.684   2.535   1.869 -0.5925 -0.8192  0.2273
 2580SOL     OW19372   0.302   0.422   8.592 -0.2597 -0.2495  0.4858
 2580SOL    HW119373   0.331   0.474   8.667  0.5453 -2.1762  1.5037
 2580SOL    HW219374   0.231   0.475   8.554  0.2230 -0.2780 -0.4468
 2581SOL     OW19375   1.387   4.656   0.769  0.7425 -0.3706 -0.2631
 2581SOL    HW119376   1.332   4.726   0.732 -0.5638 -0.2355  1.9694
 2581SOL    HW219377   1.329   4.628   0.840 -1.0703  0.5412 -1.3837
 2582SOL     OW19378   2.433   4.467   2.684  0.1151 -0.0611  0.0197
 2582SOL    HW119379   2.522   4.434   2.699  1.1030  2.7750  0.4317
 2582SOL    HW219380   2.398   4.411   2.614 -0.7781 -0.3347  0.6870
 2583SOL     OW19381   4.368   1.298   7.390  0.2286 -0.0246 -0.1343
 2583SOL    HW119382   4.399   1.208   7.402  0.8438  0.3461  1.0055
 2583SOL    HW219383   4.339   1.292   7.299  0.1260 -1.3452 -0.0122
 2584SOL     OW19384   1.865   2.187   4.515 -0.0982 -0.7605  0.1281
 2584SOL    HW119385   1.801   2.258   4.519  1.4505  0.7730 -2.3187
 2584SOL    HW219386   1.927   2.231   4.456 -2.4074 -0.2218 -1.8950
 2585SOL     OW19387   1.420   2.208   5.646  0.5841  0.5403  0.2568
 2585SOL    HW119388   1.430   2.208   5.741 -0.5627 -0.5961  0.3852
 2585SOL    HW219389   1.338   2.160   5.637  0.5840  0.9305 -1.8436
 2586SOL     OW19390   1.525   3.231   3.231  0.0819  0.7071  0.1754
 2586SOL    HW119391   1.610   3.205   3.195 -0.5338 -0.9164 -0.1219
 2586SOL    HW219392   1.541   3.232   3.325  1.1803 -0.3520  0.0017
 2587SOL     OW19393   4.737   3.118   3.906  0.4258 -0.0731 -0.0640
 2587SOL    HW119394   4.703   3.147   3.821  2.2513 -0.1352 -0.8082
 2587SOL    HW219395   4.734   3.199   3.956  1.0136  0.0882 -0.2915
 2588SOL     OW19396   1.690   2.165   7.183 -0.2190  0.1577  0.4887
 2588SOL    HW119397   1.597   2.150   7.171  0.2301 -0.3009 -2.3944
 2588SOL    HW219398   1.701   2.252   7.145 -0.3642  0.6987  1.6857
 2589SOL     OW19399   2.370   4.370  11.374 -0.3984 -0.3413  0.4021
 2589SOL    HW119400   2.441   4.315  11.341  0.1202 -0.4802  1.7167
 2589SOL    HW219401   2.300   4.332  11.321 -1.3395  0.2697  1.2091
 2590SOL     OW19402   1.443   0.840   9.350 -0.2952 -0.4274 -1.2198
 2590SOL    HW119403   1.356   0.866   9.381  0.4909 -0.5416  1.1063
 2590SOL    HW219404   1.502   0.882   9.412 -0.5478 -1.0968 -0.5197
 2591SOL     OW19405   4.420   0.754   9.129  0.6192 -0.0935  0.0138
 2591SOL    HW119406   4.352   0.727   9.191  0.9650 -0.0242  0.4214
 2591SOL    HW219407   4.487   0.694   9.160 -2.1200 -2.2724  1.7302
 2592SOL     OW19408   1.007   1.101   8.120  0.3657 -0.1772  0.2420
 2592SOL    HW119409   1.101   1.118   8.119  0.4648 -0.8690 -0.8553
 2592SOL    HW219410   0.991   1.010   8.098  1.0404 -0.7886  2.3228
 2593SOL     OW19411   2.987   2.312   6.824 -0.2889  0.3980  0.5051
 2593SOL    HW119412   2.940   2.381   6.779 -0.5937 -0.1965 -0.0916
 2593SOL    HW219413   2.946   2.239   6.777  2.0257  0.0945 -1.0873
 2594SOL     OW19414   3.701   0.486   2.576 -0.1453  0.0535  0.5980
 2594SOL    HW119415   3.746   0.480   2.492 -1.5487  1.0960 -0.2366
 2594SOL    HW219416   3.777   0.487   2.634 -0.0168  0.6487  0.4174
 2595SOL     OW19417   0.957   0.656   3.618 -0.3302  0.2072  0.5535
 2595SOL    HW119418   0.997   0.619   3.696  2.2454  1.9341  0.0652
 2595SOL    HW219419   0.953   0.746   3.650 -0.5566  0.2420  0.4219
 2596SOL     OW19420   2.982   4.142  17.276 -0.8549  0.3304  0.3635
 2596SOL    HW119421   3.025   4.224  17.299 -1.4470  0.6586  0.3281
 2596SOL    HW219422   2.969   4.163  17.183 -0.1061  0.3729  0.2706
 2597SOL     OW19423   4.466   1.033   7.477  0.1903  0.1971  0.1160
 2597SOL    HW119424   4.462   1.026   7.573 -1.0783  0.3176  0.0707
 2597SOL    HW219425   4.476   0.941   7.453  2.2143 -0.3587  3.0206
 2598SOL     OW19426   2.034   0.542  15.863 -0.4315 -0.1727 -0.2349
 2598SOL    HW119427   1.991   0.575  15.942 -0.7598 -2.3242  0.4906
 2598SOL    HW219428   1.971   0.521  15.794  0.9001  0.4743 -1.6356
 2599SOL     OW19429   2.835   3.769   6.463 -0.2624  0.4026  0.0982
 2599SOL    HW119430   2.882   3.769   6.379 -2.3518  2.2450 -1.0779
 2599SOL    HW219431   2.912   3.786   6.516 -0.2273  0.1548  0.1283
 2600SOL     OW19432   1.532   2.626   3.521 -0.3278 -0.1011 -0.2364
 2600SOL    HW119433   1.543   2.712   3.480 -0.5634  0.6830  1.3194
 2600SOL    HW219434   1.438   2.629   3.539 -0.6938 -1.0139 -2.1149
 2601SOL     OW19435   3.772   0.606   8.430 -0.3592  0.1769  0.3452
 2601SOL    HW119436   3.779   0.697   8.403 -1.7909 -0.1622 -1.1785
 2601SOL    HW219437   3.735   0.616   8.518  0.2960  2.1723  0.3801
 2602SOL     OW19438   3.769   4.125   0.919 -0.2180 -0.4536 -0.1352
 2602SOL    HW119439   3.746   4.204   0.869  0.1975  0.4286  1.0787
 2602SOL    HW219440   3.785   4.054   0.857  1.7700  0.7016 -0.9441
 2603SOL     OW19441   2.416   0.231   9.068 -0.4292 -0.2359 -0.0656
 2603SOL    HW119442   2.408   0.325   9.053  4.5316  0.4281  1.5320
 2603SOL    HW219443   2.501   0.227   9.111 -2.0977 -1.1424  3.1682
 2604SOL     OW19444   3.643   3.422   6.794 -0.4341 -0.0255 -0.1249
 2604SOL    HW119445   3.626   3.453   6.705 -0.4830  0.1707 -0.0482
 2604SOL    HW219446   3.735   3.447   6.803 -0.5571  0.4769 -0.2278
 2605SOL     OW19447   1.614   1.428   8.312 -0.1304 -0.0840  0.4385
 2605SOL    HW119448   1.688   1.371   8.329  0.0427 -0.1838 -0.6808
 2605SOL    HW219449   1.663   1.502   8.278 -1.3227  0.8706  0.7934
 2606SOL     OW19450   3.598   0.843   2.696  0.2099 -0.3179  0.2108
 2606SOL    HW119451   3.597   0.758   2.651  1.9400 -0.2206 -0.0250
 2606SOL    HW219452   3.685   0.872   2.669 -0.5153  2.7318  1.1776
 2607SOL     OW19453   1.389   3.120   5.680  0.1196  0.0650  0.1557
 2607SOL    HW119454   1.375   3.181   5.607 -0.9427  1.0317  1.1509
 2607SOL    HW219455   1.468   3.166   5.708  1.1519  0.2879 -3.1210
 2608SOL     OW19456   0.904   2.705   3.713 -0.1632 -0.1155  0.0176
 2608SOL    HW119457   0.891   2.662   3.798  1.2053  0.7133  0.6524
 2608SOL    HW219458   0.986   2.748   3.737  1.1415 -2.0942 -0.8672
 2609SOL     OW19459   0.798   3.738   3.776 -0.2435  0.0676  0.2496
 2609SOL    HW119460   0.848   3.687   3.840  0.9152 -0.7259 -1.2770
 2609SOL    HW219461   0.711   3.714   3.809 -0.4655  0.3739 -0.1247
 2610SOL     OW19462   2.425   1.552   4.976 -0.1033 -0.4448  0.2763
 2610SOL    HW119463   2.343   1.568   5.022  0.3179  0.3188  0.7629
 2610SOL    HW219464   2.434   1.458   4.986 -0.1710 -0.4237  0.5228
 2611SOL     OW19465   2.991   2.130   1.477  0.0091  0.5374  0.4380
 2611SOL    HW119466   3.039   2.168   1.404 -0.9016  2.8412  1.0101
 2611SOL    HW219467   2.989   2.045   1.434  0.1507  1.1281 -0.7258
 2612SOL     OW19468   0.294   0.759   8.237  0.2800  0.4125 -0.2125
 2612SOL    HW119469   0.301   0.705   8.159 -0.6437  1.2417 -0.8601
 2612SOL    HW219470   0.334   0.701   8.302  0.3391  2.0152  1.1704
 2613SOL     OW19471   0.861   4.481  13.827  0.1298  0.1971  0.5649
 2613SOL    HW119472   0.788   4.459  13.885 -0.9405 -2.0042 -1.6201
 2613SOL    HW219473   0.934   4.421  13.836  1.1909  1.3759 -0.1993
 2614SOL     OW19474   2.359   2.562   0.003  0.1251 -0.3020 -0.2476
 2614SOL    HW119475   2.319   2.478   0.024  0.2381  0.2627  2.2380
 2614SOL    HW219476   2.276   2.604  17.727 -0.5040 -0.8781  0.9223
 2615SOL     OW19477   4.607   3.726   2.442  0.0549 -0.2196 -0.0410
 2615SOL    HW119478   4.573   3.669   2.511 -2.0678  1.5118  0.3265
 2615SOL    HW219479   4.631   3.660   2.377  0.4266  0.1862 -0.3166
 2616SOL     OW19480   0.692   0.918   6.614  0.1920 -0.2646  0.1702
 2616SOL    HW119481   0.651   0.899   6.530  0.8959 -0.4550 -0.1318
 2616SOL    HW219482   0.698   0.832   6.654  2.9534 -0.7085 -1.1834
 2617SOL     OW19483   1.186   0.304   1.529 -0.2013  0.7360  0.7510
 2617SOL    HW119484   1.216   0.307   1.620  0.1369 -0.8369  0.6956
 2617SOL    HW219485   1.126   0.378   1.529  1.8973  2.4575 -0.2898
 2618SOL     OW19486   2.555   3.473   4.984 -0.4136  0.3714  0.4832
 2618SOL    HW119487   2.647   3.488   5.007  0.4383 -1.8746 -1.5332
 2618SOL    HW219488   2.541   3.543   4.921  1.5174 -1.2807 -1.7951
 2619SOL     OW19489   2.252   2.480   1.566 -0.4372 -0.2544 -0.0042
 2619SOL    HW119490   2.257   2.533   1.486  1.2539 -1.2751 -0.5782
 2619SOL    HW219491   2.255   2.546   1.635 -2.4250 -0.6720  0.4949
 2620SOL     OW19492   0.604   4.260   5.469  0.0301  0.0857  0.1743
 2620SOL    HW119493   0.509   4.256   5.475 -0.0915 -0.2370 -1.8621
 2620SOL    HW219494   0.635   4.268   5.559 -1.7323  2.1962  0.6040
 2621SOL     OW19495   0.149   3.321  17.606 -0.3248 -0.8971  0.0371
 2621SOL    HW119496   0.111   3.407  17.626 -1.9310 -1.2897 -1.2410
 2621SOL    HW219497   0.225   3.311  17.662 -0.6883 -0.3392  0.6332
 2622SOL     OW19498   1.064   4.501   6.217  0.0840 -0.1432  0.6266
 2622SOL    HW119499   1.062   4.592   6.187  0.9456 -0.3179  0.0550
 2622SOL    HW219500   1.112   4.509   6.299  1.0193  0.1744  0.0497
 2623SOL     OW19501   0.391   3.976  10.834 -0.0814 -0.0511 -0.5389
 2623SOL    HW119502   0.426   4.060  10.806  1.8451 -1.4571 -2.3886
 2623SOL    HW219503   0.466   3.929  10.870 -0.0409  0.2559 -0.2200
 2624SOL     OW19504   1.296   3.548   4.054 -0.1903 -0.0209 -0.1712
 2624SOL    HW119505   1.272   3.612   4.121  0.8345  0.3898 -0.1938
 2624SOL    HW219506   1.326   3.607   3.985 -1.4716  1.3668  0.4732
 2625SOL     OW19507   3.120   3.647  11.794  0.0203  0.2339 -0.0124
 2625SOL    HW119508   3.105   3.575  11.855  1.7321  0.6084  0.8472
 2625SOL    HW219509   3.030   3.678  11.788  0.2981  0.7442 -1.4492
 2626SOL     OW19510   0.933   4.135   7.574  0.3290 -0.7175 -0.7044
 2626SOL    HW119511   0.933   4.067   7.642 -0.2605 -0.9205 -0.9125
 2626SOL    HW219512   0.962   4.087   7.496 -1.4840 -1.2033 -1.0590
 2627SOL     OW19513   2.064   3.027  17.511  0.1625 -0.2680 -0.3057
 2627SOL    HW119514   2.023   3.080  17.579  1.4978 -0.5839  0.7417
 2627SOL    HW219515   2.133   2.980  17.559  0.6514 -0.0913 -0.8346
 2628SOL     OW19516   4.229   0.049   2.752 -0.1170 -0.1855 -0.0303
 2628SOL    HW119517   4.318   0.027   2.778 -0.6942 -0.9469  1.2707
 2628SOL    HW219518   4.205   4.713   2.695 -0.7184  0.7939 -1.0565
 2629SOL     OW19519   3.009   0.111   0.397 -0.3902  0.2278  0.7380
 2629SOL    HW119520   2.990   0.179   0.331 -1.1532  1.8401  2.6260
 2629SOL    HW219521   3.104   0.121   0.404 -0.3540  0.1149  0.4325
 2630SOL     OW19522   4.443   1.104   4.824  0.1928  0.1055 -0.2029
 2630SOL    HW119523   4.469   1.196   4.837  1.3014 -0.1723 -0.4367
 2630SOL    HW219524   4.510   1.059   4.876 -1.9068 -0.3314  2.1368
 2631SOL     OW19525   0.263   2.065   3.627 -0.2224  0.0898  0.0824
 2631SOL    HW119526   0.261   2.076   3.532 -0.7222 -0.2964  0.0481
 2631SOL    HW219527   0.346   2.105   3.654 -0.6263  1.4551 -0.7136
 2632SOL     OW19528   0.545   4.112   3.564  0.1527  0.7140  0.1067
 2632SOL    HW119529   0.517   4.153   3.482 -1.3226  0.2299  0.3708
 2632SOL    HW219530   0.488   4.035   3.558 -1.8745  2.1106  1.7333
 2633SOL     OW19531   4.545   4.467   2.439 -0.3760  0.3305 -0.0667
 2633SOL    HW119532   4.529   4.380   2.475 -0.7932  0.2066 -0.5423
 2633SOL    HW219533   4.641   4.468   2.437 -0.3422 -1.0953  1.4547
 2634SOL     OW19534   4.389   2.680  13.875  0.4022 -0.2630 -0.1591
 2634SOL    HW119535   4.388   2.692  13.970 -0.0319 -4.4874  0.3927
 2634SOL    HW219536   4.373   2.586  13.868 -1.0575  0.1477 -2.3183
 2635SOL     OW19537   2.647   1.047  12.901 -0.0611  0.0128  0.4574
 2635SOL    HW119538   2.701   1.009  12.831  0.2419  1.5084 -0.1186
 2635SOL    HW219539   2.594   0.971  12.927  0.0442 -0.8063 -1.7098
 2636SOL     OW19540   1.228   0.186  12.476  0.4482 -0.4896  0.0272
 2636SOL    HW119541   1.239   0.250  12.406  0.1626 -1.3410 -0.8014
 2636SOL    HW219542   1.237   0.234  12.558  0.7476  4.2845 -2.8170
 2637SOL     OW19543   4.475   3.332   2.163 -0.1394  0.1412 -0.3722
 2637SOL    HW119544   4.536   3.262   2.140  2.4794  2.2287  0.3645
 2637SOL    HW219545   4.486   3.396   2.092 -0.2609  0.1154 -0.4152
 2638SOL     OW19546   1.752   3.233   8.901  0.7547  0.3624 -0.2254
 2638SOL    HW119547   1.814   3.176   8.948  0.3774  0.8530  0.8766
 2638SOL    HW219548   1.797   3.317   8.904 -1.3401  1.4914 -1.0333
 2639SOL     OW19549   1.259   0.617   4.570 -0.2968  0.0726  0.0179
 2639SOL    HW119550   1.180   0.642   4.522  0.2181  1.4458 -0.1331
 2639SOL    HW219551   1.281   0.706   4.599 -1.6155  0.2033  0.5801
 2640SOL     OW19552   2.992   4.097   8.544  0.7543  0.1997  0.3168
 2640SOL    HW119553   3.029   4.058   8.623  0.6504  0.9321  0.7272
 2640SOL    HW219554   2.899   4.079   8.557  0.9147 -0.0394  1.1256
 2641SOL     OW19555   2.271   3.852   0.162 -0.8347 -0.5391  0.2726
 2641SOL    HW119556   2.269   3.940   0.201 -1.1428  0.3827 -1.7957
 2641SOL    HW219557   2.364   3.830   0.158 -0.4142  1.6964 -2.6221
 2642SOL     OW19558   3.171   2.906   6.787  0.1991 -0.7204  0.6843
 2642SOL    HW119559   3.203   2.816   6.785  2.0663 -0.0301 -0.7628
 2642SOL    HW219560   3.152   2.914   6.880 -1.8820 -0.0080  0.2019
 2643SOL     OW19561   3.828   3.471   4.481  0.9490 -0.0355 -0.0621
 2643SOL    HW119562   3.911   3.424   4.480  0.4343 -1.0425  2.2185
 2643SOL    HW219563   3.789   3.459   4.568 -0.0623  1.5070 -0.3119
 2644SOL     OW19564   1.530   2.524   7.177  0.5770  0.2817 -0.3285
 2644SOL    HW119565   1.479   2.494   7.102 -0.4922 -0.8653  0.8536
 2644SOL    HW219566   1.508   2.468   7.252  0.4478  0.8850  0.0824
 2645SOL     OW19567   2.904   0.473   4.189  0.2312 -0.0489  0.4826
 2645SOL    HW119568   2.964   0.400   4.206 -1.7530 -1.8269  0.0049
 2645SOL    HW219569   2.948   0.531   4.128  1.1274 -0.1470  1.0351
 2646SOL     OW19570   0.914   2.179   8.494 -0.3777 -0.0778 -0.3043
 2646SOL    HW119571   0.894   2.103   8.549 -0.1935 -0.0776 -0.2380
 2646SOL    HW219572   1.007   2.192   8.509 -0.5952 -0.4997  1.4198
 2647SOL     OW19573   3.215   0.521  14.889 -0.2966 -0.5220 -0.0854
 2647SOL    HW119574   3.235   0.550  14.800 -0.8874 -1.3566 -0.4892
 2647SOL    HW219575   3.127   0.559  14.891  0.5943  1.5256 -0.1979
 2648SOL     OW19576   0.644   0.435  13.268  0.0012  0.0355 -0.2371
 2648SOL    HW119577   0.620   0.509  13.324 -1.1505 -0.2648 -0.3407
 2648SOL    HW219578   0.726   0.460  13.225 -1.3773  1.8990 -1.8027
 2649SOL     OW19579   3.021   3.508   8.082  0.8278  0.2014  0.3902
 2649SOL    HW119580   3.026   3.540   7.992 -0.6866  1.2516  0.6799
 2649SOL    HW219581   3.035   3.586   8.136 -2.4380  0.7266  0.4311
 2650SOL     OW19582   2.375   0.321   4.385 -0.4203  0.3851 -0.0201
 2650SOL    HW119583   2.343   0.263   4.316 -3.1668  2.6277 -0.6611
 2650SOL    HW219584   2.451   0.366   4.347 -0.1012 -0.8738 -0.8439
 2651SOL     OW19585   0.220   4.076   2.440 -0.0135 -0.4559 -0.1194
 2651SOL    HW119586   0.129   4.065   2.411  0.0736  0.2075 -0.6573
 2651SOL    HW219587   0.273   4.029   2.376  1.0746 -0.2992  0.6743
 2652SOL     OW19588   0.725   1.231   4.532 -0.1668  0.0450 -0.0880
 2652SOL    HW119589   0.761   1.320   4.529 -2.5372  1.0140  0.4506
 2652SOL    HW219590   0.719   1.209   4.625 -1.3074 -1.4839 -0.5258
 2653SOL     OW19591   2.286   3.009   0.571  0.2547  0.0158  0.4355
 2653SOL    HW119592   2.292   2.975   0.660 -1.8125 -0.4673  0.3956
 2653SOL    HW219593   2.191   3.019   0.574  0.3011  0.2109  1.2761
 2654SOL     OW19594   1.449   4.031   5.181  0.3553  0.3540 -0.7504
 2654SOL    HW119595   1.499   4.067   5.107  2.8946 -2.1078 -0.2260
 2654SOL    HW219596   1.358   4.054   5.160  0.6506  2.6650  0.4591
 2655SOL     OW19597   4.135   0.400   2.414 -0.3497 -0.3527  0.3133
 2655SOL    HW119598   4.044   0.405   2.443 -0.1522 -0.6876  0.9852
 2655SOL    HW219599   4.141   0.484   2.369  1.1668 -1.2363 -1.1629
 2656SOL     OW19600   3.800   2.963   4.033  0.5627 -0.8187 -0.1733
 2656SOL    HW119601   3.780   3.051   4.003 -1.4733 -0.9653  0.7517
 2656SOL    HW219602   3.785   2.983   4.125 -1.7918  0.9322 -0.9542
 2657SOL     OW19603   2.567   3.041   3.379 -0.1928 -0.0427 -0.7677
 2657SOL    HW119604   2.587   2.948   3.380 -0.4752 -0.1037 -0.7957
 2657SOL    HW219605   2.655   3.080   3.382 -2.3881  4.6538  3.4792
 2658SOL     OW19606   1.443   2.024   8.391  0.5407  0.6124  0.7661
 2658SOL    HW119607   1.537   2.031   8.409  1.4913 -1.8823 -3.3850
 2658SOL    HW219608   1.444   2.105   8.340  2.5791  1.9876  2.9249
 2659SOL     OW19609   4.389   0.021   6.323 -0.2943  0.1583 -0.0061
 2659SOL    HW119610   4.370   4.672   6.360 -1.1688  0.5715  0.5158
 2659SOL    HW219611   4.404   0.088   6.389  1.5167 -0.6200  0.3813
 2660SOL     OW19612   3.211   1.054   1.588  0.6375  0.0182  0.3048
 2660SOL    HW119613   3.146   1.013   1.531 -1.2341 -0.2734  2.6418
 2660SOL    HW219614   3.287   1.049   1.530  1.2166 -4.1963  1.4412
 2661SOL     OW19615   0.709   0.033   9.301 -0.6073 -0.2097 -0.2951
 2661SOL    HW119616   0.752   0.036   9.216 -1.4221 -0.2522 -0.7038
 2661SOL    HW219617   0.640   4.705   9.295 -0.6979  0.0136 -1.6955
 2662SOL     OW19618   3.263   0.034  13.098  0.4679 -0.7881 -0.3429
 2662SOL    HW119619   3.315   0.022  13.177 -2.3869 -2.1349  1.3345
 2662SOL    HW219620   3.249   4.677  13.085  0.5231 -0.8690  0.1843
 2663SOL     OW19621   2.652   2.133  12.800 -0.3215 -0.2041 -0.2096
 2663SOL    HW119622   2.602   2.178  12.733  0.7948  0.4934 -0.5711
 2663SOL    HW219623   2.730   2.189  12.803 -0.2803 -0.4173  3.4118
 2664SOL     OW19624   1.283   3.158  17.064 -0.3671 -0.5760  0.1452
 2664SOL    HW119625   1.274   3.102  16.987  0.1462  0.9795 -1.0523
 2664SOL    HW219626   1.221   3.226  17.038  0.1822 -0.4296 -0.7991
 2665SOL     OW19627   1.150   1.758   4.533 -0.4709  0.1800  0.4226
 2665SOL    HW119628   1.141   1.668   4.504  3.7487  0.4071 -1.5202
 2665SOL    HW219629   1.121   1.808   4.456 -2.2397 -1.3066  0.1396
 2666SOL     OW19630   2.145   0.693   6.114 -0.2962 -0.0554 -0.2192
 2666SOL    HW119631   2.097   0.771   6.088 -0.1026  0.9517  2.4881
 2666SOL    HW219632   2.187   0.723   6.195  0.4447 -0.0184 -0.6188
 2667SOL     OW19633   1.884   2.638   2.247  0.5732  0.4947 -0.2769
 2667SOL    HW119634   1.886   2.725   2.286 -2.2066  1.6567 -2.6993
 2667SOL    HW219635   1.791   2.617   2.238  1.0865 -1.1453 -1.9202
 2668SOL     OW19636   3.679   1.014   2.281  0.2751  0.7159 -0.4940
 2668SOL    HW119637   3.687   0.965   2.199 -0.4846 -0.1966 -0.0311
 2668SOL    HW219638   3.596   0.993   2.323  0.5433  0.2411 -0.1909
 2669SOL     OW19639   0.801   3.063   0.161 -0.2040 -0.4404  0.4473
 2669SOL    HW119640   0.741   2.995   0.192  1.0826 -1.1206  1.4312
 2669SOL    HW219641   0.867   3.018   0.109  0.9001  0.0928  1.3963
 2670SOL     OW19642   3.165   0.483   8.689  0.2531 -0.3956 -0.2738
 2670SOL    HW119643   3.110   0.437   8.752 -1.2469 -0.6497 -1.7607
 2670SOL    HW219644   3.157   0.572   8.724  1.0164  0.1101 -1.3583
 2671SOL     OW19645   2.148   0.729  13.796  0.1114 -0.1354  0.2764
 2671SOL    HW119646   2.215   0.789  13.764  0.1690 -0.4496 -0.1843
 2671SOL    HW219647   2.188   0.704  13.879  1.5081  0.6168 -0.1825
 2672SOL     OW19648   1.665   0.678   7.996 -0.3608  0.3748 -0.0120
 2672SOL    HW119649   1.757   0.695   8.016 -0.7955  2.3530  0.2899
 2672SOL    HW219650   1.672   0.595   7.949 -1.1891  0.3538 -0.0986
 2673SOL     OW19651   4.561   0.300   3.954 -0.1344 -0.2394  0.3670
 2673SOL    HW119652   4.646   0.303   3.998  0.2042  1.8133 -0.4232
 2673SOL    HW219653   4.576   0.296   3.860  1.2243 -0.0903  0.5838
 2674SOL     OW19654   0.299   0.097  13.989 -0.1248  0.1759  0.0672
 2674SOL    HW119655   0.263   0.083  14.077 -0.4888  2.7430  0.3359
 2674SOL    HW219656   0.385   0.056  13.986  0.4997  1.6165 -1.4431
 2675SOL     OW19657   3.126   1.291   7.294 -0.4927 -0.3691  0.1222
 2675SOL    HW119658   3.077   1.320   7.372  1.7340  0.7438  1.1196
 2675SOL    HW219659   3.198   1.261   7.349  1.1496  1.3731 -1.0787
 2676SOL     OW19660   3.517   4.090   5.027  0.2668  0.1243  0.4806
 2676SOL    HW119661   3.568   4.012   5.051  0.5201 -0.4291 -1.8839
 2676SOL    HW219662   3.542   4.154   5.094 -0.3978 -0.0144  0.8656
 2677SOL     OW19663   0.734   1.804   4.591  0.2009 -0.5194  0.3250
 2677SOL    HW119664   0.652   1.823   4.638 -0.7164 -1.8983 -0.7270
 2677SOL    HW219665   0.790   1.822   4.667 -0.8537  1.7520  0.5694
 2678SOL     OW19666   0.526   2.115   3.692 -0.4473 -0.0527  0.3669
 2678SOL    HW119667   0.544   2.157   3.776  1.1991  0.4126 -0.2233
 2678SOL    HW219668   0.555   2.186   3.635  0.4674  1.5071  2.7734
 2679SOL     OW19669   4.492   2.994   3.979 -0.0741  0.1022  0.2443
 2679SOL    HW119670   4.572   3.011   3.930  1.2735 -0.8411  2.1144
 2679SOL    HW219671   4.535   3.019   4.061 -1.2276  2.3780  0.1352
 2680SOL     OW19672   1.970   2.417   1.949  0.6275 -0.1549 -0.3285
 2680SOL    HW119673   1.890   2.470   1.957  0.1244 -0.7976 -1.0875
 2680SOL    HW219674   2.030   2.487   1.976 -1.0883  0.8453  0.9190
 2681SOL     OW19675   1.014   0.217   3.209 -0.1291 -0.1076  0.5046
 2681SOL    HW119676   1.078   0.173   3.265 -0.3591  0.6267  1.3471
 2681SOL    HW219677   0.941   0.159   3.187  1.1458 -1.3870 -0.3644
 2682SOL     OW19678   4.075   4.019   3.477  0.0555 -0.6272 -0.3101
 2682SOL    HW119679   4.136   3.950   3.452  1.0113 -0.3835  1.3572
 2682SOL    HW219680   4.130   4.094   3.500 -2.0893  0.6280  0.6746
 2683SOL     OW19681   2.222   0.383   2.703 -0.3169  0.0587 -0.3166
 2683SOL    HW119682   2.197   0.402   2.612 -1.2719  1.2166  0.1814
 2683SOL    HW219683   2.222   0.288   2.712  2.4165  0.0017 -0.7933
 2684SOL     OW19684   0.231   1.958   3.074  0.2036 -0.0830  0.5988
 2684SOL    HW119685   0.199   1.899   3.007  0.1929 -1.5505  1.8933
 2684SOL    HW219686   0.217   1.898   3.147  0.0116 -0.5135  0.2061
 2685SOL     OW19687   2.291   1.150   1.420 -0.0574 -0.4740  0.0474
 2685SOL    HW119688   2.311   1.056   1.421  1.5128 -0.1239  1.7470
 2685SOL    HW219689   2.380   1.186   1.422  0.9746 -2.9778 -0.0598
 2686SOL     OW19690   0.490   2.991   6.934 -0.2245  0.0917  0.0911
 2686SOL    HW119691   0.463   3.003   6.844  2.8363  0.2912 -0.8208
 2686SOL    HW219692   0.567   3.047   6.928 -0.7958  0.4813 -3.2116
 2687SOL     OW19693   0.093   3.591   8.552  0.2855  0.2131 -0.7782
 2687SOL    HW119694   0.056   3.571   8.466 -0.9707  0.7416 -0.3589
 2687SOL    HW219695   0.131   3.509   8.582  1.4590  0.1007 -2.5646
 2688SOL     OW19696   2.085   1.463   9.562 -0.3226  0.0915 -0.3901
 2688SOL    HW119697   2.120   1.546   9.594 -4.0180  0.8289  1.6907
 2688SOL    HW219698   1.998   1.489   9.532 -0.0896 -0.3026 -1.4242
 2689SOL     OW19699   0.200   1.139   8.935  0.0959 -0.6486  0.4202
 2689SOL    HW119700   0.112   1.124   8.968  0.2297 -3.1562 -0.3844
 2689SOL    HW219701   0.203   1.234   8.922 -0.2791 -1.0803 -2.8263
 2690SOL     OW19702   2.754   2.980  14.267 -0.2372 -0.0570 -0.4215
 2690SOL    HW119703   2.745   2.902  14.322  0.7449 -0.5254 -0.9303
 2690SOL    HW219704   2.783   3.043  14.333  0.4316 -1.9689  1.1071
 2691SOL     OW19705   0.903   0.739   7.676 -0.4486  0.2989  0.0612
 2691SOL    HW119706   0.826   0.795   7.671 -1.9336 -1.7658 -0.0717
 2691SOL    HW219707   0.866   0.687   7.748 -0.6439 -0.0704 -0.3062
 2692SOL     OW19708   1.846   0.146   2.830 -0.2034  0.0642  0.3701
 2692SOL    HW119709   1.882   0.214   2.887 -2.9541  1.4960  0.3677
 2692SOL    HW219710   1.754   0.147   2.857  0.4319  2.0792  2.4219
 2693SOL     OW19711   1.046   2.078   2.917  0.7522  0.5062  0.2587
 2693SOL    HW119712   0.973   2.054   2.859  0.6917 -0.7174  0.8536
 2693SOL    HW219713   1.007   2.146   2.972 -0.7996 -1.2645  1.3582
 2694SOL     OW19714   2.739   2.177   3.348 -0.6327 -0.2556  0.0078
 2694SOL    HW119715   2.759   2.235   3.275 -1.2161  0.6994  0.5978
 2694SOL    HW219716   2.670   2.125   3.308  0.1918 -0.3576 -1.2537
 2695SOL     OW19717   3.937   1.188   9.193  0.2087  0.1296 -0.3669
 2695SOL    HW119718   3.983   1.270   9.208  0.1153  0.1226 -0.0473
 2695SOL    HW219719   3.875   1.189   9.266 -0.6948  1.3857 -1.1540
 2696SOL     OW19720   1.146   0.541   4.218  0.1091 -0.0950 -0.0757
 2696SOL    HW119721   1.124   0.451   4.243 -1.8802  0.1960 -0.7892
 2696SOL    HW219722   1.102   0.583   4.292 -1.7382  0.6026 -1.5978
 2697SOL     OW19723   2.281   3.345  15.972  0.4336 -0.4246  0.1268
 2697SOL    HW119724   2.361   3.386  15.938  1.3006 -1.1318  1.3287
 2697SOL    HW219725   2.268   3.274  15.909  1.4738 -0.1669 -0.3856
 2698SOL     OW19726   2.472   3.212   6.930  0.0704  0.0816 -0.1685
 2698SOL    HW119727   2.419   3.133   6.917  0.2690 -0.0302 -0.3067
 2698SOL    HW219728   2.484   3.232   6.838 -1.3412 -0.8769 -0.5550
 2699SOL     OW19729   1.043   0.012   8.804 -0.1964 -0.5256 -0.0923
 2699SOL    HW119730   1.114   0.025   8.867  0.2243  1.6440 -1.0112
 2699SOL    HW219731   1.042   0.103   8.775 -0.2617 -0.2786  0.6620
 2700SOL     OW19732   4.474   3.904  11.508  0.3901  0.2573  0.0657
 2700SOL    HW119733   4.453   3.855  11.428 -2.5042 -1.3123  1.7855
 2700SOL    HW219734   4.519   3.836  11.557 -0.3290 -0.0434  0.3126
 2701SOL     OW19735   3.663   0.307   1.812 -0.0611 -0.2693 -0.0276
 2701SOL    HW119736   3.621   0.250   1.747 -0.5541  2.0216 -1.6896
 2701SOL    HW219737   3.628   0.391   1.785  0.8963 -0.0533 -0.5866
 2702SOL     OW19738   4.601   3.187  16.027 -0.3738 -0.8049  0.3082
 2702SOL    HW119739   4.688   3.217  16.002 -0.0551 -2.4708 -0.5538
 2702SOL    HW219740   4.633   3.104  16.062 -0.9298 -2.0355 -2.1580
 2703SOL     OW19741   0.698   2.367   8.418 -0.4074 -0.0199  0.4310
 2703SOL    HW119742   0.754   2.290   8.431  0.8485  1.2783  2.5545
 2703SOL    HW219743   0.619   2.337   8.372  0.3618 -1.0762 -0.2061
 2704SOL     OW19744   2.512   3.365   1.609 -0.2567 -0.5976 -0.3399
 2704SOL    HW119745   2.523   3.271   1.624  1.9015 -0.0856  1.2771
 2704SOL    HW219746   2.491   3.389   1.699 -0.0717 -0.5686 -0.3048
 2705SOL     OW19747   3.009   0.965   1.383 -0.1714 -0.3535 -0.0530
 2705SOL    HW119748   2.997   1.060   1.379 -0.3712 -0.2770  2.3431
 2705SOL    HW219749   2.915   0.946   1.387 -0.6206  1.9619  0.1068
 2706SOL     OW19750   1.040   1.784   1.921  0.1084 -0.0155  0.0872
 2706SOL    HW119751   1.109   1.843   1.953 -0.4728  0.7209 -0.0219
 2706SOL    HW219752   1.102   1.713   1.901  0.6293  0.4010  0.2183
 2707SOL     OW19753   3.203   2.691   9.069  0.4283 -0.7169  0.6497
 2707SOL    HW119754   3.245   2.706   9.154 -1.1551  0.1440  1.2815
 2707SOL    HW219755   3.275   2.677   9.009 -0.2642 -0.2419 -0.2890
 2708SOL     OW19756   4.685   1.594   0.042  0.0206  0.4983 -0.3363
 2708SOL    HW119757   0.006   1.617  17.717  1.1115  0.7776  0.6279
 2708SOL    HW219758   4.706   1.501   0.049 -0.4254  0.4960  0.9454
 2709SOL     OW19759   2.557   0.949   6.208 -0.2074 -0.1750  0.3966
 2709SOL    HW119760   2.542   0.879   6.144  0.5540 -1.7015  1.8927
 2709SOL    HW219761   2.502   1.007   6.155  1.2089  0.2213 -0.6314
 2710SOL     OW19762   0.975   3.556   2.253 -0.3094 -0.0908  0.7333
 2710SOL    HW119763   0.994   3.463   2.266  0.4385  0.0812  0.8472
 2710SOL    HW219764   1.019   3.601   2.325  0.8468  0.9999 -0.6471
 2711SOL     OW19765   4.332   3.178   1.417 -0.4839 -0.1380 -0.4637
 2711SOL    HW119766   4.313   3.142   1.330  1.1824  0.4611 -1.0656
 2711SOL    HW219767   4.262   3.243   1.421  0.8167  1.2191 -0.1244
 2712SOL     OW19768   4.160   2.281   5.830  0.4613  0.1160 -0.0793
 2712SOL    HW119769   4.131   2.333   5.905 -1.2519  0.6968 -1.1561
 2712SOL    HW219770   4.250   2.258   5.853 -0.7278 -3.1826  1.1541
 2713SOL     OW19771   2.721   1.500   3.306 -0.4221  0.5395 -0.1024
 2713SOL    HW119772   2.652   1.466   3.250  0.7930 -0.0011 -1.2766
 2713SOL    HW219773   2.681   1.573   3.352 -0.3909  1.6229 -1.8328
 2714SOL     OW19774   4.146   2.169   9.047 -0.7356 -0.3124  0.6505
 2714SOL    HW119775   4.220   2.127   9.092  0.5513  1.0141 -0.2174
 2714SOL    HW219776   4.181   2.177   8.958 -0.4105 -0.3610  0.7702
 2715SOL     OW19777   0.824   4.203  17.272 -0.1419  0.1077 -1.0609
 2715SOL    HW119778   0.885   4.207  17.345 -2.2955 -3.6086  0.9326
 2715SOL    HW219779   0.878   4.140  17.224 -1.5168 -0.5171 -1.7990
 2716SOL     OW19780   2.314   3.424   4.012 -0.1194  0.3553 -0.0738
 2716SOL    HW119781   2.297   3.352   3.951  4.8726 -1.5722  0.8094
 2716SOL    HW219782   2.388   3.471   3.973 -0.1293 -0.0559 -0.5956
 2717SOL     OW19783   0.465   0.384  14.050 -0.1500  0.2088  0.0647
 2717SOL    HW119784   0.465   0.416  13.960  0.4362  2.6994  0.9529
 2717SOL    HW219785   0.460   0.292  14.025  1.5481 -0.2072  1.2348
 2718SOL     OW19786   1.568   0.716   2.460  0.5428  0.3150  0.5343
 2718SOL    HW119787   1.632   0.716   2.388 -1.7782 -1.9181 -1.5245
 2718SOL    HW219788   1.525   0.634   2.438  1.7907 -0.0430 -0.5714
 2719SOL     OW19789   2.708   1.850   1.937  0.1866 -0.4657  0.6242
 2719SOL    HW119790   2.650   1.901   1.993  0.2236 -1.9598  2.0350
 2719SOL    HW219791   2.637   1.809   1.888  0.2141  1.3115 -0.9057
 2720SOL     OW19792   2.571   2.657   2.209  0.2279 -0.8649  0.6818
 2720SOL    HW119793   2.652   2.706   2.191 -1.0509  0.4716 -1.3661
 2720SOL    HW219794   2.592   2.566   2.188  1.3555 -0.1729 -1.2836
 2721SOL     OW19795   0.291   3.041  14.547 -0.5596  0.0171 -0.6241
 2721SOL    HW119796   0.232   2.970  14.572  0.6590  0.1409  2.5104
 2721SOL    HW219797   0.345   3.003  14.478  1.7197  0.4776  0.9132
 2722SOL     OW19798   2.606   1.237   4.675  0.3024 -0.2032  0.3648
 2722SOL    HW119799   2.629   1.144   4.678  1.2517  0.1016  2.7329
 2722SOL    HW219800   2.600   1.245   4.770  1.2387 -0.5378  0.4495
 2723SOL     OW19801   3.705   3.345   1.195  0.8097  0.8560 -0.6900
 2723SOL    HW119802   3.695   3.390   1.279 -0.3454 -0.4133 -0.1514
 2723SOL    HW219803   3.795   3.316   1.208  0.0165 -1.6047 -0.6469
 2724SOL     OW19804   3.668   1.373   9.189 -0.1955 -0.3233 -0.3329
 2724SOL    HW119805   3.579   1.395   9.218  0.4804  0.8439  0.8676
 2724SOL    HW219806   3.708   1.362   9.275 -0.8553  0.0050  0.0119
 2725SOL     OW19807   3.568   3.188   2.969 -0.0830 -0.5746 -0.0476
 2725SOL    HW119808   3.607   3.116   2.920  2.7995  0.1574  1.2037
 2725SOL    HW219809   3.495   3.220   2.916  0.4762 -0.0361 -0.4865
 2726SOL     OW19810   3.409   2.473  16.151  0.2753  0.5977  0.4649
 2726SOL    HW119811   3.355   2.469  16.072 -0.8028 -0.1583  1.2383
 2726SOL    HW219812   3.396   2.385  16.186  0.1113 -0.2712 -1.7780
 2727SOL     OW19813   0.709   1.718   2.017  0.2942 -1.2588  0.4651
 2727SOL    HW119814   0.724   1.788   2.080  0.3702  1.3697 -2.4955
 2727SOL    HW219815   0.637   1.674   2.064 -1.8763  0.2478 -1.4407
 2728SOL     OW19816   1.998   1.937   4.355  0.5193 -0.0755 -0.1418
 2728SOL    HW119817   2.054   1.997   4.404  1.3288 -0.3126 -0.7838
 2728SOL    HW219818   1.987   1.989   4.275 -0.9828 -2.1274 -1.2949
 2729SOL     OW19819   1.461   1.364   8.802 -0.0862 -0.2787  0.5481
 2729SOL    HW119820   1.376   1.393   8.768 -0.8125 -1.0569  1.7129
 2729SOL    HW219821   1.522   1.413   8.747 -0.7516  1.8141  1.6333
 2730SOL     OW19822   1.404   2.376   3.003  0.1346  0.2035 -0.7858
 2730SOL    HW119823   1.492   2.364   2.968  0.3430  0.0466 -0.2173
 2730SOL    HW219824   1.365   2.291   2.983  1.2553 -0.4327 -0.2401
 2731SOL     OW19825   0.545   4.050   8.011 -0.1691  0.2264  0.1564
 2731SOL    HW119826   0.634   4.054   7.976 -0.4386  0.1176 -0.5331
 2731SOL    HW219827   0.572   4.038   8.102 -0.7336 -0.7117  0.2103
 2732SOL     OW19828   2.308   2.698   3.391  0.0203  0.0375  1.0357
 2732SOL    HW119829   2.345   2.697   3.479 -1.8039  1.7140  1.8034
 2732SOL    HW219830   2.379   2.672   3.332 -1.6491  1.1427 -1.4805
 2733SOL     OW19831   1.717   2.656   7.438  0.5407  0.9094 -0.0169
 2733SOL    HW119832   1.632   2.681   7.474  0.6181  0.2386  0.6369
 2733SOL    HW219833   1.748   2.605   7.513  2.3985  0.7840 -0.8689
 2734SOL     OW19834   3.900   2.019   1.900  0.1094  0.0503 -0.0506
 2734SOL    HW119835   3.892   2.107   1.936 -1.8981 -0.7402  1.4317
 2734SOL    HW219836   3.994   2.014   1.879  0.0530 -0.4478 -0.1949
 2735SOL     OW19837   2.685   3.418   9.213 -0.5506 -0.6851  0.0641
 2735SOL    HW119838   2.600   3.448   9.181 -0.3978  0.3760  0.6573
 2735SOL    HW219839   2.745   3.431   9.140  0.0311  1.2938  0.8864
 2736SOL     OW19840   3.753   2.168   1.616 -0.3690  0.0924 -0.0503
 2736SOL    HW119841   3.750   2.186   1.522 -2.1865 -0.7943 -0.1531
 2736SOL    HW219842   3.827   2.220   1.649 -1.7920  1.7131  0.5854
 2737SOL     OW19843   2.618   1.383   9.233  0.8145  0.1113 -0.0483
 2737SOL    HW119844   2.606   1.478   9.237  1.8304  0.0972  3.5726
 2737SOL    HW219845   2.562   1.353   9.305 -0.6691  0.7408 -0.9427
 2738SOL     OW19846   2.926   1.489  15.684 -0.5412 -0.0297  0.4520
 2738SOL    HW119847   2.878   1.472  15.766 -0.2177 -0.5960  0.5257
 2738SOL    HW219848   3.010   1.516  15.723 -0.3776 -1.2999  0.9639
 2739SOL     OW19849   0.991   3.338  15.322 -0.1188  0.5041  0.2626
 2739SOL    HW119850   1.041   3.261  15.297  0.4115  0.6844  0.7513
 2739SOL    HW219851   0.910   3.290  15.339  0.5644 -1.2877 -1.5996
 2740SOL     OW19852   2.659   3.294   0.910 -0.3480 -0.3777  0.3563
 2740SOL    HW119853   2.659   3.297   1.006 -1.1536 -0.2021  0.3462
 2740SOL    HW219854   2.567   3.314   0.892  0.3535  2.1217 -0.4654
 2741SOL     OW19855   2.404   0.943   3.567  0.1670 -0.2842 -0.4489
 2741SOL    HW119856   2.460   0.945   3.645 -1.0772  0.1508  0.4332
 2741SOL    HW219857   2.316   0.929   3.603  0.5935 -1.4021  0.1582
 2742SOL     OW19858   3.775   1.786   6.614  0.2622 -0.2434  0.1070
 2742SOL    HW119859   3.740   1.700   6.592 -2.6325  0.4541  1.8518
 2742SOL    HW219860   3.831   1.770   6.690 -0.5302 -2.1123  0.2980
 2743SOL     OW19861   2.827   3.009   7.600  0.6546 -0.1992  0.1788
 2743SOL    HW119862   2.812   3.093   7.643  3.1643  0.5989 -0.5186
 2743SOL    HW219863   2.911   2.977   7.633  1.0127 -1.2369 -1.7647
 2744SOL     OW19864   4.255   0.808   7.330  0.4331  0.9959  0.4483
 2744SOL    HW119865   4.166   0.810   7.295  0.1204 -1.8849  1.0225
 2744SOL    HW219866   4.293   0.771   7.250  1.2026  2.3326  0.1934
 2745SOL     OW19867   2.700   2.204  14.968 -0.1320 -0.2779  0.6079
 2745SOL    HW119868   2.720   2.184  14.877  1.1523 -1.6767  1.1929
 2745SOL    HW219869   2.702   2.118  15.010  0.2207 -0.6127 -0.0922
 2746SOL     OW19870   1.101   1.008   1.925 -0.4691 -0.2412  0.6393
 2746SOL    HW119871   1.107   1.002   2.020  0.1983 -1.6753  0.5102
 2746SOL    HW219872   1.149   0.931   1.894 -0.5669  0.3704 -1.0212
 2747SOL     OW19873   3.267   1.965   2.180 -0.0607  0.4172  0.1040
 2747SOL    HW119874   3.257   2.000   2.268 -0.7768 -1.6204  0.8285
 2747SOL    HW219875   3.361   1.947   2.173 -0.5025 -2.3161  1.5559
 2748SOL     OW19876   0.837   4.298   2.575 -0.5168  0.3888 -0.1266
 2748SOL    HW119877   0.932   4.307   2.584  0.0657 -2.1527 -3.6535
 2748SOL    HW219878   0.808   4.378   2.530  1.0255  0.1861 -1.5008
 2749SOL     OW19879   2.583   2.422   2.060  0.2137 -0.1638 -0.0730
 2749SOL    HW119880   2.611   2.353   1.999  0.8411 -0.8991  1.0360
 2749SOL    HW219881   2.558   2.478   1.986  1.6614  0.8042  0.1725
 2750SOL     OW19882   2.737   0.539   9.393 -0.0420 -0.1402  0.1961
 2750SOL    HW119883   2.677   0.577   9.329  0.5164 -1.7621 -1.2783
 2750SOL    HW219884   2.743   0.620   9.444 -1.2337  0.7640 -1.0797
 2751SOL     OW19885   0.623   3.005   7.552 -0.1067 -0.3232  0.5415
 2751SOL    HW119886   0.686   3.018   7.481 -1.7252 -1.8334 -1.1848
 2751SOL    HW219887   0.678   2.938   7.593  0.0945 -1.4771 -1.5954
 2752SOL     OW19888   0.044   3.511   8.277  0.6857  0.2177  0.5275
 2752SOL    HW119889   0.093   3.590   8.255  1.4087 -0.3423  0.1352
 2752SOL    HW219890   4.727   3.487   8.202 -0.4847  1.5038  0.9733
 2753SOL     OW19891   1.452   2.000   4.185  0.0677  0.3974 -0.1623
 2753SOL    HW119892   1.498   2.002   4.268 -2.4094  1.7601  1.1869
 2753SOL    HW219893   1.523   2.010   4.121  2.1847  0.1432  2.1560
 2754SOL     OW19894   1.161   4.294  12.424 -0.0927 -0.0055  0.2148
 2754SOL    HW119895   1.090   4.271  12.484 -0.3165  1.5614  0.5638
 2754SOL    HW219896   1.123   4.273  12.339  1.3894 -2.9823  0.2830
 2755SOL     OW19897   1.560   3.458   4.350  0.2601 -0.8246 -0.1717
 2755SOL    HW119898   1.514   3.467   4.434 -1.2177  1.5579 -1.2394
 2755SOL    HW219899   1.597   3.370   4.359  2.7224  0.1668 -0.3865
 2756SOL     OW19900   3.390   3.756   9.179  0.0040 -0.1734 -0.7204
 2756SOL    HW119901   3.425   3.791   9.097  1.7243 -0.6743 -0.2140
 2756SOL    HW219902   3.453   3.686   9.195 -0.4684 -0.6655 -1.0119
 2757SOL     OW19903   1.552   3.489   1.834 -0.2113  0.0889  0.0719
 2757SOL    HW119904   1.565   3.395   1.826 -0.9411 -0.0166  0.1504
 2757SOL    HW219905   1.475   3.495   1.891  0.1177  2.5175  0.2870
 2758SOL     OW19906   3.203   2.874   6.140  0.2243 -0.4309  0.2065
 2758SOL    HW119907   3.196   2.783   6.170  1.1123  0.3717  2.8950
 2758SOL    HW219908   3.261   2.871   6.064 -0.1191 -1.4318 -0.0112
 2759SOL     OW19909   3.153   0.408   2.589 -0.4668  0.5951 -0.7584
 2759SOL    HW119910   3.088   0.397   2.520 -0.6800  0.5610 -0.5554
 2759SOL    HW219911   3.229   0.364   2.553 -0.7921  1.0268 -1.9899
 2760SOL     OW19912   2.917   1.030   8.800 -0.1704  0.3167  0.0250
 2760SOL    HW119913   2.878   1.101   8.852 -1.5481  0.1798 -0.8190
 2760SOL    HW219914   3.006   1.035   8.835 -0.6521  1.2993  1.1309
 2761SOL     OW19915   0.826   1.683  16.902 -0.5853  0.5511 -0.4405
 2761SOL    HW119916   0.835   1.737  16.824  1.0225  2.7239  1.2673
 2761SOL    HW219917   0.797   1.596  16.873  0.3278 -0.3752  1.4346
 2762SOL     OW19918   2.374   1.814  12.344  0.4108 -0.1395  0.1174
 2762SOL    HW119919   2.311   1.748  12.371 -1.7179  1.5996 -0.5848
 2762SOL    HW219920   2.355   1.841  12.254  1.2400  0.3162  0.0791
 2763SOL     OW19921   4.554   3.968   6.708  0.3324  0.0966 -0.2612
 2763SOL    HW119922   4.560   3.892   6.766  0.0239 -1.4238 -2.2021
 2763SOL    HW219923   4.648   3.975   6.693  0.2903 -2.3129 -1.7003
 2764SOL     OW19924   0.962   4.386  16.826 -0.0030 -0.5088  0.1181
 2764SOL    HW119925   1.012   4.415  16.750  2.7662  0.2613  2.1859
 2764SOL    HW219926   0.882   4.351  16.788  1.3347 -0.9615 -2.2831
 2765SOL     OW19927   3.243   1.031  12.088 -0.2446 -0.4325 -0.0200
 2765SOL    HW119928   3.323   1.062  12.131  0.8323 -0.1091 -2.2846
 2765SOL    HW219929   3.243   0.944  12.128 -0.2403 -0.0094  0.9002
 2766SOL     OW19930   3.926   4.156   7.430 -0.0991  0.2811  0.1980
 2766SOL    HW119931   3.935   4.064   7.456 -0.3706 -0.2230 -1.4769
 2766SOL    HW219932   3.909   4.151   7.335 -1.5645  0.0411  0.4711
 2767SOL     OW19933   0.299   4.671   6.668 -0.1466  0.1614  0.2696
 2767SOL    HW119934   0.287   0.005   6.606  0.0036  0.5574  0.6962
 2767SOL    HW219935   0.338   4.605   6.611  0.5691  0.3349  0.5585
 2768SOL     OW19936   2.860   0.849   8.196  0.3878  0.2036 -0.5869
 2768SOL    HW119937   2.874   0.755   8.181 -0.8393 -0.2283  0.9541
 2768SOL    HW219938   2.921   0.888   8.134  0.0756 -0.3860 -1.2739
 2769SOL     OW19939   4.726   2.916   1.951  0.4812 -0.0694 -1.1010
 2769SOL    HW119940   0.035   2.879   2.026 -2.4987  1.0229  1.3405
 2769SOL    HW219941   0.061   2.940   1.894 -0.6962  1.3727 -2.0066
 2770SOL     OW19942   3.399   3.679   4.881 -0.2084  0.2212  0.1250
 2770SOL    HW119943   3.323   3.738   4.882  0.6959  1.3813  0.0465
 2770SOL    HW219944   3.417   3.670   4.974 -0.1151  0.1722  0.1020
 2771SOL     OW19945   0.699   1.012   0.503 -0.3240 -0.2007  0.3820
 2771SOL    HW119946   0.735   1.081   0.447 -2.0118  0.9425  0.7036
 2771SOL    HW219947   0.685   1.058   0.586  0.4785 -0.3073  0.5755
 2772SOL     OW19948   2.886   2.954   5.458  0.4327  0.2751  0.0975
 2772SOL    HW119949   2.896   3.035   5.408 -0.0486 -0.3494 -1.0274
 2772SOL    HW219950   2.816   2.913   5.408 -1.6612  0.2305  3.0928
 2773SOL     OW19951   0.889   2.646   5.095 -0.6333  0.0496 -0.0495
 2773SOL    HW119952   0.938   2.700   5.034 -2.0267  1.3467 -0.0091
 2773SOL    HW219953   0.931   2.562   5.078 -0.4613  0.4892 -1.7212
 2774SOL     OW19954   4.467   3.408   3.610 -0.3212  0.1383  0.4445
 2774SOL    HW119955   4.390   3.399   3.667 -1.4375  0.4331 -1.0190
 2774SOL    HW219956   4.539   3.416   3.673  0.3968 -0.2695 -0.3283
 2775SOL     OW19957   4.307   2.919   4.594 -0.1005 -0.3645 -0.6240
 2775SOL    HW119958   4.314   2.839   4.646  0.7094 -1.1827 -2.0069
 2775SOL    HW219959   4.314   2.989   4.660 -1.0003 -2.2320  1.4529
 2776SOL     OW19960   0.023   0.018   7.736 -0.4389 -0.4467 -0.4954
 2776SOL    HW119961   0.114   0.035   7.709 -0.4207  0.3191  0.0526
 2776SOL    HW219962   0.031   4.712   7.821 -0.4364 -0.3372 -0.4394
 2777SOL     OW19963   1.270   0.673   0.065  0.3774  0.3429 -0.2123
 2777SOL    HW119964   1.334   0.744   0.060  1.0286 -0.1635  0.9580
 2777SOL    HW219965   1.282   0.645   0.155 -1.3456 -1.3731 -0.5313
 2778SOL     OW19966   3.000   3.766   3.466  0.3929  0.0408 -0.0150
 2778SOL    HW119967   3.022   3.674   3.453  0.2382 -0.2914  2.0338
 2778SOL    HW219968   2.968   3.789   3.379 -0.2307  0.9774  0.4649
 2779SOL     OW19969   4.133   2.193   3.049  0.0257  0.2292  0.4473
 2779SOL    HW119970   4.104   2.139   3.123  1.9954 -0.3645  0.8098
 2779SOL    HW219971   4.070   2.263   3.034 -0.3744 -0.0887  0.6322
 2780SOL     OW19972   2.953   3.245   5.657  0.2707  0.1986 -0.4622
 2780SOL    HW119973   3.037   3.207   5.632  0.6820  1.3886 -0.8487
 2780SOL    HW219974   2.971   3.339   5.664  0.4246  0.1617 -0.3645
 2781SOL     OW19975   2.992   3.540   0.715  0.0653 -0.4662  0.0595
 2781SOL    HW119976   3.015   3.617   0.664  0.2508  0.6219  1.7871
 2781SOL    HW219977   3.059   3.480   0.684 -0.1868 -0.3408 -0.7350
 2782SOL     OW19978   0.908   3.611   3.544  0.2669 -0.5172 -0.4010
 2782SOL    HW119979   0.892   3.695   3.586 -1.5611 -0.2636 -1.5974
 2782SOL    HW219980   0.970   3.577   3.608  1.0094  0.3025 -0.6902
 2783SOL     OW19981   1.271   3.008  16.825 -0.0515 -0.0737 -0.1535
 2783SOL    HW119982   1.232   3.047  16.747  0.8111  1.4945  0.2067
 2783SOL    HW219983   1.226   2.924  16.830 -1.1962  0.5071 -0.8663
 2784SOL     OW19984   3.223   1.150   2.496 -0.4972 -0.1161 -0.2909
 2784SOL    HW119985   3.230   1.231   2.546  0.5770 -1.3867  1.6253
 2784SOL    HW219986   3.309   1.109   2.507 -1.8892 -2.4229  2.0966
 2785SOL     OW19987   1.426   2.444   0.588  0.0689  0.0928 -0.5835
 2785SOL    HW119988   1.351   2.385   0.589 -0.5994  0.9279 -0.3676
 2785SOL    HW219989   1.438   2.467   0.681  0.6661 -1.3741 -0.2938
 2786SOL     OW19990   2.729   0.410   6.765 -0.4264 -0.2596  0.3169
 2786SOL    HW119991   2.819   0.381   6.782 -0.9048 -0.9002  1.8119
 2786SOL    HW219992   2.706   0.465   6.840 -1.3546 -1.5443  0.9807
 2787SOL     OW19993   4.113   0.225   6.468  0.1498 -0.1987 -0.4632
 2787SOL    HW119994   4.127   0.181   6.552 -0.7106 -0.7571 -0.6146
 2787SOL    HW219995   4.029   0.185   6.445 -0.8916  2.5114 -1.3300
 2788SOL     OW19996   1.901   4.537   3.771 -0.0267 -0.1464  0.7381
 2788SOL    HW119997   1.918   4.456   3.723 -1.2264 -0.8551  1.5145
 2788SOL    HW219998   1.905   4.588   3.691  2.8780  0.1914  1.0771
 2789SOL     OW19999   3.085   3.680   1.218 -0.6677 -0.2622 -0.0992
 2789SOL    HW120000   3.064   3.596   1.176  1.6481 -1.0421  0.2717
 2789SOL    HW220001   3.030   3.750   1.184  0.3236  1.1522  1.1749
 2790SOL     OW20002   2.376   0.006   8.710  0.0392  0.4652 -0.0757
 2790SOL    HW120003   2.467   0.021   8.684  0.1701  2.2708  1.4213
 2790SOL    HW220004   2.383   4.730   8.805  0.2995 -2.6204 -0.5200
 2791SOL     OW20005   1.691   2.257  11.484 -0.5915  0.5311  0.0842
 2791SOL    HW120006   1.713   2.242  11.576 -2.8097  0.2010  0.5494
 2791SOL    HW220007   1.613   2.207  11.462  0.8230 -2.2125  1.2243
 2792SOL     OW20008   3.970   3.220   9.306 -0.0938 -0.5918  0.1047
 2792SOL    HW120009   3.955   3.259   9.220 -1.7986  0.8544  1.0560
 2792SOL    HW220010   4.064   3.207   9.297 -0.0762 -0.6504  0.3541
 2793SOL     OW20011   3.429   1.180   0.742 -0.4830  0.0799  0.0348
 2793SOL    HW120012   3.370   1.233   0.687 -0.9591  1.5405  1.9521
 2793SOL    HW220013   3.480   1.132   0.677  0.9512  0.5223  0.8518
 2794SOL     OW20014   0.627   1.362   9.364  0.3572  0.1790 -0.4502
 2794SOL    HW120015   0.579   1.437   9.398 -0.7234  0.0341 -1.6870
 2794SOL    HW220016   0.597   1.288   9.418 -0.5724  1.2599  0.4993
 2795SOL     OW20017   1.243   2.474   6.250 -0.2404  0.0757 -0.1537
 2795SOL    HW120018   1.238   2.566   6.224  1.6202  0.7821  2.0353
 2795SOL    HW220019   1.222   2.482   6.344  1.5778  0.2125  0.2299
 2796SOL     OW20020   1.107   2.356  13.705  0.4174 -0.0228 -0.2962
 2796SOL    HW120021   1.031   2.373  13.760 -1.4860  0.5810 -3.1392
 2796SOL    HW220022   1.165   2.317  13.771 -0.8836 -0.6096  0.5085
 2797SOL     OW20023   0.766   0.784  11.429  0.7985  0.4844 -1.0261
 2797SOL    HW120024   0.721   0.864  11.400  0.3183  0.7101  0.3415
 2797SOL    HW220025   0.837   0.770  11.366  0.7390  1.3689 -1.2998
 2798SOL     OW20026   2.722   1.797  12.810 -0.2230 -0.4074 -0.1559
 2798SOL    HW120027   2.685   1.879  12.843  0.9540 -0.4509  1.2517
 2798SOL    HW220028   2.774   1.836  12.739 -0.6951  1.2550  0.4106
 2799SOL     OW20029   3.302   2.729   7.268  0.2101  0.2522 -0.6523
 2799SOL    HW120030   3.256   2.664   7.215  0.1557 -1.6906  1.7862
 2799SOL    HW220031   3.352   2.788   7.212  2.0011  1.0163  1.7317
 2800SOL     OW20032   3.181   1.839   6.114  0.2455  0.4348 -0.1133
 2800SOL    HW120033   3.276   1.842   6.118  0.0976  2.7032  2.0251
 2800SOL    HW220034   3.161   1.925   6.077 -3.5884 -0.0435  0.8432
 2801SOL     OW20035   4.112   2.027   7.944 -0.2233 -0.3465 -0.2073
 2801SOL    HW120036   4.171   1.959   7.979 -0.6890 -0.6031  0.0865
 2801SOL    HW220037   4.136   2.028   7.852 -1.6603 -1.2600 -0.5879
 2802SOL     OW20038   1.640   3.222  14.359  0.2024  0.0272  0.3686
 2802SOL    HW120039   1.611   3.255  14.274 -0.9236  3.0542  1.9345
 2802SOL    HW220040   1.572   3.260  14.415  2.2695  3.4610  0.4904
 2803SOL     OW20041   2.621   4.413   5.401  0.0193 -0.0118 -0.3002
 2803SOL    HW120042   2.701   4.458   5.373  0.4991 -2.0722 -2.2438
 2803SOL    HW220043   2.567   4.448   5.329 -1.0824  1.4332  1.2268
 2804SOL     OW20044   4.102   2.560  13.724  0.2450  0.3200  0.5745
 2804SOL    HW120045   4.058   2.494  13.778 -1.8656  2.2209  1.2252
 2804SOL    HW220046   4.092   2.632  13.786 -0.9387  0.6837 -0.0411
 2805SOL     OW20047   3.536   0.257   7.123  0.1206  0.1697  0.2833
 2805SOL    HW120048   3.621   0.217   7.141 -0.4564 -0.5628  1.4200
 2805SOL    HW220049   3.556   0.288   7.035  0.6294 -1.9871 -0.3676
 2806SOL     OW20050   2.340   4.263  12.793  0.0880 -0.5551 -0.3680
 2806SOL    HW120051   2.245   4.272  12.801  0.0161 -1.2702 -0.3844
 2806SOL    HW220052   2.371   4.342  12.749  3.3797 -0.9147  1.2642
 2807SOL     OW20053   3.709   2.573   6.332  0.3625 -0.0029  0.0871
 2807SOL    HW120054   3.727   2.494   6.280  1.1491  0.3493 -0.1869
 2807SOL    HW220055   3.745   2.561   6.420  0.1912  2.0609  0.4419
 2808SOL     OW20056   2.133   3.461  10.399 -0.6053 -0.1986  0.4921
 2808SOL    HW120057   2.154   3.519  10.326  0.9570 -0.0048  1.0934
 2808SOL    HW220058   2.037   3.459  10.394 -0.4510 -1.5897 -2.2646
 2809SOL     OW20059   0.684   2.960   3.319 -0.0281 -0.4919  0.2076
 2809SOL    HW120060   0.690   2.900   3.394  0.8707  1.1144  1.4213
 2809SOL    HW220061   0.697   2.890   3.255  1.0090  0.5740 -0.7514
 2810SOL     OW20062   1.635   0.004   3.588  0.5450  0.1727  0.1771
 2810SOL    HW120063   1.683   0.076   3.546 -0.5316  0.6307 -0.2810
 2810SOL    HW220064   1.560   0.050   3.626  1.0939  2.1178 -1.0660
 2811SOL     OW20065   2.283   0.760  14.280 -0.9403 -0.0903 -0.0540
 2811SOL    HW120066   2.371   0.788  14.255 -0.7793  1.6856  2.4873
 2811SOL    HW220067   2.279   0.799  14.367 -1.7287  3.5591 -1.7386
 2812SOL     OW20068   3.434   3.433   6.967 -0.0745  0.3069 -0.1309
 2812SOL    HW120069   3.476   3.474   7.042 -0.1858 -1.1194  0.7052
 2812SOL    HW220070   3.502   3.457   6.904 -1.3560 -1.1299 -2.0537
 2813SOL     OW20071   3.567   3.909   2.751 -0.1473 -0.6216  0.8401
 2813SOL    HW120072   3.536   3.897   2.841 -2.4766 -1.7601 -0.0994
 2813SOL    HW220073   3.488   3.925   2.699  0.8379 -2.7026 -1.2614
 2814SOL     OW20074   0.379   4.297   7.241 -0.1315  0.2927 -0.0108
 2814SOL    HW120075   0.426   4.366   7.194  1.3807  0.2089  1.3952
 2814SOL    HW220076   0.316   4.272   7.173 -2.5963 -0.2145  2.4832
 2815SOL     OW20077   1.797   1.928   0.084  0.4993 -0.0987  0.4599
 2815SOL    HW120078   1.874   1.901   0.034  0.8719  1.3364  0.2707
 2815SOL    HW220079   1.828   2.011   0.119 -0.8601  0.5624  0.0838
 2816SOL     OW20080   0.291   0.941   9.859  0.4905 -0.3459  0.2842
 2816SOL    HW120081   0.210   0.990   9.876  0.6284  0.1119 -0.3667
 2816SOL    HW220082   0.258   0.852   9.848 -0.9898  0.4488 -1.8043
 2817SOL     OW20083   1.370   0.335   3.898  0.2372 -0.3944 -0.0160
 2817SOL    HW120084   1.396   0.398   3.964 -0.3316  0.5026 -0.6520
 2817SOL    HW220085   1.287   0.305   3.936  0.9547 -1.0270  1.0404
 2818SOL     OW20086   2.372   1.579   9.538 -0.2361  0.1512 -0.1163
 2818SOL    HW120087   2.326   1.595   9.456 -0.4914 -1.2130 -0.2323
 2818SOL    HW220088   2.311   1.635   9.587 -0.9241 -1.5298  0.9375
 2819SOL     OW20089   3.231   3.930   3.565 -0.3453 -0.3976  0.2867
 2819SOL    HW120090   3.297   3.880   3.517 -2.6837 -1.3601 -1.9238
 2819SOL    HW220091   3.157   3.886   3.523 -0.9894 -0.1958  1.1928
 2820SOL     OW20092   1.815   3.108  13.971  0.4548 -0.5664  0.8004
 2820SOL    HW120093   1.849   3.028  14.011  0.3341 -0.8132  0.4018
 2820SOL    HW220094   1.757   3.073  13.905 -0.4007  2.4548 -0.0516
 2821SOL     OW20095   2.241   1.881  15.061  0.3106  0.0400  0.0344
 2821SOL    HW120096   2.164   1.871  15.117  0.7027  0.9260  0.7283
 2821SOL    HW220097   2.231   1.795  15.019  1.4687 -0.7196  1.3282
 2822SOL     OW20098   0.771   2.678   7.702  0.0750 -0.0963 -0.3392
 2822SOL    HW120099   0.762   2.659   7.795 -0.7008 -3.6870 -1.1495
 2822SOL    HW220100   0.702   2.620   7.671 -1.1813  0.7946  0.7873
 2823SOL     OW20101   4.189   2.903   6.969 -0.2999  0.0323  0.2038
 2823SOL    HW120102   4.260   2.935   7.024  0.8307 -0.4342 -0.9723
 2823SOL    HW220103   4.156   2.985   6.932 -0.2218  0.3336  0.8076
 2824SOL     OW20104   3.585   4.625   0.943  0.0877  0.2502 -0.4527
 2824SOL    HW120105   3.521   4.680   0.898  2.5259  2.1092 -1.6829
 2824SOL    HW220106   3.535   4.544   0.953  1.0405 -0.6727 -3.2018
 2825SOL     OW20107   0.059   1.006  12.360  0.2233 -0.0138 -0.0337
 2825SOL    HW120108   0.075   0.919  12.396  1.6077  0.2274 -0.0808
 2825SOL    HW220109   4.708   0.983  12.331 -1.0850  0.9440  3.1604
 2826SOL     OW20110   1.522   1.958   7.505  0.2341  0.0849  0.1450
 2826SOL    HW120111   1.440   1.909   7.503  1.2830 -1.5836 -1.4978
 2826SOL    HW220112   1.563   1.925   7.425 -1.7424 -3.6074  0.6911
 2827SOL     OW20113   2.045   2.093  15.442 -0.4869 -0.1092 -0.2882
 2827SOL    HW120114   1.995   2.126  15.517  0.7021  2.4382 -0.6079
 2827SOL    HW220115   2.036   2.159  15.373  1.0023 -0.6127 -0.9570
 2828SOL     OW20116   2.925   0.470  17.747  0.1521  0.5833 -0.0779
 2828SOL    HW120117   2.833   0.470  17.722 -0.1034  1.7410  0.8782
 2828SOL    HW220118   2.968   0.512  17.673  1.8278  2.2658  1.8421
 2829SOL     OW20119   1.158   4.208   1.150  0.3545 -0.2257  0.5009
 2829SOL    HW120120   1.158   4.116   1.174 -1.2642 -0.5497 -0.7839
 2829SOL    HW220121   1.248   4.232   1.172  0.5623 -1.5882  1.1121
 2830SOL     OW20122   0.174   3.813   6.611 -0.6038  0.1130 -0.3673
 2830SOL    HW120123   0.115   3.889   6.618 -0.8568 -0.1605  0.5419
 2830SOL    HW220124   0.112   3.748   6.578 -1.1579  0.0714  0.7429
 2831SOL     OW20125   2.641   1.211  12.685  0.9595  0.0439  0.4113
 2831SOL    HW120126   2.667   1.126  12.648 -2.7307 -0.5606 -0.7728
 2831SOL    HW220127   2.601   1.183  12.767 -0.8315 -1.3691 -0.9497
 2832SOL     OW20128   0.059   3.068   9.701 -0.3800  0.6734  0.5297
 2832SOL    HW120129   0.064   3.086   9.795  0.5239 -0.2435  0.6588
 2832SOL    HW220130   0.154   3.056   9.690 -0.9567 -2.0965 -1.3975
 2833SOL     OW20131   2.665   2.945   1.869  0.0449  0.4561  0.0462
 2833SOL    HW120132   2.577   2.931   1.903 -0.2627  2.0146 -0.0818
 2833SOL    HW220133   2.715   2.876   1.912 -0.9263  1.4970  2.8512
 2834SOL     OW20134   0.169   0.384  11.969  0.5527  0.0024 -0.3600
 2834SOL    HW120135   0.158   0.352  12.059  2.1135  0.9908  0.1833
 2834SOL    HW220136   0.211   0.309  11.925 -0.5630 -2.0333  2.0374
 2835SOL     OW20137   0.816   2.347   5.599 -0.2356  0.6236 -0.4231
 2835SOL    HW120138   0.843   2.259   5.625  0.3364  0.9834  0.2008
 2835SOL    HW220139   0.879   2.396   5.651 -1.3294  1.4390  0.1278
 2836SOL     OW20140   0.330   3.725  12.324  0.4325  0.2377 -0.2708
 2836SOL    HW120141   0.263   3.790  12.343  2.0447  1.7568  0.2564
 2836SOL    HW220142   0.309   3.650  12.379  1.3597 -0.6064 -1.0466
 2837SOL     OW20143   1.875   2.636   5.864  0.1162 -0.0727  0.4920
 2837SOL    HW120144   1.873   2.551   5.820  1.6920 -0.3879  1.0168
 2837SOL    HW220145   1.823   2.613   5.941 -0.3418  1.1992  0.5533
 2838SOL     OW20146   3.806   2.237  13.186  0.6996  0.7701  0.0622
 2838SOL    HW120147   3.848   2.208  13.267 -1.2631  0.7246  1.0464
 2838SOL    HW220148   3.719   2.201  13.204  0.5408  1.1870  0.1159
 2839SOL     OW20149   2.037   3.498  12.667 -0.0429  0.3863  0.3674
 2839SOL    HW120150   2.012   3.424  12.722 -0.4231  0.3154  0.1053
 2839SOL    HW220151   1.957   3.515  12.617 -0.1074  0.2128  0.4104
 2840SOL     OW20152   2.673   1.440   1.924 -0.1772  0.2500 -0.2101
 2840SOL    HW120153   2.734   1.368   1.909 -0.4370  0.5031 -2.4038
 2840SOL    HW220154   2.697   1.457   2.016 -1.9666  0.3718  0.2377
 2841SOL     OW20155   1.310   3.926   7.793 -0.1501 -0.2824  0.5861
 2841SOL    HW120156   1.237   3.988   7.784  0.6527  1.2544  4.7753
 2841SOL    HW220157   1.296   3.909   7.886 -1.1471 -1.3549  0.2417
 2842SOL     OW20158   1.411   0.596   7.518 -0.3133  0.1390  0.4904
 2842SOL    HW120159   1.493   0.548   7.504 -0.5649  0.6728 -2.6592
 2842SOL    HW220160   1.431   0.654   7.591 -0.0944  0.9649 -0.2360
 2843SOL     OW20161   0.097   0.294   6.600 -0.3733 -0.2399  0.1270
 2843SOL    HW120162   0.154   0.226   6.564  1.4598 -0.1569  2.8967
 2843SOL    HW220163   0.074   0.324   6.512 -0.1940 -1.5229 -0.3673
 2844SOL     OW20164   2.921   3.061   5.004  0.2160 -0.3068 -0.3764
 2844SOL    HW120165   2.882   3.102   4.927 -0.6210  1.7786  1.1618
 2844SOL    HW220166   2.843   3.017   5.040  1.0800 -1.1596  0.4608
 2845SOL     OW20167   3.281   1.727   8.326  0.6616  0.4124  0.9926
 2845SOL    HW120168   3.362   1.684   8.302 -1.2088 -2.3254 -0.3884
 2845SOL    HW220169   3.243   1.670   8.394  1.3706  1.2925  2.1305
 2846SOL     OW20170   3.484   0.616  12.586 -0.3290  0.1170 -0.0595
 2846SOL    HW120171   3.411   0.557  12.607  0.0135 -0.6159 -0.9047
 2846SOL    HW220172   3.516   0.616  12.675  0.1457 -2.4428 -0.2192
 2847SOL     OW20173   3.174   1.766   3.255 -0.2495 -0.3183 -0.3005
 2847SOL    HW120174   3.216   1.696   3.205 -0.9032 -0.3704 -0.7806
 2847SOL    HW220175   3.091   1.722   3.278  0.3104 -0.5490  1.2960
 2848SOL     OW20176   1.948   0.729   4.763  0.6047 -0.0466  0.7527
 2848SOL    HW120177   1.915   0.809   4.805  2.4093  0.4993  1.1089
 2848SOL    HW220178   2.033   0.756   4.728 -0.0774  3.0461  1.4686
 2849SOL     OW20179   4.295   2.454   8.221 -0.3183 -0.6871 -0.0541
 2849SOL    HW120180   4.389   2.467   8.211 -0.3732 -1.7043 -1.8710
 2849SOL    HW220181   4.280   2.474   8.314 -1.9992 -1.6287 -0.1199
 2850SOL     OW20182   4.355   1.545   5.502  0.2891  0.3175 -0.2522
 2850SOL    HW120183   4.415   1.553   5.428  1.1053  2.2599  0.6131
 2850SOL    HW220184   4.361   1.450   5.513  0.8097  0.8127  3.6480
 2851SOL     OW20185   1.482   4.499   8.308 -0.3300 -0.5504  0.6526
 2851SOL    HW120186   1.465   4.579   8.358 -1.6758 -2.3131  3.0030
 2851SOL    HW220187   1.563   4.529   8.267 -0.0721 -1.5384  0.4502
 2852SOL     OW20188   0.756   4.661  16.635  0.3387  0.0814 -0.2471
 2852SOL    HW120189   0.797   0.010  16.628 -0.8765  0.5230 -1.7825
 2852SOL    HW220190   0.708   4.667  16.552 -0.1559  1.2292  0.1141
 2853SOL     OW20191   3.013   2.280   9.041 -0.2673  0.0925  0.1829
 2853SOL    HW120192   2.986   2.349   9.102 -0.0474  1.9183 -1.7845
 2853SOL    HW220193   3.056   2.218   9.100  3.6972 -0.0279 -2.8535
 2854SOL     OW20194   2.833   2.168   4.235 -0.0693  0.4485  0.0799
 2854SOL    HW120195   2.879   2.108   4.293  2.0318  0.9226 -1.1197
 2854SOL    HW220196   2.892   2.178   4.160  0.5176  2.1952  0.7647
 2855SOL     OW20197   2.463   3.771  10.009 -0.1832 -0.1966  0.2008
 2855SOL    HW120198   2.525   3.766  10.083  2.5896 -2.5871 -2.2549
 2855SOL    HW220199   2.433   3.861  10.020 -4.6106 -1.5865 -0.7551
 2856SOL     OW20200   0.456   0.013   8.395 -0.2612 -0.3355  0.1060
 2856SOL    HW120201   0.448   0.020   8.300  0.9380 -0.2341  0.0112
 2856SOL    HW220202   0.480   0.104   8.410 -0.6811 -0.6409  2.6661
 2857SOL     OW20203   2.588   4.560   2.444 -0.1590  0.2966 -0.0670
 2857SOL    HW120204   2.526   4.559   2.516  0.5850  0.3899  0.5675
 2857SOL    HW220205   2.567   4.473   2.410  0.3381 -0.3034  1.1674
 2858SOL     OW20206   3.471   0.025  14.184  0.0930  0.6687  0.2177
 2858SOL    HW120207   3.436   0.061  14.265 -0.6674 -1.4639  0.8527
 2858SOL    HW220208   3.392   0.026  14.131 -0.9608  0.1499  1.7704
 2859SOL     OW20209   4.030   4.726  13.089 -0.6846 -0.1268 -0.1592
 2859SOL    HW120210   3.962   0.052  13.071 -0.2193 -0.8553 -4.5128
 2859SOL    HW220211   4.103   0.040  13.123 -0.1036 -0.8710 -0.2727
 2860SOL     OW20212   2.267   4.692  12.804  0.5302 -0.2061 -0.0613
 2860SOL    HW120213   2.212   4.615  12.790 -0.2874  0.6254 -1.4004
 2860SOL    HW220214   2.346   4.644  12.828  0.2175 -1.4610 -1.5734
 2861SOL     OW20215   2.026   3.171   6.485  0.2165 -0.0001 -0.4612
 2861SOL    HW120216   2.074   3.091   6.504 -0.2841 -0.8872 -2.9562
 2861SOL    HW220217   2.091   3.216   6.431  1.6330  0.2641  1.4720
 2862SOL     OW20218   0.978   3.863  11.545 -0.5174 -0.0207  0.4425
 2862SOL    HW120219   1.066   3.864  11.583  0.4180  0.5551 -1.7522
 2862SOL    HW220220   0.974   3.954  11.515 -0.2129 -0.3068 -0.4591
 2863SOL     OW20221   3.470   3.963  17.317  0.1984 -0.6605  0.0045
 2863SOL    HW120222   3.523   3.883  17.314 -0.2392 -1.0450  2.5361
 2863SOL    HW220223   3.432   3.952  17.404  0.6197 -0.1557  0.2533
 2864SOL     OW20224   2.901   4.639  10.809 -0.2494 -0.4717  0.4252
 2864SOL    HW120225   2.958   4.590  10.869 -0.1527 -2.3406 -1.1885
 2864SOL    HW220226   2.913   4.595  10.725  0.6625  0.1346  0.2326
 2865SOL     OW20227   1.523   2.374   5.927  0.8854 -0.2100  0.6397
 2865SOL    HW120228   1.594   2.392   5.866 -0.2254 -0.9919 -0.8760
 2865SOL    HW220229   1.450   2.424   5.892  1.4715  0.1248 -0.1099
 2866SOL     OW20230   2.087   1.155   0.489  0.3524 -0.2089 -0.1175
 2866SOL    HW120231   2.122   1.074   0.451 -1.1892 -1.4224  1.0190
 2866SOL    HW220232   2.051   1.187   0.407 -0.9997  0.3178  0.6734
 2867SOL     OW20233   1.514   4.706   8.458 -0.2902  0.5431  0.1287
 2867SOL    HW120234   1.565   4.688   8.537  1.5810  1.0757 -0.9741
 2867SOL    HW220235   1.436   0.012   8.493 -0.7045 -1.3495  1.5599
 2868SOL     OW20236   4.398   1.209  11.318  0.1916 -0.0093  0.4192
 2868SOL    HW120237   4.473   1.159  11.351  0.6414  0.5909  0.2921
 2868SOL    HW220238   4.335   1.137  11.312 -0.5157  0.5927  0.6002
 2869SOL     OW20239   2.605   4.232   7.736 -0.0011  0.0991  0.2824
 2869SOL    HW120240   2.610   4.142   7.702  0.9435 -0.2367  1.2879
 2869SOL    HW220241   2.572   4.218   7.824 -0.6606 -0.3877 -0.0362
 2870SOL     OW20242   0.651   0.426   8.605  0.3437  0.0412 -0.1348
 2870SOL    HW120243   0.658   0.394   8.696 -0.0144 -0.2628 -0.2109
 2870SOL    HW220244   0.686   0.514   8.614 -0.7495  0.5802 -1.2121
 2871SOL     OW20245   4.354   1.021   8.038 -0.4053  0.2570 -0.2938
 2871SOL    HW120246   4.297   1.086   8.081  0.5049 -0.5476  2.1055
 2871SOL    HW220247   4.370   1.062   7.953  0.0193 -1.1378 -0.8804
 2872SOL     OW20248   3.351   1.340  12.006  0.3351 -0.2845 -0.8155
 2872SOL    HW120249   3.376   1.270  11.946 -0.4535 -0.4654 -0.9249
 2872SOL    HW220250   3.343   1.291  12.088 -2.8843  3.8521  1.3755
 2873SOL     OW20251   3.793   3.330   6.426  0.1010 -0.3231  0.0765
 2873SOL    HW120252   3.709   3.313   6.383  0.4393  0.2109 -0.7938
 2873SOL    HW220253   3.813   3.243   6.461  0.1913 -0.2476  0.2164
 2874SOL     OW20254   0.145   1.953   8.698 -0.1671 -0.0124 -0.7144
 2874SOL    HW120255   0.157   2.047   8.714 -3.2358  0.5648 -1.8031
 2874SOL    HW220256   0.224   1.938   8.646  0.6397 -3.2326  1.4409
 2875SOL     OW20257   0.760   1.679   2.669 -0.3264 -0.1306  0.6349
 2875SOL    HW120258   0.680   1.648   2.712  0.1324  1.5541  2.6977
 2875SOL    HW220259   0.743   1.663   2.576 -2.6209 -0.8699  1.1719
 2876SOL     OW20260   3.902   3.856   8.305  0.1342 -0.0035 -0.1826
 2876SOL    HW120261   3.956   3.778   8.292  0.2598  0.2962 -1.4867
 2876SOL    HW220262   3.839   3.829   8.372 -1.6784  0.3369 -1.7362
 2877SOL     OW20263   0.625   3.211   0.560 -0.3190  0.2206 -0.3237
 2877SOL    HW120264   0.588   3.264   0.630  0.1615  0.3487 -0.1623
 2877SOL    HW220265   0.548   3.166   0.524  1.1866 -1.0314 -2.0196
 2878SOL     OW20266   1.842   1.829   6.125  0.5285  0.0399 -0.0586
 2878SOL    HW120267   1.902   1.756   6.121  0.0886 -0.5203  3.1456
 2878SOL    HW220268   1.869   1.873   6.045  1.1555  0.4674  0.3849
 2879SOL     OW20269   2.064   0.837   5.409 -0.7082  0.3395  0.0447
 2879SOL    HW120270   2.112   0.772   5.460  3.2758  2.0175 -1.4938
 2879SOL    HW220271   1.978   0.831   5.449 -0.0027 -1.6719  1.2384
 2880SOL     OW20272   3.354   0.014   0.019 -0.0895 -0.1982  0.0616
 2880SOL    HW120273   3.371   4.660  17.746 -1.3164 -0.2174 -0.8170
 2880SOL    HW220274   3.434   0.058  17.739  1.7241 -3.6393 -0.1734
 2881SOL     OW20275   3.955   1.574  12.878 -0.0449 -0.2343  0.6812
 2881SOL    HW120276   3.879   1.574  12.821  1.0177 -1.4119 -0.7332
 2881SOL    HW220277   4.016   1.542  12.812  2.6435  1.6040  2.2411
 2882SOL     OW20278   3.880   4.345  15.455  0.6909 -0.0143 -0.5291
 2882SOL    HW120279   3.794   4.357  15.415  1.2534  1.2767 -1.3266
 2882SOL    HW220280   3.925   4.318  15.375  0.1441 -0.1324 -0.7993
 2883SOL     OW20281   4.106   4.404  14.514  0.1480 -0.3915  0.0518
 2883SOL    HW120282   4.167   4.396  14.441 -1.4711  1.5758 -1.5461
 2883SOL    HW220283   4.023   4.395  14.465 -0.6077  1.6549  0.9618
 2884SOL     OW20284   1.198   3.352   0.750  0.5293 -0.1298  0.3315
 2884SOL    HW120285   1.206   3.269   0.703 -0.8360  0.1682 -0.4281
 2884SOL    HW220286   1.141   3.320   0.820 -1.3566  0.7043 -0.8167
 2885SOL     OW20287   4.174   1.936   5.442  0.1389  0.2673  0.0130
 2885SOL    HW120288   4.209   2.023   5.425 -0.6670  0.1756 -2.0633
 2885SOL    HW220289   4.257   1.904   5.477  1.3349 -2.1464 -5.0448
 2886SOL     OW20290   2.625   3.809   8.944 -0.2732  0.1143  0.1185
 2886SOL    HW120291   2.708   3.803   8.897 -0.5339  1.5196 -0.5005
 2886SOL    HW220292   2.571   3.740   8.906  1.2861 -1.6745  1.1425
 2887SOL     OW20293   1.175   0.340  12.735 -0.0842  0.4092  0.4683
 2887SOL    HW120294   1.093   0.290  12.738  1.2477 -1.8411  0.0394
 2887SOL    HW220295   1.201   0.326  12.826  0.3655  2.1740  0.6074
 2888SOL     OW20296   0.796   0.145  12.157 -0.0298 -0.0180  0.2585
 2888SOL    HW120297   0.848   0.178  12.229 -1.8850 -0.4426  1.7843
 2888SOL    HW220298   0.859   0.118  12.091 -0.3711  2.8553 -1.2528
 2889SOL     OW20299   2.498   4.122   7.236  0.9254 -0.1896 -0.0719
 2889SOL    HW120300   2.442   4.192   7.203 -0.6912 -0.9223  1.0668
 2889SOL    HW220301   2.512   4.078   7.152 -1.6760 -1.3485  0.0805
 2890SOL     OW20302   1.946   2.151   7.293 -0.1980  0.2924  0.3977
 2890SOL    HW120303   1.943   2.216   7.364 -2.8255  0.5311  0.0748
 2890SOL    HW220304   1.852   2.159   7.275  0.4085  1.2898 -2.2131
 2891SOL     OW20305   0.384   4.012   2.684 -0.1685  0.3795  0.1101
 2891SOL    HW120306   0.313   4.017   2.620  1.4594 -1.0409 -1.8113
 2891SOL    HW220307   0.455   3.964   2.641  1.1027  1.1873  1.3512
 2892SOL     OW20308   1.897   3.367   8.221 -0.3681  0.3789  0.6634
 2892SOL    HW120309   1.892   3.280   8.260 -4.1456  0.8035  1.1808
 2892SOL    HW220310   1.877   3.349   8.129 -2.7444 -1.1665  1.4871
 2893SOL     OW20311   2.935   1.838   8.954 -0.5004 -0.4491 -0.7176
 2893SOL    HW120312   2.920   1.842   9.049  0.1271 -0.3269 -0.6281
 2893SOL    HW220313   2.900   1.751   8.937 -0.2823 -0.9785  1.4851
 2894SOL     OW20314   0.094   0.362   5.265  0.2229  0.0035  0.1273
 2894SOL    HW120315   0.040   0.381   5.189 -0.3691  2.1788  1.0829
 2894SOL    HW220316   0.176   0.410   5.251  0.2907 -1.0527 -3.0209
 2895SOL     OW20317   2.306   1.700  15.365  0.3093  0.6446  0.0894
 2895SOL    HW120318   2.270   1.641  15.430  0.5405  1.0568  0.5874
 2895SOL    HW220319   2.330   1.648  15.288 -0.1981 -0.8978  0.9901
 2896SOL     OW20320   4.583   0.544  14.330 -0.0131  0.1159 -0.2401
 2896SOL    HW120321   4.664   0.510  14.368  1.3978  3.5395 -0.0976
 2896SOL    HW220322   4.521   0.538  14.403  2.7402  1.7628  2.2353
 2897SOL     OW20323   2.769   2.565  12.674  0.3951  1.0874 -0.3890
 2897SOL    HW120324   2.826   2.575  12.598 -0.3816 -1.2113 -1.2691
 2897SOL    HW220325   2.687   2.538  12.633  0.3331 -0.3138  0.6813
 2898SOL     OW20326   4.660   1.433   7.752 -0.0700  0.2301 -0.0030
 2898SOL    HW120327   4.584   1.472   7.794 -0.7311 -1.9273  0.7768
 2898SOL    HW220328   4.733   1.483   7.790 -0.5534  0.3348  0.7637
 2899SOL     OW20329   2.642   2.375   7.302  0.1695 -0.1349  0.5811
 2899SOL    HW120330   2.709   2.365   7.234 -1.6909 -1.2064 -1.0875
 2899SOL    HW220331   2.595   2.295   7.277  2.1411 -1.1836  0.2014
 2900SOL     OW20332   1.929   3.628   4.824  0.2303 -0.1343  0.2397
 2900SOL    HW120333   1.943   3.723   4.824 -0.4990 -0.0346 -0.0539
 2900SOL    HW220334   1.943   3.613   4.918  3.1302 -1.2288 -0.3491
 2901SOL     OW20335   4.404   3.795  11.274 -0.6897  0.2178  0.1994
 2901SOL    HW120336   4.328   3.850  11.253 -1.3358  0.6173  3.6014
 2901SOL    HW220337   4.357   3.727  11.322  1.8438  0.2612  2.7407
 2902SOL     OW20338   2.441   3.120   0.311 -0.9221 -0.5202 -0.3817
 2902SOL    HW120339   2.500   3.196   0.313  1.7704 -2.6223 -0.2421
 2902SOL    HW220340   2.414   3.122   0.403  0.6922 -1.0049  0.1208
 2903SOL     OW20341   3.613   0.445   7.912  0.2129  0.5746 -0.0340
 2903SOL    HW120342   3.657   0.405   7.987 -0.4194  2.7899  1.4949
 2903SOL    HW220343   3.668   0.405   7.844  2.5570 -0.0878  2.2461
 2904SOL     OW20344   1.819   3.560  17.739  0.6361  0.9956 -0.1324
 2904SOL    HW120345   1.806   3.550   0.085 -1.7201 -0.8473 -0.6582
 2904SOL    HW220346   1.896   3.617  17.738 -0.2964  2.2779  2.1593
 2905SOL     OW20347   3.449   4.322   5.598  0.0075  0.6663  0.3067
 2905SOL    HW120348   3.473   4.246   5.545 -1.1328  0.0385  0.6845
 2905SOL    HW220349   3.474   4.286   5.683 -1.3193  0.9041  0.7840
 2906SOL     OW20350   2.213   4.178   6.790 -0.6041 -0.1569  0.1843
 2906SOL    HW120351   2.281   4.119   6.756 -2.1226 -0.8532 -1.7039
 2906SOL    HW220352   2.132   4.128   6.787 -1.1935  0.8027  0.3108
 2907SOL     OW20353   2.857   4.442   3.227  0.0396 -0.1277 -0.0363
 2907SOL    HW120354   2.925   4.506   3.244  0.3456 -0.1193 -1.3597
 2907SOL    HW220355   2.902   4.367   3.265  1.4565  1.2071  0.8942
 2908SOL     OW20356   2.165   2.857  10.320 -0.1357 -0.0248  0.2675
 2908SOL    HW120357   2.238   2.802  10.293  0.3763  0.0819  1.4344
 2908SOL    HW220358   2.186   2.945  10.353  2.2561 -0.3678 -0.3876
 2909SOL     OW20359   1.109   4.172   3.930 -0.0999 -0.3017  0.1143
 2909SOL    HW120360   1.133   4.080   3.944 -1.0492 -0.3886  1.2253
 2909SOL    HW220361   1.154   4.203   4.008 -2.7692 -3.2887  2.8552
 2910SOL     OW20362   2.947   2.039   2.156  0.3467 -0.3078 -0.5033
 2910SOL    HW120363   2.976   1.948   2.157  1.7777  0.1551 -0.1273
 2910SOL    HW220364   2.921   2.061   2.067  0.2384 -1.6086 -0.7934
 2911SOL     OW20365   1.935   0.147  10.626  0.7230  0.0552 -0.3841
 2911SOL    HW120366   1.954   0.092  10.702  0.4088 -0.3439 -0.5935
 2911SOL    HW220367   1.910   0.227  10.671 -4.0157 -0.9861 -1.1208
 2912SOL     OW20368   0.395   4.673   1.321 -0.2376  0.2376 -0.2081
 2912SOL    HW120369   0.367   4.711   1.237  2.2225  0.2696 -1.0230
 2912SOL    HW220370   0.367   4.582   1.313  2.0823 -0.5891  1.1308
 2913SOL     OW20371   3.642   0.778   1.514  0.0743  0.2123  0.2787
 2913SOL    HW120372   3.678   0.706   1.461 -0.9580  0.3810 -0.6629
 2913SOL    HW220373   3.552   0.780   1.483 -0.0433  0.5707  0.6485
 2914SOL     OW20374   4.595   4.471   6.717  0.6507  0.2666 -0.6016
 2914SOL    HW120375   4.526   4.420   6.759 -1.3884  3.4432 -0.0936
 2914SOL    HW220376   4.668   4.463   6.779 -0.4738  0.0710  0.6777
 2915SOL     OW20377   2.395   4.543   6.488 -0.8058 -0.0781 -0.0724
 2915SOL    HW120378   2.338   4.593   6.429  1.3359  1.6512 -0.6904
 2915SOL    HW220379   2.340   4.514   6.560 -1.2305 -0.4304 -0.5406
 2916SOL     OW20380   0.560   3.169   6.178 -0.4569  0.6843 -0.5465
 2916SOL    HW120381   0.507   3.187   6.100  0.3004  0.5003 -1.0997
 2916SOL    HW220382   0.519   3.219   6.248  0.5452  1.3854 -0.4665
 2917SOL     OW20383   3.272   1.443   3.073  0.2050 -0.6736  0.3972
 2917SOL    HW120384   3.250   1.350   3.074 -0.3571 -0.5448 -0.5874
 2917SOL    HW220385   3.303   1.454   3.163 -0.6437  1.1370  0.4566
 2918SOL     OW20386   2.370   1.814   8.590  0.1508 -0.0785 -0.2364
 2918SOL    HW120387   2.352   1.855   8.674 -1.1563  0.5556 -0.8157
 2918SOL    HW220388   2.457   1.775   8.599  0.2610  1.2056  3.8189
 2919SOL     OW20389   2.453   3.688  10.577  0.1863 -0.0589  0.1941
 2919SOL    HW120390   2.539   3.698  10.536  0.3864 -0.7765  0.4294
 2919SOL    HW220391   2.407   3.768  10.552  0.7125  1.0167  2.6780
 2920SOL     OW20392   4.320   3.666  16.149 -0.0499 -0.1687 -0.0938
 2920SOL    HW120393   4.398   3.638  16.196 -1.1454 -2.9055  0.0664
 2920SOL    HW220394   4.323   3.595  16.084  1.9932 -0.1603  0.0085
 2921SOL     OW20395   3.615   0.655   8.146 -0.1342  0.0631  0.3351
 2921SOL    HW120396   3.570   0.624   8.067  0.8303  0.3686 -0.3372
 2921SOL    HW220397   3.588   0.585   8.204 -0.1001  0.9717  1.4403
 2922SOL     OW20398   0.677   1.530   7.645 -0.0574 -0.0530  0.0072
 2922SOL    HW120399   0.643   1.567   7.727  0.5916  1.2546 -0.3158
 2922SOL    HW220400   0.750   1.479   7.681 -0.1840  1.3653  2.3182
 2923SOL     OW20401   2.141   3.740   7.483  0.4040 -0.5705  0.4238
 2923SOL    HW120402   2.207   3.771   7.421 -2.0520 -0.3260 -2.0342
 2923SOL    HW220403   2.192   3.727   7.563 -1.1328 -1.3630  1.2841
 2924SOL     OW20404   2.210   3.958   2.931  0.2355 -0.4911  0.1996
 2924SOL    HW120405   2.219   4.012   2.853  1.7379 -1.6920 -0.4652
 2924SOL    HW220406   2.114   3.957   2.935  0.2971 -0.2704  1.9563
 2925SOL     OW20407   0.689   3.387   5.844  0.1157 -1.1396  0.0699
 2925SOL    HW120408   0.663   3.432   5.763 -0.0269  0.1623  0.8357
 2925SOL    HW220409   0.752   3.438   5.895 -1.0329  0.0274  0.3296
 2926SOL     OW20410   3.659   4.425  12.533  0.4721 -0.2010 -0.5970
 2926SOL    HW120411   3.662   4.425  12.438  0.9332 -0.3182 -0.5815
 2926SOL    HW220412   3.707   4.500  12.568  0.6360 -0.0888 -1.0701
 2927SOL     OW20413   4.427   0.645   4.305 -0.2448  0.2579  0.3295
 2927SOL    HW120414   4.416   0.603   4.220  1.3746 -0.9065  0.6945
 2927SOL    HW220415   4.523   0.652   4.303 -0.2165 -1.0952 -2.6224
 2928SOL     OW20416   0.757   2.533  10.796 -0.4116  0.0483  0.4520
 2928SOL    HW120417   0.710   2.531  10.713 -0.6076  0.4905  0.5537
 2928SOL    HW220418   0.845   2.513  10.763 -0.1154  0.1022  1.2177
 2929SOL     OW20419   1.674   4.136   3.174 -0.4967 -0.4452  0.3844
 2929SOL    HW120420   1.656   4.123   3.081  0.0806 -2.3760  0.5562
 2929SOL    HW220421   1.586   4.167   3.197 -0.1648  2.5540 -2.4341
 2930SOL     OW20422   0.505   3.692   1.027  0.0282 -0.1310  0.0197
 2930SOL    HW120423   0.428   3.665   0.976  0.4033 -0.5419 -0.3255
 2930SOL    HW220424   0.487   3.634   1.100 -0.3464 -2.5420 -2.0000
 2931SOL     OW20425   4.378   3.834   7.847  0.0571  0.3543 -0.4805
 2931SOL    HW120426   4.339   3.769   7.788 -0.5166 -0.1144  0.4089
 2931SOL    HW220427   4.395   3.906   7.787  0.8044  2.1865  1.9442
 2932SOL     OW20428   0.173   1.005   4.114  0.5349 -0.5490 -0.4084
 2932SOL    HW120429   0.117   1.073   4.151 -0.9921 -1.6308 -0.6971
 2932SOL    HW220430   0.232   1.058   4.060 -2.1318  0.1253 -2.6933
 2933SOL     OW20431   0.356   2.458   6.074 -0.3384  0.5463 -0.3557
 2933SOL    HW120432   0.328   2.549   6.088 -0.9083  0.3212 -0.0488
 2933SOL    HW220433   0.293   2.401   6.119 -0.0682  1.3721  1.0699
 2934SOL     OW20434   0.292   3.227  16.741 -0.1993 -0.1411 -0.0264
 2934SOL    HW120435   0.385   3.252  16.738 -0.9266  2.0592 -4.0337
 2934SOL    HW220436   0.295   3.138  16.705 -0.3724 -0.0702 -0.2095
 2935SOL     OW20437   2.896   0.727   3.245  0.5811  0.1369  0.0378
 2935SOL    HW120438   2.903   0.641   3.287  0.7754 -1.0639 -2.4805
 2935SOL    HW220439   2.822   0.720   3.186 -0.9534  0.3698  1.9289
 2936SOL     OW20440   3.378   2.533   4.174  0.2612  0.8296 -0.5536
 2936SOL    HW120441   3.321   2.610   4.174 -1.9280 -0.7665 -0.5703
 2936SOL    HW220442   3.460   2.573   4.203  0.0315  0.4332  0.6588
 2937SOL     OW20443   0.873   2.080   5.731  0.6158 -0.1667  0.7789
 2937SOL    HW120444   0.890   1.987   5.712 -0.9354 -0.3989  0.5670
 2937SOL    HW220445   0.779   2.085   5.748  1.0645  1.2958  2.7529
 2938SOL     OW20446   2.086   3.405   6.973  0.0398 -0.2326  0.4585
 2938SOL    HW120447   2.086   3.339   6.905 -0.1184  1.5982 -1.3296
 2938SOL    HW220448   2.104   3.486   6.925 -0.8291 -0.3283 -0.0358
 2939SOL     OW20449   3.893   1.710  16.593 -0.0966 -0.1761  0.0118
 2939SOL    HW120450   3.803   1.742  16.598 -0.3654 -0.8973 -0.2012
 2939SOL    HW220451   3.889   1.638  16.530 -1.5540  0.3872 -0.5492
 2940SOL     OW20452   4.621   0.348  15.031 -0.3678 -0.1623 -0.1804
 2940SOL    HW120453   4.609   0.299  14.950 -0.0024 -1.0434  0.2974
 2940SOL    HW220454   4.554   0.414  15.013 -1.1453 -0.7058  0.6765
 2941SOL     OW20455   0.284   0.934   5.694 -0.1840  0.2157 -0.2261
 2941SOL    HW120456   0.258   0.940   5.786 -0.2064 -1.1317 -0.1450
 2941SOL    HW220457   0.197   0.916   5.658 -0.2569 -1.1455  0.6504
 2942SOL     OW20458   0.534   0.058  13.340 -0.1641 -0.0179  0.3165
 2942SOL    HW120459   0.532   0.088  13.249 -0.2237  0.0249  0.3316
 2942SOL    HW220460   0.625   0.037  13.360  0.5693  1.1378 -1.7871
 2943SOL     OW20461   1.559   3.419   0.223  0.1689 -0.7265 -0.0202
 2943SOL    HW120462   1.519   3.408   0.309 -0.5434  2.1091  0.0031
 2943SOL    HW220463   1.648   3.446   0.246  0.8749 -0.3358 -3.2019
 2944SOL     OW20464   0.805   1.901  11.177  0.0667 -0.3011 -0.6412
 2944SOL    HW120465   0.891   1.938  11.199  0.9131 -1.6100 -1.7371
 2944SOL    HW220466   0.827   1.867  11.090 -2.6418  0.7673 -1.7223
 2945SOL     OW20467   1.501   1.308   1.532 -0.1858 -0.2695  0.0926
 2945SOL    HW120468   1.459   1.303   1.618 -0.7953 -1.9238 -0.3079
 2945SOL    HW220469   1.533   1.219   1.538 -2.4184 -1.1418 -0.7307
 2946SOL     OW20470   0.306   0.349   3.745 -0.4937  0.1466 -0.0819
 2946SOL    HW120471   0.265   0.282   3.799  0.6890 -1.2472 -0.9431
 2946SOL    HW220472   0.366   0.385   3.810  0.5635 -0.0614 -0.9386
 2947SOL     OW20473   2.306   3.920   1.947  0.6006  0.3188 -0.3131
 2947SOL    HW120474   2.340   3.935   2.035  1.2343 -0.7915 -0.3608
 2947SOL    HW220475   2.384   3.898   1.895  1.0867 -0.7899  0.8672
 2948SOL     OW20476   0.584   1.453  15.103  0.5203 -0.3105  0.0127
 2948SOL    HW120477   0.543   1.532  15.138  0.0940 -0.8211  0.6603
 2948SOL    HW220478   0.678   1.471  15.102  0.2747  0.9199 -0.3192
 2949SOL     OW20479   0.433   1.653   6.180  0.0613  0.4537 -0.0823
 2949SOL    HW120480   0.397   1.668   6.267 -2.7736  1.4474 -1.4158
 2949SOL    HW220481   0.494   1.582   6.200 -2.3061 -1.0023  1.9292
 2950SOL     OW20482   4.428   1.129   2.890 -0.0748 -0.3521  0.9080
 2950SOL    HW120483   4.415   1.079   2.810  0.4811  2.9485 -1.2428
 2950SOL    HW220484   4.340   1.164   2.901 -1.1799 -2.2829 -1.9076
 2951SOL     OW20485   3.573   0.918   8.219 -0.0012  0.4808  0.0907
 2951SOL    HW120486   3.599   0.830   8.192  0.0690  1.4162 -2.9670
 2951SOL    HW220487   3.618   0.916   8.304 -1.0184 -2.1196  0.5655
 2952SOL     OW20488   2.233   1.156   3.792 -0.1554  0.3973 -0.1834
 2952SOL    HW120489   2.194   1.073   3.764 -1.5284  0.6874  0.8368
 2952SOL    HW220490   2.149   1.200   3.807  0.8481  1.6218  1.7191
 2953SOL     OW20491   2.681   4.077  10.630 -0.5581  0.2046  0.2014
 2953SOL    HW120492   2.620   4.104  10.699 -1.0293  0.7472 -0.4213
 2953SOL    HW220493   2.692   3.988  10.662  2.3088  0.7743  0.8028
 2954SOL     OW20494   3.176   4.692   7.568  0.2917 -0.5403 -0.4066
 2954SOL    HW120495   3.259   4.645   7.558  1.1659  0.7753  0.7251
 2954SOL    HW220496   3.199   0.013   7.640  0.5029 -2.3181  0.9921
 2955SOL     OW20497   1.510   2.928  12.607  0.1538  0.0883 -0.0621
 2955SOL    HW120498   1.502   2.838  12.638  1.7739 -0.9254 -2.5522
 2955SOL    HW220499   1.435   2.969  12.650 -0.0578 -2.3480  1.9243
 2956SOL     OW20500   4.149   0.087   7.385 -0.0819 -0.8947  0.0080
 2956SOL    HW120501   4.061   0.103   7.352  0.1824  1.8278  0.6330
 2956SOL    HW220502   4.115   0.067   7.473 -0.9885  1.1052  0.1085
 2957SOL     OW20503   0.927   2.173  17.240 -0.1267  0.2242  0.3056
 2957SOL    HW120504   0.983   2.221  17.178  1.6912 -0.1824  1.6359
 2957SOL    HW220505   0.948   2.084  17.213 -1.2442 -0.4201  1.5415
 2958SOL     OW20506   2.264   1.071  10.884 -0.4543 -0.2206 -0.1404
 2958SOL    HW120507   2.306   1.019  10.952 -0.5846  0.6611  0.6136
 2958SOL    HW220508   2.209   1.120  10.945 -1.1544  0.8225 -1.5911
 2959SOL     OW20509   2.290   3.475   1.388  0.5660  0.1826  0.4276
 2959SOL    HW120510   2.218   3.422   1.422  2.0491 -2.7463 -0.9994
 2959SOL    HW220511   2.365   3.448   1.441  1.0374 -0.1465 -0.4090
 2960SOL     OW20512   4.284   1.264   8.489  0.2672  0.5269  0.4429
 2960SOL    HW120513   4.237   1.316   8.423 -1.5415 -0.6558  0.7784
 2960SOL    HW220514   4.223   1.190   8.495  0.1919  0.4431 -1.3794
 2961SOL     OW20515   2.855   1.508   8.319 -0.2531  0.1648  0.9561
 2961SOL    HW120516   2.943   1.545   8.324  0.3785 -1.1989 -0.1462
 2961SOL    HW220517   2.860   1.416   8.292  3.1925  1.2019 -1.8897
 2962SOL     OW20518   4.404   1.073  11.605 -0.4622 -0.3695  0.3830
 2962SOL    HW120519   4.321   1.047  11.644 -0.8329  1.5678  0.8645
 2962SOL    HW220520   4.429   0.988  11.569  0.4567  0.1923 -0.2924
 2963SOL     OW20521   1.472   1.785   9.554  0.0202 -0.6027 -0.9764
 2963SOL    HW120522   1.459   1.845   9.628 -2.7623 -0.5284 -1.5344
 2963SOL    HW220523   1.400   1.723   9.557  0.9219 -1.7287 -2.6907
 2964SOL     OW20524   3.391   0.456   5.873  0.2152 -0.0028 -0.1773
 2964SOL    HW120525   3.396   0.362   5.894  2.9378  0.5359  1.6045
 2964SOL    HW220526   3.318   0.467   5.935 -0.5513  0.2242 -1.1262
 2965SOL     OW20527   4.399   3.651   6.749 -0.4613 -0.3921 -0.0230
 2965SOL    HW120528   4.391   3.593   6.674 -2.3229 -1.2942  0.8859
 2965SOL    HW220529   4.477   3.699   6.719  0.3287 -0.4367  1.9744
 2966SOL     OW20530   1.011   2.359   5.031  0.0128  0.2425  0.5642
 2966SOL    HW120531   1.002   2.354   4.936  2.9111 -0.0374  0.3031
 2966SOL    HW220532   0.971   2.275   5.053  0.6994 -0.5972 -1.4426
 2967SOL     OW20533   2.344   1.266   4.975 -0.0465  0.4044 -0.3432
 2967SOL    HW120534   2.320   1.188   5.025 -0.7384  1.4594  0.9690
 2967SOL    HW220535   2.338   1.220   4.891 -2.3863 -0.8915  0.5256
 2968SOL     OW20536   0.021   0.354   8.302 -0.0791 -0.8539 -0.4297
 2968SOL    HW120537   0.006   0.289   8.370 -0.1179  0.8678  1.2263
 2968SOL    HW220538   4.677   0.335   8.256 -0.1222  1.4274 -1.2922
 2969SOL     OW20539   3.154   2.323   0.872 -0.1180 -0.1586  0.0480
 2969SOL    HW120540   3.109   2.260   0.816 -1.4277  1.8877 -1.1862
 2969SOL    HW220541   3.242   2.300   0.841 -0.7754 -0.6497 -1.4153
 2970SOL     OW20542   3.446   2.117   5.878 -0.4883  0.0529  0.2484
 2970SOL    HW120543   3.522   2.170   5.854 -0.0391  1.0855  3.9469
 2970SOL    HW220544   3.454   2.052   5.808 -1.2726 -1.5424  1.6600
 2971SOL     OW20545   0.244   2.665  12.339  0.1505  0.8716 -0.3774
 2971SOL    HW120546   0.254   2.607  12.414 -3.6972  0.2944 -0.2952
 2971SOL    HW220547   0.307   2.732  12.363 -1.5050  0.9919  3.6526
 2972SOL     OW20548   0.628   2.862   8.818 -0.2077  0.0394 -0.4511
 2972SOL    HW120549   0.606   2.905   8.900  0.1664 -0.8754  0.1286
 2972SOL    HW220550   0.544   2.849   8.774 -1.3172  1.5099  1.2189
 2973SOL     OW20551   4.336   0.186  14.794  0.1060 -0.3145  0.1947
 2973SOL    HW120552   4.304   0.139  14.871 -1.3909 -0.2129 -0.3738
 2973SOL    HW220553   4.284   0.147  14.725 -0.4060  0.0027  0.4038
 2974SOL     OW20554   0.602   1.396   2.279 -0.6635  0.3599 -0.3380
 2974SOL    HW120555   0.599   1.424   2.187 -0.2907 -1.1405 -0.7945
 2974SOL    HW220556   0.565   1.309   2.267 -0.7754  0.1469  1.5255
 2975SOL     OW20557   2.054   4.641  13.053 -0.1170 -0.5424 -0.2550
 2975SOL    HW120558   2.149   4.646  13.054 -0.1699  0.1151  1.6036
 2975SOL    HW220559   2.044   4.571  12.987 -2.0938 -0.9113  0.4122
 2976SOL     OW20560   4.425   2.599  14.928 -0.2367  0.1462  0.1879
 2976SOL    HW120561   4.405   2.692  14.930  1.3793  0.5056 -0.9736
 2976SOL    HW220562   4.418   2.604  15.024 -1.0917 -0.0278  0.1400
 2977SOL     OW20563   1.180   3.258   1.864 -0.1919  0.2726  0.3517
 2977SOL    HW120564   1.239   3.296   1.930  3.4916 -2.3708 -1.4773
 2977SOL    HW220565   1.233   3.281   1.788  2.9844 -0.8773  2.2169
 2978SOL     OW20566   2.701   2.255   8.858 -0.3435 -0.2583 -0.2694
 2978SOL    HW120567   2.711   2.268   8.952  3.9809  0.0805 -0.8107
 2978SOL    HW220568   2.619   2.206   8.863 -1.5362  1.7204 -0.3851
 2979SOL     OW20569   0.137   2.474   7.900 -0.1495  0.1552  0.2973
 2979SOL    HW120570   0.116   2.542   7.836  0.9369  0.3166  0.1110
 2979SOL    HW220571   0.216   2.505   7.944 -1.3386  0.1179  2.4883
 2980SOL     OW20572   4.318   1.366   4.597 -0.0512 -0.3343 -0.3103
 2980SOL    HW120573   4.270   1.336   4.674  1.8071 -0.2939  0.8744
 2980SOL    HW220574   4.407   1.337   4.616  0.2521 -0.2367 -1.6154
 2981SOL     OW20575   1.266   1.953   7.111 -0.1477  0.7081  0.0824
 2981SOL    HW120576   1.175   1.981   7.100  0.2306  1.8327 -0.2355
 2981SOL    HW220577   1.284   1.974   7.202 -0.8727 -1.6736  0.7737
 2982SOL     OW20578   0.407   0.824   7.439 -0.2960 -0.3283 -0.1159
 2982SOL    HW120579   0.383   0.836   7.531 -0.6400 -0.0374 -0.2423
 2982SOL    HW220580   0.320   0.796   7.410  0.1266 -0.7541 -0.9822
 2983SOL     OW20581   3.353   1.058   6.599 -0.6378 -0.3806  0.4924
 2983SOL    HW120582   3.288   1.101   6.543  1.1394 -0.3520 -1.5554
 2983SOL    HW220583   3.418   1.124   6.621 -0.4221 -0.3016 -0.3939
 2984SOL     OW20584   3.105   1.964  14.357  0.1435  0.7843  0.1981
 2984SOL    HW120585   3.021   2.009  14.371 -1.4206 -2.2994  0.7542
 2984SOL    HW220586   3.104   1.958  14.262 -1.7281 -0.7434  0.2929
 2985SOL     OW20587   0.205   1.998   9.545  0.1760  0.1981  0.3336
 2985SOL    HW120588   0.112   1.979   9.533  0.8160 -2.4097 -0.5282
 2985SOL    HW220589   0.197   2.092   9.528  0.4856  0.0989 -0.3561
 2986SOL     OW20590   0.068   2.273  10.090 -0.2914  0.0726 -0.2489
 2986SOL    HW120591   0.074   2.264   9.995 -1.4365  0.1005 -0.3263
 2986SOL    HW220592   0.129   2.204  10.116 -2.3187 -1.4716  0.4390
 2987SOL     OW20593   0.025   1.296   0.050  0.0092 -0.0517  0.0279
 2987SOL    HW120594   0.097   1.248   0.009 -0.8507  1.0595 -2.7236
 2987SOL    HW220595   4.711   1.311  17.720  1.7918  1.7485 -0.7937
 2988SOL     OW20596   1.676   4.441  12.868 -0.1818  0.0096  0.0575
 2988SOL    HW120597   1.722   4.433  12.785  0.3499 -0.9648  0.4481
 2988SOL    HW220598   1.696   4.532  12.890  1.1234 -0.1839 -0.3770
 2989SOL     OW20599   1.310   4.447   2.766 -0.1118  0.5218  0.0867
 2989SOL    HW120600   1.323   4.387   2.839 -2.0080  2.4223  2.0030
 2989SOL    HW220601   1.346   4.532   2.793 -1.1303  0.3289  2.0169
 2990SOL     OW20602   2.617   2.821   4.014 -0.2307  0.6877 -0.1380
 2990SOL    HW120603   2.652   2.742   3.974  0.6415  1.4172 -0.8313
 2990SOL    HW220604   2.523   2.808   4.026 -0.2973 -0.0902 -1.5076
 2991SOL     OW20605   0.776   0.324   3.782 -0.0078  0.0980 -0.0437
 2991SOL    HW120606   0.837   0.254   3.807  0.6519  0.6833 -0.0134
 2991SOL    HW220607   0.818   0.397   3.827  1.4212 -1.3604  0.9906
 2992SOL     OW20608   3.461   2.444   1.921  0.0291  0.0641  0.1039
 2992SOL    HW120609   3.461   2.349   1.918 -1.5615  0.0914 -0.9458
 2992SOL    HW220610   3.381   2.467   1.969  0.0535  0.2191  0.0712
 2993SOL     OW20611   4.254   3.854   6.181 -0.0750 -0.1590  0.4419
 2993SOL    HW120612   4.348   3.866   6.169 -0.1027  0.4540  0.8405
 2993SOL    HW220613   4.232   3.941   6.214 -2.4437  0.2612 -2.2005
 2994SOL     OW20614   1.808   0.393  11.142  0.0478 -0.8118  0.0251
 2994SOL    HW120615   1.784   0.336  11.069  0.4734 -1.9196  0.7573
 2994SOL    HW220616   1.894   0.361  11.168  0.0947 -0.5694  0.1725
 2995SOL     OW20617   1.522   2.946   4.243  0.3336  0.6377 -0.2213
 2995SOL    HW120618   1.600   2.914   4.289  0.3167  0.5607 -0.2478
 2995SOL    HW220619   1.460   2.917   4.309  0.4353 -2.3134 -1.4495
 2996SOL     OW20620   4.719   3.536  15.678 -0.1363  0.6052 -0.0045
 2996SOL    HW120621   4.649   3.479  15.711  2.6337 -1.9948  1.3872
 2996SOL    HW220622   4.717   3.514  15.585 -1.5643  2.3535 -0.3881
 2997SOL     OW20623   1.964   4.681   3.554 -0.1496  0.7374  0.1604
 2997SOL    HW120624   1.917   4.610   3.509 -0.2321  1.6060 -1.1250
 2997SOL    HW220625   1.993   0.015   3.497 -1.3461  0.1494 -1.1910
 2998SOL     OW20626   3.579   1.820  13.152 -0.4024  0.3352  0.4004
 2998SOL    HW120627   3.606   1.804  13.062 -1.5263 -3.2925  0.6997
 2998SOL    HW220628   3.658   1.812  13.205 -0.0474  0.2962 -0.1433
 2999SOL     OW20629   1.744   1.610   8.113 -0.7418 -0.5740 -0.1400
 2999SOL    HW120630   1.659   1.649   8.092  0.0649  1.0625 -0.3733
 2999SOL    HW220631   1.797   1.677   8.157  0.0255 -0.8786 -0.5997
 3000SOL     OW20632   0.460   2.166   8.512  0.2188  0.1447  0.8693
 3000SOL    HW120633   0.404   2.120   8.449  1.2935  2.0127 -1.4538
 3000SOL    HW220634   0.532   2.106   8.531  1.7363  1.5081 -0.4983
 3001SOL     OW20635   1.322   4.047   6.746  0.2413 -0.0681 -0.0062
 3001SOL    HW120636   1.399   3.997   6.773 -0.0091 -0.7270 -0.4978
 3001SOL    HW220637   1.359   4.133   6.765 -0.4772 -0.0336  1.2646
 3002SOL     OW20638   3.934   4.050   5.724 -0.1370 -0.0861  0.0393
 3002SOL    HW120639   3.911   3.962   5.754  0.4792 -0.9370 -2.0069
 3002SOL    HW220640   3.860   4.086   5.674 -0.6089 -0.0971  0.7361
 3003SOL     OW20641   2.132   2.395   7.303 -0.4711 -0.0808  0.2189
 3003SOL    HW120642   2.225   2.420   7.301 -0.5945  0.2474 -1.9225
 3003SOL    HW220643   2.133   2.300   7.316 -0.6050 -0.1228 -0.0700
 3004SOL     OW20644   2.686   1.942   3.974  0.3132  0.6437 -0.4162
 3004SOL    HW120645   2.719   2.028   3.948  1.7210 -0.2492 -1.5908
 3004SOL    HW220646   2.680   1.896   3.890  0.8079  0.7773 -0.5230
 3005SOL     OW20647   3.374   2.995   2.648 -0.2699 -0.3416  0.2015
 3005SOL    HW120648   3.362   2.901   2.641 -1.7664  0.0752 -3.2024
 3005SOL    HW220649   3.466   3.007   2.623 -0.7539 -0.0052 -1.4122
 3006SOL     OW20650   1.633   0.331   2.229 -0.9711 -0.2436  0.5098
 3006SOL    HW120651   1.685   0.254   2.252 -1.9931 -1.3629 -0.9352
 3006SOL    HW220652   1.545   0.294   2.220 -1.1270  0.4043 -0.6291
 3007SOL     OW20653   3.338   4.321   8.552 -0.9899  0.4827  0.1918
 3007SOL    HW120654   3.309   4.279   8.471  1.2093  1.4186 -1.1026
 3007SOL    HW220655   3.417   4.362   8.516 -0.1435 -0.6900  0.6865
 3008SOL     OW20656   0.195   0.240   4.728 -0.3657  0.3564  0.0752
 3008SOL    HW120657   0.278   0.260   4.684  0.7141  0.1435  2.0347
 3008SOL    HW220658   0.127   0.291   4.684 -0.9901 -1.8569 -1.5284
 3009SOL     OW20659   3.946   1.773  16.260  0.9303  0.2378 -0.1209
 3009SOL    HW120660   3.998   1.706  16.216  0.0018 -0.2914 -0.4116
 3009SOL    HW220661   4.005   1.799  16.331 -2.1995  3.3470  1.3194
 3010SOL     OW20662   1.141   0.786   0.726 -0.5179 -0.6274 -0.4296
 3010SOL    HW120663   1.225   0.823   0.700 -0.6594 -1.7695 -2.5514
 3010SOL    HW220664   1.136   0.705   0.676  1.2850 -0.2428 -1.2366
 3011SOL     OW20665   3.884   0.349   2.745  0.1385  0.1509 -0.0091
 3011SOL    HW120666   3.833   0.268   2.745  2.0785 -1.0787  1.2967
 3011SOL    HW220667   3.938   0.338   2.823  0.3599  0.5728 -0.1018
 3012SOL     OW20668   3.822   1.477   1.298 -0.6083  0.3842 -0.2658
 3012SOL    HW120669   3.880   1.476   1.374  0.6676  2.3889 -1.2115
 3012SOL    HW220670   3.745   1.516   1.338 -2.5641 -2.0812 -1.6501
 3013SOL     OW20671   4.278   2.328   7.716 -0.2626  0.3070 -0.2508
 3013SOL    HW120672   4.231   2.363   7.791 -0.9453  1.1279 -1.0599
 3013SOL    HW220673   4.211   2.329   7.647  0.1142  0.7066 -0.6153
 3014SOL     OW20674   4.270   4.516   3.980  0.6307 -0.1401 -0.0801
 3014SOL    HW120675   4.301   4.496   3.892  2.2175 -1.5087  0.8028
 3014SOL    HW220676   4.233   4.604   3.980  0.4739 -0.2085  0.8169
 3015SOL     OW20677   2.167   0.957   9.968 -0.2085 -0.0856  0.4367
 3015SOL    HW120678   2.144   1.026   9.906 -0.2026 -0.7869 -0.3254
 3015SOL    HW220679   2.080   0.939  10.005 -1.2919  1.5270 -1.3284
 3016SOL     OW20680   2.165   0.774   7.310 -0.3243 -0.3322  0.1018
 3016SOL    HW120681   2.254   0.743   7.295  0.1860  1.3971 -0.4608
 3016SOL    HW220682   2.130   0.797   7.225 -2.0595 -0.4128  0.8006
 3017SOL     OW20683   0.251   0.094   6.439  0.2579 -0.0190 -0.1073
 3017SOL    HW120684   0.324   0.119   6.382  0.3975  2.5073  1.1887
 3017SOL    HW220685   0.183   0.074   6.375 -1.2024  1.4771  0.9828
 3018SOL     OW20686   2.761   2.450   8.070  0.1641 -0.3173  0.2328
 3018SOL    HW120687   2.854   2.454   8.050 -0.2963  3.0718 -1.3514
 3018SOL    HW220688   2.733   2.462   7.979  1.6610  0.8106 -0.0663
 3019SOL     OW20689   1.443   0.097  13.431  0.2033  0.1177 -0.2359
 3019SOL    HW120690   1.438   0.027  13.366 -0.5616  0.9783 -1.0935
 3019SOL    HW220691   1.535   0.093  13.459 -0.2414  3.4358  1.7431
 3020SOL     OW20692   3.846   2.638  15.489  0.2045  0.4922  0.1676
 3020SOL    HW120693   3.769   2.644  15.546 -1.7834 -0.8820 -2.3332
 3020SOL    HW220694   3.917   2.605  15.544  0.0445 -0.9199 -0.4726
 3021SOL     OW20695   2.427   0.142   4.671 -0.4892 -0.3038  0.0616
 3021SOL    HW120696   2.372   0.071   4.705 -1.2592  0.0470 -0.4495
 3021SOL    HW220697   2.384   0.208   4.725 -1.2240 -0.2216 -0.6397
 3022SOL     OW20698   4.539   1.566  15.157 -0.0122 -0.5985 -0.0448
 3022SOL    HW120699   4.586   1.503  15.102  0.5762 -2.1971  2.2948
 3022SOL    HW220700   4.456   1.517  15.163 -0.9153  0.7809 -1.2717
 3023SOL     OW20701   1.251   3.050   9.663 -0.4289  0.1183  0.0028
 3023SOL    HW120702   1.156   3.064   9.662 -0.6121 -1.1405 -0.0351
 3023SOL    HW220703   1.276   3.135   9.700 -1.9495  0.1996  0.8544
 3024SOL     OW20704   4.614   1.167  17.305  0.1869  0.0457  0.4886
 3024SOL    HW120705   4.551   1.137  17.239 -0.2278  1.2129  0.3592
 3024SOL    HW220706   4.653   1.083  17.329 -0.5169 -0.7173 -1.0399
 3025SOL     OW20707   1.324   2.886  15.170 -0.4328  0.6800  0.1860
 3025SOL    HW120708   1.286   2.879  15.083 -1.3937  1.9813  0.4944
 3025SOL    HW220709   1.318   2.978  15.194 -1.1636  0.5519  0.5171
 3026SOL     OW20710   3.825   2.607   8.533 -0.1186  0.2675  0.1887
 3026SOL    HW120711   3.917   2.631   8.518  0.2816 -2.1693 -1.2430
 3026SOL    HW220712   3.802   2.683   8.587 -0.3691  1.0684 -1.0456
 3027SOL     OW20713   4.179   0.253   4.643  0.3910 -0.0123 -0.4720
 3027SOL    HW120714   4.099   0.281   4.599  0.7124 -0.1491 -1.1432
 3027SOL    HW220715   4.170   0.297   4.727 -0.9144  0.4655 -0.8697
 3028SOL     OW20716   0.745   2.434  16.634 -0.2395  0.0821 -0.7415
 3028SOL    HW120717   0.768   2.379  16.559  1.3699 -0.2879  0.0215
 3028SOL    HW220718   0.787   2.391  16.708 -0.3090  3.3379  1.1744
 3029SOL     OW20719   4.068   2.826   8.304  0.1510 -0.0713  0.0119
 3029SOL    HW120720   4.065   2.806   8.397 -1.1138 -1.7886 -0.4073
 3029SOL    HW220721   4.158   2.858   8.298  0.0653  0.5485  2.1095
 3030SOL     OW20722   0.511   0.892   6.978 -0.1730  1.0727 -0.4264
 3030SOL    HW120723   0.547   0.825   7.036  0.6324  2.8142  1.0842
 3030SOL    HW220724   0.595   0.916   6.938  0.0067  0.3455 -0.4853
 3031SOL     OW20725   2.714   4.028   6.797 -0.1861  0.5702  0.1348
 3031SOL    HW120726   2.808   4.034   6.787 -0.0594 -2.1871 -0.4366
 3031SOL    HW220727   2.717   3.937   6.828 -0.3343  0.9921  1.3803
 3032SOL     OW20728   1.907   0.885  13.809 -0.1992  0.1615 -0.3049
 3032SOL    HW120729   1.971   0.814  13.809 -0.0119  0.3259  0.4495
 3032SOL    HW220730   1.842   0.859  13.744  0.7857  0.5245 -1.4203
 3033SOL     OW20731   1.152   4.108  10.844  0.0116 -0.6317 -0.1554
 3033SOL    HW120732   1.216   4.177  10.862  0.2867 -1.0100  0.2940
 3033SOL    HW220733   1.195   4.082  10.762  1.2445 -3.3323  1.3578
 3034SOL     OW20734   0.600   1.210  15.189  0.2683  0.3280  0.1369
 3034SOL    HW120735   0.521   1.181  15.144 -0.6114  0.1083  1.8229
 3034SOL    HW220736   0.596   1.304  15.170 -0.2605  0.5608  1.4038
 3035SOL     OW20737   4.385   4.001  10.583 -0.1307 -0.9556  0.4192
 3035SOL    HW120738   4.412   3.961  10.665  2.0480 -1.2604 -0.4363
 3035SOL    HW220739   4.457   3.969  10.528 -1.9492 -1.8910 -1.4012
 3036SOL     OW20740   0.651   3.001  11.021  0.1816  0.1444  0.6743
 3036SOL    HW120741   0.678   2.942  11.091  1.2116 -0.2982 -0.0880
 3036SOL    HW220742   0.637   3.081  11.072  1.6806  0.9284 -0.1138
 3037SOL     OW20743   1.394   0.428   5.056  0.1184  0.6716 -0.2595
 3037SOL    HW120744   1.464   0.470   5.105  0.1626 -1.5089  1.5478
 3037SOL    HW220745   1.450   0.353   5.038 -0.9618 -0.1976 -0.0624
 3038SOL     OW20746   4.700   3.648   3.242 -0.2382  0.6957 -0.0477
 3038SOL    HW120747   4.684   3.742   3.228 -2.7344  0.5060  1.6422
 3038SOL    HW220748   4.710   3.645   3.337  1.6657 -2.5215 -0.3516
 3039SOL     OW20749   4.209   0.754   8.077 -0.2155 -0.3525  0.1877
 3039SOL    HW120750   4.137   0.761   8.140 -0.4883  0.9591 -0.2619
 3039SOL    HW220751   4.217   0.841   8.037  1.2067 -0.0338  1.2006
 3040SOL     OW20752   3.802   0.311   7.768  0.1291 -0.2103 -0.6094
 3040SOL    HW120753   3.880   0.312   7.713 -0.7123  0.4043 -1.7748
 3040SOL    HW220754   3.821   0.239   7.828 -0.0798  0.1613 -0.0977
 3041SOL     OW20755   1.879   2.076   9.965 -0.3800 -0.2107  0.0448
 3041SOL    HW120756   1.836   2.111   9.887  1.6323 -1.4455 -1.6074
 3041SOL    HW220757   1.807   2.029  10.007  0.8219  1.7001  4.2374
 3042SOL     OW20758   4.041   4.717   4.343 -0.5631  0.0486  0.5833
 3042SOL    HW120759   3.974   0.019   4.399  0.3899  2.9300 -0.2801
 3042SOL    HW220760   4.013   0.006   4.255  1.7892  2.6229  0.5967
 3043SOL     OW20761   2.060   4.105  15.613 -0.1890  1.2449 -0.4676
 3043SOL    HW120762   2.043   4.129  15.522 -0.2586 -0.5013 -0.9130
 3043SOL    HW220763   2.107   4.022  15.600 -1.5735  0.6401 -1.6445
 3044SOL     OW20764   0.900   0.692   8.394 -0.6254 -0.1483  0.1361
 3044SOL    HW120765   0.862   0.627   8.335 -0.4997 -0.2800  0.2007
 3044SOL    HW220766   0.855   0.770   8.362 -0.5004 -0.4417 -0.7574
 3045SOL     OW20767   2.559   4.016   4.610 -0.5469  0.4147 -0.5342
 3045SOL    HW120768   2.605   4.097   4.634  1.0716 -0.9427  0.9693
 3045SOL    HW220769   2.627   3.988   4.549 -0.2846  0.5284 -0.2957
 3046SOL     OW20770   2.388   4.510  15.930 -0.3425  0.8351 -0.3347
 3046SOL    HW120771   2.305   4.475  15.961  0.1034  1.3102  1.4352
 3046SOL    HW220772   2.448   4.455  15.981  2.4069  3.1264 -1.0989
 3047SOL     OW20773   2.713   0.019  14.687 -0.5628  0.0240  0.2895
 3047SOL    HW120774   2.739   4.679  14.637  0.8549  0.2890  0.6334
 3047SOL    HW220775   2.786   0.014  14.748 -1.2040 -0.6674  0.9934
 3048SOL     OW20776   2.509   4.261   6.470 -0.2094  0.2576 -0.4780
 3048SOL    HW120777   2.513   4.349   6.433  0.2346 -0.1790 -1.4654
 3048SOL    HW220778   2.415   4.247   6.483 -0.0830 -0.0985  0.0440
 3049SOL     OW20779   2.022   1.243   8.947  0.0670  0.0092  0.1746
 3049SOL    HW120780   2.046   1.293   8.870  0.2929  2.6888  1.9916
 3049SOL    HW220781   1.977   1.303   9.007 -0.7944  1.1433 -1.6170
 3050SOL     OW20782   3.104   3.543   2.077 -0.8574  0.1801 -0.6129
 3050SOL    HW120783   3.069   3.601   2.010 -0.3684 -0.4474 -1.3985
 3050SOL    HW220784   3.041   3.472   2.090 -0.9342  0.3286 -0.1596
 3051SOL     OW20785   2.090   2.676  11.708  0.0177 -0.0153 -0.2928
 3051SOL    HW120786   2.112   2.612  11.641  2.6225 -0.4362  0.9676
 3051SOL    HW220787   2.160   2.741  11.700  0.4013 -0.4588 -0.5012
 3052SOL     OW20788   4.508   4.013   7.656  0.9258 -0.0859  0.4971
 3052SOL    HW120789   4.498   4.109   7.656 -0.5027 -0.2378 -0.4132
 3052SOL    HW220790   4.510   3.999   7.561 -1.1652  1.2164  0.2627
 3053SOL     OW20791   3.104   1.239   7.848 -0.8058  0.0175 -0.2039
 3053SOL    HW120792   3.054   1.305   7.896 -0.3030  0.4492 -0.2798
 3053SOL    HW220793   3.194   1.264   7.868 -0.5392  0.0271 -1.4151
 3054SOL     OW20794   3.949   1.535  10.256 -0.4798  0.2292 -0.0466
 3054SOL    HW120795   3.982   1.538  10.345  0.6385 -0.1627 -0.4533
 3054SOL    HW220796   3.943   1.630  10.241 -2.2416  0.3156  1.2071
 3055SOL     OW20797   3.638   0.705   6.929  0.3915  0.4491 -0.4839
 3055SOL    HW120798   3.598   0.782   6.889  0.2591  1.5449  1.7893
 3055SOL    HW220799   3.571   0.637   6.920  2.2864 -1.6879  1.3332
 3056SOL     OW20800   4.276   3.374   3.813  0.6465 -0.1453 -0.3673
 3056SOL    HW120801   4.275   3.347   3.905 -2.6503  1.0682 -0.0635
 3056SOL    HW220802   4.219   3.450   3.814  0.2865 -0.4131 -0.6677
 3057SOL     OW20803   3.244   2.769   4.605 -0.1808 -0.6133 -0.2006
 3057SOL    HW120804   3.260   2.854   4.564  1.1621 -1.1117 -0.7064
 3057SOL    HW220805   3.179   2.726   4.549  0.8320 -2.0498 -0.2674
 3058SOL     OW20806   0.533   2.289   0.826 -0.1386 -0.3112  0.8812
 3058SOL    HW120807   0.586   2.289   0.745  0.3823 -0.3179  1.2231
 3058SOL    HW220808   0.564   2.371   0.864  0.3649  0.1072 -0.4176
 3059SOL     OW20809   2.122   3.074   4.347  0.5350 -0.3935 -0.1063
 3059SOL    HW120810   2.066   3.063   4.271  0.7057 -1.7795 -0.0278
 3059SOL    HW220811   2.052   3.049   4.407  0.8893 -2.1442 -0.4253
 3060SOL     OW20812   0.894   3.664  10.256  0.8900  0.3015 -0.9890
 3060SOL    HW120813   0.881   3.669  10.350  0.1536  1.9757 -1.1713
 3060SOL    HW220814   0.937   3.750  10.253  0.6739  0.5300  2.4160
 3061SOL     OW20815   2.434   0.141   6.082  0.2314  0.3559 -0.1493
 3061SOL    HW120816   2.466   0.053   6.061 -0.0706  0.1557  0.2324
 3061SOL    HW220817   2.465   0.164   6.170 -0.4553 -0.0519  0.2016
 3062SOL     OW20818   1.764   0.678   4.025  0.2220 -0.1654 -0.3343
 3062SOL    HW120819   1.681   0.725   4.028 -0.8385 -2.2571  2.6560
 3062SOL    HW220820   1.794   0.685   3.934  1.2870  1.3812  0.1384
 3063SOL     OW20821   2.283   2.499   4.234 -0.4598 -0.2076 -0.1137
 3063SOL    HW120822   2.371   2.473   4.263 -0.2857  0.9743  0.4074
 3063SOL    HW220823   2.238   2.495   4.318  2.2800  0.5090  1.4074
 3064SOL     OW20824   4.350   4.001   3.558 -0.3483 -0.2969 -0.3224
 3064SOL    HW120825   4.431   4.005   3.506  0.3062 -1.2235  0.6427
 3064SOL    HW220826   4.312   3.922   3.521  0.9438 -0.5913 -1.0310
 3065SOL     OW20827   1.109   4.307   5.316  0.0508 -0.0526  0.1674
 3065SOL    HW120828   1.040   4.293   5.381 -2.7433 -1.7252 -3.1357
 3065SOL    HW220829   1.177   4.297   5.382 -2.5189  0.0384  2.8078
 3066SOL     OW20830   0.183   2.901   5.587  0.2557 -0.6763  0.3810
 3066SOL    HW120831   0.149   2.989   5.573  1.5624  0.3724  3.7013
 3066SOL    HW220832   0.249   2.885   5.520  1.0433  5.0348 -0.2336
 3067SOL     OW20833   2.300   1.411   2.502 -0.3069 -0.4883 -0.2763
 3067SOL    HW120834   2.270   1.332   2.546 -0.1071  0.1104  0.9207
 3067SOL    HW220835   2.352   1.437   2.578 -0.7080 -2.4828  0.6749
 3068SOL     OW20836   2.591   1.703   5.576 -0.3882  0.2472  0.1888
 3068SOL    HW120837   2.496   1.712   5.561 -0.3083  0.7452 -0.0207
 3068SOL    HW220838   2.590   1.626   5.633 -0.3447  0.4624  0.4817
 3069SOL     OW20839   0.393   2.866   3.743 -0.1428 -0.1360 -0.0329
 3069SOL    HW120840   0.418   2.957   3.760 -2.1298  0.3540  0.3146
 3069SOL    HW220841   0.366   2.866   3.651  1.0005  1.9801 -0.3818
 3070SOL     OW20842   1.714   0.094   1.515  0.2550  0.2188 -0.3506
 3070SOL    HW120843   1.748   0.084   1.604  1.0802  5.0044 -0.1270
 3070SOL    HW220844   1.794   0.079   1.464  1.0924 -2.3440  1.7234
 3071SOL     OW20845   2.803   0.158   3.923 -0.0460 -0.5970 -0.2179
 3071SOL    HW120846   2.774   0.097   3.855 -0.3334  2.1466 -2.5640
 3071SOL    HW220847   2.728   0.217   3.927  0.0809 -0.3801 -1.0873
 3072SOL     OW20848   0.236   1.125   2.762  0.5974 -0.3729 -0.2519
 3072SOL    HW120849   0.190   1.072   2.697  0.7683 -0.4677 -0.2956
 3072SOL    HW220850   0.171   1.127   2.832 -0.9947 -1.1770 -1.7347
 3073SOL     OW20851   2.630   1.635   8.435  0.4958 -0.0941  0.0314
 3073SOL    HW120852   2.622   1.722   8.397  1.3524 -0.5111 -1.1300
 3073SOL    HW220853   2.693   1.593   8.376  1.5981 -2.8543  3.1589
 3074SOL     OW20854   4.404   4.701   2.409  0.0021 -0.2237 -0.3972
 3074SOL    HW120855   4.447   4.618   2.388  0.3658 -0.5868  1.7307
 3074SOL    HW220856   4.383   4.733   2.322 -0.4417 -0.4422 -0.3694
 3075SOL     OW20857   4.093   0.611   5.864  0.4687 -0.1215  0.6395
 3075SOL    HW120858   4.069   0.662   5.941 -0.8301 -0.0987  0.2243
 3075SOL    HW220859   4.087   0.523   5.902 -1.5450 -0.7057 -1.0310
 3076SOL     OW20860   4.621   4.202  16.063  0.1916 -0.3609 -0.1413
 3076SOL    HW120861   4.702   4.162  16.094  1.1306  0.3108 -1.7507
 3076SOL    HW220862   4.609   4.172  15.973 -1.0923  0.3270 -0.2020
 3077SOL     OW20863   3.860   1.017   7.959  0.4612  0.2917 -0.5219
 3077SOL    HW120864   3.884   1.109   7.967  0.1327  0.2670  0.6720
 3077SOL    HW220865   3.776   1.026   7.913  0.0050 -2.3038 -0.2344
 3078SOL     OW20866   1.317   3.786   6.380 -0.7774 -0.1623  1.0427
 3078SOL    HW120867   1.225   3.765   6.368 -0.5338 -0.5021 -0.1754
 3078SOL    HW220868   1.338   3.698   6.413  2.2796 -0.1914 -0.9674
 3079SOL     OW20869   3.974   2.236   9.280  0.1447 -0.0502  0.3364
 3079SOL    HW120870   4.008   2.176   9.214 -1.6805 -2.3707  1.5190
 3079SOL    HW220871   4.020   2.221   9.362  0.9977  0.9484  0.0483
 3080SOL     OW20872   1.165   4.634   6.898  0.6572 -0.2138 -0.8197
 3080SOL    HW120873   1.228   4.596   6.959 -0.0016 -0.9750 -0.6229
 3080SOL    HW220874   1.126   4.563   6.848 -2.1532  1.6440 -1.2787
 3081SOL     OW20875   4.014   4.413  11.195  0.0892  0.3476  0.2775
 3081SOL    HW120876   4.102   4.451  11.190  0.1137  0.2917  0.2770
 3081SOL    HW220877   4.015   4.336  11.253 -2.4623  0.6926  0.7778
 3082SOL     OW20878   0.686   2.746   4.844 -0.0378 -0.0142 -0.0022
 3082SOL    HW120879   0.691   2.705   4.758  0.2228 -0.8739  0.4273
 3082SOL    HW220880   0.626   2.702   4.904 -0.5761 -0.5456 -0.9511
 3083SOL     OW20881   3.429   2.363   3.948  0.3014  0.3045 -0.3526
 3083SOL    HW120882   3.461   2.319   4.027 -1.0812 -1.6649 -0.8924
 3083SOL    HW220883   3.388   2.441   3.986  0.2973  1.5223 -2.8020
 3084SOL     OW20884   3.983   1.750   7.647 -0.3412 -0.1265  0.0522
 3084SOL    HW120885   4.019   1.834   7.619 -0.8798 -0.9174 -2.9722
 3084SOL    HW220886   4.055   1.725   7.705  0.2612  0.6429 -0.3656
 3085SOL     OW20887   0.838   2.696   6.597  0.0917  0.1423  0.4201
 3085SOL    HW120888   0.804   2.784   6.582 -2.0660 -0.5043  1.5042
 3085SOL    HW220889   0.798   2.670   6.680  0.5752  1.1909  0.9790
 3086SOL     OW20890   0.464   4.310   7.973  0.2321 -0.2811  0.1495
 3086SOL    HW120891   0.453   4.221   8.006  3.3491 -0.5492  0.4567
 3086SOL    HW220892   0.500   4.284   7.888 -2.2517 -0.0805 -0.9688
 3087SOL     OW20893   3.684   2.636   1.985 -0.2237 -0.0347 -0.2539
 3087SOL    HW120894   3.621   2.589   1.932  1.0720 -2.2729  0.2148
 3087SOL    HW220895   3.771   2.605   1.962 -0.6540 -1.0769 -0.4573
 3088SOL     OW20896   3.688   4.256  16.773  0.4434  0.7685 -0.3641
 3088SOL    HW120897   3.643   4.339  16.759  0.9543  1.3530  1.4395
 3088SOL    HW220898   3.776   4.257  16.736  0.5462  4.4600 -0.0510
 3089SOL     OW20899   1.794   4.199  16.024 -0.0658  0.2510 -0.5926
 3089SOL    HW120900   1.820   4.109  16.047  0.0624 -0.1789 -2.3704
 3089SOL    HW220901   1.766   4.183  15.934 -0.9524  0.7759 -0.4045
 3090SOL     OW20902   2.892   1.458   1.124  0.7137  0.4138 -0.9325
 3090SOL    HW120903   2.812   1.468   1.072 -0.0996  0.3075  0.3160
 3090SOL    HW220904   2.947   1.430   1.050  0.7659 -1.8669 -0.0449
 3091SOL     OW20905   3.978   4.519  15.002  0.1170 -0.1756  0.1818
 3091SOL    HW120906   4.056   4.539  14.952 -0.1225  1.0847  0.2885
 3091SOL    HW220907   3.978   4.587  15.070  3.3804  0.1629 -0.1471
 3092SOL     OW20908   0.428   3.444   8.265 -0.0645  0.3180 -0.2217
 3092SOL    HW120909   0.443   3.492   8.347  0.8090 -0.3687  0.0147
 3092SOL    HW220910   0.366   3.375   8.289  0.0054  0.7168  1.0804
 3093SOL     OW20911   2.984   1.277   2.763  0.0906  0.1702 -0.3455
 3093SOL    HW120912   2.996   1.184   2.746 -1.2923 -0.1321  0.3753
 3093SOL    HW220913   3.067   1.317   2.736  0.7188 -1.5698 -0.9786
 3094SOL     OW20914   1.832   0.784   3.271  0.6004 -0.2981  0.8341
 3094SOL    HW120915   1.824   0.879   3.265 -3.3750 -0.7397 -0.8046
 3094SOL    HW220916   1.758   0.740   3.228 -0.1314  1.5429  0.1973
 3095SOL     OW20917   2.465   1.082   4.407 -0.3188  0.6482 -0.3275
 3095SOL    HW120918   2.452   1.173   4.431  1.4755  0.6238  0.7998
 3095SOL    HW220919   2.446   1.077   4.314  0.5193 -1.1501 -0.4181
 3096SOL     OW20920   1.594   1.716   6.186 -0.1766 -0.7389  0.2634
 3096SOL    HW120921   1.682   1.751   6.173 -1.0096  0.8321 -1.0976
 3096SOL    HW220922   1.617   1.624   6.196  3.5830  0.2101  0.3558
 3097SOL     OW20923   0.862   0.210   8.523 -0.7093 -0.3643 -0.1758
 3097SOL    HW120924   0.843   0.282   8.583 -2.7115 -0.1691 -1.0374
 3097SOL    HW220925   0.948   0.232   8.487 -0.6413  0.1032  0.2758
 3098SOL     OW20926   0.553   1.575   2.792 -0.4570 -0.1481  0.1208
 3098SOL    HW120927   0.459   1.564   2.784 -0.3626 -2.3021  2.1917
 3098SOL    HW220928   0.560   1.630   2.870 -1.4115 -0.6673  0.5629
 3099SOL     OW20929   4.437   3.542   3.325 -0.1406  0.0078 -0.6403
 3099SOL    HW120930   4.469   3.517   3.411  2.7804 -2.9665 -2.6066
 3099SOL    HW220931   4.511   3.574   3.273  0.8595 -0.7003  0.3637
 3100SOL     OW20932   4.288   1.866  17.727 -0.0928  0.1256 -0.2162
 3100SOL    HW120933   4.325   1.778  17.738  2.1969  1.2000  0.8189
 3100SOL    HW220934   4.370   1.916  17.731  0.5071 -0.8232 -0.6286
 3101SOL     OW20935   2.259   0.976   4.971 -0.0846 -0.5473 -0.3938
 3101SOL    HW120936   2.194   0.914   4.938  1.9094 -1.6574 -2.2058
 3101SOL    HW220937   2.329   0.930   4.924  0.1803 -0.0339 -0.4959
 3102SOL     OW20938   3.842   1.832  17.371  0.5015  0.2423 -0.1168
 3102SOL    HW120939   3.937   1.835  17.386  1.0364 -0.7751 -3.2402
 3102SOL    HW220940   3.801   1.774  17.435  1.6868  0.6151  0.9930
 3103SOL     OW20941   2.964   1.952   7.654  0.2843 -0.2921 -0.4610
 3103SOL    HW120942   3.018   2.007   7.711  0.7364 -2.0004  0.7484
 3103SOL    HW220943   3.029   1.895   7.613  0.3249 -1.2970  1.0027
 3104SOL     OW20944   3.578   1.982  16.563  0.2385 -0.0199  0.5272
 3104SOL    HW120945   3.594   1.888  16.551  0.3640 -0.1045  1.3518
 3104SOL    HW220946   3.504   1.987  16.624 -0.1051  0.8256  0.0290
 3105SOL     OW20947   3.086   4.279   3.823  0.0453  0.0346  0.1715
 3105SOL    HW120948   3.054   4.365   3.851  1.2383  0.3351  0.6516
 3105SOL    HW220949   3.149   4.250   3.890 -1.3117 -0.8515  1.0550
 3106SOL     OW20950   4.710   2.183   7.378 -0.0487  0.1266  0.1459
 3106SOL    HW120951   4.696   2.230   7.461  1.4792  0.2928  0.3099
 3106SOL    HW220952   4.651   2.238   7.326  1.6922  0.7684 -1.1437
 3107SOL     OW20953   4.244   0.108  11.301  0.1729  0.4993 -0.2202
 3107SOL    HW120954   4.248   0.027  11.251  0.9942 -0.2351  1.0275
 3107SOL    HW220955   4.301   0.156  11.241  1.0859  0.4411  0.5903
 3108SOL     OW20956   0.446   2.809  15.595  0.3256  0.2717 -0.1156
 3108SOL    HW120957   0.440   2.853  15.679  1.3383 -1.1144  0.6755
 3108SOL    HW220958   0.358   2.772  15.582  0.0219  0.5981  1.0020
 3109SOL     OW20959   3.039   1.546   5.033 -0.0484 -0.0438  0.2572
 3109SOL    HW120960   3.104   1.602   4.990 -0.2529  0.7861  1.0260
 3109SOL    HW220961   2.997   1.515   4.952  1.1550 -3.2622  0.8631
 3110SOL     OW20962   1.369   0.262   8.254 -0.7627  0.0990 -0.7287
 3110SOL    HW120963   1.399   0.330   8.314  0.0835 -0.3570 -0.6420
 3110SOL    HW220964   1.372   0.314   8.174  2.2129 -0.0800 -0.7268
 3111SOL     OW20965   1.835   3.449   2.837 -0.3762 -0.1959 -0.1014
 3111SOL    HW120966   1.918   3.486   2.867 -0.4850 -1.0486  1.2331
 3111SOL    HW220967   1.855   3.393   2.762  0.6346 -1.3708  1.0270
 3112SOL     OW20968   3.472   4.597   6.503 -0.2094 -0.2531  0.1072
 3112SOL    HW120969   3.460   4.605   6.598  0.0925  1.5444 -0.0017
 3112SOL    HW220970   3.417   4.673   6.482  0.2744 -0.2436 -1.1389
 3113SOL     OW20971   1.791   3.623  11.698 -0.0877  0.1953 -0.1764
 3113SOL    HW120972   1.756   3.707  11.728 -3.4091 -0.9625 -0.8723
 3113SOL    HW220973   1.831   3.654  11.617 -1.7143 -2.6355 -2.0374
 3114SOL     OW20974   1.722   0.149   0.018  0.1123  0.5527 -0.6744
 3114SOL    HW120975   1.724   0.131   0.112  0.3694 -0.3356 -0.8411
 3114SOL    HW220976   1.711   0.244   0.017 -0.0284  0.5386 -0.3371
 3115SOL     OW20977   1.259   3.183   9.335  0.0947  0.2242 -0.2102
 3115SOL    HW120978   1.209   3.102   9.319 -0.3720  0.7650 -1.4646
 3115SOL    HW220979   1.184   3.239   9.356  0.8133  1.8070 -1.8782
 3116SOL     OW20980   3.623   1.636   8.123 -0.6851 -0.5316 -0.4727
 3116SOL    HW120981   3.563   1.609   8.053 -1.4638 -0.8452  0.3255
 3116SOL    HW220982   3.606   1.728   8.142  0.9928 -0.0582 -1.2079
 3117SOL     OW20983   1.812   1.204   3.477  0.4700 -0.0999  0.3409
 3117SOL    HW120984   1.893   1.205   3.425 -0.7478  3.5875 -1.4355
 3117SOL    HW220985   1.772   1.288   3.457  1.6451  0.2718 -0.4601
 3118SOL     OW20986   4.368   1.522  10.322  0.4328 -0.1718 -0.1866
 3118SOL    HW120987   4.440   1.517  10.386 -1.8280 -1.5462  2.2659
 3118SOL    HW220988   4.420   1.495  10.246 -0.5131 -0.8357 -0.6046
 3119SOL     OW20989   2.587   3.257   4.219  0.3020  0.3986 -0.4056
 3119SOL    HW120990   2.670   3.210   4.216 -1.3819 -2.7003  1.7871
 3119SOL    HW220991   2.559   3.254   4.127  0.1978  0.0005 -0.3612
 3120SOL     OW20992   4.072   2.322   7.537 -0.5044 -0.0790  0.2219
 3120SOL    HW120993   4.031   2.257   7.480 -2.1848  0.9661  0.2452
 3120SOL    HW220994   4.079   2.401   7.483 -1.8285 -1.0322 -1.3318
 3121SOL     OW20995   1.298   2.852   2.597  0.5015 -0.1387 -0.0419
 3121SOL    HW120996   1.344   2.930   2.567 -0.1848  0.9037  1.6178
 3121SOL    HW220997   1.237   2.831   2.526  1.0670 -0.3470 -0.4715
 3122SOL     OW20998   2.196   4.531  12.556 -0.4810 -0.5389  0.0404
 3122SOL    HW120999   2.208   4.484  12.473  1.6080  1.8656 -1.0306
 3122SOL    HW221000   2.284   4.544  12.589  0.7338 -0.9673 -2.9750
 3123SOL     OW21001   3.757   1.739  17.075  0.0215  0.0638 -0.3579
 3123SOL    HW121002   3.818   1.680  17.031 -2.1860 -2.0192 -0.6712
 3123SOL    HW221003   3.791   1.769  17.159 -0.2731 -0.0697 -0.1911
 3124SOL     OW21004   2.219   4.449   6.723 -0.7426  0.9240  0.0334
 3124SOL    HW121005   2.185   4.495   6.800 -2.0320  1.0216 -0.5830
 3124SOL    HW221006   2.206   4.355   6.734  1.5665  0.5990 -0.0667
 3125SOL     OW21007   4.657   1.065   0.246 -0.2417 -0.2930  0.2386
 3125SOL    HW121008   4.609   1.099   0.171 -0.0288 -0.2352  0.1301
 3125SOL    HW221009   4.708   1.145   0.263  3.7558 -3.3688  2.7158
 3126SOL     OW21010   3.765   3.548   9.623  0.7489  0.3120 -0.1217
 3126SOL    HW121011   3.742   3.598   9.545 -0.5072 -1.1465 -0.6761
 3126SOL    HW221012   3.692   3.498   9.658  0.2379  0.7974 -0.5114
 3127SOL     OW21013   4.280   2.786  15.060 -0.4011 -0.0712  0.1937
 3127SOL    HW121014   4.297   2.878  15.043 -1.3842  0.3112  1.2967
 3127SOL    HW221015   4.286   2.790  15.155 -2.2687 -1.1404  0.3626
 3128SOL     OW21016   2.476   1.319  10.991 -0.4094  0.0391 -1.0321
 3128SOL    HW121017   2.395   1.370  10.989 -0.8560 -0.6270  0.8015
 3128SOL    HW221018   2.543   1.378  10.954  1.4418 -1.1015  0.4742
 3129SOL     OW21019   4.189   1.495  17.651 -0.5808 -0.2095  0.2307
 3129SOL    HW121020   4.102   1.529  17.674 -1.0553 -0.7435 -0.7235
 3129SOL    HW221021   4.191   1.496  17.555  1.1819 -0.2391  0.2841
 3130SOL     OW21022   4.557   0.436   4.858  0.3688 -0.5360 -0.7401
 3130SOL    HW121023   4.508   0.510   4.821 -0.4015 -0.4438  0.4735
 3130SOL    HW221024   4.534   0.363   4.801 -0.4035 -0.2529 -0.7948
 3131SOL     OW21025   4.077   0.592   3.517  0.6143 -0.0282  0.3036
 3131SOL    HW121026   3.984   0.574   3.502 -0.1774  1.9823  2.7414
 3131SOL    HW221027   4.083   0.641   3.599  3.1236 -0.3588  0.3155
 3132SOL     OW21028   2.122   1.471   3.277 -0.1807  0.4493 -0.0733
 3132SOL    HW121029   2.034   1.510   3.274  0.2998  1.6215  1.4114
 3132SOL    HW221030   2.097   1.378   3.274  1.9689 -0.0556 -2.0675
 3133SOL     OW21031   4.071   4.013   7.752  0.4960 -0.2844 -0.4980
 3133SOL    HW121032   4.048   4.106   7.748 -1.0150 -0.5241  2.6367
 3133SOL    HW221033   4.166   4.013   7.764  0.1182  0.6259  2.3647
 3134SOL     OW21034   0.108   4.604   5.340 -0.5634  0.1393  0.2214
 3134SOL    HW121035   0.033   4.555   5.304 -0.7930  0.4476  0.2796
 3134SOL    HW221036   0.143   4.524   5.379  0.9094  1.6604  1.9951
 3135SOL     OW21037   1.619   2.572   9.141  0.3074 -0.6440 -0.0125
 3135SOL    HW121038   1.608   2.594   9.049  2.2810 -2.5781 -0.7013
 3135SOL    HW221039   1.533   2.593   9.178 -0.0717  0.6551 -1.6654
 3136SOL     OW21040   0.829   4.216  14.764  0.3013  0.2378  0.0510
 3136SOL    HW121041   0.814   4.308  14.788  0.5273  0.5498 -0.9999
 3136SOL    HW221042   0.922   4.207  14.783 -0.2215 -2.0377  1.5085
 3137SOL     OW21043   0.155   0.976   0.921  0.1935 -0.6105 -0.1825
 3137SOL    HW121044   0.250   0.987   0.921  0.2806 -1.4666  3.0203
 3137SOL    HW221045   0.151   0.921   0.843 -3.9470  0.4525 -0.7604
 3138SOL     OW21046   3.740   3.164   3.198  0.1317  0.3734  0.1501
 3138SOL    HW121047   3.699   3.085   3.162 -0.6556  0.9990 -0.3393
 3138SOL    HW221048   3.681   3.226   3.156 -0.3356  1.2843  2.1886
 3139SOL     OW21049   3.747   1.185   9.433 -0.3747 -0.3281  0.1533
 3139SOL    HW121050   3.668   1.164   9.382 -1.3944  1.4575  1.0312
 3139SOL    HW221051   3.790   1.101   9.449  0.4197  0.1534  0.5503
 3140SOL     OW21052   0.099   3.942   4.358 -0.1601  0.3418  0.4512
 3140SOL    HW121053   0.172   3.962   4.417 -2.6504  1.7460  3.0523
 3140SOL    HW221054   0.024   3.952   4.417 -0.7791  0.7489 -0.4248
 3141SOL     OW21055   0.241   2.586   5.627 -0.4738 -0.2621  0.3419
 3141SOL    HW121056   0.225   2.525   5.555  1.0592  0.1619 -0.3558
 3141SOL    HW221057   0.176   2.654   5.611 -0.4011 -0.2162  0.2403
 3142SOL     OW21058   0.922   0.243  13.370  0.0274  0.2202  0.3219
 3142SOL    HW121059   1.002   0.195  13.393  0.0708 -0.0450 -0.3845
 3142SOL    HW221060   0.850   0.180  13.368 -0.6271  0.9900 -0.3307
 3143SOL     OW21061   3.436   3.617   5.769  0.6401  0.1529 -0.3149
 3143SOL    HW121062   3.376   3.607   5.843 -0.7497 -1.9808 -1.7392
 3143SOL    HW221063   3.488   3.540   5.790  0.0353 -0.5966 -1.5751
 3144SOL     OW21064   2.814   0.821   1.630 -0.2722 -0.4454 -0.3690
 3144SOL    HW121065   2.880   0.783   1.571  1.0218  1.4534 -0.1584
 3144SOL    HW221066   2.772   0.871   1.560  0.8549 -0.3877 -1.0082
 3145SOL     OW21067   2.899   1.861   1.383 -0.0798 -0.4872  0.3086
 3145SOL    HW121068   2.854   1.881   1.302 -1.5498  0.4272  1.3466
 3145SOL    HW221069   2.952   1.787   1.354 -0.0238 -0.4546  0.3253
 3146SOL     OW21070   1.050   2.081   4.479 -0.7873 -0.3562  0.1395
 3146SOL    HW121071   1.015   2.108   4.564  0.6421  1.1403  0.2424
 3146SOL    HW221072   0.997   2.002   4.465  0.1500 -1.1358  1.0000
 3147SOL     OW21073   1.809   1.305  14.752 -0.0121  0.0791 -0.3530
 3147SOL    HW121074   1.802   1.210  14.766 -0.2101  0.1685  0.1880
 3147SOL    HW221075   1.746   1.333  14.819  0.5644  2.1263 -0.6859
 3148SOL     OW21076   2.133   3.901  11.539 -0.0743 -0.0228  0.1119
 3148SOL    HW121077   2.094   3.906  11.626 -1.3726 -0.5320 -0.4522
 3148SOL    HW221078   2.106   3.816  11.506  0.7829  0.5204 -2.0254
 3149SOL     OW21079   3.614   2.776  10.045  0.3663  0.3132  0.2854
 3149SOL    HW121080   3.604   2.832   9.969  0.5523  0.2079  0.1843
 3149SOL    HW221081   3.698   2.806  10.080  0.4917  0.9367 -0.5756
 3150SOL     OW21082   3.608   4.363   2.322 -0.0991  0.1231 -0.0032
 3150SOL    HW121083   3.585   4.311   2.399 -0.1047 -0.0500 -0.1233
 3150SOL    HW221084   3.619   4.297   2.254  0.6414  0.0295  0.1992
 3151SOL     OW21085   4.291   4.659  14.311  0.4486  0.1758 -0.4335
 3151SOL    HW121086   4.200   4.651  14.285 -0.2757 -1.7532  2.6648
 3151SOL    HW221087   4.309   4.565  14.311  2.3540  0.5437 -3.4281
 3152SOL     OW21088   0.765   4.623  11.590  0.1241  0.3345 -0.0685
 3152SOL    HW121089   0.734   4.638  11.679  0.8345  2.6074 -0.1814
 3152SOL    HW221090   0.838   4.685  11.585 -0.6461  1.3134  0.9679
 3153SOL     OW21091   1.602   0.253   2.920 -0.2057 -0.4706 -0.0226
 3153SOL    HW121092   1.541   0.307   2.869  0.1033  0.6793  0.8167
 3153SOL    HW221093   1.643   0.315   2.980 -0.9545 -0.0768  0.0798
 3154SOL     OW21094   3.710   3.012   7.822 -0.1048  0.3309  0.3801
 3154SOL    HW121095   3.623   3.035   7.856 -1.2162  0.9797 -2.8610
 3154SOL    HW221096   3.722   3.085   7.762  0.8378 -0.8909 -0.9183
 3155SOL     OW21097   3.667   1.540  11.622 -0.0794 -0.5009  0.0187
 3155SOL    HW121098   3.623   1.612  11.667 -1.2872 -1.4542  0.3791
 3155SOL    HW221099   3.704   1.585  11.546 -1.2539 -1.6272 -1.2345
 3156SOL     OW21100   2.453   2.925  11.881 -0.5851 -0.1411  0.1140
 3156SOL    HW121101   2.497   3.009  11.872 -0.8139 -0.2918 -2.5050
 3156SOL    HW221102   2.397   2.921  11.803 -1.9356 -0.7368  1.1122
 3157SOL     OW21103   1.995   3.165  12.548 -0.3071 -0.2811  0.3683
 3157SOL    HW121104   1.980   3.158  12.642 -1.4679 -1.5731  0.0793
 3157SOL    HW221105   1.902   3.156  12.527 -0.1740 -0.7079 -0.0384
 3158SOL     OW21106   3.457   2.907   7.114 -0.1403 -0.1093  0.4649
 3158SOL    HW121107   3.419   2.979   7.166 -0.6219 -0.3210  0.4069
 3158SOL    HW221108   3.539   2.887   7.158 -0.5985  1.5985  2.1397
 3159SOL     OW21109   0.211   3.163   2.882 -0.5525  0.6682  0.0082
 3159SOL    HW121110   0.247   3.199   2.963  2.0594 -0.3257 -0.7336
 3159SOL    HW221111   0.117   3.175   2.898 -0.8745 -1.1103 -0.5965
 3160SOL     OW21112   1.381   4.058   0.032  0.2916 -0.2344  0.3126
 3160SOL    HW121113   1.412   4.117   0.101  2.0204 -0.8734  0.0667
 3160SOL    HW221114   1.295   4.048   0.074 -0.1927 -1.6798 -1.0273
 3161SOL     OW21115   4.596   0.297  14.748 -0.2099 -0.4384 -0.4121
 3161SOL    HW121116   4.639   0.235  14.689  0.6839 -0.2444  0.0392
 3161SOL    HW221117   4.515   0.245  14.755 -0.7521  0.2465 -1.5515
 3162SOL     OW21118   2.517   3.036   6.156 -0.3481 -0.0960 -0.4864
 3162SOL    HW121119   2.453   3.096   6.118 -0.2133  0.1025 -0.3982
 3162SOL    HW221120   2.480   2.961   6.109  2.2152 -0.8495 -1.3264
 3163SOL     OW21121   1.780   3.659   3.634 -0.4909  0.0035  0.6498
 3163SOL    HW121122   1.755   3.573   3.599  1.6462 -0.8436  1.1963
 3163SOL    HW221123   1.772   3.647   3.728 -2.1709  1.2184  0.6588
 3164SOL     OW21124   3.958   2.803   8.920  0.0014 -0.5759 -0.0636
 3164SOL    HW121125   3.884   2.811   8.979 -0.4254  2.4182 -0.9889
 3164SOL    HW221126   4.025   2.847   8.971 -0.2403 -0.9567  0.5757
 3165SOL     OW21127   1.512   4.420   9.240 -0.1714  0.1187 -0.6676
 3165SOL    HW121128   1.459   4.341   9.243  1.9714 -1.3466 -1.3630
 3165SOL    HW221129   1.587   4.394   9.186  0.1832  2.4780 -1.3399
 3166SOL     OW21130   2.535   2.323   6.134  0.0807 -0.2613 -0.0159
 3166SOL    HW121131   2.613   2.268   6.129  0.5228  0.4417 -0.7826
 3166SOL    HW221132   2.557   2.398   6.189  2.1145  0.9222 -2.4554
 3167SOL     OW21133   3.091   1.324   8.456 -0.0927 -0.7749 -0.0264
 3167SOL    HW121134   3.044   1.288   8.381  2.1150 -1.7103 -0.9495
 3167SOL    HW221135   3.181   1.323   8.425  0.1779 -0.2841  0.7654
 3168SOL     OW21136   0.446   4.530   6.121  0.4460 -0.6605  0.0326
 3168SOL    HW121137   0.474   4.621   6.115 -0.6538 -0.2943  0.3875
 3168SOL    HW221138   0.497   4.482   6.186 -0.8571 -0.3692  1.2645
 3169SOL     OW21139   1.729   2.252  11.208 -0.0250 -0.1292  0.1363
 3169SOL    HW121140   1.774   2.335  11.195 -0.3202  0.0565  0.2973
 3169SOL    HW221141   1.744   2.250  11.302  0.9495 -3.3883 -0.0962
 3170SOL     OW21142   0.507   4.629  13.747 -0.2262  0.0967  0.1426
 3170SOL    HW121143   0.569   4.693  13.781  0.1000 -0.5734  0.8036
 3170SOL    HW221144   0.559   4.592  13.675  1.8342  0.3820  1.4955
 3171SOL     OW21145   0.703   1.941   7.867 -0.5193 -0.2410 -0.0921
 3171SOL    HW121146   0.630   1.918   7.810 -0.2731 -0.2405 -0.4104
 3171SOL    HW221147   0.694   1.885   7.943  0.8599 -0.8147 -0.3525
 3172SOL     OW21148   3.128   1.503   6.408 -0.6091  0.5841  0.9045
 3172SOL    HW121149   3.048   1.470   6.367  0.0386  0.6321 -0.4099
 3172SOL    HW221150   3.093   1.586   6.438 -1.2180  0.9730 -0.8583
 3173SOL     OW21151   3.973   2.329   1.687  0.0376 -0.0140 -0.2105
 3173SOL    HW121152   4.055   2.287   1.712 -0.6833 -2.0885 -1.2418
 3173SOL    HW221153   3.999   2.390   1.618 -0.9400 -1.0604 -1.5180
 3174SOL     OW21154   0.041   4.033   4.104 -0.2278 -0.2231 -0.2107
 3174SOL    HW121155   0.031   4.128   4.110 -2.4588 -0.4383 -0.3946
 3174SOL    HW221156   0.081   4.021   4.190 -0.7431 -0.9557 -0.0698
 3175SOL     OW21157   3.297   0.657   7.000 -0.4023 -0.6594  0.2379
 3175SOL    HW121158   3.211   0.680   6.965 -0.9259 -0.4918  1.6677
 3175SOL    HW221159   3.336   0.655   6.913  1.5685  0.6791  1.1086
 3176SOL     OW21160   0.080   3.451   4.173  0.2223  0.2758 -1.2173
 3176SOL    HW121161   0.064   3.533   4.219  0.6083 -1.8914  2.7669
 3176SOL    HW221162   0.128   3.475   4.094 -1.1405  1.8042 -1.5857
 3177SOL     OW21163   2.668   4.631   9.835 -0.0367  0.2200  0.2804
 3177SOL    HW121164   2.690   4.688   9.909 -1.3905  0.0898  0.7693
 3177SOL    HW221165   2.737   4.566   9.848 -0.6621 -0.5894 -0.4096
 3178SOL     OW21166   1.482   0.159  17.615  0.3682 -0.5573 -0.3813
 3178SOL    HW121167   1.453   0.229  17.673  0.5507  0.8832 -2.0289
 3178SOL    HW221168   1.561   0.146  17.668 -0.0697  1.0249  0.6483
 3179SOL     OW21169   3.471   0.516   9.970 -0.0106  0.9204  0.3859
 3179SOL    HW121170   3.448   0.460   9.896 -2.2392  1.5794  0.5890
 3179SOL    HW221171   3.565   0.494   9.970 -0.1255  0.4249 -0.2003
 3180SOL     OW21172   3.338   3.950   6.129  0.2517  0.1247 -0.4520
 3180SOL    HW121173   3.426   3.956   6.090 -1.1122  2.3971 -3.2395
 3180SOL    HW221174   3.319   4.044   6.137 -0.1782 -0.0614  0.6653
 3181SOL     OW21175   3.734   3.744   2.928 -0.0423  0.5902 -0.0782
 3181SOL    HW121176   3.638   3.741   2.924  0.1007 -1.0616 -2.3311
 3181SOL    HW221177   3.758   3.802   2.855 -0.1450  1.5692  0.6775
 3182SOL     OW21178   4.426   3.165  15.819 -0.2971  0.4092  0.1085
 3182SOL    HW121179   4.361   3.129  15.880 -0.1028  1.3812  0.8903
 3182SOL    HW221180   4.488   3.185  15.890  1.8968 -2.7900 -0.8915
 3183SOL     OW21181   4.300   0.330   6.961  0.2081 -0.4542  0.3666
 3183SOL    HW121182   4.237   0.401   6.956  1.0347  0.2297 -0.2681
 3183SOL    HW221183   4.240   0.256   6.972 -0.6550 -0.0098 -1.4959
 3184SOL     OW21184   3.872   2.951   5.450  0.2866 -0.3024 -0.2258
 3184SOL    HW121185   3.886   3.010   5.375  2.0868  2.3405  2.1994
 3184SOL    HW221186   3.778   2.960   5.461  0.4673  0.6423  0.4864
 3185SOL     OW21187   2.942   4.443   7.990  0.7940  0.2455  0.0961
 3185SOL    HW121188   2.912   4.526   7.951 -0.6715 -0.0979  0.5008
 3185SOL    HW221189   2.869   4.424   8.049 -0.2200  1.8936 -0.6105
 3186SOL     OW21190   3.712   3.590   5.479 -0.3983 -0.1284 -0.4702
 3186SOL    HW121191   3.806   3.611   5.477 -1.0970  3.1266  3.6050
 3186SOL    HW221192   3.677   3.608   5.392  1.2495  0.2814 -1.0560
 3187SOL     OW21193   1.690   2.201   5.474  0.0012  0.2005 -0.0717
 3187SOL    HW121194   1.785   2.191   5.461  0.1442  1.5543 -0.0488
 3187SOL    HW221195   1.663   2.215   5.383  0.8859 -1.1681 -0.5404
 3188SOL     OW21196   0.456   0.394  16.021  0.1635 -0.1410  0.0212
 3188SOL    HW121197   0.421   0.421  15.937 -0.0257  0.0559  0.1652
 3188SOL    HW221198   0.543   0.378  15.983 -0.3514 -1.4873 -0.5891
 3189SOL     OW21199   0.555   2.689   8.295  0.0377 -0.2666  0.6350
 3189SOL    HW121200   0.617   2.675   8.366 -0.3145 -0.6317  0.8654
 3189SOL    HW221201   0.482   2.743   8.326  0.5387  1.3683 -1.0448
 3190SOL     OW21202   2.677   2.779   6.535 -0.5962  1.0904 -0.0015
 3190SOL    HW121203   2.686   2.789   6.440 -0.9899  2.2026  0.0680
 3190SOL    HW221204   2.763   2.805   6.568 -0.4028  1.1942 -0.5896
 3191SOL     OW21205   0.931   4.063  13.542 -0.7785  0.3052  0.2266
 3191SOL    HW121206   0.865   4.060  13.473 -0.4577  2.6215 -0.1832
 3191SOL    HW221207   0.924   3.983  13.594 -1.2523  0.6972  0.7705
 3192SOL     OW21208   2.624   1.019   6.970 -0.3033 -0.2590  0.2908
 3192SOL    HW121209   2.562   1.082   7.006 -0.4535 -1.6614  2.4319
 3192SOL    HW221210   2.567   0.970   6.910 -2.8342  3.0759 -0.0378
 3193SOL     OW21211   3.337   1.432   5.312  0.6302 -0.0546  0.3595
 3193SOL    HW121212   3.375   1.495   5.251  1.4326 -0.6903  0.2067
 3193SOL    HW221213   3.415   1.397   5.356  0.3596  0.2143  1.0436
 3194SOL     OW21214   1.058   2.428   5.716 -0.3016  0.4907 -0.4503
 3194SOL    HW121215   1.144   2.396   5.691  0.1497  0.2037  1.5038
 3194SOL    HW221216   1.059   2.430   5.812 -0.1754  0.1765 -0.4453
 3195SOL     OW21217   4.343   0.975   6.943 -0.6723  0.4924 -0.0508
 3195SOL    HW121218   4.303   1.048   6.990 -1.7285 -0.0582 -0.0894
 3195SOL    HW221219   4.325   1.000   6.853 -0.3048  0.9954  0.0137
 3196SOL     OW21220   1.044   2.662   4.331 -0.6075  0.6473  0.2708
 3196SOL    HW121221   1.068   2.752   4.308  1.9055  0.1475  0.8994
 3196SOL    HW221222   0.981   2.684   4.399 -0.3411 -0.9100  1.0189
 3197SOL     OW21223   0.826   1.171  15.723  0.2866  0.4621  0.2401
 3197SOL    HW121224   0.866   1.085  15.709  1.1485  0.6624  1.4600
 3197SOL    HW221225   0.848   1.213  15.641 -2.7004  0.3710 -0.6326
 3198SOL     OW21226   0.823   3.703   8.834  0.2185  0.7762 -0.2575
 3198SOL    HW121227   0.874   3.673   8.909 -0.5121 -2.5448 -1.1227
 3198SOL    HW221228   0.804   3.791   8.866  4.2138  0.8892  1.8102
 3199SOL     OW21229   1.466   2.243   8.242  0.1065 -0.1388  0.0896
 3199SOL    HW121230   1.466   2.322   8.188 -1.3682  0.1034  0.4387
 3199SOL    HW221231   1.549   2.258   8.286  0.6226 -0.2834 -0.8384
 3200SOL     OW21232   4.230   2.716   1.732  0.0276  0.2817  0.3705
 3200SOL    HW121233   4.272   2.802   1.729  3.3607 -1.3231  0.0442
 3200SOL    HW221234   4.152   2.727   1.679 -0.2719 -2.0762  0.3156
 3201SOL     OW21235   4.436   1.329   7.970  0.2521  0.3631  0.3314
 3201SOL    HW121236   4.469   1.418   7.980  1.0150  0.2021 -0.7108
 3201SOL    HW221237   4.362   1.335   8.030  0.0579 -1.6020  0.3122
 3202SOL     OW21238   4.309   2.089  14.383  0.3050 -0.1563 -0.2778
 3202SOL    HW121239   4.367   2.027  14.427  0.8127  0.2508 -0.3728
 3202SOL    HW221240   4.360   2.103  14.304 -1.3611 -0.6192 -1.4333
 3203SOL     OW21241   1.482   2.104  16.860  0.2072  0.4454 -0.2004
 3203SOL    HW121242   1.428   2.032  16.827 -1.9768  0.8770  2.4151
 3203SOL    HW221243   1.415   2.172  16.868  0.2254 -0.0002  3.4929
 3204SOL     OW21244   2.750   0.259  10.052  0.2704  0.0548 -0.5128
 3204SOL    HW121245   2.667   0.291  10.087  0.8105 -0.4500  1.2394
 3204SOL    HW221246   2.796   0.246  10.135 -1.7492  2.4464  0.9835
 3205SOL     OW21247   1.268   4.668  12.435  0.0575 -0.3507  0.2121
 3205SOL    HW121248   1.240   4.641  12.522  1.3614  2.0695  1.3858
 3205SOL    HW221249   1.256   0.023  12.456  0.5858 -0.1141 -0.5365
 3206SOL     OW21250   1.480   0.780  13.016 -0.2290 -0.1190 -0.7955
 3206SOL    HW121251   1.539   0.823  13.077 -1.5852  1.1391 -0.3919
 3206SOL    HW221252   1.479   0.689  13.046  2.6047 -0.2896 -1.2018
 3207SOL     OW21253   0.237   0.211  14.475  0.0394 -0.1615  0.0390
 3207SOL    HW121254   0.153   0.188  14.515  1.0830 -1.0915  1.6883
 3207SOL    HW221255   0.227   0.165  14.392  1.9337 -0.3061 -0.1096
 3208SOL     OW21256   3.962   3.841   6.092  0.3704 -0.2050 -0.7578
 3208SOL    HW121257   3.935   3.777   6.158 -0.8977  1.0504 -0.0736
 3208SOL    HW221258   3.904   3.819   6.020 -0.2369  3.9487 -1.5337
 3209SOL     OW21259   2.286   2.158  16.011  0.3513  0.0809 -0.2244
 3209SOL    HW121260   2.340   2.203  15.946 -0.1680  3.1596  1.4444
 3209SOL    HW221261   2.257   2.088  15.953  1.3905 -1.3179  0.9519
 3210SOL     OW21262   1.028   1.454   9.568  0.3727  0.2883 -0.0893
 3210SOL    HW121263   1.085   1.382   9.595  0.0943 -0.5203 -1.6588
 3210SOL    HW221264   1.000   1.431   9.479  0.7058 -0.0555 -0.1068
 3211SOL     OW21265   1.987   0.511   2.309 -0.2794  0.0113 -0.2851
 3211SOL    HW121266   1.966   0.428   2.352 -0.1864  0.3110  0.3515
 3211SOL    HW221267   2.016   0.558   2.388 -0.5323  1.7625 -1.2324
 3212SOL     OW21268   2.835   1.491   4.529  0.7170  0.2319 -0.2181
 3212SOL    HW121269   2.783   1.545   4.589  2.9879 -1.0280  2.8596
 3212SOL    HW221270   2.771   1.476   4.459 -0.2211  0.9577  0.4958
 3213SOL     OW21271   0.134   1.956   4.136 -0.1109 -0.0766  0.3131
 3213SOL    HW121272   0.051   1.911   4.148 -0.0086 -0.1750  0.6412
 3213SOL    HW221273   0.118   2.050   4.142 -0.4310  0.0738 -2.8059
 3214SOL     OW21274   1.885   4.059  11.607 -0.2865  0.0043  0.5038
 3214SOL    HW121275   1.935   4.105  11.539  1.4124  0.7247  2.2431
 3214SOL    HW221276   1.948   4.038  11.676  0.9116  1.2625 -0.2086
 3215SOL     OW21277   2.848   4.056  11.106 -1.0351 -0.2128  0.2465
 3215SOL    HW121278   2.902   4.134  11.116 -1.8010  0.2377  0.8201
 3215SOL    HW221279   2.871   4.039  11.014 -2.9875  1.4194 -0.5488
 3216SOL     OW21280   1.486   1.426   1.996  0.4470 -0.1381  0.5788
 3216SOL    HW121281   1.540   1.449   2.072  0.7541 -0.6642  0.5198
 3216SOL    HW221282   1.541   1.435   1.918  0.6718 -3.8123  0.2956
 3217SOL     OW21283   1.333   2.514   4.560  0.7412  0.8107 -0.2373
 3217SOL    HW121284   1.322   2.609   4.569  2.4177  0.8750  1.1616
 3217SOL    HW221285   1.292   2.488   4.477  0.7826 -0.5527  0.1770
 3218SOL     OW21286   1.766   4.730  12.688 -0.4153 -0.4025  0.2402
 3218SOL    HW121287   1.730   0.007  12.775  1.1098 -2.6682  1.2298
 3218SOL    HW221288   1.861   4.729  12.705 -0.5634  1.2658  1.1535
 3219SOL     OW21289   3.053   1.983  10.232 -0.3538 -0.1920 -0.3222
 3219SOL    HW121290   3.104   2.063  10.241  0.7984 -0.9479 -0.1626
 3219SOL    HW221291   3.108   1.939  10.168  3.9517  1.7740  2.0825
 3220SOL     OW21292   2.881   4.330   2.516 -0.6175 -0.0249  0.1185
 3220SOL    HW121293   2.906   4.402   2.459 -1.2261 -0.0022 -0.1256
 3220SOL    HW221294   2.953   4.333   2.580  0.0495  1.1859 -0.6993
 3221SOL     OW21295   2.012   0.928   6.052  0.1272 -0.3841  0.0546
 3221SOL    HW121296   1.961   0.990   6.104 -0.5760 -2.5638  1.9944
 3221SOL    HW221297   1.953   0.884   5.991 -0.6192 -2.5775  2.3549
 3222SOL     OW21298   3.152   4.707   6.945  0.7175 -0.2191 -0.7232
 3222SOL    HW121299   3.209   4.650   6.997 -1.3457  0.6333  2.4684
 3222SOL    HW221300   3.063   4.681   6.968  0.9463  1.4958  2.1836
 3223SOL     OW21301   1.946   2.911  13.781 -0.2227  0.3885 -0.2303
 3223SOL    HW121302   1.871   2.851  13.785  0.9018 -1.0173 -0.1162
 3223SOL    HW221303   2.009   2.846  13.813 -1.4877 -1.3571 -1.3491
 3224SOL     OW21304   3.859   1.650  11.469  0.3341  0.1619  0.0771
 3224SOL    HW121305   3.922   1.614  11.533  0.8837  1.3338  0.1974
 3224SOL    HW221306   3.924   1.645  11.399 -0.2383 -0.3393 -0.4102
 3225SOL     OW21307   3.821   4.467   4.155  0.0782  0.2289  0.5138
 3225SOL    HW121308   3.775   4.402   4.209 -0.5573  0.8232  0.6982
 3225SOL    HW221309   3.913   4.445   4.144 -0.4440 -0.6451 -2.0839
 3226SOL     OW21310   3.696   3.415  16.315  0.6274  0.0409  0.0316
 3226SOL    HW121311   3.629   3.451  16.374  0.1015 -0.3223 -0.3433
 3226SOL    HW221312   3.677   3.322  16.319  1.2285 -0.2085 -2.8258
 3227SOL     OW21313   1.507   2.724   2.751  0.0604  0.4416 -0.6409
 3227SOL    HW121314   1.542   2.642   2.714  2.9432  1.1464  0.5218
 3227SOL    HW221315   1.440   2.761   2.694 -2.2214 -0.5843  1.4057
 3228SOL     OW21316   2.683   3.725   3.006  0.4906 -0.2465  0.2175
 3228SOL    HW121317   2.642   3.811   2.995 -0.5975 -0.8364 -0.3554
 3228SOL    HW221318   2.622   3.668   2.960  0.8471  0.4859 -1.1769
 3229SOL     OW21319   3.539   2.008   6.697 -0.1832 -0.2014  1.3025
 3229SOL    HW121320   3.632   2.008   6.675 -0.2103 -1.6416  1.2150
 3229SOL    HW221321   3.527   1.913   6.693 -0.5519 -0.0226 -2.1579
 3230SOL     OW21322   3.610   2.601   9.116 -0.3506  0.3119 -0.1316
 3230SOL    HW121323   3.689   2.547   9.123  1.2056  2.6007 -0.0605
 3230SOL    HW221324   3.647   2.682   9.081  1.8707 -0.5040  0.2776
 3231SOL     OW21325   4.728   2.565  13.777 -0.5465  0.3117 -0.5618
 3231SOL    HW121326   4.682   2.546  13.696 -1.8761 -0.1842  0.3091
 3231SOL    HW221327   0.031   2.649  13.754  1.4928 -0.5020  0.0756
 3232SOL     OW21328   1.855   0.323   8.450  0.0369 -0.3504  0.8022
 3232SOL    HW121329   1.784   0.259   8.444  0.5471 -0.9140  0.7394
 3232SOL    HW221330   1.812   0.407   8.435 -2.2171 -1.6291  0.1365
 3233SOL     OW21331   0.912   0.486   3.974  0.3701  0.2031 -0.2444
 3233SOL    HW121332   0.926   0.420   4.042 -1.6414  0.8544  0.7840
 3233SOL    HW221333   0.831   0.523   4.010  0.2203  0.7164 -1.0867
 3234SOL     OW21334   3.840   2.566  10.111  1.1737 -0.2946 -0.2104
 3234SOL    HW121335   3.813   2.479  10.142 -0.0832  0.0721 -0.2769
 3234SOL    HW221336   3.856   2.604  10.198 -3.8509 -1.4024  1.2261
 3235SOL     OW21337   0.270   2.448   1.457  0.2320 -0.4461  0.4694
 3235SOL    HW121338   0.237   2.523   1.508 -0.0541 -0.0950 -0.2359
 3235SOL    HW221339   0.215   2.382   1.501 -0.3808 -1.1911 -1.4308
 3236SOL     OW21340   2.420   0.532  15.347  0.3237  0.1512  0.2364
 3236SOL    HW121341   2.337   0.510  15.390 -1.4195 -0.4147 -3.4348
 3236SOL    HW221342   2.473   0.453  15.360  1.2750  0.4870 -1.7044
 3237SOL     OW21343   0.256   1.252   9.316 -0.0856  0.4294 -0.1324
 3237SOL    HW121344   0.329   1.209   9.270 -0.0899 -0.0709  0.3294
 3237SOL    HW221345   0.270   1.215   9.403  3.4994 -2.1171 -1.7674
 3238SOL     OW21346   4.162   4.372   6.180  0.1418  0.8018 -0.4989
 3238SOL    HW121347   4.067   4.383   6.173  0.2993  0.3267 -3.2849
 3238SOL    HW221348   4.164   4.278   6.168 -0.6143  0.5696  1.1378
 3239SOL     OW21349   0.760   2.360   2.819  0.2019 -0.0946  0.0278
 3239SOL    HW121350   0.799   2.317   2.743  0.8256 -1.4901  1.1312
 3239SOL    HW221351   0.759   2.448   2.782  0.8505  0.1325  0.5666
 3240SOL     OW21352   1.973   2.957   4.160  0.5485 -0.1802 -0.1432
 3240SOL    HW121353   1.997   2.864   4.157 -1.7562 -0.7645 -0.8478
 3240SOL    HW221354   1.878   2.954   4.173  0.3571 -1.9986 -2.0116
 3241SOL     OW21355   2.752   2.149   5.203  0.4537  0.1847 -0.5346
 3241SOL    HW121356   2.831   2.177   5.247  0.1763 -1.7778  1.2324
 3241SOL    HW221357   2.694   2.216   5.239  1.4798 -0.3100  2.0283
 3242SOL     OW21358   0.371   3.395  12.137  0.2794 -0.2899 -0.1214
 3242SOL    HW121359   0.448   3.344  12.114  0.3782  0.0025 -0.4522
 3242SOL    HW221360   0.335   3.338  12.204 -2.1442  1.7951  0.3748
 3243SOL     OW21361   3.957   1.856  13.710  0.1118 -0.7956  0.6711
 3243SOL    HW121362   4.031   1.916  13.694 -0.8151  0.4524  1.0975
 3243SOL    HW221363   3.989   1.774  13.672  0.7701 -0.2090 -0.0716
 3244SOL     OW21364   0.468   1.511  10.881  0.0511 -0.5755 -0.1714
 3244SOL    HW121365   0.437   1.429  10.844 -0.5669  0.5033 -2.0826
 3244SOL    HW221366   0.432   1.504  10.969 -2.0953 -1.6427 -1.1246
 3245SOL     OW21367   1.519   3.077   6.974  0.0638  0.3025 -0.0911
 3245SOL    HW121368   1.431   3.038   6.979 -0.9593  2.6113 -0.2229
 3245SOL    HW221369   1.566   3.017   7.032 -2.6300 -0.5252  1.2274
 3246SOL     OW21370   3.978   1.685   4.724  0.3848  0.1583  0.3319
 3246SOL    HW121371   3.980   1.780   4.715  2.5725  0.2403  1.7078
 3246SOL    HW221372   3.926   1.679   4.804  1.4533  0.1188  1.0237
 3247SOL     OW21373   3.757   2.518   7.836 -0.3730  0.7896 -0.4788
 3247SOL    HW121374   3.708   2.580   7.890 -0.7416  0.1050 -0.0446
 3247SOL    HW221375   3.782   2.590   7.777 -3.4450  1.2462 -1.2221
 3248SOL     OW21376   3.107   3.883   8.768 -0.0293  0.0257 -0.0715
 3248SOL    HW121377   3.183   3.826   8.776  0.7761  1.0833 -0.1279
 3248SOL    HW221378   3.150   3.968   8.778 -2.1863  1.0948  0.2023
 3249SOL     OW21379   1.422   2.990   7.653 -0.0974  0.2584 -0.1898
 3249SOL    HW121380   1.388   2.975   7.741 -0.2533 -3.2951 -0.8509
 3249SOL    HW221381   1.518   2.985   7.657 -0.3139 -2.2732  1.7647
 3250SOL     OW21382   3.291   3.749  13.712  0.2604  0.4143 -0.0231
 3250SOL    HW121383   3.325   3.672  13.757 -0.6591  0.8057  1.3108
 3250SOL    HW221384   3.278   3.710  13.625  0.0924  0.7570 -0.1525
 3251SOL     OW21385   1.415   3.097   2.488 -0.4011 -0.3271 -0.4370
 3251SOL    HW121386   1.398   3.191   2.501 -0.9897 -0.2848 -1.5538
 3251SOL    HW221387   1.509   3.105   2.503 -0.3078  0.1781 -1.3056
 3252SOL     OW21388   1.217   4.445  12.035 -0.2258 -0.2315 -0.1874
 3252SOL    HW121389   1.271   4.430  12.113  1.2190 -0.4876 -1.2408
 3252SOL    HW221390   1.251   4.373  11.983  0.1808  0.4655 -0.8785
 3253SOL     OW21391   4.006   2.329  10.816 -0.1485 -0.2532  0.2373
 3253SOL    HW121392   4.065   2.370  10.753 -0.7336  1.9040  1.1125
 3253SOL    HW221393   4.002   2.235  10.796  0.7695 -0.7827  2.6146
 3254SOL     OW21394   1.083   0.800  10.769  0.1434  0.4754 -0.3671
 3254SOL    HW121395   1.046   0.735  10.709 -1.0449  0.8081  0.0009
 3254SOL    HW221396   1.074   0.757  10.854  0.2441  0.7492 -0.2162
 3255SOL     OW21397   4.157   2.939   3.499 -0.2794 -0.5260 -0.4163
 3255SOL    HW121398   4.106   2.893   3.565  1.0408 -0.5360  0.6072
 3255SOL    HW221399   4.230   2.966   3.554 -0.6006 -1.0527  0.2626
 3256SOL     OW21400   1.770   0.082   0.558 -0.6550  0.2611 -0.4658
 3256SOL    HW121401   1.858   0.109   0.582 -1.5554  0.9618  2.1168
 3256SOL    HW221402   1.750   0.037   0.641 -0.3646 -2.2281 -1.7410
 3257SOL     OW21403   2.768   2.171  14.706 -0.0712  0.0374  0.2976
 3257SOL    HW121404   2.710   2.200  14.635 -0.6707 -1.1759  0.2772
 3257SOL    HW221405   2.834   2.239  14.695  0.2285 -0.2326  0.4049
 3258SOL     OW21406   4.228   4.004   1.936  0.3113  0.2185  0.0820
 3258SOL    HW121407   4.171   4.002   1.859  0.2029 -0.9643  0.1927
 3258SOL    HW221408   4.274   4.087   1.919 -1.8666  1.7280  1.7014
 3259SOL     OW21409   2.235   1.845  13.952 -0.2469 -0.5358  0.2467
 3259SOL    HW121410   2.144   1.847  13.922  0.3134  1.5475 -1.3252
 3259SOL    HW221411   2.246   1.757  13.918  0.4368  0.8892 -3.2226
 3260SOL     OW21412   0.825   3.468   7.344 -0.1628  0.2029  0.5906
 3260SOL    HW121413   0.833   3.395   7.283  0.8199  2.7752 -2.3273
 3260SOL    HW221414   0.796   3.419   7.422 -0.3924  0.1684  0.4839
 3261SOL     OW21415   4.422   0.367  12.369 -0.8543  0.8977  0.0295
 3261SOL    HW121416   4.377   0.451  12.367 -0.0127  1.3018 -2.7436
 3261SOL    HW221417   4.367   0.305  12.321  1.5340 -1.2719  0.1031
 3262SOL     OW21418   2.049   2.834   7.438 -0.0405  0.0230  0.7615
 3262SOL    HW121419   2.142   2.811   7.433 -0.2696 -0.6482 -0.3430
 3262SOL    HW221420   2.012   2.757   7.481 -1.8487  1.0040  0.9818
 3263SOL     OW21421   2.720   3.555   8.617  0.2141 -0.0144 -0.0808
 3263SOL    HW121422   2.812   3.532   8.609  0.0727 -0.9695  1.0225
 3263SOL    HW221423   2.734   3.646   8.646  0.1607  0.1424 -0.5454
 3264SOL     OW21424   3.431   2.863   7.676  0.2155 -0.5075 -0.4573
 3264SOL    HW121425   3.425   2.819   7.761 -2.7134  0.5881 -0.0915
 3264SOL    HW221426   3.417   2.949   7.716 -1.4090 -0.3349 -1.4260
 3265SOL     OW21427   1.522   1.166   4.098  0.0333 -0.3175 -0.3201
 3265SOL    HW121428   1.488   1.214   4.173 -0.4008 -2.1231  0.6388
 3265SOL    HW221429   1.515   1.230   4.027 -0.3855  0.2056  0.1939
 3266SOL     OW21430   3.301   3.122   8.586  0.1208  0.0831 -0.0811
 3266SOL    HW121431   3.338   3.035   8.577  1.2030  0.1696  3.4935
 3266SOL    HW221432   3.224   3.119   8.529  0.3211 -0.1571 -0.3390
 3267SOL     OW21433   4.619   1.901   3.270 -0.0477 -0.4616  0.1623
 3267SOL    HW121434   4.633   1.892   3.176  3.4167  1.4319  0.4734
 3267SOL    HW221435   4.700   1.855   3.293  0.7057  0.7368 -0.0917
 3268SOL     OW21436   4.616   1.238   5.809  0.0089  0.3098  0.3349
 3268SOL    HW121437   4.522   1.227   5.796 -0.2456  0.8728  1.8109
 3268SOL    HW221438   4.627   1.272   5.897 -0.4370 -2.0756  1.3018
 3269SOL     OW21439   3.620   1.979   7.829  0.2567 -0.4786 -0.6370
 3269SOL    HW121440   3.686   2.030   7.876  0.5392 -0.6211 -0.8786
 3269SOL    HW221441   3.552   1.966   7.895  0.5585 -0.1915 -0.2760
 3270SOL     OW21442   0.606   4.498   1.128 -0.1782  0.3429 -0.5558
 3270SOL    HW121443   0.596   4.580   1.178  0.4084 -0.4097  0.7955
 3270SOL    HW221444   0.690   4.458   1.148  0.2201 -0.5645 -4.0448
 3271SOL     OW21445   0.910   2.513   9.495  0.1391  0.3836  0.0205
 3271SOL    HW121446   0.959   2.432   9.509 -2.0021 -0.4204  2.7366
 3271SOL    HW221447   0.867   2.512   9.580 -4.0910 -1.8920 -2.1382
 3272SOL     OW21448   1.646   3.034   8.243 -0.8130  0.2376  0.0138
 3272SOL    HW121449   1.558   3.056   8.212 -1.4547  0.4622  1.9691
 3272SOL    HW221450   1.641   2.943   8.272 -0.9779  0.6749  1.4033
 3273SOL     OW21451   2.659   3.430   0.649 -0.2134  0.4188  0.1105
 3273SOL    HW121452   2.683   3.355   0.704  0.2655  0.9909  0.6750
 3273SOL    HW221453   2.722   3.495   0.679  0.6521  0.3374 -1.5312
 3274SOL     OW21454   4.318   2.120   2.394  0.3666 -0.4098 -0.3374
 3274SOL    HW121455   4.293   2.146   2.482 -0.9921  0.8651 -1.0954
 3274SOL    HW221456   4.404   2.082   2.409  0.2453 -0.2151  0.8032
 3275SOL     OW21457   3.405   2.018   8.837  0.2831  0.3359  0.4187
 3275SOL    HW121458   3.372   2.087   8.894  0.0079 -1.0746  1.9847
 3275SOL    HW221459   3.498   2.022   8.857  0.0905  1.3518  1.0784
 3276SOL     OW21460   3.463   0.140   4.451  0.2439  0.2092 -0.2068
 3276SOL    HW121461   3.468   0.046   4.433  0.1535  0.5925 -2.1631
 3276SOL    HW221462   3.542   0.166   4.404 -0.4554 -0.1424 -1.5764
 3277SOL     OW21463   4.577   0.292  15.297  0.0764 -0.4031 -0.0531
 3277SOL    HW121464   4.588   0.266  15.206  1.7326 -1.9407  0.5897
 3277SOL    HW221465   4.528   0.374  15.289 -1.0331 -0.9088  1.6853
 3278SOL     OW21466   3.285   0.151   0.411 -0.5902  0.2919 -0.4553
 3278SOL    HW121467   3.369   0.175   0.372 -0.7745  2.4819  0.4648
 3278SOL    HW221468   3.274   0.201   0.492 -1.2955 -0.7596  0.0941
 3279SOL     OW21469   0.916   0.303  10.822 -0.1646  0.4867 -0.1231
 3279SOL    HW121470   0.863   0.223  10.819 -0.1507  0.5524 -1.8868
 3279SOL    HW221471   0.950   0.318  10.734  1.7106 -2.1209  0.1289
 3280SOL     OW21472   3.350   2.004   8.302 -0.1207  0.5683  0.0547
 3280SOL    HW121473   3.339   2.008   8.397 -2.0525 -4.0450 -0.0138
 3280SOL    HW221474   3.317   1.915   8.292  1.9658 -0.5646  3.3320
 3281SOL     OW21475   3.929   3.331   8.832  0.3138 -0.0942  0.2118
 3281SOL    HW121476   3.989   3.385   8.883  0.3752  0.7226 -0.7315
 3281SOL    HW221477   3.914   3.387   8.756  3.4440  2.2826  1.3643
 3282SOL     OW21478   1.389   1.740   2.122 -0.2816 -0.3305  0.3495
 3282SOL    HW121479   1.409   1.660   2.073 -0.5458 -0.7357  0.9068
 3282SOL    HW221480   1.322   1.710   2.182 -0.9686 -0.3750 -0.4390
 3283SOL     OW21481   3.480   4.099   4.467 -0.0315  0.0489  0.3631
 3283SOL    HW121482   3.553   4.119   4.525 -1.3405 -0.3910  2.1581
 3283SOL    HW221483   3.424   4.050   4.527 -1.5859 -0.3619 -1.4063
 3284SOL     OW21484   1.788   3.107  13.618  0.2633 -0.6041  0.1392
 3284SOL    HW121485   1.768   3.116  13.525  0.0450  0.8763  0.3252
 3284SOL    HW221486   1.706   3.140  13.656  1.9119  1.6650  1.7168
 3285SOL     OW21487   4.550   1.787   6.211 -0.1687 -0.2982  0.0618
 3285SOL    HW121488   4.586   1.765   6.125  1.5746  0.7255  0.5421
 3285SOL    HW221489   4.547   1.700   6.252  0.8229  0.4665  1.7717
 3286SOL     OW21490   0.551   0.648   9.609 -0.3108 -0.2002 -0.4880
 3286SOL    HW121491   0.489   0.576   9.621 -0.3651 -0.2167 -0.8657
 3286SOL    HW221492   0.582   0.619   9.523  1.4782 -0.7660  0.3567
 3287SOL     OW21493   0.972   3.320  10.517  0.0667 -0.2158 -0.1931
 3287SOL    HW121494   0.984   3.311  10.612  1.2933 -0.2334 -0.3529
 3287SOL    HW221495   0.989   3.230  10.490 -0.2579 -1.2191  2.9489
 3288SOL     OW21496   4.356   1.794   5.678  0.2554  0.1250  0.1314
 3288SOL    HW121497   4.325   1.704   5.677 -0.9211  0.4931  2.7651
 3288SOL    HW221498   4.451   1.780   5.675  0.1597 -0.2287 -1.2276
 3289SOL     OW21499   1.393   2.103   9.220 -0.3134  0.1825 -0.1448
 3289SOL    HW121500   1.442   2.045   9.163 -0.5547 -1.8424  1.6880
 3289SOL    HW221501   1.377   2.174   9.159 -0.6688  0.1900 -0.0474
 3290SOL     OW21502   0.749   4.531   2.467 -0.5222 -0.3573 -0.7318
 3290SOL    HW121503   0.797   4.556   2.388 -1.6370  0.5220 -1.1340
 3290SOL    HW221504   0.669   4.508   2.420 -1.0664 -0.7626  0.3947
 3291SOL     OW21505   0.000   1.425   0.860  0.1336  0.3175  0.1010
 3291SOL    HW121506   0.078   1.373   0.882 -1.7092 -2.0670  1.0234
 3291SOL    HW221507   0.028   1.496   0.917 -1.1990  1.3306 -0.5253
 3292SOL     OW21508   2.507   2.362   8.532  0.0571 -0.2630  0.3083
 3292SOL    HW121509   2.441   2.330   8.471  2.2069 -2.4680 -0.8446
 3292SOL    HW221510   2.557   2.284   8.553  1.5658  0.6944  0.2582
 3293SOL     OW21511   1.016   3.228  12.810  0.0354  0.1402 -0.2295
 3293SOL    HW121512   0.997   3.256  12.899 -2.1543  0.4629 -0.7987
 3293SOL    HW221513   1.013   3.133  12.821  1.5951  0.0706 -0.4507
 3294SOL     OW21514   4.216   0.466   8.316  0.5222 -0.3956  0.0700
 3294SOL    HW121515   4.222   0.451   8.222 -0.5644 -0.0896 -0.0437
 3294SOL    HW221516   4.129   0.428   8.327  0.9837 -1.1111  1.1834
 3295SOL     OW21517   4.465   0.043   4.014 -0.0758 -0.0454 -0.3400
 3295SOL    HW121518   4.436   0.019   3.926 -2.3768  1.6168 -0.0253
 3295SOL    HW221519   4.478   0.137   4.005  0.8342  0.0964  2.4527
 3296SOL     OW21520   3.439   1.461   9.578 -0.0045  0.1037  0.2604
 3296SOL    HW121521   3.432   1.375   9.620 -0.4823 -0.0571 -0.1421
 3296SOL    HW221522   3.466   1.519   9.649 -0.3812  0.9461 -0.2795
 3297SOL     OW21523   2.000   3.417   0.664 -0.2004  0.5338 -0.2121
 3297SOL    HW121524   1.982   3.432   0.571  4.1529  2.1020 -0.8020
 3297SOL    HW221525   2.066   3.348   0.664 -0.9749 -0.2170 -0.0421
 3298SOL     OW21526   2.548   3.683  15.578 -0.0444  0.4505 -0.2160
 3298SOL    HW121527   2.530   3.698  15.485  1.5942 -0.9336 -0.7646
 3298SOL    HW221528   2.626   3.735  15.595  1.1385 -0.8497 -1.6204
 3299SOL     OW21529   0.698   3.148  12.083 -0.1438 -0.0423 -0.2860
 3299SOL    HW121530   0.613   3.108  12.101  1.3099 -3.0798 -0.2051
 3299SOL    HW221531   0.758   3.089  12.127 -1.4459 -1.4369 -0.3673
 3300SOL     OW21532   1.109   0.375   1.153 -0.0431  0.3632 -0.1180
 3300SOL    HW121533   1.204   0.369   1.154  0.0568  2.4665  2.0682
 3300SOL    HW221534   1.084   0.457   1.196 -3.7480 -0.7728 -0.1050
 3301SOL     OW21535   0.728   2.935   7.195  0.3603 -0.0714  0.3640
 3301SOL    HW121536   0.760   2.890   7.274  1.8357 -0.1716 -0.2975
 3301SOL    HW221537   0.671   2.868   7.157 -2.3963  1.2935  2.0318
 3302SOL     OW21538   0.978   3.488  12.325  0.4772 -0.3769  0.2251
 3302SOL    HW121539   1.001   3.434  12.249  1.1019  2.7181 -1.8024
 3302SOL    HW221540   1.030   3.563  12.298 -1.1093 -0.1950 -2.3541
 3303SOL     OW21541   4.318   2.232   3.287 -0.5444 -0.4790 -0.2407
 3303SOL    HW121542   4.353   2.169   3.224 -1.6570  0.2952 -1.6363
 3303SOL    HW221543   4.223   2.231   3.273 -0.4925  2.1383 -0.8753
 3304SOL     OW21544   3.694   1.568   4.052  0.7040 -0.0230 -0.0586
 3304SOL    HW121545   3.727   1.594   3.966 -0.5388 -0.8550 -0.7783
 3304SOL    HW221546   3.656   1.651   4.080 -0.1206 -1.0013  1.6793
 3305SOL     OW21547   0.086   2.721   6.245  0.3024 -0.5261 -0.5201
 3305SOL    HW121548   0.135   2.728   6.163  1.5801 -1.8878  0.1374
 3305SOL    HW221549   0.019   2.657   6.221 -1.1226  1.2818 -1.3678
 3306SOL     OW21550   3.793   3.247   2.100 -0.0865  0.2760  0.1067
 3306SOL    HW121551   3.830   3.233   2.013  0.9531  0.6351  0.4898
 3306SOL    HW221552   3.823   3.170   2.148  0.0961 -1.3089 -2.5591
 3307SOL     OW21553   0.071   1.496   9.772  0.3131  0.7562 -0.4957
 3307SOL    HW121554   0.140   1.533   9.718  1.5074 -0.2070  0.3750
 3307SOL    HW221555   0.124   1.479   9.850 -0.4335  1.6248  0.2059
 3308SOL     OW21556   3.037   4.002  15.804 -0.1859  0.1371  0.5306
 3308SOL    HW121557   3.049   3.907  15.812 -0.4057 -0.0820 -2.0163
 3308SOL    HW221558   3.112   4.038  15.851 -0.2048  0.1289  0.5673
 3309SOL     OW21559   3.163   1.658   2.684  0.2896  0.1036  0.5206
 3309SOL    HW121560   3.220   1.731   2.708  1.8181 -0.5167 -1.2450
 3309SOL    HW221561   3.131   1.686   2.599 -1.3423 -1.0486  0.7710
 3310SOL     OW21562   3.501   3.141   4.745 -0.2629  0.1783 -0.2120
 3310SOL    HW121563   3.505   3.200   4.669 -3.8378  0.9037  0.1265
 3310SOL    HW221564   3.558   3.183   4.809 -0.4781  3.7936 -2.3624
 3311SOL     OW21565   4.671   1.764   4.185  0.0678  0.3237 -0.5540
 3311SOL    HW121566   4.737   1.699   4.209 -0.3633 -0.2981 -1.0634
 3311SOL    HW221567   4.599   1.706   4.160 -2.1913  1.6910  2.7884
 3312SOL     OW21568   4.031   2.937   4.276 -1.2099  0.0341  0.7165
 3312SOL    HW121569   4.056   2.869   4.213 -1.0114 -0.7283  1.6135
 3312SOL    HW221570   3.997   3.010   4.224  1.3914  0.4412 -0.3853
 3313SOL     OW21571   1.326   0.048   4.198 -0.8770  0.1010 -0.3415
 3313SOL    HW121572   1.262   0.109   4.162 -0.7897  0.5300  0.2441
 3313SOL    HW221573   1.356   0.007   4.117 -1.8592 -1.1953 -0.0675
 3314SOL     OW21574   1.807   2.473   4.798 -0.1090 -0.0517  0.1461
 3314SOL    HW121575   1.838   2.383   4.804 -0.2118 -0.0090  1.3590
 3314SOL    HW221576   1.725   2.468   4.847  1.0115 -0.3759  2.0016
 3315SOL     OW21577   3.111   4.487   2.603 -0.1670  0.4857 -0.1684
 3315SOL    HW121578   3.133   4.557   2.542 -0.7028  0.4059 -0.4560
 3315SOL    HW221579   3.185   4.497   2.662 -0.5526  0.2840  0.3547
 3316SOL     OW21580   0.883   1.482   4.927  0.0430 -0.2777  0.5036
 3316SOL    HW121581   0.889   1.474   5.022 -3.3863  0.3804  0.7939
 3316SOL    HW221582   0.788   1.479   4.914  0.1929 -0.9316 -0.4189
 3317SOL     OW21583   3.830   3.535   2.636 -0.1944 -0.6056  0.3432
 3317SOL    HW121584   3.754   3.587   2.610  0.6401 -0.6111 -2.1709
 3317SOL    HW221585   3.791   3.467   2.690  0.7076 -0.5905  1.0038
 3318SOL     OW21586   2.395   3.314   8.919 -0.6012  0.5148 -0.1715
 3318SOL    HW121587   2.312   3.358   8.937  0.1355  0.7573  2.6798
 3318SOL    HW221588   2.388   3.242   8.982  1.1973  0.5229  0.0502
 3319SOL     OW21589   1.391   2.441   6.682 -0.1079 -0.4795 -0.2620
 3319SOL    HW121590   1.447   2.515   6.658 -1.1100  0.2503 -0.3182
 3319SOL    HW221591   1.410   2.426   6.775  1.4477  0.5712 -0.4082
 3320SOL     OW21592   3.013   2.363   5.944  1.0291  0.5119 -0.2211
 3320SOL    HW121593   2.979   2.277   5.920 -0.9573  0.6458  2.1340
 3320SOL    HW221594   3.086   2.368   5.882  2.5515  0.8055  1.5785
 3321SOL     OW21595   2.586   1.643  11.767 -0.5238 -0.1867  0.4611
 3321SOL    HW121596   2.622   1.581  11.831 -1.1039 -0.2665  0.7105
 3321SOL    HW221597   2.491   1.629  11.766 -0.5577 -0.1432  2.4601
 3322SOL     OW21598   0.143   2.714   6.759  0.4873 -0.0517 -0.3505
 3322SOL    HW121599   0.238   2.713   6.752  0.4857 -0.2184 -0.3550
 3322SOL    HW221600   0.122   2.741   6.669  2.5117  2.6202 -0.0306
 3323SOL     OW21601   1.526   3.037   3.026  0.3293  0.1721 -0.4105
 3323SOL    HW121602   1.493   3.096   3.094 -3.5294 -0.4097 -1.7438
 3323SOL    HW221603   1.487   3.058   2.940 -1.8733 -1.0121  0.3024
 3324SOL     OW21604   3.010   0.637   7.021  0.6423  0.2633 -0.2349
 3324SOL    HW121605   2.932   0.680   7.054 -0.7845 -3.4109  1.1053
 3324SOL    HW221606   3.060   0.628   7.102 -2.3617  1.6147  1.7343
 3325SOL     OW21607   3.974   2.964   2.303  0.0600 -0.0805  0.1459
 3325SOL    HW121608   4.064   2.977   2.273 -0.5048 -0.8234 -1.9254
 3325SOL    HW221609   3.982   2.900   2.374 -0.4840  1.3132  1.4509
 3326SOL     OW21610   0.604   1.390   6.482 -0.1680  0.1354 -0.3953
 3326SOL    HW121611   0.609   1.485   6.474  0.2488  0.1184 -0.3454
 3326SOL    HW221612   0.699   1.376   6.476  0.2206  0.8619  3.8918
 3327SOL     OW21613   1.768   2.775   3.372 -0.0393 -0.4144 -0.0574
 3327SOL    HW121614   1.836   2.807   3.432  2.0415 -0.8364 -2.1841
 3327SOL    HW221615   1.818   2.725   3.307 -1.8232  0.4888 -2.1259
 3328SOL     OW21616   0.069   2.590   2.048 -0.2566  0.0979  0.3529
 3328SOL    HW121617   4.720   2.568   2.014  0.1384  1.9998 -1.8976
 3328SOL    HW221618   0.134   2.567   1.981 -0.7638  2.4793 -0.9502
 3329SOL     OW21619   2.342   3.733   0.486  0.5965  0.2713  0.2160
 3329SOL    HW121620   2.300   3.818   0.498 -0.5831 -0.2504 -0.1770
 3329SOL    HW221621   2.434   3.754   0.473  1.3053 -2.0246  1.4719
 3330SOL     OW21622   2.891   4.388   6.896 -0.6706  0.1159 -0.4069
 3330SOL    HW121623   2.808   4.341   6.899 -0.6627  0.1297  0.0514
 3330SOL    HW221624   2.891   4.419   6.805 -2.0630 -0.6894 -0.6794
 3331SOL     OW21625   2.138   1.792   5.561  0.0115  0.1204 -0.3592
 3331SOL    HW121626   2.130   1.730   5.489 -0.4209  0.1269 -0.3141
 3331SOL    HW221627   2.195   1.857   5.520 -0.7351 -0.9386 -3.0902
 3332SOL     OW21628   4.520   1.725   1.214  0.2884 -0.5060  0.1879
 3332SOL    HW121629   4.489   1.661   1.277 -0.5523 -2.3240 -2.0656
 3332SOL    HW221630   4.454   1.713   1.145 -0.4114  1.2106  0.5369
 3333SOL     OW21631   1.688   2.347   5.712  0.0749 -0.3151  0.4050
 3333SOL    HW121632   1.709   2.378   5.624 -2.2454  0.3409  0.0714
 3333SOL    HW221633   1.614   2.290   5.693 -0.9498  0.6748  1.3451
 3334SOL     OW21634   4.619   4.505   6.438 -0.2698 -0.1879  0.1649
 3334SOL    HW121635   4.562   4.436   6.406  0.0252  0.8710 -2.6396
 3334SOL    HW221636   4.603   4.503   6.533  1.4232  1.0736  0.4868
 3335SOL     OW21637   0.127   4.051  13.943  0.4632  0.0732  0.1754
 3335SOL    HW121638   0.176   4.118  13.991 -1.8036  1.7973  0.1037
 3335SOL    HW221639   0.103   4.102  13.865  1.5759  1.2696  0.6120
 3336SOL     OW21640   3.186   0.190   4.503  0.4113 -0.1887  0.5901
 3336SOL    HW121641   3.203   0.116   4.444 -1.6694 -2.1006  2.3764
 3336SOL    HW221642   3.099   0.183   4.544  0.3665  1.3815  0.7314
 3337SOL     OW21643   2.541   4.628   6.002 -0.0204  0.1499  0.0359
 3337SOL    HW121644   2.633   4.647   5.989  0.7491 -2.9070  0.9317
 3337SOL    HW221645   2.545   4.602   6.094  0.3031  0.4929  0.1155
 3338SOL     OW21646   3.248   1.786  14.481  0.0933  0.4227 -1.0265
 3338SOL    HW121647   3.184   1.844  14.440 -1.0002  0.2853  0.4873
 3338SOL    HW221648   3.200   1.714  14.439 -0.2914 -0.7713  1.4735
 3339SOL     OW21649   0.477   1.116   3.262 -0.1593 -0.1892 -0.2169
 3339SOL    HW121650   0.533   1.131   3.187  0.1274  0.1749  0.0667
 3339SOL    HW221651   0.389   1.141   3.234 -0.5685  0.5680  1.7443
 3340SOL     OW21652   4.469   3.191   3.352  0.5457  0.3260  0.0412
 3340SOL    HW121653   4.408   3.219   3.420  0.2527 -0.4121  0.0848
 3340SOL    HW221654   4.446   3.258   3.287  1.2213 -1.2203 -1.8123
 3341SOL     OW21655   1.691   2.973   7.684 -0.2194 -0.3619 -0.8048
 3341SOL    HW121656   1.682   2.922   7.764  1.2846 -1.7761 -1.5114
 3341SOL    HW221657   1.771   2.935   7.647 -0.0764 -0.6983 -0.1494
 3342SOL     OW21658   4.144   4.067   9.505  0.4590 -0.4358  0.2841
 3342SOL    HW121659   4.193   4.020   9.572 -0.4820  0.1898  1.4250
 3342SOL    HW221660   4.056   4.065   9.544  0.1252 -0.4814 -0.4723
 3343SOL     OW21661   3.027   4.481   4.728  0.1052  1.2779 -0.0378
 3343SOL    HW121662   3.074   4.424   4.788  0.5489  1.3369 -0.3287
 3343SOL    HW221663   3.053   4.430   4.651  0.0236  0.9819  0.1320
 3344SOL     OW21664   1.391   2.322   2.722  0.1995 -0.0186  0.0788
 3344SOL    HW121665   1.303   2.330   2.759  0.1369 -1.0502  0.1601
 3344SOL    HW221666   1.421   2.243   2.768 -0.5656  0.6728  1.7609
 3345SOL     OW21667   1.672   0.247   6.073 -0.2564 -0.2134 -0.1373
 3345SOL    HW121668   1.611   0.190   6.119  0.1917  0.6056  1.4751
 3345SOL    HW221669   1.628   0.272   5.992  0.7128  1.0210 -0.2984
 3346SOL     OW21670   4.446   4.267  16.558 -0.2560  0.3225 -0.1662
 3346SOL    HW121671   4.469   4.250  16.467  1.0283 -0.0428  0.2347
 3346SOL    HW221672   4.351   4.254  16.553 -0.1654 -0.7436  0.9101
 3347SOL     OW21673   3.291   2.448  15.880  0.5584 -0.6647  0.4868
 3347SOL    HW121674   3.287   2.362  15.838  2.4149 -0.7392  0.4775
 3347SOL    HW221675   3.206   2.485  15.856 -0.0478 -1.0594  2.0613
 3348SOL     OW21676   1.675   4.559   0.084 -0.1849  0.2427  0.3543
 3348SOL    HW121677   1.755   4.520   0.119 -0.9048 -3.1649 -1.7659
 3348SOL    HW221678   1.701   4.558  17.740 -0.2519  0.3119  0.3348
 3349SOL     OW21679   2.505   4.085   4.298 -0.2105 -0.2695  0.1171
 3349SOL    HW121680   2.533   4.108   4.210 -0.5365  0.5243  0.2126
 3349SOL    HW221681   2.522   4.164   4.350  0.4416 -0.5058  0.2592
 3350SOL     OW21682   1.987   4.073   0.543 -0.2647 -0.6231  0.1215
 3350SOL    HW121683   1.973   4.160   0.504 -1.2575 -1.0404 -0.4639
 3350SOL    HW221684   1.945   4.017   0.477  1.9818  0.5450 -2.2792
 3351SOL     OW21685   4.159   3.192  13.357  0.3029 -0.5309 -0.1608
 3351SOL    HW121686   4.128   3.269  13.404  1.0669 -0.4473  0.2232
 3351SOL    HW221687   4.122   3.124  13.412  2.9813 -1.0968  0.9797
 3352SOL     OW21688   2.736   0.654   7.978 -0.0014 -0.2817  0.4935
 3352SOL    HW121689   2.670   0.710   8.018  1.0451  1.6217 -0.4902
 3352SOL    HW221690   2.744   0.689   7.889  0.8863  0.8454  1.0196
 3353SOL     OW21691   2.384   2.311   3.161 -0.3733 -0.3382  0.1391
 3353SOL    HW121692   2.296   2.293   3.128 -0.3438 -1.2802  0.5913
 3353SOL    HW221693   2.433   2.345   3.086  0.9103 -0.0482  1.1111
 3354SOL     OW21694   3.862   3.237  11.558 -0.0970 -0.2041  0.3728
 3354SOL    HW121695   3.932   3.296  11.585 -1.2706  0.5730  1.6742
 3354SOL    HW221696   3.840   3.281  11.475  0.3759 -1.0253 -0.1873
 3355SOL     OW21697   1.811   0.428   0.007 -0.4598  0.0077 -0.7991
 3355SOL    HW121698   1.820   0.440   0.101 -1.4658  0.7675 -0.7878
 3355SOL    HW221699   1.901   0.450  17.733 -0.4747  2.0099  1.1498
 3356SOL     OW21700   4.411   2.473   5.305  0.5101 -0.2251  0.1323
 3356SOL    HW121701   4.438   2.435   5.388  2.8551 -0.9401 -0.9470
 3356SOL    HW221702   4.316   2.482   5.315  0.5121  1.1084 -0.9847
 3357SOL     OW21703   0.296   3.545   0.237 -0.0624  0.2213  0.5720
 3357SOL    HW121704   0.380   3.533   0.281  0.2821 -0.9884 -0.4264
 3357SOL    HW221705   0.241   3.511   0.306  0.5648 -0.7070  0.6139
 3358SOL     OW21706   2.163   1.668   5.789  0.7435  0.1153  0.2916
 3358SOL    HW121707   2.089   1.696   5.842 -0.8626  0.3188 -2.0708
 3358SOL    HW221708   2.140   1.712   5.707 -1.5577 -1.8942 -0.1266
 3359SOL     OW21709   3.108   3.196   9.431  0.5575  0.6244  0.9574
 3359SOL    HW121710   3.041   3.241   9.379  0.6350  1.4940  1.6189
 3359SOL    HW221711   3.102   3.238   9.516 -2.2940 -1.0216  1.5821
 3360SOL     OW21712   2.787   1.392   2.898  0.8097 -0.9672 -0.2248
 3360SOL    HW121713   2.840   1.402   2.977 -1.2505  0.0062  1.0210
 3360SOL    HW221714   2.854   1.354   2.842  1.4105  0.8484 -0.7382
 3361SOL     OW21715   0.827   0.292   5.548 -0.0603  0.2252  0.4803
 3361SOL    HW121716   0.828   0.388   5.544 -0.3029  0.2216  0.3607
 3361SOL    HW221717   0.745   0.271   5.593 -0.2409 -1.0179 -0.4269
 3362SOL     OW21718   1.858   1.854  13.735  0.1905  0.1133 -0.6200
 3362SOL    HW121719   1.930   1.862  13.798  0.3050  2.5761 -1.0408
 3362SOL    HW221720   1.782   1.845  13.793  0.8274  3.2565  0.7066
 3363SOL     OW21721   0.747   0.972   1.369 -0.5382 -0.4471 -0.2611
 3363SOL    HW121722   0.678   1.023   1.328 -0.8947 -0.5746  0.1837
 3363SOL    HW221723   0.790   0.949   1.287 -0.0514 -1.7684  0.3569
 3364SOL     OW21724   2.022   1.960   3.777  0.0150 -0.2035  0.1883
 3364SOL    HW121725   1.975   2.012   3.712 -1.7746  0.9860  2.3795
 3364SOL    HW221726   2.110   1.979   3.746  0.4896 -1.9718  0.5008
 3365SOL     OW21727   0.941   2.104  15.398  0.4489 -0.0602  0.0330
 3365SOL    HW121728   0.929   2.021  15.351 -0.1924  1.0070 -1.7055
 3365SOL    HW221729   1.026   2.097  15.441  0.2562  1.2609  0.6260
 3366SOL     OW21730   4.021   2.182   1.342  0.2630 -0.3251 -0.4107
 3366SOL    HW121731   4.114   2.163   1.330  0.8342  1.7737  0.7391
 3366SOL    HW221732   4.017   2.278   1.338 -0.9590 -0.3403  0.6571
 3367SOL     OW21733   2.607   3.061   9.358 -0.0368  0.3520 -0.1106
 3367SOL    HW121734   2.580   3.050   9.267 -1.4640 -0.6740  0.4393
 3367SOL    HW221735   2.533   3.017   9.400 -1.1905  2.8878  0.5730
 3368SOL     OW21736   3.650   2.135   8.949  0.4375 -0.4158 -0.0312
 3368SOL    HW121737   3.734   2.116   8.991 -1.0548 -0.2042  3.0548
 3368SOL    HW221738   3.679   2.164   8.862  1.7768 -0.5643  0.3755
 3369SOL     OW21739   4.126   0.379  11.296  0.0157 -0.4852  0.8692
 3369SOL    HW121740   4.201   0.435  11.273 -0.0022  0.0597  2.1263
 3369SOL    HW221741   4.153   0.289  11.275  3.4516  0.5495  0.8547
 3370SOL     OW21742   3.045   1.763   2.101  0.0547  0.2984 -0.8183
 3370SOL    HW121743   3.060   1.675   2.138 -0.2668  1.0980  1.1997
 3370SOL    HW221744   3.108   1.815   2.150 -2.5923  1.0398  1.7589
 3371SOL     OW21745   0.052   2.648   3.691  0.2944 -0.2480  0.7507
 3371SOL    HW121746   0.061   2.577   3.627 -0.9841 -0.6001  0.9685
 3371SOL    HW221747   4.703   2.634   3.729  0.0441 -0.3907  0.1444
 3372SOL     OW21748   4.541   4.603   0.807  0.2545 -0.4706  0.3517
 3372SOL    HW121749   4.578   4.515   0.808  0.0532 -0.5688 -0.9519
 3372SOL    HW221750   4.503   4.605   0.719 -0.9616 -0.5457  0.8770
 3373SOL     OW21751   1.110   2.847  10.086 -0.1451 -0.8939  0.0791
 3373SOL    HW121752   1.036   2.790  10.107  0.0932 -1.0650  0.4458
 3373SOL    HW221753   1.158   2.855  10.168  0.9511  0.1722 -0.6669
 3374SOL     OW21754   0.437   3.098   7.370 -0.4747  0.2389  0.1685
 3374SOL    HW121755   0.515   3.121   7.319  0.8663 -0.4243  1.9198
 3374SOL    HW221756   0.472   3.054   7.447  0.3955  0.5775 -0.0203
 3375SOL     OW21757   4.608   1.383   6.498 -0.3059  0.0718  0.3787
 3375SOL    HW121758   4.653   1.457   6.540  1.2867 -2.4985  3.2243
 3375SOL    HW221759   4.547   1.424   6.437 -0.2338 -2.3959 -1.3470
 3376SOL     OW21760   3.301   3.570   1.338 -0.0296 -0.6142 -0.1409
 3376SOL    HW121761   3.251   3.614   1.269 -1.4642 -1.5853  0.2858
 3376SOL    HW221762   3.392   3.589   1.314  1.0200 -3.0087  1.9221
 3377SOL     OW21763   1.777   3.164   3.180  0.4701  0.4710 -0.4459
 3377SOL    HW121764   1.840   3.156   3.252  1.2941 -0.5535 -1.2815
 3377SOL    HW221765   1.803   3.089   3.126 -0.5434 -0.5217  0.4179
 3378SOL     OW21766   4.102   3.934   8.472 -0.1271  1.3004 -0.5664
 3378SOL    HW121767   4.174   3.967   8.419  0.7956 -0.8847 -0.6934
 3378SOL    HW221768   4.032   3.920   8.408 -1.0696  2.1975  0.2584
 3379SOL     OW21769   2.238   3.540   4.236 -0.0646 -0.0530  0.0917
 3379SOL    HW121770   2.255   3.517   4.144 -1.1465  1.8928 -0.5850
 3379SOL    HW221771   2.325   3.535   4.274 -0.5826 -0.5170  1.1991
 3380SOL     OW21772   4.161   4.162  15.226  0.1881 -0.0629 -0.4302
 3380SOL    HW121773   4.179   4.231  15.290  0.3121 -1.8444  1.4263
 3380SOL    HW221774   4.076   4.193  15.196 -0.0773  1.3449  1.7971
 3381SOL     OW21775   1.175   3.062   5.232  0.6130 -0.0884 -0.3445
 3381SOL    HW121776   1.114   3.058   5.306  1.0174 -0.0840 -0.0139
 3381SOL    HW221777   1.184   3.158   5.232 -2.4609  0.2165 -0.7454
 3382SOL     OW21778   3.780   2.431   3.628  0.2946  0.0439 -0.3242
 3382SOL    HW121779   3.813   2.416   3.717 -1.7232 -0.4217  0.3620
 3382SOL    HW221780   3.828   2.357   3.591  0.8530 -0.4198  1.3134
 3383SOL     OW21781   4.308   1.553   4.894 -0.7475 -0.1906  1.1303
 3383SOL    HW121782   4.244   1.492   4.932 -1.6490 -0.4713 -0.8329
 3383SOL    HW221783   4.251   1.607   4.840 -1.5219 -0.9060  1.2320
 3384SOL     OW21784   3.699   0.479  16.104  0.5927 -0.1031  0.4563
 3384SOL    HW121785   3.759   0.536  16.055 -3.7735  2.7694 -1.5346
 3384SOL    HW221786   3.643   0.548  16.138  1.0684  1.5398 -2.0864
 3385SOL     OW21787   3.250   2.515   1.690  0.9777 -0.1332  0.2522
 3385SOL    HW121788   3.299   2.433   1.685 -0.0765 -0.6799 -1.1342
 3385SOL    HW221789   3.166   2.491   1.651  1.7072 -1.3848 -0.5610
 3386SOL     OW21790   3.669   3.973   0.184  0.1134 -0.1782  0.1642
 3386SOL    HW121791   3.616   3.977   0.105 -0.5858 -0.4005  0.6285
 3386SOL    HW221792   3.611   3.933   0.248 -1.2516 -0.3035 -1.1455
 3387SOL     OW21793   1.425   3.525   3.671  0.4469  0.2347  0.3081
 3387SOL    HW121794   1.451   3.547   3.582  0.8801 -3.0417 -0.3913
 3387SOL    HW221795   1.482   3.452   3.697  0.1992  0.2113  0.7763
 3388SOL     OW21796   2.153   1.101   8.103  0.3916 -0.2239 -0.2640
 3388SOL    HW121797   2.233   1.119   8.151 -1.0096 -1.5239  2.5184
 3388SOL    HW221798   2.166   1.149   8.021  2.3307  0.8967  0.7268
 3389SOL     OW21799   0.366   2.543   4.584  0.0045 -0.2770  0.0348
 3389SOL    HW121800   0.272   2.548   4.600 -0.1562 -2.3335 -0.2704
 3389SOL    HW221801   0.366   2.572   4.493 -1.5093 -0.0979  0.0887
 3390SOL     OW21802   3.107   4.575  10.115  0.1654 -0.0261  0.5461
 3390SOL    HW121803   3.095   4.501  10.175  0.8986 -1.5526 -1.1992
 3390SOL    HW221804   3.201   4.592  10.118  0.0409  0.7422  0.0288
 3391SOL     OW21805   2.841   1.111  16.313  0.1809 -0.0451  0.0036
 3391SOL    HW121806   2.851   1.110  16.218 -0.4984 -0.6803 -0.0589
 3391SOL    HW221807   2.891   1.032  16.336  0.9577  0.2226 -0.7628
 3392SOL     OW21808   3.630   2.188  17.227 -0.9394  0.4227 -0.4324
 3392SOL    HW121809   3.660   2.155  17.143 -2.4385 -1.4208 -0.2289
 3392SOL    HW221810   3.596   2.277  17.216 -2.6212 -0.0027  1.2043
 3393SOL     OW21811   4.643   4.300  15.691  0.3607  0.3569  0.0477
 3393SOL    HW121812   4.669   4.313  15.600  0.3850  0.3791  0.0579
 3393SOL    HW221813   4.619   4.392  15.705 -1.5981  0.3211 -3.1223
 3394SOL     OW21814   3.436   2.388   3.105  0.4724 -0.4791  0.5663
 3394SOL    HW121815   3.385   2.466   3.129  2.5264  1.3399 -0.8954
 3394SOL    HW221816   3.488   2.426   3.034  0.0711 -0.9855  0.0051
 3395SOL     OW21817   4.153   4.498   5.425 -0.2231 -0.1429 -0.1585
 3395SOL    HW121818   4.076   4.555   5.426 -0.2946 -0.2152 -1.1209
 3395SOL    HW221819   4.158   4.480   5.519  0.9095  0.6419 -0.0710
 3396SOL     OW21820   1.507   1.562  16.471  0.1239 -0.7522 -0.0362
 3396SOL    HW121821   1.576   1.602  16.524  1.0466  0.2713 -2.0164
 3396SOL    HW221822   1.500   1.631  16.405 -1.1366 -0.6184  0.2283
 3397SOL     OW21823   1.908   1.992  17.287  0.2274 -0.8312 -0.3227
 3397SOL    HW121824   1.919   1.953  17.200 -1.2950 -0.5220 -0.6575
 3397SOL    HW221825   1.895   2.083  17.259  1.7518 -0.2381  0.9280
 3398SOL     OW21826   0.786   3.707   5.158 -0.5045 -0.5016 -0.0334
 3398SOL    HW121827   0.709   3.743   5.114 -1.6989 -2.7586  0.2024
 3398SOL    HW221828   0.849   3.735   5.092  1.4298  2.1036  2.9189
 3399SOL     OW21829   3.364   0.700   2.524  1.0315 -0.5021 -0.0602
 3399SOL    HW121830   3.422   0.624   2.519  0.7714 -0.7747  1.1475
 3399SOL    HW221831   3.291   0.675   2.468  0.2700  0.4138  0.5340
 3400SOL     OW21832   3.659   2.979   9.553  0.0602  0.0538  0.7527
 3400SOL    HW121833   3.708   2.912   9.504  2.0616  1.8171  0.3628
 3400SOL    HW221834   3.682   3.063   9.515  2.4643 -1.1423 -0.4244
 3401SOL     OW21835   1.353   4.507   7.063 -0.3799 -0.0777 -0.9990
 3401SOL    HW121836   1.344   4.414   7.086 -1.6644  0.4037  0.4164
 3401SOL    HW221837   1.335   4.540   7.151  3.7250 -0.8502  0.1554
 3402SOL     OW21838   2.232   0.915  13.460  0.1585 -0.7696 -0.0083
 3402SOL    HW121839   2.149   0.899  13.415  0.0265 -1.8193  0.6152
 3402SOL    HW221840   2.236   1.011  13.460  1.6303 -0.8377 -0.5122
 3403SOL     OW21841   0.875   1.730   3.925  0.0532  0.0217  0.4206
 3403SOL    HW121842   0.872   1.667   3.853  1.1016  1.6506 -1.0556
 3403SOL    HW221843   0.867   1.806   3.868 -2.2263 -1.7541 -1.6485
 3404SOL     OW21844   1.661   0.187   8.084 -0.1225 -0.0079  0.6044
 3404SOL    HW121845   1.684   0.118   8.147  0.6559 -1.3665 -1.1557
 3404SOL    HW221846   1.734   0.176   8.023  0.9227  0.7855  1.7058
 3405SOL     OW21847   3.340   0.565   1.423  0.7006 -0.9240  0.3628
 3405SOL    HW121848   3.413   0.528   1.373  0.8154 -0.8270  0.4590
 3405SOL    HW221849   3.369   0.550   1.513  2.0112 -1.5995 -0.1764
 3406SOL     OW21850   4.126   2.706   5.099  0.3653  0.0946  0.2475
 3406SOL    HW121851   4.106   2.769   5.168  0.5376  0.1894  0.2111
 3406SOL    HW221852   4.221   2.714   5.090  0.4145 -1.2593 -0.5227
 3407SOL     OW21853   1.535   4.144   8.942 -0.2020  0.4039  0.1688
 3407SOL    HW121854   1.601   4.210   8.918 -1.0188  0.7342 -1.1935
 3407SOL    HW221855   1.501   4.122   8.855  1.0537 -1.0745  0.0555
 3408SOL     OW21856   0.724   2.604  15.349 -0.8441 -0.1101 -0.4104
 3408SOL    HW121857   0.675   2.522  15.356 -2.2108  0.8610  1.2417
 3408SOL    HW221858   0.655   2.668  15.330 -0.9350  0.5622  2.2477
 3409SOL     OW21859   1.363   1.808   6.330  0.9926  0.0885 -0.0387
 3409SOL    HW121860   1.452   1.814   6.294  1.7592 -1.8613  1.5647
 3409SOL    HW221861   1.362   1.714   6.349  2.6639 -0.0203 -0.4585
 3410SOL     OW21862   4.468   2.153   1.628 -1.1783 -0.5075 -0.0761
 3410SOL    HW121863   4.530   2.170   1.557 -0.7250 -0.3093  0.3718
 3410SOL    HW221864   4.511   2.083   1.676 -2.4137  0.6162  2.6736
 3411SOL     OW21865   3.517   0.191   7.533  0.2676  0.1793 -0.1544
 3411SOL    HW121866   3.476   0.275   7.514 -0.6780 -0.4191 -0.7583
 3411SOL    HW221867   3.608   0.200   7.503  0.4686  2.9937  1.3391
 3412SOL     OW21868   4.129   1.301   2.803  0.1772  0.1175 -0.1045
 3412SOL    HW121869   4.110   1.208   2.819 -0.0565  0.0555 -0.7323
 3412SOL    HW221870   4.200   1.301   2.739  0.7503  1.7884  0.5390
 3413SOL     OW21871   0.552   4.428   4.253  0.8338  0.2072  0.5819
 3413SOL    HW121872   0.618   4.454   4.317  0.8817 -0.3444  0.7562
 3413SOL    HW221873   0.597   4.370   4.192  1.5913  0.3348  1.0185
 3414SOL     OW21874   4.268   1.796   4.193  0.2165  0.0336 -0.2689
 3414SOL    HW121875   4.281   1.833   4.280  0.1889  1.6597 -0.9540
 3414SOL    HW221876   4.324   1.718   4.196  1.2686  0.7489 -0.9538
 3415SOL     OW21877   1.969   1.527   4.616 -0.0108  0.1670  0.6903
 3415SOL    HW121878   1.892   1.568   4.655  1.5218  2.5710  1.2134
 3415SOL    HW221879   1.966   1.438   4.652  0.2493  0.0152  0.3366
 3416SOL     OW21880   3.047   1.409   4.199 -0.0890 -0.4300 -0.7134
 3416SOL    HW121881   2.969   1.464   4.187 -0.6873 -0.5330  2.5924
 3416SOL    HW221882   3.086   1.431   4.284 -0.0552  1.4590 -1.2039
 3417SOL     OW21883   3.706   1.455  16.063 -0.3176 -0.4136 -0.1373
 3417SOL    HW121884   3.621   1.446  16.021 -0.6517  0.2466  0.3962
 3417SOL    HW221885   3.774   1.468  15.997  0.8408 -0.3628  1.0746
 3418SOL     OW21886   0.186   0.732   6.165  0.3495  0.1165 -0.8082
 3418SOL    HW121887   0.195   0.755   6.258  1.3318  0.9776 -1.1139
 3418SOL    HW221888   0.280   0.719   6.152  0.2048 -0.9799 -0.7610
 3419SOL     OW21889   2.322   2.502   7.590 -0.0634 -0.2493  0.4265
 3419SOL    HW121890   2.318   2.595   7.614  1.2496 -0.5340  1.7511
 3419SOL    HW221891   2.326   2.512   7.495  1.4285 -1.9306  0.3040
 3420SOL     OW21892   4.726   0.984   5.764  0.0082 -0.2043  0.0799
 3420SOL    HW121893   4.675   1.064   5.774 -0.4690 -0.2278 -2.3230
 3420SOL    HW221894   0.060   1.008   5.823 -0.8339 -0.7312  1.3253
 3421SOL     OW21895   2.178   2.963   6.553 -0.1867 -0.3883  0.9033
 3421SOL    HW121896   2.159   2.869   6.563  0.2152 -0.7993 -2.0854
 3421SOL    HW221897   2.250   2.957   6.491 -1.0444  1.6137 -0.3018
 3422SOL     OW21898   2.799   3.707   6.748  0.1911  0.4899 -0.5720
 3422SOL    HW121899   2.809   3.703   6.653 -0.6019  2.7509 -0.7469
 3422SOL    HW221900   2.776   3.619   6.775  1.6750  0.5580  0.9646
 3423SOL     OW21901   2.421   0.126   6.552 -0.1743  0.5567 -0.0437
 3423SOL    HW121902   2.477   0.052   6.576  0.0150  0.8380  0.3876
 3423SOL    HW221903   2.345   0.114   6.609 -1.4596 -0.8459 -2.0664
 3424SOL     OW21904   0.110   0.302   2.519 -0.4862 -0.2748 -0.0776
 3424SOL    HW121905   0.075   0.301   2.429  1.5953  1.9735 -0.9172
 3424SOL    HW221906   0.099   0.210   2.543 -0.8978 -0.6980 -1.8624
 3425SOL     OW21907   3.269   1.433   3.492  0.5551 -0.6047 -0.2544
 3425SOL    HW121908   3.335   1.364   3.479  0.7475 -0.4410 -0.1467
 3425SOL    HW221909   3.314   1.501   3.443  0.5166 -1.6188 -1.6993
 3426SOL     OW21910   2.849   2.596   4.557  0.2590 -0.0990 -0.8945
 3426SOL    HW121911   2.795   2.664   4.517 -0.1302 -0.9369 -1.7992
 3426SOL    HW221912   2.790   2.522   4.564  1.7105 -1.2562 -0.8494
 3427SOL     OW21913   1.883   3.409   7.428  0.0540  0.0293 -0.1981
 3427SOL    HW121914   1.918   3.432   7.514 -1.8671 -1.2185  0.9271
 3427SOL    HW221915   1.789   3.404   7.448  0.0496 -0.3418 -0.3085
 3428SOL     OW21916   1.319   0.608   0.490 -0.2129 -0.2358  0.3528
 3428SOL    HW121917   1.335   0.521   0.525  0.0228  1.0266  3.4240
 3428SOL    HW221918   1.225   0.596   0.475 -0.1256 -0.7600  0.2385
 3429SOL     OW21919   0.166   2.916   4.009 -0.2210  0.7413  0.3104
 3429SOL    HW121920   0.130   2.916   4.097  0.7845  1.7080  0.7182
 3429SOL    HW221921   0.115   2.990   3.975 -1.3108 -0.3829 -0.5053
 3430SOL     OW21922   0.350   0.913   6.570 -0.3967 -0.4109  0.3380
 3430SOL    HW121923   0.399   0.975   6.624 -0.7576 -0.1339  0.3478
 3430SOL    HW221924   0.412   0.843   6.549 -1.7871 -1.3679 -0.6024
 3431SOL     OW21925   1.158   2.872   3.512  0.2552 -0.8201  0.4406
 3431SOL    HW121926   1.154   2.902   3.421 -0.8608 -1.3021  0.3267
 3431SOL    HW221927   1.071   2.903   3.537  0.3545  1.6155 -2.2220
 3432SOL     OW21928   2.823   3.711  15.141 -0.5099 -0.1988 -0.3145
 3432SOL    HW121929   2.894   3.690  15.079  0.5155 -1.8869  1.4234
 3432SOL    HW221930   2.784   3.623  15.144 -1.2854  0.2678  3.2374
 3433SOL     OW21931   3.198   4.086   7.752 -0.0990  0.4580  0.4863
 3433SOL    HW121932   3.172   4.125   7.835 -0.6691 -0.0064  0.5309
 3433SOL    HW221933   3.140   4.130   7.689  0.7694 -1.6606 -1.8074
 3434SOL     OW21934   3.561   4.023   8.873  0.0556  0.2124 -0.2310
 3434SOL    HW121935   3.640   4.049   8.919 -0.1886 -1.4367  1.1491
 3434SOL    HW221936   3.574   4.078   8.796 -3.6969  1.1571 -0.2164
 3435SOL     OW21937   3.926   1.470  16.477  0.1586  0.0213  0.0696
 3435SOL    HW121938   3.967   1.388  16.502 -2.5970 -1.3883  0.0047
 3435SOL    HW221939   3.855   1.431  16.425  1.0998  1.2913 -2.1834
 3436SOL     OW21940   0.954   0.736  16.735  0.0244 -0.0341 -0.8853
 3436SOL    HW121941   0.927   0.688  16.657 -0.7990 -0.4012 -0.3697
 3436SOL    HW221942   0.989   0.665  16.790  0.1541  0.7086  0.0065
 3437SOL     OW21943   2.302   2.672   9.469  0.1262 -0.2997 -0.3572
 3437SOL    HW121944   2.229   2.728   9.445 -0.7556 -1.3783 -0.1579
 3437SOL    HW221945   2.371   2.688   9.405  1.5401 -0.5916  1.0867
 3438SOL     OW21946   4.573   3.365   1.547 -0.2069  0.0861 -0.4449
 3438SOL    HW121947   4.485   3.399   1.557 -0.9123 -2.1443  0.9895
 3438SOL    HW221948   4.622   3.447   1.550 -1.2015  0.5243  3.1335
 3439SOL     OW21949   4.401   1.508   5.806  0.0187 -0.1811 -0.1486
 3439SOL    HW121950   4.367   1.441   5.747 -2.2210  0.0953  0.8288
 3439SOL    HW221951   4.317   1.540   5.841 -0.1645  0.2634 -1.0136
 3440SOL     OW21952   2.209   0.089   5.956  0.1792 -0.4377 -0.0764
 3440SOL    HW121953   2.289   0.116   5.999  0.2989 -1.4108  0.3260
 3440SOL    HW221954   2.139   0.126   6.010  0.7723 -0.8380  0.9523
 3441SOL     OW21955   4.533   3.529  16.217  0.3805  0.0485 -0.6540
 3441SOL    HW121956   4.548   3.463  16.149 -0.0854 -0.4231 -0.3033
 3441SOL    HW221957   4.619   3.546  16.255  1.0954 -3.8674 -0.5144
 3442SOL     OW21958   2.405   2.780   3.059  0.7209  0.0550 -0.3138
 3442SOL    HW121959   2.368   2.705   3.012  0.8549 -0.2597  0.0809
 3442SOL    HW221960   2.339   2.794   3.128  0.6819  0.6577 -0.4707
 3443SOL     OW21961   3.831   0.866   8.446 -0.0254 -0.5403 -0.5977
 3443SOL    HW121962   3.834   0.892   8.538 -1.7270 -1.4923 -0.2651
 3443SOL    HW221963   3.924   0.863   8.424 -0.3403 -3.0185 -1.6126
 3444SOL     OW21964   1.953   3.176   7.261  0.0760 -0.1225  0.3772
 3444SOL    HW121965   1.941   3.234   7.336 -0.3280  0.7470 -0.3665
 3444SOL    HW221966   1.909   3.235   7.200 -0.3341 -2.0341 -1.1765
 3445SOL     OW21967   3.683   3.257   3.670 -0.0907  0.3820 -0.2975
 3445SOL    HW121968   3.738   3.211   3.606 -0.3740  0.8118 -0.8532
 3445SOL    HW221969   3.624   3.307   3.613  3.2807  0.8997 -3.3343
 3446SOL     OW21970   0.683   2.847   2.889 -0.2653 -0.1270 -0.1668
 3446SOL    HW121971   0.755   2.861   2.827  0.3542  0.9368  0.7871
 3446SOL    HW221972   0.640   2.932   2.886  1.0471  0.5684  0.4842
 3447SOL     OW21973   2.592   2.493   3.966 -0.4354 -0.4697 -0.0335
 3447SOL    HW121974   2.658   2.492   4.035 -0.2765 -4.0221 -0.1929
 3447SOL    HW221975   2.644   2.522   3.892 -1.1808  0.4329 -0.2088
 3448SOL     OW21976   0.727   1.319   7.368  0.7383  0.4826  0.1711
 3448SOL    HW121977   0.787   1.383   7.407 -0.7819  1.3133  1.1292
 3448SOL    HW221978   0.645   1.367   7.368 -2.4647 -4.9772  2.6570
 3449SOL     OW21979   3.462   3.563   8.862  0.3673 -0.1999  0.1221
 3449SOL    HW121980   3.391   3.611   8.819 -0.2197 -1.7965 -0.6841
 3449SOL    HW221981   3.505   3.644   8.889 -0.7374  0.2003  0.6798
 3450SOL     OW21982   2.620   2.280  16.020 -0.3543  0.0995 -0.0910
 3450SOL    HW121983   2.631   2.334  15.942  1.4943  2.7507  1.9949
 3450SOL    HW221984   2.643   2.342  16.089 -0.1588  0.2367 -0.2797
 3451SOL     OW21985   4.024   0.358   6.011  0.1604 -0.3032  0.1606
 3451SOL    HW121986   3.976   0.290   5.964 -1.1744 -0.5542  1.9088
 3451SOL    HW221987   4.113   0.323   6.020 -0.8166 -2.3097  1.9289
 3452SOL     OW21988   4.277   2.091   1.356  0.4518  0.1912  0.0992
 3452SOL    HW121989   4.372   2.081   1.365  0.4598  0.5499  0.3633
 3452SOL    HW221990   4.256   2.009   1.401  0.4909 -1.0974 -2.1810
 3453SOL     OW21991   0.153   3.425  16.840  0.4422  0.2478  0.0398
 3453SOL    HW121992   0.208   3.481  16.786  0.3503  0.0561 -0.2546
 3453SOL    HW221993   0.184   3.344  16.799  2.2813  1.0381 -0.1391
 3454SOL     OW21994   1.481   3.739  15.024  0.3060  0.5879  0.2030
 3454SOL    HW121995   1.498   3.832  15.037 -0.0412  0.5653  0.8513
 3454SOL    HW221996   1.510   3.738  14.933 -0.8890  0.8116 -0.1913
 3455SOL     OW21997   0.742   2.650   7.956  0.1425  0.3217 -0.1791
 3455SOL    HW121998   0.656   2.618   7.984  1.0626 -0.5817  1.5771
 3455SOL    HW221999   0.801   2.633   8.029 -1.8857  0.4125  1.4797
 3456SOL     OW22000   4.610   4.672   2.047  0.0598  0.9738 -0.1500
 3456SOL    HW122001   4.594   0.004   2.111 -1.5310  1.5866 -1.2229
 3456SOL    HW222002   4.524   4.630   2.051  0.6308  0.0551  3.1211
 3457SOL     OW22003   1.367   2.857   6.749 -0.0533  0.0428  0.6390
 3457SOL    HW122004   1.350   2.856   6.843 -1.3171 -0.6725  0.4000
 3457SOL    HW222005   1.461   2.874   6.750 -0.4598  2.2700  0.1730
 3458SOL     OW22006   2.775   3.043   7.325  0.8386  0.1305  0.1498
 3458SOL    HW122007   2.695   3.094   7.311  0.8601 -0.6854 -2.8401
 3458SOL    HW222008   2.787   3.034   7.420 -2.0557 -1.6533  0.3551
 3459SOL     OW22009   2.955   3.154   7.135  0.4375  0.1817 -0.1140
 3459SOL    HW122010   2.913   3.126   7.217 -0.7484  2.4382  0.0488
 3459SOL    HW222011   2.874   3.190   7.100  1.5087  1.6610 -1.0595
 3460SOL     OW22012   1.606   0.089  17.210 -0.0336 -0.3420 -0.1548
 3460SOL    HW122013   1.626   0.008  17.163 -1.4169  0.9684 -2.9867
 3460SOL    HW222014   1.520   0.065  17.244  0.2710  0.7278  1.3679
 3461SOL     OW22015   2.587   1.230  12.228  0.1035  0.6854 -0.0541
 3461SOL    HW122016   2.608   1.167  12.159  0.5397  0.8948 -0.1129
 3461SOL    HW222017   2.671   1.269  12.253  0.3610 -0.2864  0.6037
 3462SOL     OW22018   3.379   0.365   3.493 -0.3706 -0.1723 -0.6741
 3462SOL    HW122019   3.291   0.334   3.469  0.3657 -1.3345 -1.8700
 3462SOL    HW222020   3.395   0.419   3.416  1.8262 -1.1713 -0.9039
 3463SOL     OW22021   0.433   1.913   8.673 -0.5552 -0.1985 -0.4985
 3463SOL    HW122022   0.447   1.822   8.699 -1.1755 -0.0422  0.3769
 3463SOL    HW222023   0.471   1.960   8.747  0.4739  0.5530 -1.5025
 3464SOL     OW22024   2.310   3.412   7.406 -0.7488  0.1561  0.0956
 3464SOL    HW122025   2.232   3.379   7.452 -0.0359 -0.1868  1.0477
 3464SOL    HW222026   2.305   3.368   7.321  1.5956 -0.0947  0.1099
 3465SOL     OW22027   0.270   4.652  13.630  0.0091  0.3282 -0.4469
 3465SOL    HW122028   0.212   4.646  13.706  0.2846  0.3534 -0.2302
 3465SOL    HW222029   0.353   4.643  13.677 -0.4154  0.2142  0.2818
 3466SOL     OW22030   1.385   4.474  17.378  0.2494  0.3569  0.2660
 3466SOL    HW122031   1.409   4.566  17.365  0.1839  0.1096 -1.5670
 3466SOL    HW222032   1.296   4.467  17.346  1.2632 -0.5135 -2.3813
 3467SOL     OW22033   3.349   0.617   6.739 -0.1838 -0.1883 -0.1833
 3467SOL    HW122034   3.266   0.595   6.696 -0.2973 -1.0419  0.4727
 3467SOL    HW222035   3.404   0.649   6.667 -0.2908 -1.4052 -0.7951
 3468SOL     OW22036   0.509   0.441   6.342 -0.1782 -0.3068  0.0929
 3468SOL    HW122037   0.466   0.369   6.297  1.8221 -1.7765  0.5289
 3468SOL    HW222038   0.483   0.424   6.433 -0.6161  2.2339  0.4443
 3469SOL     OW22039   2.228   3.110   9.743 -0.5416 -0.2947 -0.1273
 3469SOL    HW122040   2.195   3.059   9.817 -0.3672  1.1877  0.9547
 3469SOL    HW222041   2.153   3.162   9.715 -1.0589 -1.1379 -0.3260
 3470SOL     OW22042   3.660   3.203   6.945  0.2976 -0.4942 -0.2656
 3470SOL    HW122043   3.618   3.124   6.911  0.3154  0.4560 -2.5704
 3470SOL    HW222044   3.618   3.268   6.889  0.4283  1.0899  1.4939
 3471SOL     OW22045   0.715   1.202   9.892 -0.4179  0.2545 -0.0658
 3471SOL    HW122046   0.758   1.287   9.906 -1.3288  0.5869  0.7137
 3471SOL    HW222047   0.759   1.187   9.809  0.7661  3.1451  0.0303
 3472SOL     OW22048   1.627   1.819   2.723 -0.1186  0.1513 -0.0474
 3472SOL    HW122049   1.717   1.800   2.697 -0.0554  0.5458 -0.1300
 3472SOL    HW222050   1.586   1.740   2.689  1.0267 -0.4554 -0.0175
 3473SOL     OW22051   2.473   2.655   5.595 -0.1847 -0.6494  0.1221
 3473SOL    HW122052   2.405   2.708   5.554  2.5600  1.9544 -1.0259
 3473SOL    HW222053   2.546   2.715   5.609 -2.0166  1.5910  0.1850
 3474SOL     OW22054   3.490   4.239   2.577 -0.1921  0.1912 -0.7354
 3474SOL    HW122055   3.434   4.306   2.616 -1.6421 -2.1311  1.1720
 3474SOL    HW222056   3.429   4.165   2.578 -0.0442  0.0949  0.7634
 3475SOL     OW22057   4.269   2.989   2.414  0.1932  0.4743 -0.0349
 3475SOL    HW122058   4.327   2.916   2.393  2.3183  1.9280  0.8070
 3475SOL    HW222059   4.298   3.064   2.363 -0.0295 -1.6513 -3.2924
 3476SOL     OW22060   1.872   0.218   1.199  0.2035  0.2813  0.8851
 3476SOL    HW122061   1.925   0.266   1.262  0.8090  0.8773 -0.0858
 3476SOL    HW222062   1.831   0.286   1.145 -0.3101 -1.1929 -0.5982
 3477SOL     OW22063   0.476   0.047   3.825  0.2874 -0.2631  0.1432
 3477SOL    HW122064   0.488   4.707   3.770  0.5595 -0.8680  1.0653
 3477SOL    HW222065   0.410   0.020   3.890  0.9172 -1.4022  0.3072
 3478SOL     OW22066   0.995   2.587   5.505  0.2006  0.4054 -0.3899
 3478SOL    HW122067   1.047   2.567   5.583 -0.8837 -1.7524 -0.2122
 3478SOL    HW222068   0.910   2.582   5.548 -1.1948  0.3273 -3.1493
 3479SOL     OW22069   2.202   1.349  11.318 -0.3711 -0.0918 -0.6710
 3479SOL    HW122070   2.171   1.327  11.230  3.6689 -0.9564 -1.8990
 3479SOL    HW222071   2.255   1.424  11.292  2.3572 -1.9941 -0.6091
 3480SOL     OW22072   3.642   1.917  11.776 -0.1082 -0.0910 -0.5836
 3480SOL    HW122073   3.615   1.915  11.684 -1.7209 -0.9453 -0.1002
 3480SOL    HW222074   3.604   1.841  11.820 -0.4084 -1.3572 -3.0433
 3481SOL     OW22075   0.880   3.563   4.291  0.0435  0.2637 -0.4206
 3481SOL    HW122076   0.852   3.639   4.342  0.5341  0.7226 -0.8301
 3481SOL    HW222077   0.860   3.496   4.357 -1.3561 -0.7144 -1.8531
 3482SOL     OW22078   4.227   3.985   5.334  0.1215 -0.0615 -0.2853
 3482SOL    HW122079   4.210   3.967   5.426  1.3796  1.3165  0.2218
 3482SOL    HW222080   4.167   3.924   5.291 -2.2683  1.5774  0.7043
 3483SOL     OW22081   0.350   0.919   9.019  0.0757 -0.2103  0.4871
 3483SOL    HW122082   0.298   0.998   8.999 -0.1269 -0.8427 -1.4723
 3483SOL    HW222083   0.283   0.853   9.037  0.3693 -0.6322  0.0145
 3484SOL     OW22084   1.947   2.074   8.705 -0.4934  0.4588  0.0317
 3484SOL    HW122085   1.933   2.015   8.631  0.4675  0.9770 -0.5615
 3484SOL    HW222086   1.862   2.118   8.701 -0.3283  0.8015  0.3983
 3485SOL     OW22087   3.793   1.427  13.035  0.2581  0.1319  0.2396
 3485SOL    HW122088   3.874   1.474  13.017  1.9395 -2.8687 -0.0064
 3485SOL    HW222089   3.824   1.336  13.029  0.0882  0.1426 -0.7371
 3486SOL     OW22090   4.192   3.666  11.411  0.6655  0.2080 -0.1280
 3486SOL    HW122091   4.149   3.674  11.496 -0.4625 -0.1012 -0.6591
 3486SOL    HW222092   4.120   3.633  11.357  0.0623  1.2168  0.0728
 3487SOL     OW22093   1.861   4.673  15.163 -0.3552  0.3453  0.5734
 3487SOL    HW122094   1.944   4.671  15.211  0.8559  0.9361 -1.4974
 3487SOL    HW222095   1.799   4.686  15.235  0.5751 -0.4633  1.5177
 3488SOL     OW22096   2.101   4.117   7.160 -0.0378  0.1555 -0.0434
 3488SOL    HW122097   2.033   4.159   7.108  0.7295  0.1165 -1.0702
 3488SOL    HW222098   2.079   4.024   7.155  0.0791  0.0538  1.2235
 3489SOL     OW22099   4.408   2.761   5.626 -0.3999  0.2644 -0.0110
 3489SOL    HW122100   4.367   2.846   5.607 -0.1823  0.0263 -1.5324
 3489SOL    HW222101   4.443   2.749   5.538 -1.2615 -3.0402  0.1020
 3490SOL     OW22102   0.791   4.362   7.563  0.1995 -0.7107  0.6109
 3490SOL    HW122103   0.840   4.280   7.571  0.5172 -0.5885 -0.1179
 3490SOL    HW222104   0.791   4.397   7.652 -0.1953 -2.5562  1.3313
 3491SOL     OW22105   2.936   2.182  15.807  0.0878  0.2139 -0.4351
 3491SOL    HW122106   2.972   2.094  15.806  0.3069  0.2954  0.3848
 3491SOL    HW222107   2.984   2.219  15.881  1.6707 -0.0787 -1.3198
 3492SOL     OW22108   0.146   4.441   8.648 -0.7292 -0.0604 -0.3840
 3492SOL    HW122109   0.227   4.438   8.596 -0.6948  0.6113 -0.3645
 3492SOL    HW222110   0.094   4.388   8.587 -1.9736 -2.2196  2.5477
 3493SOL     OW22111   2.059   3.147   3.975 -0.6684  0.2528  0.9717
 3493SOL    HW122112   2.030   3.064   4.012 -0.2412  0.1498  1.0773
 3493SOL    HW222113   2.060   3.201   4.054  0.9497  1.6507  0.0165
 3494SOL     OW22114   1.463   2.363   7.646  0.0585 -0.7576 -0.0451
 3494SOL    HW122115   1.437   2.325   7.730 -1.1700  0.6539  0.1972
 3494SOL    HW222116   1.397   2.432   7.653 -0.8972 -1.6392 -0.3456
 3495SOL     OW22117   3.202   0.378  10.117 -0.4357  0.0332 -0.7193
 3495SOL    HW122118   3.155   0.420  10.045  0.2252 -0.7632 -1.6281
 3495SOL    HW222119   3.193   0.285  10.094  1.6586 -0.1354 -0.9110
 3496SOL     OW22120   1.561   1.042   6.352 -0.5493 -0.0434  0.0466
 3496SOL    HW122121   1.534   0.951   6.343 -0.2385 -0.0706 -0.6257
 3496SOL    HW222122   1.542   1.052   6.445 -0.0016  2.0445 -0.0528
 3497SOL     OW22123   2.610   2.689  14.172 -0.2703 -0.7903  0.3011
 3497SOL    HW122124   2.669   2.684  14.247 -0.4994 -2.7475  0.3523
 3497SOL    HW222125   2.559   2.764  14.202 -0.5362 -1.5519  1.7343
 3498SOL     OW22126   4.430   1.124   4.252  0.2662  0.0033  0.6547
 3498SOL    HW122127   4.442   1.176   4.332  2.1422 -0.2155  0.5116
 3498SOL    HW222128   4.344   1.086   4.274 -0.8308  0.2224 -3.3398
 3499SOL     OW22129   4.211   4.522   2.582 -0.2908 -0.1007  0.3701
 3499SOL    HW122130   4.278   4.454   2.581  0.2745  0.4551  0.3978
 3499SOL    HW222131   4.228   4.576   2.505 -0.4994 -1.4885 -0.6596
 3500SOL     OW22132   0.973   3.426   1.290 -0.6775 -0.9244  0.1085
 3500SOL    HW122133   0.976   3.375   1.371  1.2005 -3.7317 -1.7232
 3500SOL    HW222134   0.880   3.414   1.270 -1.3456  3.6714  0.5222
 3501SOL     OW22135   1.748   0.587   5.724  0.3281 -0.1114  0.2923
 3501SOL    HW122136   1.829   0.582   5.776  0.7375 -0.8697 -0.4157
 3501SOL    HW222137   1.699   0.518   5.770  1.8656 -1.4079 -0.0120
 3502SOL     OW22138   1.218   1.543   8.463 -0.3971  0.1034 -0.1777
 3502SOL    HW122139   1.193   1.453   8.484 -1.2169  0.7813  1.7123
 3502SOL    HW222140   1.258   1.525   8.377 -0.4439 -1.0339  0.0424
 3503SOL     OW22141   0.695   0.666   6.031  0.2499  0.2374 -0.0596
 3503SOL    HW122142   0.756   0.593   6.035  0.9515  1.0640  3.6734
 3503SOL    HW222143   0.757   0.737   6.010  0.6288  0.3899  1.5572
 3504SOL     OW22144   1.359   2.766   0.919 -0.4549 -0.2441  0.1276
 3504SOL    HW122145   1.274   2.726   0.899 -1.6883  1.2362  2.3808
 3504SOL    HW222146   1.423   2.699   0.896  0.4748  0.6751  0.0456
 3505SOL     OW22147   1.176   1.221   8.823 -0.2409  0.0922 -0.4357
 3505SOL    HW122148   1.235   1.224   8.748  0.0836  0.7517 -0.1615
 3505SOL    HW222149   1.162   1.127   8.832 -1.3576  0.2291 -0.6989
 3506SOL     OW22150   4.599   1.422   3.930 -0.0131 -0.0268 -0.2118
 3506SOL    HW122151   4.620   1.330   3.915 -0.3783  0.0322 -1.0904
 3506SOL    HW222152   4.680   1.461   3.899  1.1294 -1.1033  1.4025
 3507SOL     OW22153   1.164   0.247   8.791 -0.2472 -0.5323 -0.6042
 3507SOL    HW122154   1.169   0.272   8.883 -0.8802  0.7130 -0.8988
 3507SOL    HW222155   1.240   0.294   8.755 -2.0246  1.8790 -1.2053
 3508SOL     OW22156   3.767   1.203   4.395  0.5340  0.0858  0.0988
 3508SOL    HW122157   3.700   1.202   4.463  0.3540  0.8310 -0.0680
 3508SOL    HW222158   3.715   1.236   4.322  0.1648 -0.8175 -0.0461
 3509SOL     OW22159   3.416   0.599   9.119 -0.2621  0.1655  0.0104
 3509SOL    HW122160   3.386   0.690   9.128  1.5801  0.4559  3.3425
 3509SOL    HW222161   3.330   0.559   9.116 -0.5204  0.5557  2.2190
 3510SOL     OW22162   0.479   3.053   6.666  0.1418 -0.0794  0.3951
 3510SOL    HW122163   0.535   3.123   6.700  1.2694 -0.0807 -1.4390
 3510SOL    HW222164   0.544   3.005   6.614  1.8121  1.5674  0.9627
 3511SOL     OW22165   3.608   0.755   9.974  0.2286 -0.0589  0.1835
 3511SOL    HW122166   3.576   0.665   9.980  0.3229 -0.1295 -0.4149
 3511SOL    HW222167   3.688   0.746  10.027 -0.0531 -2.9710  0.1105
 3512SOL     OW22168   0.044   3.905   4.888  0.1223  0.0523 -0.4609
 3512SOL    HW122169   0.111   3.863   4.834 -0.1958 -0.7048 -0.2668
 3512SOL    HW222170   0.044   3.997   4.860 -0.3934  0.5181  1.0449
 3513SOL     OW22171   0.811   3.997   0.645  0.3843 -0.2118 -0.1444
 3513SOL    HW122172   0.854   3.912   0.640  1.4833  0.4565 -2.1285
 3513SOL    HW222173   0.720   3.968   0.638  1.4514 -3.3012 -1.0307
 3514SOL     OW22174   1.158   1.029  10.001 -0.1414  0.1290  0.0251
 3514SOL    HW122175   1.080   1.068  10.041 -1.8853 -1.0222 -2.2511
 3514SOL    HW222176   1.216   1.029  10.077  0.0141  0.9779 -0.0993
 3515SOL     OW22177   2.329   3.689   2.616  0.3436 -0.0491  0.4512
 3515SOL    HW122178   2.392   3.645   2.673 -0.7666 -3.5915 -1.0781
 3515SOL    HW222179   2.275   3.617   2.584  1.1542 -0.4410 -0.0325
 3516SOL     OW22180   1.597   0.044   4.314  0.2440  0.0499  0.2537
 3516SOL    HW122181   1.509   0.069   4.287  0.3131 -0.0582 -0.0779
 3516SOL    HW222182   1.629   0.134   4.314 -2.7127  1.0821  1.0541
 3517SOL     OW22183   2.417   0.675   4.983  0.1801 -0.3484  0.0083
 3517SOL    HW122184   2.505   0.682   5.021  0.2485 -1.5970  0.0678
 3517SOL    HW222185   2.360   0.692   5.058  1.8226  2.5167  0.6241
 3518SOL     OW22186   3.126   2.228   1.276  0.2749  0.6171 -0.4133
 3518SOL    HW122187   3.158   2.191   1.194 -1.8248 -1.7931 -0.1545
 3518SOL    HW222188   3.158   2.318   1.274 -1.3897  1.2648  2.2464
 3519SOL     OW22189   0.864   2.412   7.633  0.6128 -0.4066 -0.0435
 3519SOL    HW122190   0.803   2.341   7.654 -0.5027 -0.0129 -1.9063
 3519SOL    HW222191   0.852   2.423   7.538  2.2578  0.2537 -0.1804
 3520SOL     OW22192   0.021   2.910   8.604  0.5036  0.4670 -0.5467
 3520SOL    HW122193   4.670   2.883   8.630  0.3002  0.3009 -1.4210
 3520SOL    HW222194   0.066   2.830   8.577 -0.8414 -0.0637 -1.1911
 3521SOL     OW22195   1.960   3.651   7.297  0.1578 -0.1519 -0.6686
 3521SOL    HW122196   2.020   3.682   7.365  0.0655 -2.2853  0.3740
 3521SOL    HW222197   1.917   3.580   7.344 -2.4415  2.8209  1.4219
 3522SOL     OW22198   3.384   4.358   6.382  0.1493 -0.1548 -0.7148
 3522SOL    HW122199   3.421   4.292   6.442 -1.7140 -0.0604  0.5357
 3522SOL    HW222200   3.424   4.440   6.411 -1.6207  0.9096 -1.3253
 3523SOL     OW22201   3.379   3.831   7.489 -0.0154  0.2138  0.0259
 3523SOL    HW122202   3.341   3.743   7.492  0.0659  0.1125 -2.4836
 3523SOL    HW222203   3.327   3.881   7.552  2.6089  1.7551  0.9826
 3524SOL     OW22204   0.859   0.764  12.398  0.2535  0.6858 -0.2494
 3524SOL    HW122205   0.842   0.835  12.459  0.0844  1.3899 -1.1084
 3524SOL    HW222206   0.784   0.780  12.340  0.4469  2.5225  0.0052
 3525SOL     OW22207   2.269   2.699   1.733  0.1252  0.0266 -0.1498
 3525SOL    HW122208   2.335   2.754   1.690  0.3584  0.3464  0.6047
 3525SOL    HW222209   2.199   2.761   1.754 -1.0852 -0.6105 -2.3170
 3526SOL     OW22210   1.504   2.799   7.224 -0.0819 -0.3886  1.1116
 3526SOL    HW122211   1.486   2.777   7.315  0.5707 -0.0865  1.3115
 3526SOL    HW222212   1.518   2.710   7.191 -0.8615 -0.4571  0.9734
 3527SOL     OW22213   2.122   0.200   9.538  0.3690 -0.0159  0.4747
 3527SOL    HW122214   2.110   0.295   9.534  2.2668  0.1947 -0.4576
 3527SOL    HW222215   2.211   0.193   9.503  0.4935  1.2696  0.5315
 3528SOL     OW22216   0.883   0.220   5.032 -0.3538 -0.1807  0.4060
 3528SOL    HW122217   0.963   0.273   5.026 -0.2105 -0.4989 -0.4692
 3528SOL    HW222218   0.919   0.131   5.033  1.1611  0.4426  1.7397
 3529SOL     OW22219   3.652   0.001  12.981 -0.3741  0.5235 -0.6401
 3529SOL    HW122220   3.683   4.650  13.000  0.2872  0.0448 -3.9444
 3529SOL    HW222221   3.718   0.060  13.016 -0.7628  1.7956 -2.0373
 3530SOL     OW22222   1.273   0.271   2.537 -0.1843 -0.7608 -0.1722
 3530SOL    HW122223   1.222   0.312   2.606  0.3265 -0.2659 -0.0950
 3530SOL    HW222224   1.198   0.258   2.479  0.5417  1.0388 -1.4948
 3531SOL     OW22225   0.597   1.212   5.716 -0.1982 -0.5816 -0.1926
 3531SOL    HW122226   0.609   1.151   5.788  1.0584  0.1383  0.2090
 3531SOL    HW222227   0.628   1.151   5.648  1.0869  0.3273 -0.4259
 3532SOL     OW22228   3.055   2.516   3.624 -0.1987  0.0114  0.3852
 3532SOL    HW122229   3.088   2.503   3.713 -2.7217 -1.2851  1.1367
 3532SOL    HW222230   3.021   2.431   3.597 -0.1490  0.4964 -1.2027
 3533SOL     OW22231   3.449   0.617   5.048  0.4063 -0.6837  0.6947
 3533SOL    HW122232   3.396   0.692   5.076  0.9455  0.9837 -2.7281
 3533SOL    HW222233   3.534   0.655   5.071  0.3810 -2.0944  3.0886
 3534SOL     OW22234   1.838   4.291   7.336  0.0151 -0.3222 -0.4730
 3534SOL    HW122235   1.853   4.263   7.246 -0.6925  0.9331 -0.9883
 3534SOL    HW222236   1.747   4.267   7.352 -0.0371  0.7474  0.8763
 3535SOL     OW22237   1.110   4.089   8.932 -0.2213  0.4778  0.1541
 3535SOL    HW122238   1.182   4.132   8.885  0.8923 -1.9572 -0.3380
 3535SOL    HW222239   1.049   4.160   8.952 -0.8333 -0.3341  1.1568
 3536SOL     OW22240   1.112   0.994   6.654  0.3951  0.3360 -0.2995
 3536SOL    HW122241   1.046   1.052   6.692  0.8136  0.8250 -0.3147
 3536SOL    HW222242   1.170   0.982   6.729 -1.4979 -1.5371  0.8699
 3537SOL     OW22243   3.513   3.374   6.305 -0.6750  0.5251 -0.1833
 3537SOL    HW122244   3.436   3.356   6.252 -1.4432 -0.4128  1.2600
 3537SOL    HW222245   3.492   3.322   6.382 -2.3318  1.2476 -0.1552
 3538SOL     OW22246   3.717   2.221   1.323  0.0018 -0.1885 -0.5221
 3538SOL    HW122247   3.676   2.193   1.242 -2.2333  0.2016  0.4588
 3538SOL    HW222248   3.807   2.190   1.312 -0.0109 -0.3726 -0.1426
 3539SOL     OW22249   1.288   2.584   7.639  0.0210 -0.4171  0.0693
 3539SOL    HW122250   1.246   2.574   7.553  1.9602 -2.5634 -0.6132
 3539SOL    HW222251   1.202   2.592   7.681  0.7568  0.0047  1.4726
 3540SOL     OW22252   3.123   2.896   3.634  0.3671  1.0503 -0.0888
 3540SOL    HW122253   3.074   2.966   3.591  0.6796  1.7838  0.7580
 3540SOL    HW222254   3.074   2.891   3.716  1.8000  0.0715  0.7074
 3541SOL     OW22255   1.363   0.835   1.631 -0.2477  0.0468  0.1084
 3541SOL    HW122256   1.354   0.810   1.540 -0.1567  0.8513 -0.1249
 3541SOL    HW222257   1.455   0.812   1.637 -0.3391 -0.7097 -1.6596
 3542SOL     OW22258   2.403   3.548  12.762 -0.0029 -0.3362  0.6055
 3542SOL    HW122259   2.439   3.612  12.701 -0.8055  2.0867  2.6684
 3542SOL    HW222260   2.450   3.557  12.845  1.8129  2.6848 -0.7869
 3543SOL     OW22261   3.083   3.945   3.908 -0.1386 -0.4378  0.1448
 3543SOL    HW122262   3.040   4.029   3.891 -0.9952 -0.5717  1.6418
 3543SOL    HW222263   3.172   3.952   3.872 -0.1368 -0.3997  0.1564
 3544SOL     OW22264   2.773   0.938   6.353 -0.0536  0.0308 -0.2770
 3544SOL    HW122265   2.706   0.953   6.287 -0.9130  1.2039  0.8605
 3544SOL    HW222266   2.839   0.998   6.317  0.0714 -0.3645 -0.6975
 3545SOL     OW22267   4.140   1.249   4.226 -0.9296  0.7508 -0.1778
 3545SOL    HW122268   4.057   1.282   4.191 -1.6264 -0.7852  0.0201
 3545SOL    HW222269   4.126   1.157   4.246 -1.5169  1.0182  0.6381
 3546SOL     OW22270   0.065   1.358   5.589  0.5586 -0.3341 -0.0147
 3546SOL    HW122271   0.152   1.342   5.624  0.3481  1.0290  1.1430
 3546SOL    HW222272   0.015   1.313   5.657 -2.9056  3.4267 -0.0427
 3547SOL     OW22273   2.308   0.206  12.715  0.1705 -0.5112 -0.1012
 3547SOL    HW122274   2.265   0.128  12.749 -2.9743  0.1546 -2.5704
 3547SOL    HW222275   2.299   0.273  12.782  0.8063  2.1960 -2.7357
 3548SOL     OW22276   3.072   1.959   0.808 -0.1275  0.3699  0.2910
 3548SOL    HW122277   2.992   1.914   0.782  1.7700 -1.4456 -2.3863
 3548SOL    HW222278   3.044   2.046   0.779 -1.1210 -0.8557 -2.3674
 3549SOL     OW22279   0.229   2.504  15.323 -0.6081 -0.7519  0.0868
 3549SOL    HW122280   0.315   2.475  15.293 -0.1376  1.1513 -0.4125
 3549SOL    HW222281   0.176   2.454  15.261 -2.4290  3.1558 -1.5292
 3550SOL     OW22282   0.453   4.466   7.631 -0.1355 -0.2522  0.2613
 3550SOL    HW122283   0.464   4.467   7.536  1.1254  1.2432  0.4100
 3550SOL    HW222284   0.461   4.374   7.656 -0.0582  0.3615  2.5179
 3551SOL     OW22285   3.433   3.454   4.317 -0.1215  0.8610 -0.2956
 3551SOL    HW122286   3.356   3.463   4.260 -1.4453 -1.9297  1.0370
 3551SOL    HW222287   3.437   3.546   4.342  1.4822  0.6566  0.1940
 3552SOL     OW22288   4.621   2.260   2.284  0.1866  0.7225  0.4785
 3552SOL    HW122289   4.557   2.228   2.348 -1.6004 -0.9688 -2.1772
 3552SOL    HW222290   4.557   2.322   2.248 -0.0345 -0.0373 -0.4190
 3553SOL     OW22291   3.540   1.292   5.387  0.4340 -0.0098 -0.4707
 3553SOL    HW122292   3.530   1.270   5.294 -0.0810 -2.2929  0.1278
 3553SOL    HW222293   3.635   1.289   5.395  0.1403 -0.9438  2.5339
 3554SOL     OW22294   0.100   4.070   6.663 -0.7013  0.0635 -0.6869
 3554SOL    HW122295   0.193   4.075   6.686 -1.2959  1.8693  1.2493
 3554SOL    HW222296   0.082   4.147   6.609 -0.5517 -0.9034 -2.1052
 3555SOL     OW22297   0.198   0.003   6.092  0.4153 -0.0479 -0.4033
 3555SOL    HW122298   0.128   4.724   6.030  0.3102  1.2419 -0.6169
 3555SOL    HW222299   0.148   4.727   6.172  0.4178 -2.4497 -0.8186
 3556SOL     OW22300   2.097   3.091   8.671 -0.1055  0.6688  0.6835
 3556SOL    HW122301   2.098   3.002   8.635 -1.0385  1.3594 -1.0327
 3556SOL    HW222302   2.189   3.084   8.695 -0.1643 -2.4295  0.0104
 3557SOL     OW22303   3.302   0.862   9.149  0.0102 -0.3477  0.0873
 3557SOL    HW122304   3.317   0.829   9.237 -1.9090  1.9726  1.2696
 3557SOL    HW222305   3.281   0.953   9.170 -0.8640 -0.6549  0.5493
 3558SOL     OW22306   3.339   3.169  11.614  0.2147 -0.0498 -0.1939
 3558SOL    HW122307   3.303   3.257  11.621  0.1457 -0.1886  1.3012
 3558SOL    HW222308   3.420   3.182  11.664 -0.6446 -1.6966  1.6164
 3559SOL     OW22309   2.219   0.272   4.838  0.1719 -0.3969 -0.3925
 3559SOL    HW122310   2.241   0.363   4.819 -0.7445 -0.4372 -1.6746
 3559SOL    HW222311   2.124   0.271   4.834  0.1488 -1.8018  0.4748
 3560SOL     OW22312   0.285   3.069   7.146  0.3195 -0.2619 -0.2923
 3560SOL    HW122313   0.333   3.079   7.228 -1.4933  6.7813 -0.0818
 3560SOL    HW222314   0.350   3.032   7.087  2.8384  1.8497  1.1177
 3561SOL     OW22315   2.678   1.279   4.964 -0.4456 -0.4283  0.2016
 3561SOL    HW122316   2.616   1.236   5.022  1.1355 -0.8683  1.5716
 3561SOL    HW222317   2.632   1.359   4.939 -0.2235 -0.4104 -0.1593
 3562SOL     OW22318   4.342   3.650  15.161  0.2255  0.2299 -0.7162
 3562SOL    HW122319   4.260   3.609  15.133 -0.0021 -1.4617  2.4727
 3562SOL    HW222320   4.322   3.741  15.182 -1.9090 -0.7603  1.5784
 3563SOL     OW22321   0.691   2.271   8.946  0.4356 -0.2823 -0.9707
 3563SOL    HW122322   0.753   2.239   9.011  0.4701  0.8603 -0.4463
 3563SOL    HW222323   0.741   2.349   8.924 -2.4535  1.9457  0.3284
 3564SOL     OW22324   1.690   0.937  16.885 -0.2690  0.3642  0.1492
 3564SOL    HW122325   1.766   0.885  16.911 -1.9409 -2.0210  0.3121
 3564SOL    HW222326   1.712   0.969  16.798 -1.8678 -3.4407 -1.6806
 3565SOL     OW22327   2.025   4.123   6.085  0.5945 -0.0909  0.3076
 3565SOL    HW122328   2.008   4.216   6.073 -4.6040 -1.1686 -0.2818
 3565SOL    HW222329   1.955   4.101   6.146 -0.1428 -0.9037 -0.8408
 3566SOL     OW22330   3.703   1.207   7.776 -0.0871  0.2412 -0.1612
 3566SOL    HW122331   3.700   1.244   7.864  0.4351 -0.0954 -0.0030
 3566SOL    HW222332   3.778   1.253   7.738  0.1045 -0.6653 -0.8831
 3567SOL     OW22333   0.305   4.208   0.642  0.0982  0.1261 -0.0683
 3567SOL    HW122334   0.215   4.188   0.615  0.2840  0.3923 -0.8835
 3567SOL    HW222335   0.354   4.143   0.591  0.2953 -0.2579  0.6171
 3568SOL     OW22336   0.342   4.450   0.800  0.1100  0.1747  0.0362
 3568SOL    HW122337   0.327   4.364   0.762 -0.3989  1.1107 -1.8508
 3568SOL    HW222338   0.428   4.434   0.839 -0.0535 -0.2758  0.2194
 3569SOL     OW22339   1.991   0.536  10.527  0.0056  0.4392  0.5059
 3569SOL    HW122340   2.049   0.546  10.602  0.0569  0.1300  0.5059
 3569SOL    HW222341   2.054   0.547  10.456  0.8232  0.8208  1.2959
 3570SOL     OW22342   1.228   1.923  15.021 -0.3048 -0.3605 -0.3759
 3570SOL    HW122343   1.224   1.891  14.931 -1.3766 -0.3326 -0.3416
 3570SOL    HW222344   1.140   1.957  15.034  0.3635  0.6626  1.4821
 3571SOL     OW22345   0.316   3.667   7.971 -0.3624 -0.1484 -0.4310
 3571SOL    HW122346   0.327   3.580   7.934  0.5486 -0.6113  0.9102
 3571SOL    HW222347   0.380   3.660   8.043  2.1598  1.0994 -2.5639
 3572SOL     OW22348   3.713   2.673   3.217  0.3649  0.6073 -0.0364
 3572SOL    HW122349   3.779   2.698   3.282  0.0923 -0.5129  0.6699
 3572SOL    HW222350   3.640   2.662   3.278  1.2316 -0.9326  0.7128
 3573SOL     OW22351   2.571   3.622  12.969 -0.8883 -0.0549  0.2706
 3573SOL    HW122352   2.594   3.715  12.958 -2.3204  0.5386  2.2164
 3573SOL    HW222353   2.544   3.628  13.061 -0.1404  1.0073  0.4255
 3574SOL     OW22354   3.763   1.835   0.375  0.3915  0.4083 -0.5056
 3574SOL    HW122355   3.850   1.855   0.409  0.6047  2.4153 -2.2793
 3574SOL    HW222356   3.757   1.896   0.302  0.0330  0.8561 -0.1028
 3575SOL     OW22357   2.247   0.434   7.847  0.6176 -0.3921 -0.2008
 3575SOL    HW122358   2.278   0.502   7.906 -1.5908  0.8403 -0.4586
 3575SOL    HW222359   2.211   0.373   7.912  0.2759  0.4806  0.4265
 3576SOL     OW22360   1.398   4.727   9.552 -0.0980  0.7817 -0.4063
 3576SOL    HW122361   1.339   0.028   9.616 -0.4560  1.5509 -1.1939
 3576SOL    HW222362   1.401   4.639   9.589  1.2151  0.6418 -0.8531
 3577SOL     OW22363   1.507   1.104   8.068 -0.3735  1.0039 -0.4539
 3577SOL    HW122364   1.585   1.076   8.116 -1.4762  0.4454  0.9802
 3577SOL    HW222365   1.538   1.114   7.978  0.8816 -0.5780 -0.1969
 3578SOL     OW22366   0.492   0.372   3.924  0.0388 -0.2632 -0.7441
 3578SOL    HW122367   0.568   0.429   3.930  0.4762 -0.7366 -1.9192
 3578SOL    HW222368   0.530   0.289   3.896  0.4635 -0.6758  1.0153
 3579SOL     OW22369   4.629   2.380   4.141  0.2124 -0.0580 -0.3610
 3579SOL    HW122370   4.582   2.387   4.057  3.3248 -1.2544 -2.1891
 3579SOL    HW222371   4.584   2.310   4.190 -0.5438 -0.1366 -1.1644
 3580SOL     OW22372   1.683   3.819   0.814  0.4105 -0.4363  0.2772
 3580SOL    HW122373   1.683   3.730   0.850 -0.0979 -0.8485 -0.7632
 3580SOL    HW222374   1.621   3.806   0.743 -0.1397  0.5205  0.5806
 3581SOL     OW22375   4.198   1.243   8.088 -0.1647 -0.5597  0.5125
 3581SOL    HW122376   4.120   1.264   8.038 -0.4626 -0.2804  1.0885
 3581SOL    HW222377   4.168   1.279   8.172  1.0686 -0.1462  0.7732
 3582SOL     OW22378   0.285   0.932   3.487  0.7728  0.1310  0.7214
 3582SOL    HW122379   0.353   0.974   3.435  1.0913 -2.2807 -0.8042
 3582SOL    HW222380   0.317   0.843   3.502  0.7137 -0.4711 -2.8560
 3583SOL     OW22381   3.926   0.679   4.458 -0.1814 -0.0260  0.2624
 3583SOL    HW122382   4.007   0.644   4.420  0.2883 -1.1840  2.3127
 3583SOL    HW222383   3.928   0.768   4.424 -0.5623 -0.0268  0.2382
 3584SOL     OW22384   0.233   3.064   6.502 -0.4219  0.3064 -0.1406
 3584SOL    HW122385   0.271   2.977   6.492 -0.8469 -0.1784  2.4906
 3584SOL    HW222386   0.314   3.106   6.531 -0.0715 -0.1788 -0.4204
 3585SOL     OW22387   2.492   2.672   1.400 -0.0137  0.4396  0.2493
 3585SOL    HW122388   2.467   2.754   1.443 -1.9307 -0.8764  1.6828
 3585SOL    HW222389   2.537   2.627   1.472 -1.2737  1.5479  1.7434
 3586SOL     OW22390   2.914   4.371   5.953 -0.0377  0.0352 -0.3951
 3586SOL    HW122391   2.980   4.319   5.907 -0.6342 -0.9703 -0.1046
 3586SOL    HW222392   2.941   4.459   5.926  1.6786 -1.2404 -2.7497
 3587SOL     OW22393   4.162   3.163   4.067  0.2605  0.5309  0.3597
 3587SOL    HW122394   4.224   3.117   4.124 -0.7990 -1.2341  0.0968
 3587SOL    HW222395   4.161   3.243   4.119  0.9125 -0.9266  2.6538
 3588SOL     OW22396   4.294   1.684   2.245  0.2238 -0.2102 -0.1296
 3588SOL    HW122397   4.236   1.664   2.318 -1.7808  1.8054 -1.1546
 3588SOL    HW222398   4.232   1.661   2.176 -1.2064  0.5210  0.8989
 3589SOL     OW22399   2.275   2.935   0.174 -0.0762 -0.4816  0.9751
 3589SOL    HW122400   2.200   2.936   0.233 -1.2960  1.6907 -0.5959
 3589SOL    HW222401   2.329   3.000   0.220  1.8893  0.0826 -2.0828
 3590SOL     OW22402   4.589   4.133  11.477  0.2997  0.1179  0.0014
 3590SOL    HW122403   4.552   4.050  11.506 -0.5022 -0.0879 -1.5719
 3590SOL    HW222404   4.645   4.107  11.404 -1.0652 -0.3916 -0.8678
 3591SOL     OW22405   0.623   1.168   6.320 -0.1665  0.0857  1.2889
 3591SOL    HW122406   0.534   1.133   6.308 -0.1953  0.7421 -0.4438
 3591SOL    HW222407   0.610   1.251   6.365 -1.1730  1.1076 -0.9182
 3592SOL     OW22408   0.893   0.921   8.830  0.4729 -0.5760 -0.3703
 3592SOL    HW122409   0.915   0.957   8.745  1.6776 -1.6267 -0.5101
 3592SOL    HW222410   0.803   0.890   8.823  0.4424 -0.5899  0.0577
 3593SOL     OW22411   0.678   2.017  12.348  0.4979  0.2811  0.3038
 3593SOL    HW122412   0.605   2.003  12.408  0.6632  0.1934  0.4853
 3593SOL    HW222413   0.749   2.032  12.411  2.8452 -2.4095 -1.6592
 3594SOL     OW22414   0.523   2.559   4.956  0.4070  0.0375  0.4890
 3594SOL    HW122415   0.518   2.513   4.873  0.1644  2.6931 -0.9845
 3594SOL    HW222416   0.429   2.580   4.960  0.3492 -0.2328  0.5163
 3595SOL     OW22417   1.920   1.674   7.687 -0.0088  0.2703 -0.6323
 3595SOL    HW122418   1.982   1.746   7.695  0.3429 -0.2357  1.2456
 3595SOL    HW222419   1.872   1.713   7.614 -2.1214 -0.8139  0.1636
 3596SOL     OW22420   3.148   3.065   3.982  0.2791  0.5963 -0.7181
 3596SOL    HW122421   3.105   3.081   4.066 -1.9852  0.9799 -1.9443
 3596SOL    HW222422   3.084   3.089   3.916 -1.8483 -1.1309  0.7147
 3597SOL     OW22423   2.645   3.565   2.591  0.0413 -0.4402  0.5381
 3597SOL    HW122424   2.736   3.542   2.609 -0.9674 -2.8438  2.6515
 3597SOL    HW222425   2.604   3.551   2.676 -1.3211 -0.2363 -0.0791
 3598SOL     OW22426   4.186   2.399   7.961  0.1378  0.8405  0.2722
 3598SOL    HW122427   4.107   2.435   8.001  0.5695  4.5025 -2.1327
 3598SOL    HW222428   4.233   2.382   8.042 -1.9541 -1.2289  1.0497
 3599SOL     OW22429   0.409   3.708   5.409  0.7160  0.7781  0.4386
 3599SOL    HW122430   0.435   3.657   5.332 -0.4452  0.7966  0.0194
 3599SOL    HW222431   0.449   3.793   5.394  1.3479 -0.1786 -3.4893
 3600SOL     OW22432   3.014   2.327   0.450 -0.3140  0.0552  0.4819
 3600SOL    HW122433   2.962   2.408   0.446 -1.4759 -0.7538 -0.8389
 3600SOL    HW222434   3.092   2.372   0.417 -1.0559 -1.4692 -3.3109
 3601SOL     OW22435   1.824   0.271  16.434  0.1280  0.2971  0.2634
 3601SOL    HW122436   1.731   0.288  16.442 -0.3314 -1.8758 -0.5802
 3601SOL    HW222437   1.836   0.231  16.521  0.1904  0.4913  0.3447
 3602SOL     OW22438   1.855   1.533   6.500  0.0148  0.4385 -0.5212
 3602SOL    HW122439   1.851   1.598   6.570  2.0879  0.1157 -0.0854
 3602SOL    HW222440   1.949   1.520   6.488 -0.6950 -3.4961 -1.8656
 3603SOL     OW22441   4.020   0.064   7.622 -0.2033  0.0874 -0.3152
 3603SOL    HW122442   4.022   0.158   7.641 -0.4962 -0.0217  0.2541
 3603SOL    HW222443   4.024   0.028   7.710  1.1789  1.9527  0.3702
 3604SOL     OW22444   2.470   4.103   5.962  0.0326  0.5122  0.1009
 3604SOL    HW122445   2.524   4.057   5.897  2.5135  1.2780  1.6466
 3604SOL    HW222446   2.383   4.109   5.922  0.9631  0.7613 -1.8891
 3605SOL     OW22447   3.223   0.640   4.255  0.4345 -0.3597  0.5166
 3605SOL    HW122448   3.230   0.564   4.312 -2.1425 -0.5428  0.5928
 3605SOL    HW222449   3.173   0.615   4.177  0.6385  1.1207 -0.1003
 3606SOL     OW22450   3.232   2.976  13.834 -0.6175 -0.4297 -0.6261
 3606SOL    HW122451   3.155   3.025  13.861  0.0903 -0.4138  1.4041
 3606SOL    HW222452   3.190   2.895  13.806 -2.5562 -0.2844  1.8338
 3607SOL     OW22453   2.442   2.725   9.247 -0.4898  1.4400 -0.8923
 3607SOL    HW122454   2.360   2.730   9.198 -1.0833  0.1787 -0.0245
 3607SOL    HW222455   2.503   2.781   9.199  0.1393  3.0273  1.7233
 3608SOL     OW22456   2.920   3.199   8.582  0.3267 -0.4059 -0.6595
 3608SOL    HW122457   2.857   3.140   8.622 -0.9342  1.8420  0.6962
 3608SOL    HW222458   2.990   3.180   8.644  0.0813  0.5954 -0.0773
 3609SOL     OW22459   1.848   2.173  11.930 -0.4462  0.3929 -0.3877
 3609SOL    HW122460   1.800   2.147  12.009 -1.4450  1.6250 -0.5793
 3609SOL    HW222461   1.932   2.129  11.940 -1.3069 -1.1036  0.2293
 3610SOL     OW22462   3.937   2.522   5.637 -0.2696 -0.2613  0.5068
 3610SOL    HW122463   4.031   2.514   5.619 -0.1915 -0.5309  1.0353
 3610SOL    HW222464   3.934   2.467   5.715  0.8368 -1.1435 -0.0643
 3611SOL     OW22465   3.940   0.022   4.738 -0.1594  0.3893  0.5757
 3611SOL    HW122466   3.920   0.081   4.665  2.5710  1.5178  0.7492
 3611SOL    HW222467   3.968   4.682   4.690 -1.2420  1.0471 -1.1099
 3612SOL     OW22468   1.568   3.054   1.354  0.0275  0.1783 -0.4921
 3612SOL    HW122469   1.527   2.998   1.421 -1.5666 -0.5005 -2.0533
 3612SOL    HW222470   1.506   3.038   1.283  0.2368  1.8677 -1.0603
 3613SOL     OW22471   0.807   2.082  13.750 -0.0437 -0.1221 -0.4438
 3613SOL    HW122472   0.806   2.014  13.817  1.6531 -0.3371 -0.6460
 3613SOL    HW222473   0.898   2.112  13.756 -0.1845  0.5061 -1.3964
 3614SOL     OW22474   4.735   2.336   5.236 -0.2924 -0.7535 -0.2938
 3614SOL    HW122475   4.709   2.383   5.157  1.0691  0.9305  0.2652
 3614SOL    HW222476   4.669   2.267   5.227 -1.5176  0.3345  0.2549
 3615SOL     OW22477   2.661   2.482  15.567 -1.1461  0.3826 -0.3125
 3615SOL    HW122478   2.658   2.424  15.643 -0.1959  1.8701  0.8643
 3615SOL    HW222479   2.732   2.441  15.518 -1.6197 -0.3424 -0.3881
 3616SOL     OW22480   3.870   1.825  12.531 -0.3763 -0.6620  0.0702
 3616SOL    HW122481   3.894   1.758  12.467 -1.9640 -1.3663  0.2287
 3616SOL    HW222482   3.953   1.868  12.552 -1.3765  2.5638 -2.5066
 3617SOL     OW22483   0.393   2.786   4.062  0.1962  0.0166 -0.3831
 3617SOL    HW122484   0.421   2.755   3.976 -0.3397 -2.5159  0.3376
 3617SOL    HW222485   0.310   2.830   4.049 -1.9288 -3.5448  1.1346
 3618SOL     OW22486   2.048   3.237   6.780 -0.0690  0.0151  0.0774
 3618SOL    HW122487   2.048   3.245   6.685  0.1150  1.5241  0.2105
 3618SOL    HW222488   2.093   3.152   6.783 -1.1157 -0.5556 -0.2189
 3619SOL     OW22489   1.297   3.925   3.543 -0.3014  0.1629  0.5141
 3619SOL    HW122490   1.329   3.897   3.458 -0.0436 -0.4070  0.7995
 3619SOL    HW222491   1.320   3.848   3.595  0.4838  0.3814  0.4884
 3620SOL     OW22492   2.674   2.310  13.709 -0.2224  0.0125 -0.2913
 3620SOL    HW122493   2.769   2.310  13.703 -0.0588  0.3859  2.0165
 3620SOL    HW222494   2.655   2.216  13.709  1.3158 -0.2788 -1.4498
 3621SOL     OW22495   1.844   4.212   7.076  0.0350 -0.9511 -0.4719
 3621SOL    HW122496   1.833   4.304   7.052 -3.6907 -0.7064  2.2049
 3621SOL    HW222497   1.765   4.172   7.040 -0.2076 -0.9208  0.0426
 3622SOL     OW22498   2.792   1.908   1.134  0.0227 -0.0799  0.5223
 3622SOL    HW122499   2.769   2.001   1.130 -3.3275 -1.0703 -2.5023
 3622SOL    HW222500   2.708   1.865   1.149 -0.7664  1.0882 -0.6099
 3623SOL     OW22501   1.756   3.715  12.746 -0.2089 -0.2609  0.4179
 3623SOL    HW122502   1.722   3.802  12.728 -0.2343 -0.6032 -1.2093
 3623SOL    HW222503   1.745   3.664  12.666 -0.0325 -0.0476  0.2586
 3624SOL     OW22504   4.571   3.420   1.136 -0.0689 -0.3244  0.3310
 3624SOL    HW122505   4.622   3.351   1.179 -1.0506 -1.5113 -0.3896
 3624SOL    HW222506   4.486   3.378   1.122  0.3545 -1.2187  0.4118
 3625SOL     OW22507   2.635   2.528   9.363 -0.3935  0.1352  0.2454
 3625SOL    HW122508   2.579   2.460   9.325 -0.7742  0.3547  0.4137
 3625SOL    HW222509   2.591   2.611   9.344  0.8882  0.9554  0.8878
 3626SOL     OW22510   0.075   3.456   9.953  0.3007 -0.5222 -0.7856
 3626SOL    HW122511   0.093   3.408   9.871 -1.8642 -0.2764 -1.3845
 3626SOL    HW222512   4.719   3.440   9.965 -0.1556  1.9230 -1.1099
 3627SOL     OW22513   4.276   2.456   8.848 -0.2724  0.2021  0.7795
 3627SOL    HW122514   4.363   2.489   8.872  0.0369 -0.2222  0.2022
 3627SOL    HW222515   4.222   2.516   8.901  1.9202  3.1221 -0.2515
 3628SOL     OW22516   0.537   0.965   9.974 -0.3186  0.2281 -0.5440
 3628SOL    HW122517   0.572   1.043   9.933 -0.4461 -0.2270 -1.5033
 3628SOL    HW222518   0.450   0.957   9.935 -2.0906  1.7414  3.1045
 3629SOL     OW22519   0.777   1.584   8.238 -0.0272  0.1049 -0.4502
 3629SOL    HW122520   0.836   1.573   8.163 -0.6697  1.2065 -1.1223
 3629SOL    HW222521   0.710   1.518   8.222  0.2182 -0.6374  1.6054
 3630SOL     OW22522   2.834   1.435  14.962  0.7957 -0.4531 -0.0341
 3630SOL    HW122523   2.882   1.518  14.959  0.1775 -0.0472  1.2906
 3630SOL    HW222524   2.891   1.380  15.015  0.1469 -0.1637  0.9735
 3631SOL     OW22525   0.016   2.841  10.002 -0.1336  0.3810  0.3631
 3631SOL    HW122526   4.700   2.817   9.926 -2.8596 -1.4950  2.9145
 3631SOL    HW222527   0.086   2.898   9.970 -0.5527  1.9311  2.1845
 3632SOL     OW22528   2.139   4.399   3.395  0.2078 -0.0723  0.4228
 3632SOL    HW122529   2.211   4.377   3.337  0.3722 -2.4753  1.5316
 3632SOL    HW222530   2.097   4.463   3.338 -0.8140 -1.1559 -0.0485
 3633SOL     OW22531   2.399   0.404   3.539  0.9304 -0.1436 -0.2740
 3633SOL    HW122532   2.459   0.361   3.478  0.3449  2.8407 -2.9624
 3633SOL    HW222533   2.312   0.368   3.517  0.8645  0.0523 -0.3375
 3634SOL     OW22534   2.798   2.992   4.154 -0.0216 -0.7738  1.1100
 3634SOL    HW122535   2.743   2.949   4.089  0.4559  1.1968 -0.5976
 3634SOL    HW222536   2.860   2.925   4.184 -2.1238 -1.8405  3.0578
 3635SOL     OW22537   2.330   4.458   5.055  0.2360 -0.1674 -0.0843
 3635SOL    HW122538   2.247   4.504   5.041 -0.3687 -1.4198 -0.6014
 3635SOL    HW222539   2.359   4.505   5.133  0.6422 -0.9759  0.2563
 3636SOL     OW22540   3.596   4.155   8.632 -0.1900  0.2539 -0.3355
 3636SOL    HW122541   3.670   4.215   8.637 -1.2863  1.5418  0.3537
 3636SOL    HW222542   3.532   4.218   8.598 -1.1148 -1.6337 -2.0400
 3637SOL     OW22543   1.364   0.856   4.640 -0.2791 -0.1463 -0.3226
 3637SOL    HW122544   1.287   0.911   4.629 -0.4758  0.0534  1.9437
 3637SOL    HW222545   1.433   0.896   4.586 -1.7280  1.3164 -1.0962
 3638SOL     OW22546   3.383   2.067   4.737  0.1917 -0.4645  0.1332
 3638SOL    HW122547   3.305   2.114   4.766 -0.3222 -0.7795 -0.7455
 3638SOL    HW222548   3.344   1.984   4.710 -0.7334 -0.2489  0.7851
 3639SOL     OW22549   1.778   0.327   4.872 -0.3359 -0.4753  0.2449
 3639SOL    HW122550   1.748   0.414   4.899  0.1316 -0.4620  0.7447
 3639SOL    HW222551   1.851   0.351   4.815  0.5384 -2.2832  0.5870
 3640SOL     OW22552   0.130   3.042  14.242 -0.2472  0.2799 -0.2323
 3640SOL    HW122553   0.224   3.047  14.221 -0.4478 -0.2068 -1.2650
 3640SOL    HW222554   0.109   3.135  14.255 -0.0366 -0.2657  3.9597
 3641SOL     OW22555   3.445   0.083   3.518  0.1569 -0.0190  0.2861
 3641SOL    HW122556   3.353   0.105   3.531 -1.0123 -3.4123 -2.1045
 3641SOL    HW222557   3.478   0.169   3.492 -0.2273  0.8321  2.6526
 3642SOL     OW22558   3.174   2.774   4.026 -0.2580 -0.4609 -0.4853
 3642SOL    HW122559   3.235   2.720   3.975 -1.8765 -0.0955 -2.7840
 3642SOL    HW222560   3.187   2.863   3.995 -1.3760 -0.0822  0.1515
 3643SOL     OW22561   2.053   3.279   3.549  0.0074  0.3088 -0.0256
 3643SOL    HW122562   2.146   3.256   3.550  0.1871  0.9133 -2.1150
 3643SOL    HW222563   2.042   3.317   3.636 -0.4331 -0.3592  0.2085
 3644SOL     OW22564   0.237   1.185  14.909 -0.2041  0.8699 -0.5522
 3644SOL    HW122565   0.254   1.274  14.940 -2.2635  1.1220 -0.1526
 3644SOL    HW222566   0.201   1.198  14.821  1.8531  1.3679 -1.3233
 3645SOL     OW22567   1.127   1.475  10.018  0.4458 -0.1123  0.3250
 3645SOL    HW122568   1.139   1.519  10.102  2.1282 -0.7865  0.4301
 3645SOL    HW222569   1.202   1.513   9.972 -1.2351  1.2427 -1.3333
 3646SOL     OW22570   2.835   3.759   9.223 -0.0227  0.1005 -0.8521
 3646SOL    HW122571   2.779   3.833   9.197  1.5914  1.0478 -1.6233
 3646SOL    HW222572   2.844   3.724   9.134  1.5393  1.7727 -1.3598
 3647SOL     OW22573   3.590   3.371   1.918 -0.0428  0.4155 -0.3669
 3647SOL    HW122574   3.645   3.328   1.984  3.1116  1.6384 -2.2018
 3647SOL    HW222575   3.630   3.457   1.931  0.6191  0.0030  0.3273
 3648SOL     OW22576   1.499   2.731  17.266  0.5258 -0.4725 -0.1397
 3648SOL    HW122577   1.556   2.726  17.343  0.2690  0.2386  0.1008
 3648SOL    HW222578   1.439   2.798  17.302  0.6665 -0.4601  0.0733
 3649SOL     OW22579   3.071   0.752   7.265  0.0699  0.1563  0.0129
 3649SOL    HW122580   3.130   0.722   7.334  1.5190  0.9543 -0.8789
 3649SOL    HW222581   3.053   0.841   7.295 -0.4746  0.3550 -0.9018
 3650SOL     OW22582   1.072   1.148   5.582 -0.5879  0.0360 -0.7471
 3650SOL    HW122583   1.121   1.066   5.580  1.8635  1.4316  1.5186
 3650SOL    HW222584   1.030   1.139   5.668 -0.2518  3.3514 -0.2005
 3651SOL     OW22585   4.588   4.460   5.544  0.4544 -0.9268 -0.2330
 3651SOL    HW122586   4.591   4.366   5.562  1.4012 -0.9104 -0.3025
 3651SOL    HW222587   4.520   4.464   5.477  1.1146 -2.9811 -1.0378
 3652SOL     OW22588   3.734   2.503  16.414 -0.7499 -0.0999  0.6304
 3652SOL    HW122589   3.704   2.412  16.412  0.7435 -0.5995  1.0887
 3652SOL    HW222590   3.666   2.544  16.468 -2.4280 -0.3791 -1.2453
 3653SOL     OW22591   2.128   1.516   6.452  0.2718  0.0273  0.4856
 3653SOL    HW122592   2.220   1.507   6.477  0.9499  0.5333 -1.7657
 3653SOL    HW222593   2.137   1.602   6.411 -0.9091  1.4511  3.2207
 3654SOL     OW22594   3.221   1.832   4.794 -0.3645  0.6795  0.1689
 3654SOL    HW122595   3.127   1.851   4.787 -0.2823  0.3645 -1.7062
 3654SOL    HW222596   3.234   1.741   4.767  0.7193  1.3594 -1.6002
 3655SOL     OW22597   2.651   2.886   2.906  0.1028 -0.3738  0.2124
 3655SOL    HW122598   2.572   2.876   2.959  0.2930 -0.6017  0.4524
 3655SOL    HW222599   2.690   2.801   2.926 -0.0437 -0.4292  0.2686
 3656SOL     OW22600   4.435   2.055   3.123  0.3517 -0.1740  0.0346
 3656SOL    HW122601   4.434   2.035   3.029  0.7305  1.2296 -0.2622
 3656SOL    HW222602   4.476   1.976   3.160 -0.8476 -0.7657  0.1192
 3657SOL     OW22603   2.661   3.570   9.775 -0.1013  0.3932 -0.3491
 3657SOL    HW122604   2.652   3.658   9.812 -1.6388 -1.2119  3.1786
 3657SOL    HW222605   2.744   3.581   9.730  0.5322  0.1586  0.7712
 3658SOL     OW22606   2.028   0.282  11.242  0.1859 -0.7477  0.3978
 3658SOL    HW122607   2.035   0.235  11.159 -1.4760  0.4706 -0.4307
 3658SOL    HW222608   2.110   0.331  11.241 -0.3677  0.1258 -1.4784
 3659SOL     OW22609   1.672   3.561   0.934  0.4827  0.4439  0.4440
 3659SOL    HW122610   1.646   3.488   0.878 -4.1058  1.4213  1.3019
 3659SOL    HW222611   1.651   3.515   1.015 -1.2244  1.0421  0.3464
 3660SOL     OW22612   2.936   2.035   4.976 -0.6267  0.1443 -0.1436
 3660SOL    HW122613   2.954   1.981   5.053  0.8860  0.6083 -0.1542
 3660SOL    HW222614   2.844   2.055   4.987 -0.4937  0.5722  0.1647
 3661SOL     OW22615   0.136   2.234   4.233 -0.4870 -0.0710 -0.5238
 3661SOL    HW122616   0.054   2.276   4.206 -0.0669  0.2670 -1.2688
 3661SOL    HW222617   0.122   2.238   4.328  1.6979  1.2122 -0.2616
 3662SOL     OW22618   3.858   1.011   5.522  0.2437 -1.0957  0.0863
 3662SOL    HW122619   3.858   0.915   5.516  0.3897 -0.9365 -2.5450
 3662SOL    HW222620   3.807   1.022   5.602  1.5151  0.6398  0.6447
 3663SOL     OW22621   1.525   4.468  12.566 -0.7517 -0.4684  0.6501
 3663SOL    HW122622   1.440   4.490  12.529  0.0310 -1.3827 -1.6860
 3663SOL    HW222623   1.526   4.520  12.646 -0.8464 -1.0566  1.0386
 3664SOL     OW22624   2.928   3.070   2.018 -0.1117 -0.6321  0.4137
 3664SOL    HW122625   3.011   3.044   2.059  0.5213  1.6375  0.5604
 3664SOL    HW222626   2.935   3.008   1.946  0.8971  0.7843 -0.6954
 3665SOL     OW22627   0.777   0.110   0.923 -0.2560  0.3441 -0.1599
 3665SOL    HW122628   0.762   0.032   0.869 -2.1261  0.9124 -0.4775
 3665SOL    HW222629   0.800   0.178   0.860 -0.0478  1.1786  0.8337
 3666SOL     OW22630   0.088   3.257  12.863 -0.5920 -0.1051  0.6042
 3666SOL    HW122631   0.088   3.278  12.957 -3.4323  0.7066  0.4291
 3666SOL    HW222632   0.060   3.166  12.865  0.9568 -0.5936 -0.2865
 3667SOL     OW22633   0.797   1.145  14.690 -0.0992  0.3933  0.3003
 3667SOL    HW122634   0.798   1.134  14.595 -0.8091 -2.3151  0.5962
 3667SOL    HW222635   0.886   1.115  14.707 -0.1870  0.0789  0.2131
 3668SOL     OW22636   0.383   0.164   3.033  0.4515 -0.0740  0.5757
 3668SOL    HW122637   0.313   0.103   3.010  0.1911 -0.7164  3.0320
 3668SOL    HW222638   0.388   0.212   2.951 -2.6876 -1.3112 -0.3519
 3669SOL     OW22639   4.401   3.401   2.566  0.1600 -0.1238 -0.3622
 3669SOL    HW122640   4.453   3.324   2.541 -1.1993 -1.4588  0.8928
 3669SOL    HW222641   4.473   3.449   2.606 -0.1645 -0.6006  0.7991
 3670SOL     OW22642   2.088   2.418   2.762 -0.2154  0.5740  0.2884
 3670SOL    HW122643   2.123   2.435   2.674  0.2515 -0.1946  0.3189
 3670SOL    HW222644   1.997   2.434   2.737 -0.8727 -0.4242  2.0785
 3671SOL     OW22645   4.261   0.425   5.096 -0.0574  0.1631 -0.5441
 3671SOL    HW122646   4.231   0.431   5.187 -1.4918  0.1976 -1.0112
 3671SOL    HW222647   4.207   0.498   5.066 -0.0962  0.8131  1.0671
 3672SOL     OW22648   4.531   1.953   4.955  0.2591 -0.1868 -0.4704
 3672SOL    HW122649   4.571   1.938   5.040 -1.4337 -0.6998  0.2216
 3672SOL    HW222650   4.550   1.872   4.907 -0.8459 -0.8350  0.1905
 3673SOL     OW22651   2.884   1.604   7.359  0.6751  0.2859 -0.0130
 3673SOL    HW122652   2.792   1.601   7.334  0.6682  1.5772 -0.1287
 3673SOL    HW222653   2.914   1.523   7.318  1.0864  0.6791 -0.4975
 3674SOL     OW22654   3.319   0.912   3.057 -0.4557 -0.2794  0.2458
 3674SOL    HW122655   3.342   0.932   2.966 -1.5876  1.3840  0.3217
 3674SOL    HW222656   3.356   0.824   3.055  1.9259  0.7529 -1.3010
 3675SOL     OW22657   4.584   2.138  11.084  0.6088 -0.2279  0.5974
 3675SOL    HW122658   4.570   2.095  11.168  1.6039  2.1156  1.9441
 3675SOL    HW222659   4.513   2.202  11.089  0.5236 -0.4470  2.0227
 3676SOL     OW22660   0.652   3.716  15.860 -0.3322  0.1267 -0.9039
 3676SOL    HW122661   0.581   3.652  15.862 -0.7902  0.5704 -3.2887
 3676SOL    HW222662   0.634   3.753  15.774 -1.2351  1.4804 -0.1353
 3677SOL     OW22663   3.297   3.775   8.062 -0.1391 -0.4843 -0.2043
 3677SOL    HW122664   3.223   3.787   8.121  0.8471 -0.5886  1.0742
 3677SOL    HW222665   3.374   3.785   8.119 -0.1169  0.8296 -0.4797
 3678SOL     OW22666   1.158   4.538   4.388 -0.2354 -0.7940  0.0538
 3678SOL    HW122667   1.219   4.520   4.317  1.2095  2.0047  0.5763
 3678SOL    HW222668   1.186   4.462   4.438  1.1317  0.5821  1.3900
 3679SOL     OW22669   1.397   4.284   3.436  0.6526  0.5066  0.0685
 3679SOL    HW122670   1.328   4.274   3.502 -0.8719  0.7783 -1.4773
 3679SOL    HW222671   1.458   4.341   3.483  0.5936  0.6540 -0.0356
 3680SOL     OW22672   2.264   2.451   5.186 -0.3112 -0.3562 -0.6142
 3680SOL    HW122673   2.292   2.539   5.212  0.8298 -1.6253  2.3949
 3680SOL    HW222674   2.182   2.472   5.140 -0.8903 -1.0695  0.1084
 3681SOL     OW22675   3.794   3.185   1.541  0.6550 -0.1811  0.2863
 3681SOL    HW122676   3.752   3.267   1.569 -1.4864 -0.7676 -1.1631
 3681SOL    HW222677   3.810   3.134   1.620 -0.4212 -0.1601  0.5157
 3682SOL     OW22678   3.105   0.449  12.102 -0.0550  0.1524 -0.4034
 3682SOL    HW122679   3.092   0.480  12.013  2.0857  1.1185 -0.3673
 3682SOL    HW222680   3.135   0.527  12.148 -2.1086  1.4565 -1.2687
 3683SOL     OW22681   0.885   1.887  15.254 -0.1886  0.1405  0.4839
 3683SOL    HW122682   0.840   1.805  15.234 -0.0055 -0.0981  1.0513
 3683SOL    HW222683   0.913   1.915  15.167  0.6858 -0.9702  0.4057
 3684SOL     OW22684   2.957   0.241   3.650  0.2325  0.2093  0.1871
 3684SOL    HW122685   2.907   0.307   3.601 -0.2457 -0.5319 -0.3323
 3684SOL    HW222686   2.893   0.232   3.720 -1.3991 -0.3002 -1.3535
 3685SOL     OW22687   4.247   0.434  10.210  0.3767  0.1231 -0.1433
 3685SOL    HW122688   4.326   0.385  10.185  0.2589 -0.2801  0.2885
 3685SOL    HW222689   4.254   0.441  10.305 -2.4549 -2.3614  0.2485
 3686SOL     OW22690   3.608   2.304  10.180  0.5480 -0.3795 -0.1272
 3686SOL    HW122691   3.519   2.274  10.202  0.7134  0.4744  1.7102
 3686SOL    HW222692   3.595   2.330  10.089 -0.7845 -0.6180 -0.0058
 3687SOL     OW22693   2.904   2.049   5.908  0.5104 -0.3646  0.0253
 3687SOL    HW122694   2.994   2.048   5.943  0.8279 -1.5537 -0.8164
 3687SOL    HW222695   2.927   2.058   5.815  0.6917 -1.7180 -0.0662
 3688SOL     OW22696   4.478   0.250   6.750  0.0198 -0.3074  0.1432
 3688SOL    HW122697   4.562   0.288   6.774 -0.3037  1.4567 -1.5434
 3688SOL    HW222698   4.409   0.295   6.800  1.4085  1.1087  0.7679
 3689SOL     OW22699   1.763   2.027  16.849  0.0623  0.4194  0.2067
 3689SOL    HW122700   1.672   2.054  16.838  0.2448 -0.1681 -2.8558
 3689SOL    HW222701   1.807   2.112  16.841  0.1836  0.2821 -0.6363
 3690SOL     OW22702   0.476   1.605   9.385  0.1344  0.2953 -0.3859
 3690SOL    HW122703   0.496   1.678   9.445 -0.6931 -0.3376  0.6535
 3690SOL    HW222704   0.430   1.656   9.319 -1.6783  1.0789  1.4757
 3691SOL     OW22705   0.374   3.632   9.311 -0.5785  0.2565 -1.0516
 3691SOL    HW122706   0.400   3.583   9.389 -0.6592  0.3460 -0.9684
 3691SOL    HW222707   0.310   3.568   9.281  0.3846 -1.5322  0.7133
 3692SOL     OW22708   3.335   3.395   3.871  0.7735  0.0001 -0.3205
 3692SOL    HW122709   3.333   3.381   3.776 -0.1953 -0.4308 -0.2332
 3692SOL    HW222710   3.291   3.480   3.876 -1.4238 -0.8264 -4.9036
 3693SOL     OW22711   0.697   0.314   3.489 -0.0935  0.2265  0.1829
 3693SOL    HW122712   0.648   0.232   3.480  0.3576  0.2139 -2.2944
 3693SOL    HW222713   0.716   0.306   3.582 -1.3063  0.4565  0.4436
 3694SOL     OW22714   3.487   2.967  11.818  0.7300 -0.1402 -0.5224
 3694SOL    HW122715   3.558   3.016  11.778  0.4845 -0.6908 -1.6266
 3694SOL    HW222716   3.535   2.904  11.872 -1.4062 -1.4696 -0.1258
 3695SOL     OW22717   2.845   3.834  15.364 -0.4968  0.0784  0.1532
 3695SOL    HW122718   2.777   3.900  15.352 -1.7939 -1.6963 -2.2229
 3695SOL    HW222719   2.837   3.783  15.284  0.5050  1.2079 -0.6471
 3696SOL     OW22720   3.231   2.741   0.182  0.7443 -0.0888 -0.4406
 3696SOL    HW122721   3.270   2.806   0.241 -0.8349  2.0296 -1.7137
 3696SOL    HW222722   3.186   2.783   0.108  1.1279  0.6756 -0.2449
 3697SOL     OW22723   0.485   1.057   1.273 -0.2708 -0.0266 -0.8261
 3697SOL    HW122724   0.413   1.116   1.295  1.0611  0.4710  2.2500
 3697SOL    HW222725   0.530   1.098   1.199  0.8264  1.0116  0.4073
 3698SOL     OW22726   3.086   2.288  11.742  0.3759  0.4372 -0.0374
 3698SOL    HW122727   3.132   2.252  11.818  1.0494  2.3168  0.4291
 3698SOL    HW222728   3.066   2.199  11.713 -1.5702  0.9163 -0.1674
 3699SOL     OW22729   3.838   2.037  16.517  0.0377  0.0554 -0.5940
 3699SOL    HW122730   3.746   2.020  16.535 -0.2404  2.7776  0.6072
 3699SOL    HW222731   3.838   1.980  16.440 -0.0743  0.2828 -0.7607
 3700SOL     OW22732   0.084   1.278   6.400  0.4940  0.6322 -0.2036
 3700SOL    HW122733   0.098   1.329   6.320  1.6217 -0.5797 -0.7813
 3700SOL    HW222734   0.003   1.313   6.437 -0.6700 -3.1601  0.8479
 3701SOL     OW22735   0.714   4.539   1.782  0.1942  0.1563  0.4604
 3701SOL    HW122736   0.672   4.458   1.812  2.4801 -1.2102  0.0124
 3701SOL    HW222737   0.661   4.546   1.703  0.2059  2.0066  0.6228
 3702SOL     OW22738   3.456   0.553  12.286  0.0436  0.6476  1.2188
 3702SOL    HW122739   3.519   0.592  12.346 -0.8104  3.5461  0.2213
 3702SOL    HW222740   3.372   0.578  12.324  0.1047 -0.1634  1.8868
 3703SOL     OW22741   4.290   2.487   4.618  0.0953  0.0662  0.2137
 3703SOL    HW122742   4.203   2.454   4.595 -0.1424 -0.1909  1.4417
 3703SOL    HW222743   4.299   2.450   4.706 -2.4502  0.3075  0.5620
 3704SOL     OW22744   2.547   4.153   2.760  0.1807  0.5219 -0.4488
 3704SOL    HW122745   2.602   4.228   2.781  1.9202 -0.5128 -1.3305
 3704SOL    HW222746   2.609   4.099   2.711  0.8565  0.3335  0.6112
 3705SOL     OW22747   0.588   4.037   6.541 -0.0785 -0.0541 -0.0495
 3705SOL    HW122748   0.613   4.056   6.631 -1.2351  1.4510 -0.0368
 3705SOL    HW222749   0.671   4.010   6.502  0.3316  0.3778  0.5212
 3706SOL     OW22750   0.274   2.644  13.940  0.0073 -0.7724 -0.0954
 3706SOL    HW122751   0.356   2.626  13.987 -1.7372 -1.8748  2.5359
 3706SOL    HW222752   0.232   2.706  14.000 -1.4045 -0.9834 -0.8566
 3707SOL     OW22753   0.093   2.638   7.697 -0.3636  0.6469  0.3076
 3707SOL    HW122754   0.155   2.691   7.647  0.9992 -0.2146  1.0945
 3707SOL    HW222755   0.010   2.665   7.657  0.4946 -0.1763 -2.0153
 3708SOL     OW22756   2.454   0.561   4.518 -0.4533  0.1660  0.7422
 3708SOL    HW122757   2.548   0.561   4.506 -0.6571  2.4317 -0.7754
 3708SOL    HW222758   2.419   0.476   4.491 -0.4607  0.7384 -1.0145
 3709SOL     OW22759   3.621   4.712   2.104 -0.2646  0.4796 -0.6416
 3709SOL    HW122760   3.589   4.624   2.082 -0.4386 -0.3028  2.7761
 3709SOL    HW222761   3.652   4.710   2.194 -1.0473 -0.5756 -0.3901
 3710SOL     OW22762   0.488   2.945   9.061  0.0851 -0.2783  0.8341
 3710SOL    HW122763   0.451   3.014   9.006  1.4276 -1.1965 -1.1841
 3710SOL    HW222764   0.430   2.932   9.136 -0.5325 -2.8800 -0.0838
 3711SOL     OW22765   2.264   1.952   8.396 -0.1082 -0.4434  0.1919
 3711SOL    HW122766   2.272   1.899   8.475  0.6933 -0.6694 -0.0379
 3711SOL    HW222767   2.317   1.896   8.339  2.0697  1.8093  0.0373
 3712SOL     OW22768   3.666   1.866   1.903  0.1560 -0.1166  0.8091
 3712SOL    HW122769   3.647   1.939   1.844  2.7834 -0.7024 -0.7793
 3712SOL    HW222770   3.753   1.890   1.937  1.1302 -2.1439 -0.2664
 3713SOL     OW22771   3.747   1.990   6.433 -0.3850 -0.2457 -0.1684
 3713SOL    HW122772   3.758   1.907   6.481  2.5584 -0.7530 -1.7493
 3713SOL    HW222773   3.655   1.977   6.412 -0.3863  2.5928 -1.8765
 3714SOL     OW22774   3.638   3.193  14.511 -0.2401 -0.1881 -0.5546
 3714SOL    HW122775   3.543   3.184  14.520  0.1030 -2.9718  0.1879
 3714SOL    HW222776   3.656   3.115  14.458  1.2828 -1.7135  2.1996
 3715SOL     OW22777   3.775   4.564   8.374  0.0920 -0.8250  0.3849
 3715SOL    HW122778   3.783   4.659   8.385 -0.5440 -0.5625 -1.4812
 3715SOL    HW222779   3.780   4.556   8.279 -3.5629  2.2927 -0.0827
 3716SOL     OW22780   0.832   3.852   2.439 -0.2398 -0.6714  0.1483
 3716SOL    HW122781   0.835   3.812   2.526  1.4966 -0.0305  0.3861
 3716SOL    HW222782   0.786   3.781   2.394 -1.6409  1.3616 -1.6234
 3717SOL     OW22783   4.702   3.582  17.450  0.2081 -0.2364 -0.8968
 3717SOL    HW122784   4.671   3.673  17.448 -0.7658 -0.5107  2.0088
 3717SOL    HW222785   4.619   3.534  17.456 -0.0847  0.5695  1.5449
 3718SOL     OW22786   4.355   4.232   3.788 -0.4527  0.1375  0.1148
 3718SOL    HW122787   4.377   4.241   3.696  3.8215 -2.4558  0.8585
 3718SOL    HW222788   4.263   4.208   3.784 -0.4202  0.3524 -2.0446
 3719SOL     OW22789   0.711   4.555   8.748 -0.6176 -0.1339 -0.2987
 3719SOL    HW122790   0.795   4.567   8.704 -0.4841 -1.0427 -0.2807
 3719SOL    HW222791   0.672   4.642   8.742  1.9650  1.1601  1.9611
 3720SOL     OW22792   3.543   3.142   7.978  0.3015 -0.0632 -0.2960
 3720SOL    HW122793   3.488   3.096   8.041  1.4785 -1.1756 -0.0872
 3720SOL    HW222794   3.608   3.191   8.029 -2.4927  2.0313  1.2458
 3721SOL     OW22795   2.791   2.831   3.177 -0.7021  0.0874 -0.1715
 3721SOL    HW122796   2.886   2.820   3.181 -0.7397 -0.1042  0.1841
 3721SOL    HW222797   2.761   2.876   3.256  0.1210  0.5157 -0.1104
 3722SOL     OW22798   2.921   2.853   6.651  0.1752  0.3842 -0.4607
 3722SOL    HW122799   2.969   2.784   6.607  1.9701  1.4496 -0.1648
 3722SOL    HW222800   2.989   2.918   6.668  0.4617 -0.3532  1.1307
 3723SOL     OW22801   1.794   0.852  11.184  0.4601  0.5761 -0.3933
 3723SOL    HW122802   1.799   0.818  11.274  1.7316 -0.6787 -0.9460
 3723SOL    HW222803   1.754   0.784  11.132  0.8798 -0.0318  0.0749
 3724SOL     OW22804   1.756   4.521   5.807  0.5531  0.3376  0.1444
 3724SOL    HW122805   1.681   4.465   5.787  3.8026 -3.1630 -2.1651
 3724SOL    HW222806   1.726   4.610   5.789  0.8734  0.2577 -0.7628
 3725SOL     OW22807   2.824   2.517   5.734 -0.2566  0.3813 -0.1343
 3725SOL    HW122808   2.866   2.511   5.819 -0.9861 -2.5893  0.0040
 3725SOL    HW222809   2.742   2.468   5.738  0.1200 -0.3588 -1.5857
 3726SOL     OW22810   2.254   4.095   3.922  0.0460 -0.1798  0.0730
 3726SOL    HW122811   2.307   4.116   3.845 -1.2778  0.2482 -0.7331
 3726SOL    HW222812   2.230   4.184   3.950  1.8956  1.2014 -2.7437
 3727SOL     OW22813   4.101   3.584  12.830 -0.1940  0.0013  0.0486
 3727SOL    HW122814   4.102   3.515  12.764 -4.3059 -0.7234  0.7353
 3727SOL    HW222815   4.164   3.549  12.893 -0.0970 -1.4316 -0.8448
 3728SOL     OW22816   2.511   3.001  15.199  0.7628  0.1186  0.0416
 3728SOL    HW122817   2.558   3.004  15.283  0.2942  1.6475  0.2455
 3728SOL    HW222818   2.579   3.034  15.141  0.0242  0.1811 -0.7804
 3729SOL     OW22819   1.984   0.630   6.807  0.1670  0.3674 -0.6715
 3729SOL    HW122820   1.910   0.668   6.760 -0.1906 -0.7718 -1.0157
 3729SOL    HW222821   1.965   0.538   6.788  3.7953 -0.6451  0.6445
 3730SOL     OW22822   1.053   3.564   7.904  0.2818 -0.1037  0.2339
 3730SOL    HW122823   1.118   3.625   7.868  0.7954 -0.7461  0.0756
 3730SOL    HW222824   1.105   3.504   7.958  2.2283  0.2952 -1.1987
 3731SOL     OW22825   3.899   4.603   5.982  0.0833 -0.0949  0.1034
 3731SOL    HW122826   3.925   4.533   6.041  1.5929  0.5485  0.1926
 3731SOL    HW222827   3.864   4.675   6.034 -1.4959 -0.0981 -0.9340
 3732SOL     OW22828   0.938   1.799   0.094 -0.3928  0.1956  0.3219
 3732SOL    HW122829   0.892   1.717   0.078  0.1558 -0.2276  0.8990
 3732SOL    HW222830   1.026   1.764   0.079 -0.3979 -0.5379  2.0488
 3733SOL     OW22831   3.308   2.583   8.582  0.1555 -0.2832  0.9257
 3733SOL    HW122832   3.281   2.501   8.625  0.5400  0.4841  2.6432
 3733SOL    HW222833   3.375   2.546   8.526  0.4273  0.6479  0.6384
 3734SOL     OW22834   0.815   3.342   9.333  0.1994 -0.5547 -0.4869
 3734SOL    HW122835   0.743   3.281   9.320  0.8647 -1.5684  0.6695
 3734SOL    HW222836   0.776   3.423   9.368  1.6604 -0.3249  0.6073
 3735SOL     OW22837   2.271   3.816   8.450 -0.3476 -0.0483 -0.4420
 3735SOL    HW122838   2.274   3.725   8.419 -0.5863  0.0440 -0.7385
 3735SOL    HW222839   2.205   3.804   8.518  0.4036 -0.5353  0.2053
 3736SOL     OW22840   0.041   2.717   5.433  0.1934  0.4518 -0.4872
 3736SOL    HW122841   4.696   2.735   5.388 -1.1217 -1.2735  1.2475
 3736SOL    HW222842   0.068   2.803   5.466  0.2185 -0.3293  1.5821
 3737SOL     OW22843   4.341   3.147   7.889 -0.3097  0.4670 -0.5276
 3737SOL    HW122844   4.258   3.118   7.926  0.5495 -0.4651  0.6751
 3737SOL    HW222845   4.393   3.077   7.929 -0.7037 -1.3131 -3.0879
 3738SOL     OW22846   0.669   3.962   8.519 -0.2678  0.1136 -0.0141
 3738SOL    HW122847   0.669   4.008   8.603 -1.5661  2.3186 -1.2305
 3738SOL    HW222848   0.611   3.896   8.559 -2.0834  0.2163 -2.4842
 3739SOL     OW22849   0.531   2.820  15.334  0.4272 -0.0378 -0.3843
 3739SOL    HW122850   0.505   2.836  15.424  1.3561 -0.8634  0.0303
 3739SOL    HW222851   0.446   2.804  15.292  0.1283  0.7182 -0.0611
 3740SOL     OW22852   0.053   2.713   4.770 -0.2414  0.2617  0.0134
 3740SOL    HW122853   0.030   2.647   4.705 -2.3271  1.7331 -0.7040
 3740SOL    HW222854   0.006   2.792   4.744 -1.1453  0.5184  2.3712
 3741SOL     OW22855   0.390   2.850   0.304 -0.1094 -0.0936  0.4658
 3741SOL    HW122856   0.325   2.888   0.245  1.7854 -0.9871 -2.2145
 3741SOL    HW222857   0.384   2.758   0.276 -1.3760  0.0812  0.1777
 3742SOL     OW22858   3.771   0.392   6.358 -0.0275 -0.4503 -0.3798
 3742SOL    HW122859   3.848   0.376   6.303  0.1003  2.1907 -0.9778
 3742SOL    HW222860   3.736   0.303   6.354 -2.6413  0.5518  0.0977
 3743SOL     OW22861   0.343   2.068  12.848 -0.1113  0.2461  0.2206
 3743SOL    HW122862   0.427   2.024  12.857  0.7287  1.9120  0.5284
 3743SOL    HW222863   0.310   2.048  12.936 -0.0200 -1.6050 -0.1698
 3744SOL     OW22864   0.151   3.097   9.955  0.0248 -0.0174  0.1268
 3744SOL    HW122865   0.243   3.110   9.979 -0.2080 -0.3305  1.1688
 3744SOL    HW222866   0.105   3.139  10.027  0.5246  1.8007 -0.6053
 3745SOL     OW22867   2.234   4.169   3.246 -0.2749 -0.0087 -0.4356
 3745SOL    HW122868   2.163   4.137   3.190  0.2303 -1.3769 -0.2916
 3745SOL    HW222869   2.309   4.149   3.191 -0.4775 -2.3798  0.1436
 3746SOL     OW22870   2.957   0.630   9.281  0.2179 -0.2891 -0.2757
 3746SOL    HW122871   2.872   0.598   9.312  0.4985  0.3447  1.1579
 3746SOL    HW222872   2.944   0.722   9.260  1.0708 -0.1024  0.0281
 3747SOL     OW22873   0.986   3.855   0.316  0.5099  0.4879 -0.4053
 3747SOL    HW122874   0.976   3.832   0.408  0.0813 -1.4126 -0.9284
 3747SOL    HW222875   1.000   3.771   0.272 -2.5761 -0.6613  0.8530
 3748SOL     OW22876   1.901   0.266   9.132 -0.0349  0.1301 -0.2922
 3748SOL    HW122877   1.978   0.281   9.077 -2.1825  0.0476 -3.3196
 3748SOL    HW222878   1.908   0.171   9.144  1.1457 -0.0132 -2.1466
 3749SOL     OW22879   4.360   2.281   2.927 -0.0718  0.2445  0.7011
 3749SOL    HW122880   4.430   2.271   2.992  0.2110 -1.1789  0.1771
 3749SOL    HW222881   4.284   2.300   2.983 -1.1086  0.3226 -0.7361
 3750SOL     OW22882   0.880   1.642  14.811 -0.2990 -0.4409 -0.3957
 3750SOL    HW122883   0.969   1.631  14.776  0.1116 -0.4101  0.6371
 3750SOL    HW222884   0.869   1.551  14.838  3.0863  0.4654  3.8817
 3751SOL     OW22885   3.100   0.530  16.662  0.5570  0.0002  0.0674
 3751SOL    HW122886   3.060   0.597  16.718 -1.8889 -0.6294 -0.9504
 3751SOL    HW222887   3.124   0.462  16.725 -2.8632  0.1141  1.4981
 3752SOL     OW22888   0.325   1.530   1.354 -0.0353 -0.3319 -0.1252
 3752SOL    HW122889   0.396   1.589   1.328  1.7022 -2.2080  0.3346
 3752SOL    HW222890   0.326   1.548   1.448 -0.1216  0.7494 -0.3311
 3753SOL     OW22891   2.280   3.679   3.571 -0.1710  0.2097 -0.3144
 3753SOL    HW122892   2.374   3.663   3.567 -0.0308  0.8686  0.2541
 3753SOL    HW222893   2.274   3.755   3.629  1.8089 -1.0716  1.5916
 3754SOL     OW22894   0.731   2.842   9.734 -0.1953 -0.0285  0.2956
 3754SOL    HW122895   0.714   2.787   9.657 -0.5540  0.2656  0.1615
 3754SOL    HW222896   0.709   2.930   9.703 -0.1891  0.1621  0.8421
 3755SOL     OW22897   1.372   0.252   9.689 -0.5401 -0.6723 -0.5291
 3755SOL    HW122898   1.286   0.223   9.719 -1.2516  2.2484  0.2275
 3755SOL    HW222899   1.374   0.346   9.709  1.7111 -0.4394 -1.7705
 3756SOL     OW22900   4.388   0.572   2.539 -0.2403  0.2497 -0.2069
 3756SOL    HW122901   4.338   0.579   2.621  1.3571  0.6610  0.7412
 3756SOL    HW222902   4.361   0.648   2.487 -1.0878 -1.3177 -2.0314
 3757SOL     OW22903   0.290   2.313  16.187  0.2525 -0.1432 -0.2658
 3757SOL    HW122904   0.239   2.358  16.254  1.5809 -0.0687  0.6987
 3757SOL    HW222905   0.371   2.287  16.231  0.2192  0.6095  0.2399
 3758SOL     OW22906   4.671   3.238   9.538 -0.2898  0.3246  0.1440
 3758SOL    HW122907   4.607   3.195   9.483  0.5472 -2.0855  1.0652
 3758SOL    HW222908   4.713   3.173   9.595  1.8797  0.6449 -1.0709
 3759SOL     OW22909   1.714   2.409   4.430 -0.2217 -0.1722  0.0553
 3759SOL    HW122910   1.749   2.437   4.346  2.6688  0.2140  1.3796
 3759SOL    HW222911   1.635   2.362   4.402 -0.2892 -1.0383  1.6557
 3760SOL     OW22912   2.496   3.621  14.850 -0.3106 -0.4088  0.4038
 3760SOL    HW122913   2.533   3.671  14.923 -0.0412  1.1666 -0.8192
 3760SOL    HW222914   2.529   3.534  14.871 -2.6217 -1.4223 -0.1220
 3761SOL     OW22915   2.111   3.383  14.041  0.1272  0.5241  0.1721
 3761SOL    HW122916   2.106   3.446  13.970  0.8670 -0.6092 -0.8945
 3761SOL    HW222917   2.146   3.449  14.101 -2.3485  1.9678  0.0169
 3762SOL     OW22918   2.665   4.641   6.672 -0.1366  0.3174  0.0970
 3762SOL    HW122919   2.587   4.598   6.707  0.6437 -2.0035 -1.0170
 3762SOL    HW222920   2.723   4.567   6.651 -0.2454 -0.1841  1.5773
 3763SOL     OW22921   1.391   3.185   1.185  0.2268 -0.7614  0.4510
 3763SOL    HW122922   1.462   3.249   1.176 -1.3628  0.6094 -1.9402
 3763SOL    HW222923   1.420   3.106   1.140 -0.8916  0.3958 -2.2820
 3764SOL     OW22924   0.610   2.186  14.231 -0.2139 -0.6754  0.0536
 3764SOL    HW122925   0.696   2.166  14.268 -0.1324 -0.5825 -0.0876
 3764SOL    HW222926   0.579   2.095  14.222 -1.1616 -0.3704  0.2401
 3765SOL     OW22927   1.355   3.019   0.840  0.0542 -0.2034 -0.5345
 3765SOL    HW122928   1.329   3.017   0.747 -1.9378  1.1976  0.0002
 3765SOL    HW222929   1.335   2.928   0.864 -1.8317  0.9013  2.0482
 3766SOL     OW22930   3.535   2.989   2.037  0.0933 -0.7389  0.1161
 3766SOL    HW122931   3.628   2.978   2.056  0.0109  0.3579  1.1412
 3766SOL    HW222932   3.502   2.922   2.096 -0.6497 -0.4975 -0.0132
 3767SOL     OW22933   3.640   3.743   7.930  0.3545  0.0746 -0.6672
 3767SOL    HW122934   3.627   3.707   8.018 -1.1041 -3.1093 -2.1969
 3767SOL    HW222935   3.732   3.724   7.917  0.5463 -1.1384  2.5779
 3768SOL     OW22936   4.718   3.280   0.635  0.2501 -0.0096  0.1567
 3768SOL    HW122937   4.725   3.192   0.670  2.2947  0.3794  0.7315
 3768SOL    HW222938   4.648   3.276   0.571 -0.1174 -1.9963  0.7001
 3769SOL     OW22939   4.480   3.730  10.083  0.0683  0.7130  0.8696
 3769SOL    HW122940   4.432   3.756  10.004 -0.7810  0.9911  1.4662
 3769SOL    HW222941   4.570   3.749  10.059  0.2243 -0.3074  0.6591
 3770SOL     OW22942   4.582   0.816   2.700 -0.0436  0.5150  0.1048
 3770SOL    HW122943   4.533   0.798   2.620  0.5989 -1.7705  0.2288
 3770SOL    HW222944   4.566   0.735   2.748 -0.5138  0.6474  0.1727
 3771SOL     OW22945   2.080   4.203   7.436 -0.5484 -0.1097 -0.2737
 3771SOL    HW122946   2.101   4.161   7.352 -1.4904  0.4932 -0.8108
 3771SOL    HW222947   2.005   4.259   7.416 -0.5500  1.0057  2.7842
 3772SOL     OW22948   0.412   2.834   2.483  0.4123 -0.0044 -0.1988
 3772SOL    HW122949   0.358   2.892   2.537 -0.1054 -0.9586  0.2938
 3772SOL    HW222950   0.352   2.764   2.459 -1.2069  1.1726  0.3780
 3773SOL     OW22951   0.214   0.118   5.397  0.1244  0.5304 -0.4091
 3773SOL    HW122952   0.174   0.199   5.366  0.6731  1.2943  0.8941
 3773SOL    HW222953   0.156   0.054   5.356 -0.6040 -0.4274  2.1407
 3774SOL     OW22954   3.012   4.444   7.397 -0.6289 -0.6669 -0.3664
 3774SOL    HW122955   2.925   4.412   7.420 -0.8464 -1.3312 -2.1253
 3774SOL    HW222956   2.992   4.537   7.390 -0.6081 -0.5642  0.8806
 3775SOL     OW22957   4.123   2.527   3.881 -0.1881  0.2127  0.2643
 3775SOL    HW122958   4.058   2.458   3.880  0.1943 -0.1762  2.5981
 3775SOL    HW222959   4.202   2.494   3.923 -0.2041 -1.5782 -1.1275
 3776SOL     OW22960   2.128   3.115   3.132  0.2674 -0.3478 -0.1085
 3776SOL    HW122961   2.149   3.083   3.220 -0.3918  0.7875  0.4653
 3776SOL    HW222962   2.100   3.033   3.091  2.3889 -2.1901  2.0873
 3777SOL     OW22963   3.046   4.720   0.626 -0.3670  0.5909 -0.0077
 3777SOL    HW122964   3.019   0.033   0.549 -1.3069  1.6277  0.9850
 3777SOL    HW222965   3.079   0.053   0.682 -1.1289  1.2689 -0.3999
 3778SOL     OW22966   0.605   4.702   6.330  0.2705  0.1804  0.3196
 3778SOL    HW122967   0.649   0.034   6.378 -0.2071 -0.7346  2.1184
 3778SOL    HW222968   0.616   4.728   6.239 -1.1062  0.7229  0.3196
 3779SOL     OW22969   4.694   4.257   0.174  0.0520  0.3303  0.1955
 3779SOL    HW122970   4.715   4.173   0.135 -0.6507 -0.2154  1.0000
 3779SOL    HW222971   4.652   4.226   0.254  0.8630  0.3238  0.6209
 3780SOL     OW22972   0.362   1.967   4.516  0.1351 -0.2419 -0.3099
 3780SOL    HW122973   0.367   1.935   4.426  1.6223 -2.0132  0.3819
 3780SOL    HW222974   0.411   2.049   4.508 -1.2653  0.5176 -1.0073
 3781SOL     OW22975   0.402   4.500   2.969  0.4546 -0.4118  0.1965
 3781SOL    HW122976   0.357   4.584   2.956  0.5668 -0.6374 -1.7634
 3781SOL    HW222977   0.332   4.435   2.976 -2.4384  2.5258 -1.2207
 3782SOL     OW22978   1.946   2.745  12.905 -0.1441 -0.2042 -1.2210
 3782SOL    HW122979   1.971   2.718  12.993 -1.2241  2.2603 -0.1503
 3782SOL    HW222980   1.897   2.825  12.927  0.1909 -0.3829  0.1861
 3783SOL     OW22981   1.014   2.992   3.193  0.2321  0.1257 -0.0925
 3783SOL    HW122982   0.922   2.969   3.189  0.4086 -0.5993  0.0910
 3783SOL    HW222983   1.006   3.085   3.214  1.4075  0.2220 -0.0466
 3784SOL     OW22984   0.120   1.369  15.259 -0.3471 -0.1791  0.2357
 3784SOL    HW122985   0.134   1.276  15.237 -0.0353 -0.6584  2.4895
 3784SOL    HW222986   0.071   1.394  15.180 -0.0872 -1.0080 -0.1967
 3785SOL     OW22987   3.691   4.037  11.365  0.3793  0.1828 -0.0777
 3785SOL    HW122988   3.726   3.975  11.301  0.1503  1.5159 -1.4978
 3785SOL    HW222989   3.654   3.980  11.432 -1.6855 -0.7126 -1.9682
 3786SOL     OW22990   4.560   0.626   8.643  0.2477  0.1133 -0.0964
 3786SOL    HW122991   4.605   0.709   8.663  0.6913 -0.6821  2.2461
 3786SOL    HW222992   4.501   0.614   8.717 -0.5028 -0.7704 -0.8489
 3787SOL     OW22993   2.585   3.326   9.728 -0.5420 -0.4588  0.0985
 3787SOL    HW122994   2.600   3.419   9.745  2.9027 -0.9354 -0.4390
 3787SOL    HW222995   2.639   3.305   9.652 -0.8687  2.6984 -1.0154
 3788SOL     OW22996   2.181   2.809   8.097 -0.2702 -0.7166  0.5284
 3788SOL    HW122997   2.261   2.785   8.144  1.4981  1.8930 -1.1776
 3788SOL    HW222998   2.183   2.771   8.010 -1.5774 -0.4642  0.3794
 3789SOL     OW22999   2.171   2.425   6.510 -0.2819  0.1502 -0.5069
 3789SOL    HW123000   2.249   2.372   6.519  1.6272  3.4537  2.7817
 3789SOL    HW223001   2.195   2.483   6.438  1.0511 -0.5394 -0.6017
 3790SOL     OW23002   2.381   1.500   6.515  0.9391  0.2644 -0.2055
 3790SOL    HW123003   2.428   1.442   6.575  1.0571  0.5584 -0.0138
 3790SOL    HW223004   2.444   1.570   6.528  0.3103  0.8417 -0.2363
 3791SOL     OW23005   1.783   0.942  15.708 -0.1830 -0.2690  0.3631
 3791SOL    HW123006   1.716   0.914  15.646  1.0764 -0.9783 -0.6744
 3791SOL    HW223007   1.733   1.010  15.753  0.0583 -1.2766  2.1906
 3792SOL     OW23008   4.079   0.162   8.885  0.3396 -0.0709 -0.0432
 3792SOL    HW123009   4.170   0.190   8.896  0.6221 -0.5446 -1.2111
 3792SOL    HW223010   4.057   0.219   8.812 -1.1223  1.0010  1.2326
 3793SOL     OW23011   3.058   1.681   8.519 -0.2591  0.3547 -0.3751
 3793SOL    HW123012   3.057   1.589   8.542  1.1899  1.1003  2.6948
 3793SOL    HW223013   3.106   1.722   8.591 -2.3393  1.7510  0.2223
 3794SOL     OW23014   1.438   0.696   1.094  0.2251  0.0773 -0.2270
 3794SOL    HW123015   1.513   0.665   1.044 -0.4251  0.1018 -1.2334
 3794SOL    HW223016   1.395   0.611   1.104 -1.7843  1.2667  1.1764
 3795SOL     OW23017   4.155   1.951   1.982 -0.2580 -0.2166  0.1330
 3795SOL    HW123018   4.116   1.933   2.067 -1.9015 -2.1660 -1.0344
 3795SOL    HW223019   4.219   2.019   1.999 -0.5533  0.9214 -3.3168
 3796SOL     OW23020   1.478   1.309  10.877 -0.2888 -0.0381 -0.4409
 3796SOL    HW123021   1.389   1.344  10.882  0.4616  1.6436  1.2221
 3796SOL    HW223022   1.495   1.299  10.970 -1.9750 -1.0237 -0.2354
 3797SOL     OW23023   3.210   2.378   2.028 -0.5227 -0.2373 -0.1106
 3797SOL    HW123024   3.191   2.284   2.026  1.3689 -0.6161 -0.0424
 3797SOL    HW223025   3.237   2.385   2.120  2.9723  1.1464 -1.2138
 3798SOL     OW23026   3.133   2.838   8.160  0.0672  0.0557 -0.5736
 3798SOL    HW123027   3.155   2.783   8.235 -1.8564 -0.2680 -0.2388
 3798SOL    HW223028   3.092   2.775   8.100  1.2249 -1.0657 -0.1778
 3799SOL     OW23029   4.470   1.886   3.518 -0.0240  0.4749 -0.1590
 3799SOL    HW123030   4.511   1.887   3.431  0.9763 -1.2973  0.2868
 3799SOL    HW223031   4.436   1.975   3.525  1.2528  1.0233 -0.8490
 3800SOL     OW23032   4.488   1.689   9.405  0.4593  0.3743  0.1370
 3800SOL    HW123033   4.524   1.602   9.422 -2.0306 -1.1645 -2.4941
 3800SOL    HW223034   4.555   1.751   9.434 -0.1484  0.5289  1.2207
 3801SOL     OW23035   0.498   1.323   6.069 -0.0140  0.1641  0.7043
 3801SOL    HW123036   0.550   1.258   6.021  0.3493 -1.4004  3.2577
 3801SOL    HW223037   0.565   1.383   6.103  0.4793 -0.4763  0.8554
 3802SOL     OW23038   3.936   2.839   7.381  0.5315  0.2816 -0.0534
 3802SOL    HW123039   3.951   2.787   7.460  1.5291  2.0710  0.9214
 3802SOL    HW223040   4.018   2.820   7.335  0.2873 -0.8488 -0.0191
 3803SOL     OW23041   3.576   2.182   6.121 -0.3942 -0.0829 -0.5586
 3803SOL    HW123042   3.557   2.166   6.029  2.7038  3.5586 -1.8295
 3803SOL    HW223043   3.664   2.220   6.119 -1.4450  2.4061  0.7672
 3804SOL     OW23044   1.695   3.653   3.877 -0.4086  0.3444 -0.1090
 3804SOL    HW123045   1.659   3.574   3.917 -1.5939  1.1677  0.4315
 3804SOL    HW223046   1.657   3.717   3.938 -0.5370 -0.5874  0.7902
 3805SOL     OW23047   2.572   2.839   9.672 -0.1072  0.9835 -0.7471
 3805SOL    HW123048   2.499   2.874   9.622  0.3951 -0.2676 -2.3617
 3805SOL    HW223049   2.639   2.896   9.634  1.0466 -0.0675 -0.2995
 3806SOL     OW23050   2.864   4.733  17.187  0.4411 -0.2107  0.2278
 3806SOL    HW123051   2.864   0.013  17.093  1.9880  1.3847  0.5261
 3806SOL    HW223052   2.946   4.686  17.203 -0.5010 -2.5022 -1.6021
 3807SOL     OW23053   3.679   1.302   8.050  0.3363  0.0242 -0.3758
 3807SOL    HW123054   3.596   1.270   8.085 -0.3542 -1.8678 -3.7092
 3807SOL    HW223055   3.703   1.377   8.105  1.4938 -0.7342  0.1489
 3808SOL     OW23056   2.991   4.625   5.892 -0.3149 -0.5492 -0.6320
 3808SOL    HW123057   3.054   4.698   5.889 -0.5013 -0.3326  0.6300
 3808SOL    HW223058   2.911   4.671   5.919 -0.1795 -0.5038 -0.3035
 3809SOL     OW23059   3.223   0.502   7.646 -0.4504 -0.9402  0.0776
 3809SOL    HW123060   3.210   0.581   7.593 -1.0360 -0.5526  0.8121
 3809SOL    HW223061   3.271   0.448   7.582 -0.6743 -0.9655 -0.0688
 3810SOL     OW23062   1.871   3.854   1.285 -0.7574  0.2768  0.4057
 3810SOL    HW123063   1.903   3.836   1.196  0.2980  2.4566  0.3537
 3810SOL    HW223064   1.840   3.765   1.306 -1.3963  0.3012 -0.4257
 3811SOL     OW23065   3.378   2.802   5.947  0.0155  0.0100 -0.3374
 3811SOL    HW123066   3.423   2.843   5.873 -1.3763  0.3453 -0.9838
 3811SOL    HW223067   3.344   2.717   5.916 -1.8558  0.3887  0.6855
 3812SOL     OW23068   1.949   4.169   3.909 -0.3347  0.4683  0.5673
 3812SOL    HW123069   1.947   4.134   3.820  0.3369 -2.0004  1.5083
 3812SOL    HW223070   1.868   4.218   3.919 -0.7818 -0.7289  2.8343
 3813SOL     OW23071   2.005   2.790   1.847 -0.2565 -0.2200 -0.5052
 3813SOL    HW123072   1.996   2.744   1.764  0.9657 -1.7221  0.1857
 3813SOL    HW223073   2.027   2.725   1.914 -1.0985 -0.0805 -0.0874
 3814SOL     OW23074   3.159   0.825  13.444  0.3320 -0.2618  0.4010
 3814SOL    HW123075   3.109   0.905  13.458  1.0935  0.4098 -0.6278
 3814SOL    HW223076   3.230   0.863  13.392  0.9261 -3.0516 -0.8530
 3815SOL     OW23077   3.988   2.320  14.609 -0.0131  0.6135 -0.1923
 3815SOL    HW123078   4.031   2.293  14.528  2.2782  0.6960  1.0172
 3815SOL    HW223079   4.044   2.386  14.650 -0.9051  0.5398  1.1479
 3816SOL     OW23080   1.233   1.866   4.166 -0.0952 -0.4252 -0.5923
 3816SOL    HW123081   1.308   1.924   4.180 -0.4162  0.0589 -0.8769
 3816SOL    HW223082   1.157   1.914   4.197  0.4176  0.6254 -0.9624
 3817SOL     OW23083   2.321   3.086   1.644 -0.4156  0.4783  0.5993
 3817SOL    HW123084   2.332   3.055   1.734 -1.4891 -1.5702  0.0254
 3817SOL    HW223085   2.276   3.167   1.670  0.2032  0.7415  0.8599
 3818SOL     OW23086   2.001   2.696   5.245  0.0558 -0.1661  0.1803
 3818SOL    HW123087   1.960   2.616   5.212 -2.6087  1.3268 -0.0742
 3818SOL    HW223088   1.938   2.768   5.242  0.4874  0.2216  0.3917
 3819SOL     OW23089   0.285   0.161   1.420 -0.3077 -0.0974 -0.1669
 3819SOL    HW123090   0.351   0.095   1.399  0.7555  0.2841  2.0217
 3819SOL    HW223091   0.208   0.105   1.434 -0.4061 -0.4750 -2.2755
 3820SOL     OW23092   0.025   4.722  15.138 -0.3095  0.1659  0.3589
 3820SOL    HW123093   0.068   0.069  15.128  1.6336 -1.0219 -1.3142
 3820SOL    HW223094   4.708   4.737  15.060 -0.7731  1.0106  0.8435
 3821SOL     OW23095   3.938   0.165   5.818  0.0867  0.0383  0.3153
 3821SOL    HW123096   4.022   0.162   5.772 -0.3613  0.3274 -0.5240
 3821SOL    HW223097   3.929   0.074   5.848 -3.4091 -0.1811 -1.3789
 3822SOL     OW23098   3.909   4.656   8.755 -0.2118  0.3193 -0.2560
 3822SOL    HW123099   3.900   4.730   8.814 -0.1888  1.3666 -1.5823
 3822SOL    HW223100   3.822   4.617   8.761 -0.5018  0.6407 -2.4169
 3823SOL     OW23101   1.301   2.476   5.549  0.2949 -0.2108  0.2929
 3823SOL    HW123102   1.341   2.533   5.614  0.1373 -1.3047  1.3650
 3823SOL    HW223103   1.350   2.394   5.554 -0.3156 -0.6458 -0.7690
 3824SOL     OW23104   2.801   2.469   1.361  0.2993 -0.0368  0.3849
 3824SOL    HW123105   2.786   2.415   1.439  0.7717  1.7247  1.6891
 3824SOL    HW223106   2.717   2.510   1.342  0.6433 -0.2071 -1.5132
 3825SOL     OW23107   1.810   4.707   7.436 -0.1956  0.0129 -0.2072
 3825SOL    HW123108   1.849   0.019   7.364  2.9384  0.6396  1.9331
 3825SOL    HW223109   1.745   0.030   7.472  0.8860  0.4287  1.0460
 3826SOL     OW23110   0.812   0.854   0.196 -0.6419  0.4217  0.5830
 3826SOL    HW123111   0.872   0.835   0.123  0.5676  0.1949  1.6427
 3826SOL    HW223112   0.872   0.864   0.270 -0.3056  0.2525  0.3348
 3827SOL     OW23113   0.801   3.237  17.559 -0.4665 -0.2436  0.3010
 3827SOL    HW123114   0.707   3.232  17.573  0.1064 -0.8001  3.8907
 3827SOL    HW223115   0.811   3.147  17.529 -1.0791  0.7895 -3.0323
 3828SOL     OW23116   4.077   1.558  10.488  0.1419 -0.6682  0.3546
 3828SOL    HW123117   4.103   1.644  10.523 -0.3414  0.0021 -0.9240
 3828SOL    HW223118   4.161   1.519  10.463 -0.0650 -2.1883  2.0513
 3829SOL     OW23119   3.640   2.011  17.469  0.1641  0.3943  0.5308
 3829SOL    HW123120   3.729   1.987  17.495  1.3346  1.8323 -2.1556
 3829SOL    HW223121   3.648   2.058  17.386  0.7388 -1.1033 -0.2677
 3830SOL     OW23122   4.273   3.249  14.954 -0.5440 -0.0222  0.0475
 3830SOL    HW123123   4.203   3.215  15.011 -0.7856 -1.8900 -1.3657
 3830SOL    HW223124   4.228   3.276  14.874  0.9047  1.3674 -0.2928
 3831SOL     OW23125   3.335   4.077  16.807 -0.3103  0.1433 -0.1931
 3831SOL    HW123126   3.317   4.102  16.897 -2.0193  1.2433 -0.8471
 3831SOL    HW223127   3.431   4.078  16.808 -0.2470 -3.7155  0.8233
 3832SOL     OW23128   3.518   1.895   2.134 -0.0076  0.0889  0.0566
 3832SOL    HW123129   3.562   1.850   2.206 -0.1304 -1.8246 -1.0519
 3832SOL    HW223130   3.577   1.896   2.058 -0.2125  1.2082 -0.0847
 3833SOL     OW23131   1.545   3.760   1.915  0.7935  0.1841 -0.0670
 3833SOL    HW123132   1.577   3.675   1.886 -2.6273 -0.3754 -2.2461
 3833SOL    HW223133   1.476   3.741   1.980 -0.7390  0.5861 -1.5765
 3834SOL     OW23134   3.903   3.274   6.185  0.2098  0.8288 -0.1356
 3834SOL    HW123135   3.852   3.305   6.110 -0.3763  0.5563  0.1545
 3834SOL    HW223136   3.879   3.333   6.257 -0.8140 -0.0864  0.2759
 3835SOL     OW23137   0.910   3.020   7.922  0.2470 -0.1230  0.1458
 3835SOL    HW123138   0.863   3.094   7.960 -0.0553 -0.6772  0.8487
 3835SOL    HW223139   0.905   2.951   7.988 -0.1642 -1.3543 -1.1858
 3836SOL     OW23140   3.227   2.250   6.926  0.1657  0.0110 -0.5049
 3836SOL    HW123141   3.138   2.280   6.904  0.4183  0.9732 -0.1964
 3836SOL    HW223142   3.247   2.197   6.849 -2.8004 -0.2023 -1.1523
 3837SOL     OW23143   1.977   1.698  16.882  0.0927 -0.3245  0.4179
 3837SOL    HW123144   2.019   1.710  16.797 -1.4545  0.7160 -0.2142
 3837SOL    HW223145   1.914   1.627  16.874  0.6413 -0.8001  0.3571
 3838SOL     OW23146   3.437   1.984   7.238 -0.0456  0.3377 -0.5353
 3838SOL    HW123147   3.531   1.999   7.243  0.0215 -0.0020 -0.7998
 3838SOL    HW223148   3.427   1.997   7.144  0.9841 -2.3659 -0.9853
 3839SOL     OW23149   1.096   3.255   7.377 -0.1566  0.9897 -1.0132
 3839SOL    HW123150   1.133   3.341   7.393 -0.1243  1.1876 -2.1283
 3839SOL    HW223151   1.163   3.214   7.432 -1.7062 -1.6346 -1.0670
 3840SOL     OW23152   2.473   3.442   5.493  0.2397 -0.2677  0.4153
 3840SOL    HW123153   2.466   3.471   5.402 -0.8685 -1.4719  0.1080
 3840SOL    HW223154   2.394   3.470   5.538  0.8771 -1.7453  2.4617
 3841SOL     OW23155   2.151   3.885  14.001 -0.5108 -0.0384  0.2593
 3841SOL    HW123156   2.119   3.799  13.975 -0.5437 -0.1332  0.6174
 3841SOL    HW223157   2.233   3.889  13.952 -0.5384  1.0924  0.2988
 3842SOL     OW23158   4.571   2.030   2.465  0.2394 -0.3040  0.2063
 3842SOL    HW123159   4.659   2.065   2.478 -0.8547  2.7209 -0.4512
 3842SOL    HW223160   4.592   1.945   2.426 -1.1897 -1.9935  3.1280
 3843SOL     OW23161   1.886   1.386   8.027  0.7539  0.2824 -0.1169
 3843SOL    HW123162   1.959   1.423   7.977  0.2537 -1.8143 -2.3891
 3843SOL    HW223163   1.845   1.468   8.055 -2.9931 -1.8763  0.6484
 3844SOL     OW23164   2.442   3.997   8.579 -0.2762  0.0932  0.6101
 3844SOL    HW123165   2.382   3.935   8.538 -0.4140 -0.3799  1.5202
 3844SOL    HW223166   2.406   3.988   8.668 -1.1447  0.1289  0.2650
 3845SOL     OW23167   2.656   0.545   6.990 -0.2795 -0.0998  0.6769
 3845SOL    HW123168   2.662   0.621   7.049 -0.8603 -0.4669  1.2086
 3845SOL    HW223169   2.588   0.570   6.928  1.7270  1.6330 -0.8304
 3846SOL     OW23170   2.312   0.751  10.876  0.0852 -0.6528  0.1216
 3846SOL    HW123171   2.392   0.751  10.822 -0.5904  0.8045 -0.8813
 3846SOL    HW223172   2.340   0.803  10.951 -3.3613 -0.1672  1.0485
 3847SOL     OW23173   3.776   3.170  10.042 -0.2517  0.0835  0.3902
 3847SOL    HW123174   3.756   3.146   9.951  5.5286 -1.6205 -0.4725
 3847SOL    HW223175   3.782   3.265  10.030  2.5516 -0.1215 -0.0606
 3848SOL     OW23176   2.921   0.887   9.207  0.2744 -0.1139  0.5022
 3848SOL    HW123177   2.990   0.916   9.148  0.0787 -1.7461 -0.5161
 3848SOL    HW223178   2.874   0.967   9.232 -1.7482 -1.4588  0.9964
 3849SOL     OW23179   1.223   2.160   5.981  0.2538  0.4973  0.0251
 3849SOL    HW123180   1.285   2.152   6.054  0.2906  2.1808  0.1777
 3849SOL    HW223181   1.217   2.256   5.975  1.0979  0.6228  1.0494
 3850SOL     OW23182   4.616   3.535   7.012  0.1846 -0.8975 -0.2476
 3850SOL    HW123183   4.523   3.526   6.994  0.5551 -1.5850 -1.8383
 3850SOL    HW223184   4.652   3.459   6.966  1.2263 -0.2668 -0.4749
 3851SOL     OW23185   1.829   4.415   2.019 -0.2463  0.3660 -0.3710
 3851SOL    HW123186   1.849   4.328   1.983 -1.0343  0.7088 -1.6348
 3851SOL    HW223187   1.806   4.418   2.112  0.0780  0.0625 -0.2825
 3852SOL     OW23188   2.793   2.585   8.379  0.2594  0.4038  0.4206
 3852SOL    HW123189   2.826   2.590   8.290  0.4475 -2.5892  0.3413
 3852SOL    HW223190   2.849   2.519   8.419  1.0567  0.8726  0.0819
 3853SOL     OW23191   3.383   1.070   7.904  0.8105  0.3432 -0.4761
 3853SOL    HW123192   3.361   1.158   7.934  1.8701 -0.4727  2.7413
 3853SOL    HW223193   3.308   1.022   7.938  0.6984  0.1506 -0.9978
 3854SOL     OW23194   3.643   2.294   3.242  0.0273 -0.3404  0.1844
 3854SOL    HW123195   3.576   2.306   3.309 -0.1394  0.2282 -0.0837
 3854SOL    HW223196   3.582   2.312   3.170  1.0916 -0.9580 -0.8730
 3855SOL     OW23197   0.804   1.194   2.630 -0.6195  0.5943  0.9418
 3855SOL    HW123198   0.813   1.106   2.667 -1.1357  0.8012  1.5596
 3855SOL    HW223199   0.848   1.178   2.547 -1.2751  0.3421  0.6430
 3856SOL     OW23200   0.693   3.090   5.850 -0.0627  0.1551  0.4608
 3856SOL    HW123201   0.674   3.060   5.761 -0.8043  0.2740  0.5854
 3856SOL    HW223202   0.669   3.183   5.855 -0.0884  0.2242 -0.8756
 3857SOL     OW23203   0.305   3.694   8.954 -0.2126  0.1627  0.1617
 3857SOL    HW123204   0.295   3.789   8.964  1.6755  0.4828 -1.0823
 3857SOL    HW223205   0.366   3.674   9.024  1.2031 -0.9609 -1.3880
 3858SOL     OW23206   0.440   0.441   3.473 -0.2519 -0.0539 -0.3203
 3858SOL    HW123207   0.420   0.412   3.562 -1.3106  0.2668 -0.4562
 3858SOL    HW223208   0.510   0.381   3.447 -0.0091 -0.3330  0.9775
 3859SOL     OW23209   2.687   1.363   3.987  0.3031  0.5676 -0.5378
 3859SOL    HW123210   2.617   1.417   4.024  0.3172  1.0997 -1.2835
 3859SOL    HW223211   2.643   1.287   3.948  1.8027 -0.3999 -0.3436
 3860SOL     OW23212   4.707   1.173   4.189 -0.6138  0.0168  0.1188
 3860SOL    HW123213   4.614   1.156   4.197 -0.1765 -2.2847  0.3167
 3860SOL    HW223214   4.732   1.209   4.274 -2.0653  0.3705  0.3902
 3861SOL     OW23215   2.497   2.405  17.560  0.2355 -0.8491 -0.2970
 3861SOL    HW123216   2.445   2.460  17.619 -0.8074  2.1729 -4.1021
 3861SOL    HW223217   2.498   2.460  17.482 -1.4372  0.2006  0.4222
 3862SOL     OW23218   4.000   1.154   2.049 -0.3464 -0.2609  0.0714
 3862SOL    HW123219   4.066   1.205   2.002 -0.0198 -0.3696  0.4044
 3862SOL    HW223220   3.942   1.132   1.977 -0.1777  1.3764 -0.5708
 3863SOL     OW23221   1.064   3.580   8.756 -0.2180 -0.1648 -0.4297
 3863SOL    HW123222   1.146   3.609   8.796  0.8552  1.0359 -3.4545
 3863SOL    HW223223   1.023   3.661   8.725  1.2483  1.0401  0.7735
 3864SOL     OW23224   3.485   3.150  17.283 -0.0707  0.0718 -0.1975
 3864SOL    HW123225   3.573   3.112  17.278 -0.2289 -0.2391 -0.7183
 3864SOL    HW223226   3.464   3.119  17.371  0.4024 -0.4699 -0.2718
 3865SOL     OW23227   1.767   2.225   7.841 -0.0134  0.2745  0.1806
 3865SOL    HW123228   1.801   2.314   7.831 -0.3688  0.5684  1.5150
 3865SOL    HW223229   1.832   2.189   7.901  0.4395  3.7509  1.7805
 3866SOL     OW23230   3.868   0.595   2.372  0.2622 -0.2009  0.1948
 3866SOL    HW123231   3.817   0.605   2.291  1.5535  1.6656 -0.3917
 3866SOL    HW223232   3.933   0.663   2.353  0.6367 -0.6646 -0.1939
 3867SOL     OW23233   1.600   2.220   6.340 -0.4239  0.2813  0.1701
 3867SOL    HW123234   1.636   2.217   6.252 -1.5731  0.3718 -0.3067
 3867SOL    HW223235   1.658   2.285   6.380  1.3918 -1.6113  0.5818
 3868SOL     OW23236   0.431   2.767  10.108 -0.4479  0.2597 -0.0006
 3868SOL    HW123237   0.401   2.835  10.167  0.9808 -0.2554  1.3116
 3868SOL    HW223238   0.366   2.698  10.123  1.8408 -1.4118  2.3365
 3869SOL     OW23239   2.178   3.217   0.768  0.2695  0.1307 -0.0253
 3869SOL    HW123240   2.227   3.283   0.818 -0.1975  0.1894  0.3513
 3869SOL    HW223241   2.210   3.140   0.814 -1.3945 -0.2258  0.5499
 3870SOL     OW23242   3.286   1.647   4.511 -0.5317  0.4972  0.3530
 3870SOL    HW123243   3.218   1.713   4.497 -0.5740  0.0295 -1.6486
 3870SOL    HW223244   3.233   1.569   4.528 -2.0188  0.4280 -4.6766
 3871SOL     OW23245   0.491   4.531   5.209 -0.4806  0.0321 -0.4896
 3871SOL    HW123246   0.481   4.626   5.209  0.7979  0.1470  3.4340
 3871SOL    HW223247   0.528   4.509   5.123  1.1878  0.4987  0.1302
 3872SOL     OW23248   4.261   3.505   4.741  0.2655  0.0428 -0.5895
 3872SOL    HW123249   4.326   3.485   4.809 -2.2049 -3.8237  0.6068
 3872SOL    HW223250   4.269   3.601   4.741 -0.8382  0.1296  0.0039
 3873SOL     OW23251   3.606   2.752   2.466 -0.2563 -0.0598 -0.3380
 3873SOL    HW123252   3.667   2.688   2.502  2.7734  1.9931 -1.8931
 3873SOL    HW223253   3.572   2.700   2.393  2.0412 -1.1024 -0.6638
 3874SOL     OW23254   3.522   2.634   3.434 -0.2370 -0.2263 -0.0232
 3874SOL    HW123255   3.557   2.696   3.499 -2.2102  3.0063 -2.0354
 3874SOL    HW223256   3.429   2.655   3.429  0.0161  0.5256 -1.3894
 3875SOL     OW23257   1.019   1.493   3.209 -0.5182 -0.5208  0.0648
 3875SOL    HW123258   1.073   1.487   3.130 -0.0728 -0.7124  0.3848
 3875SOL    HW223259   0.937   1.492   3.161 -0.4034 -0.8282 -0.1310
 3876SOL     OW23260   2.165   2.394   8.018 -0.5305  0.1080 -0.0715
 3876SOL    HW123261   2.249   2.430   8.048  0.0729 -2.3154  1.1530
 3876SOL    HW223262   2.178   2.376   7.925 -1.0008 -0.7762  0.0403
 3877SOL     OW23263   1.515   3.567   3.158  0.0089  0.2936 -0.0081
 3877SOL    HW123264   1.520   3.517   3.077 -1.4386  0.2320 -0.0558
 3877SOL    HW223265   1.607   3.566   3.186  0.7590  1.0743 -2.4259
 3878SOL     OW23266   3.861   2.208   6.755 -0.0765 -0.7939 -0.4041
 3878SOL    HW123267   3.868   2.239   6.665  3.3840  0.5750  0.3185
 3878SOL    HW223268   3.782   2.255   6.780  1.6494  2.0172 -0.2513
 3879SOL     OW23269   4.643   3.899   5.110 -0.4614  0.3290 -0.2296
 3879SOL    HW123270   4.640   3.995   5.115 -0.5577  0.2321  1.7553
 3879SOL    HW223271   4.722   3.892   5.056 -0.8728  1.5090 -0.9829
 3880SOL     OW23272   3.465   1.542   3.816  0.3393 -0.6779  0.3791
 3880SOL    HW123273   3.526   1.614   3.801 -0.0833 -0.3939  0.0364
 3880SOL    HW223274   3.382   1.589   3.806  0.8293  0.0237 -0.4252
 3881SOL     OW23275   0.907   3.311   8.845  0.5753 -0.1013 -0.0925
 3881SOL    HW123276   0.927   3.287   8.936  0.2196  0.5160  0.1461
 3881SOL    HW223277   0.969   3.382   8.827 -0.8841  0.5392 -2.5250
 3882SOL     OW23278   2.334   2.485   3.811 -0.7528  0.4483 -0.0414
 3882SOL    HW123279   2.395   2.470   3.883  0.9575 -1.6130 -1.9389
 3882SOL    HW223280   2.310   2.395   3.793 -2.0411  0.9870 -0.9904
 3883SOL     OW23281   3.165   0.504   9.158  0.6876 -0.3197 -0.7277
 3883SOL    HW123282   3.089   0.559   9.176  1.2295 -1.0411  3.6644
 3883SOL    HW223283   3.170   0.441   9.229  1.2114  1.0720  0.4686
 3884SOL     OW23284   3.757   2.655   0.121 -0.4408  0.2600  0.0122
 3884SOL    HW123285   3.739   2.614   0.036 -2.0158  3.2939 -1.1164
 3884SOL    HW223286   3.685   2.616   0.170  2.1060 -0.5149  3.1241
 3885SOL     OW23287   1.976   1.581   6.128  0.0373  0.1741 -0.7161
 3885SOL    HW123288   2.069   1.586   6.148 -0.0471 -1.1290  0.0211
 3885SOL    HW223289   1.965   1.490   6.101  0.1276  0.1706 -0.7388
 3886SOL     OW23290   2.284   0.978   6.977  0.1333  0.3846  0.1121
 3886SOL    HW123291   2.281   1.041   7.049  2.4858 -0.1614  0.6940
 3886SOL    HW223292   2.191   0.957   6.978  0.0476  0.6456 -1.2527
 3887SOL     OW23293   1.973   3.976   4.571 -0.3587 -0.6381 -0.4277
 3887SOL    HW123294   2.067   3.988   4.553 -0.2989  0.1362  0.4244
 3887SOL    HW223295   1.964   3.979   4.666  0.8575 -1.8383 -0.2603
 3888SOL     OW23296   3.407   4.279   5.914  0.2129 -0.0332  0.2572
 3888SOL    HW123297   3.386   4.257   6.005 -2.2311 -0.4128 -0.4005
 3888SOL    HW223298   3.343   4.343   5.883  1.3223 -0.6691 -3.3519
 3889SOL     OW23299   3.221   3.741   3.204 -0.2228 -0.0166  0.0109
 3889SOL    HW123300   3.247   3.825   3.165  0.1150  0.8094  2.0259
 3889SOL    HW223301   3.141   3.723   3.156  0.1578 -2.2961  0.2466
 3890SOL     OW23302   1.505   4.705   0.238 -0.0932 -0.1040 -0.1052
 3890SOL    HW123303   1.559   4.649   0.182 -1.3279  2.0552 -3.4199
 3890SOL    HW223304   1.473   4.628   0.284 -2.3274  1.2853  0.6333
 3891SOL     OW23305   4.463   2.411  14.467  0.2094  0.9171 -0.5600
 3891SOL    HW123306   4.533   2.428  14.404  2.0106 -0.8137  0.9921
 3891SOL    HW223307   4.508   2.357  14.532 -3.0728  0.0881  0.9899
 3892SOL     OW23308   3.107   2.078   9.201  1.1925 -0.4180  0.2698
 3892SOL    HW123309   3.041   2.011   9.218 -1.4552  2.7109  2.2393
 3892SOL    HW223310   3.188   2.027   9.205  1.0642 -0.6181  0.2966
 3893SOL     OW23311   3.567   0.417   4.617  0.0662  0.3123  0.2772
 3893SOL    HW123312   3.563   0.507   4.585  1.3758 -0.4972 -2.2263
 3893SOL    HW223313   3.580   0.365   4.537  1.7984 -0.1572  0.8611
 3894SOL     OW23314   0.416   3.953   1.971  0.0187 -0.3113  0.0319
 3894SOL    HW123315   0.491   3.984   2.021 -0.0137 -1.4146  0.7544
 3894SOL    HW223316   0.435   4.008   1.895  0.6796 -0.7474 -0.1138
 3895SOL     OW23317   3.304   2.123   5.553 -0.2061 -0.2641  0.0761
 3895SOL    HW123318   3.374   2.066   5.585  0.0406  0.4009  0.7255
 3895SOL    HW223319   3.246   2.059   5.511  1.1449 -1.1072 -0.4879
 3896SOL     OW23320   4.011   3.466  12.473  0.1224 -0.1550  0.1333
 3896SOL    HW123321   3.964   3.534  12.424  0.2891  0.9696  1.5244
 3896SOL    HW223322   4.095   3.503  12.444 -0.7860  1.3504 -0.5626
 3897SOL     OW23323   0.974   4.376   9.421  0.4537 -0.4524  0.5178
 3897SOL    HW123324   0.899   4.389   9.363  0.1493 -2.9533  0.3340
 3897SOL    HW223325   1.007   4.464   9.403  1.2774 -1.2096 -1.7542
 3898SOL     OW23326   0.272   0.568   7.628  0.2357 -0.4197  0.0200
 3898SOL    HW123327   0.250   0.592   7.717  1.7331 -0.2253  0.3453
 3898SOL    HW223328   0.357   0.610   7.612 -0.6820  1.4910  0.2028
 3899SOL     OW23329   3.035   1.165  15.344 -0.2245  0.2142 -0.5593
 3899SOL    HW123330   3.062   1.073  15.334 -1.3984 -0.0823 -1.0446
 3899SOL    HW223331   3.013   1.186  15.253  0.2406 -2.3832 -1.2790
 3900SOL     OW23332   1.862   4.313   5.340 -0.8182  0.5515  0.4520
 3900SOL    HW123333   1.849   4.227   5.299 -0.5379  1.0377 -0.6525
 3900SOL    HW223334   1.944   4.293   5.386 -0.7000 -0.4731 -0.2044
 3901SOL     OW23335   1.210   3.349   4.933  0.5428 -0.2523  0.0914
 3901SOL    HW123336   1.137   3.391   4.888  1.9210 -1.2691 -3.0784
 3901SOL    HW223337   1.285   3.394   4.892  1.2404  0.0816  1.7129
 3902SOL     OW23338   3.010   2.300   1.777  0.3851 -0.3375 -0.4367
 3902SOL    HW123339   3.104   2.285   1.771  0.0737 -1.9759 -1.2131
 3902SOL    HW223340   2.991   2.236   1.847 -0.1175 -1.7448 -1.8556
 3903SOL     OW23341   2.984   2.759   1.053  0.0984  0.2475  0.1581
 3903SOL    HW123342   2.964   2.849   1.029  0.4516 -0.0728 -1.3538
 3903SOL    HW223343   2.958   2.720   0.969  0.7876 -1.5557  0.7836
 3904SOL     OW23344   0.282   4.464  16.544 -0.1325  0.2379  0.5171
 3904SOL    HW123345   0.195   4.502  16.556 -0.1229  1.0714 -2.0012
 3904SOL    HW223346   0.334   4.514  16.606 -0.7311  0.7692  0.5938
 3905SOL     OW23347   1.012   3.071   5.466 -0.1037 -0.7343  0.5188
 3905SOL    HW123348   0.995   3.146   5.523 -0.5589 -0.0168 -0.5706
 3905SOL    HW223349   0.946   3.008   5.494 -0.6064 -0.3341  0.2317
 3906SOL     OW23350   1.444   4.112  16.544  0.3870 -0.6432 -0.5559
 3906SOL    HW123351   1.537   4.107  16.523  0.7927 -0.3232  1.1199
 3906SOL    HW223352   1.440   4.106  16.640  0.0915  1.8084 -0.4211
 3907SOL     OW23353   1.145   3.798   6.904 -0.1364  0.3100  0.2946
 3907SOL    HW123354   1.233   3.782   6.869  0.5023  3.1868  0.6140
 3907SOL    HW223355   1.112   3.708   6.897  1.9124 -0.6444  2.6024
 3908SOL     OW23356   3.927   2.037  16.820  0.3445 -0.8598 -0.1717
 3908SOL    HW123357   3.984   1.974  16.863  0.7422 -2.4814 -3.0807
 3908SOL    HW223358   3.928   2.012  16.728  1.1925  0.4580 -0.5238
 3909SOL     OW23359   4.487   2.991  15.630  0.1269 -0.1837 -0.0758
 3909SOL    HW123360   4.518   2.906  15.662  0.7448 -0.7177 -2.0725
 3909SOL    HW223361   4.443   3.041  15.698  0.7774  0.0436  0.1768
 3910SOL     OW23362   3.388   3.854   6.396  0.2840 -0.6391  0.3347
 3910SOL    HW123363   3.345   3.772   6.423 -2.8239  1.4536  1.6300
 3910SOL    HW223364   3.348   3.864   6.310  1.5051 -1.3980 -0.3355
 3911SOL     OW23365   4.403   4.467  17.245  0.6458  0.5213 -0.2721
 3911SOL    HW123366   4.323   4.469  17.192  0.5836 -0.5170 -0.2151
 3911SOL    HW223367   4.462   4.507  17.180 -1.6589 -0.8948 -3.2544
 3912SOL     OW23368   2.054   3.271   9.387 -0.1182 -0.0047  0.3418
 3912SOL    HW123369   1.963   3.241   9.389 -0.1581  0.2097  1.4504
 3912SOL    HW223370   2.070   3.298   9.477  2.8801 -1.8826  0.3536
 3913SOL     OW23371   3.679   4.304   5.999 -0.2265  0.0305  0.2372
 3913SOL    HW123372   3.721   4.219   5.996 -1.6484 -0.7050  1.0707
 3913SOL    HW223373   3.587   4.291   5.974  0.7140  0.0173 -3.1953
 3914SOL     OW23374   2.098   4.590   3.957  0.2161 -0.2531 -0.0213
 3914SOL    HW123375   2.030   4.567   3.894 -0.9683 -1.5794  1.7194
 3914SOL    HW223376   2.056   4.661   4.006  0.3030 -1.1130  1.3148
 3915SOL     OW23377   3.730   0.125   0.216 -0.0506  0.3772 -0.5459
 3915SOL    HW123378   3.680   0.130   0.134 -1.9597 -2.1212  0.4704
 3915SOL    HW223379   3.661   0.078   0.262  0.4892 -0.2547 -0.3833
 3916SOL     OW23380   3.719   3.510   1.424  0.5443  0.2499  0.0366
 3916SOL    HW123381   3.718   3.482   1.515 -1.0420 -0.7623 -0.2852
 3916SOL    HW223382   3.804   3.555   1.421  0.7127 -0.0950 -0.4073
 3917SOL     OW23383   0.561   3.877   4.530  0.3522  0.1467  0.2791
 3917SOL    HW123384   0.547   3.784   4.513 -0.4329  0.3798 -0.3894
 3917SOL    HW223385   0.587   3.884   4.622 -2.3427 -1.9987  1.2349
 3918SOL     OW23386   4.100   4.076   6.210  0.3456 -0.0111 -0.4433
 3918SOL    HW123387   4.040   4.012   6.171 -0.4256 -0.1580  0.9804
 3918SOL    HW223388   4.058   4.092   6.295  0.6293  0.5366 -0.4058
 3919SOL     OW23389   3.020   3.546   4.726 -0.3441  0.1519 -0.5402
 3919SOL    HW123390   3.068   3.601   4.664 -0.6092  0.2117 -0.6916
 3919SOL    HW223391   2.964   3.605   4.777  0.1315  0.6425 -0.5921
 3920SOL     OW23392   0.952   0.897  14.724 -0.1234  0.1257  0.3663
 3920SOL    HW123393   0.984   0.970  14.778 -1.1524 -0.0471  1.2157
 3920SOL    HW223394   1.016   0.831  14.749  1.5774  2.0481  1.1556
 3921SOL     OW23395   4.664   4.067  16.896  0.4294 -0.0078  0.2134
 3921SOL    HW123396   4.645   4.078  16.989  0.7928  0.8289  0.1950
 3921SOL    HW223397   4.628   4.150  16.863 -1.3244 -0.9288 -0.1655
 3922SOL     OW23398   4.443   1.849  14.952  0.2581  0.0674 -0.8358
 3922SOL    HW123399   4.361   1.882  14.915 -0.6452  0.3857  1.4914
 3922SOL    HW223400   4.484   1.825  14.869  1.5512 -2.1721  0.4421
 3923SOL     OW23401   2.188   1.571   8.341  0.3677  0.2486 -0.1765
 3923SOL    HW123402   2.143   1.487   8.348  2.3556 -0.6683  1.5604
 3923SOL    HW223403   2.219   1.573   8.250 -0.7678  1.2711 -0.5543
 3924SOL     OW23404   1.530   3.049   8.653  0.0805 -0.5319 -0.3596
 3924SOL    HW123405   1.482   2.994   8.592  0.1916  0.3544 -1.2426
 3924SOL    HW223406   1.581   3.109   8.598  0.3050  0.8462  1.3277
 3925SOL     OW23407   2.947   1.232   8.240 -0.2956 -0.7345 -0.0611
 3925SOL    HW123408   2.984   1.280   8.166  0.7109 -0.7545  0.4376
 3925SOL    HW223409   2.906   1.163   8.187  0.7479 -2.2257  1.0720
 3926SOL     OW23410   3.098   0.637   5.669 -0.3745  0.1537  0.4679
 3926SOL    HW123411   3.072   0.729   5.675 -1.4249 -0.0878 -0.3571
 3926SOL    HW223412   3.025   0.609   5.725 -0.3187  0.8040  0.8736
 3927SOL     OW23413   3.777   3.026  16.097 -0.2120 -0.2013  0.1273
 3927SOL    HW123414   3.780   3.090  16.027  2.0395  0.3052  0.6825
 3927SOL    HW223415   3.866   2.992  16.082 -0.8476 -1.6504 -0.3828
 3928SOL     OW23416   2.753   1.733   8.000  0.0906 -0.3283 -0.2703
 3928SOL    HW123417   2.834   1.766   7.959 -0.1068  1.4803  0.8096
 3928SOL    HW223418   2.790   1.693   8.079  0.8850 -0.4945 -0.7265
 3929SOL     OW23419   0.048   0.579   4.788  0.3152  0.0187 -0.0023
 3929SOL    HW123420   0.082   0.549   4.704  2.4911  0.5610  0.6895
 3929SOL    HW223421   4.719   0.515   4.812  0.7491 -0.3330  0.2622
 3930SOL     OW23422   2.092   0.654  17.088  0.6332  0.3631  0.1750
 3930SOL    HW123423   2.069   0.614  17.172  0.0412  0.3298 -0.0020
 3930SOL    HW223424   2.164   0.594  17.067 -0.4589 -1.4017  1.5082
 3931SOL     OW23425   0.503   1.461   5.381  0.1828  0.0159  0.0182
 3931SOL    HW123426   0.589   1.455   5.423 -0.1098  1.4696  0.8306
 3931SOL    HW223427   0.513   1.420   5.296 -0.5584  0.5771 -0.3456
 3932SOL     OW23428   0.117   1.355   3.055  0.1195  0.3588 -1.0198
 3932SOL    HW123429   0.081   1.287   2.998  1.5225 -0.4580 -0.9279
 3932SOL    HW223430   0.044   1.368   3.116 -0.6303 -0.9484 -1.6450
 3933SOL     OW23431   2.047   1.073  15.651 -0.4267 -0.2165  0.4290
 3933SOL    HW123432   2.069   0.980  15.638 -0.3689 -0.1859  0.3066
 3933SOL    HW223433   1.952   1.066  15.663 -0.3472  0.1782  1.2337
 3934SOL     OW23434   4.548   4.196   2.904 -0.4101 -0.4123  0.1926
 3934SOL    HW123435   4.509   4.108   2.906  1.6377 -1.3482 -0.7999
 3934SOL    HW223436   4.539   4.211   2.810  1.8823 -0.9750 -0.1162
 3935SOL     OW23437   0.546   2.713  10.441 -0.1326 -0.2768  0.2232
 3935SOL    HW123438   0.516   2.650  10.507 -2.2654 -0.1102 -0.5665
 3935SOL    HW223439   0.483   2.783  10.455 -0.2237  0.0011 -1.5665
 3936SOL     OW23440   1.790   1.183  10.373 -0.0133 -0.4598  0.6232
 3936SOL    HW123441   1.823   1.242  10.306  0.6253 -1.4432  0.0691
 3936SOL    HW223442   1.698   1.205  10.361  0.4388  0.2494 -1.4441
 3937SOL     OW23443   2.654   2.769   4.468  0.1490 -0.1974 -0.2254
 3937SOL    HW123444   2.559   2.756   4.479 -0.2700  3.0609  0.0697
 3937SOL    HW223445   2.664   2.865   4.468 -1.0398 -0.0680 -1.0552
 3938SOL     OW23446   2.359   3.523   8.636 -0.2654 -0.3332 -0.3841
 3938SOL    HW123447   2.289   3.474   8.593  0.8012 -1.0982 -1.2351
 3938SOL    HW223448   2.438   3.488   8.595  0.8587  1.8076 -0.0198
 3939SOL     OW23449   3.657   1.556   6.552  0.1308  0.3551  0.0532
 3939SOL    HW123450   3.687   1.465   6.556  0.5393  0.5272  0.9042
 3939SOL    HW223451   3.683   1.573   6.461  0.3288  1.5587  0.3245
 3940SOL     OW23452   0.791   2.112  10.643  0.0786 -0.1393  0.0854
 3940SOL    HW123453   0.734   2.038  10.664  0.4076 -1.0460 -2.1708
 3940SOL    HW223454   0.805   2.153  10.728 -2.0759 -1.6129  1.1505
 3941SOL     OW23455   3.769   2.806  17.043 -0.0341 -1.1426 -0.5225
 3941SOL    HW123456   3.857   2.774  17.063  1.2384  2.5799 -0.2011
 3941SOL    HW223457   3.756   2.777  16.952 -0.2782  0.4004 -0.9770
 3942SOL     OW23458   0.141   1.454   1.722 -0.0142 -0.4151  0.5450
 3942SOL    HW123459   0.235   1.457   1.701 -0.0594  0.5470  0.4930
 3942SOL    HW223460   0.102   1.462   1.635  1.4120 -0.5876 -0.1051
 3943SOL     OW23461   1.534   0.770   5.457 -0.2508 -0.0840 -0.8398
 3943SOL    HW123462   1.504   0.807   5.374 -1.8752 -1.6529 -0.9620
 3943SOL    HW223463   1.468   0.715   5.501 -0.6405  0.3754 -0.8542
 3944SOL     OW23464   2.980   2.465  15.183  0.3138  0.7056  0.1607
 3944SOL    HW123465   2.926   2.483  15.105 -0.9020  3.4910  1.6621
 3944SOL    HW223466   2.909   2.433  15.239 -0.9008  2.2012 -0.5222
 3945SOL     OW23467   2.372   4.476   4.227  0.0046  0.0897 -0.5440
 3945SOL    HW123468   2.347   4.450   4.316  0.5913  0.1236 -0.3687
 3945SOL    HW223469   2.370   4.387   4.192 -0.9612 -0.8658  1.9036
 3946SOL     OW23470   4.367   2.379   9.326 -0.1650 -0.2807 -0.3170
 3946SOL    HW123471   4.290   2.344   9.372  1.6326 -0.9270  2.1935
 3946SOL    HW223472   4.328   2.393   9.240 -2.0406  0.1715  0.6011
 3947SOL     OW23473   4.240   2.700   3.333 -0.4645 -0.4807  0.0270
 3947SOL    HW123474   4.219   2.711   3.425  1.1247 -1.0374  0.4407
 3947SOL    HW223475   4.293   2.775   3.305  1.8582 -1.8922  0.6802
 3948SOL     OW23476   0.022   1.638  16.703  0.5902  0.0909  0.0055
 3948SOL    HW123477   0.019   1.549  16.736  0.7097  1.0263  2.4971
 3948SOL    HW223478   0.035   1.683  16.786  0.2970  0.2329 -0.0217
 3949SOL     OW23479   1.096   1.458  12.109  0.0955  0.8536 -0.3651
 3949SOL    HW123480   1.115   1.527  12.173  2.0266 -0.5847  0.5925
 3949SOL    HW223481   1.137   1.383  12.151  0.2194  1.2615  0.2494
 3950SOL     OW23482   3.369   4.561   4.817  0.1285 -0.1070  0.2094
 3950SOL    HW123483   3.294   4.514   4.851 -0.0878  0.7999  0.9662
 3950SOL    HW223484   3.365   4.551   4.722 -2.5037 -1.6936  0.4985
 3951SOL     OW23485   3.590   3.058   1.721  0.3817  0.0429 -0.0770
 3951SOL    HW123486   3.510   3.039   1.771 -1.8521  0.0552 -3.6443
 3951SOL    HW223487   3.670   3.043   1.772 -1.0416  0.2953  2.2550
 3952SOL     OW23488   0.441   0.116   9.514 -0.2488  0.4366 -0.1165
 3952SOL    HW123489   0.372   0.054   9.492 -1.3763  1.4719  0.4984
 3952SOL    HW223490   0.475   0.126   9.425 -0.0900  0.7994 -0.0188
 3953SOL     OW23491   3.574   3.750   9.512  0.0019  0.4123  0.2549
 3953SOL    HW123492   3.599   3.832   9.469  3.0584 -0.8883 -0.4896
 3953SOL    HW223493   3.526   3.788   9.585 -0.2741  0.5057  0.0252
 3954SOL     OW23494   0.898   3.899   4.040  0.1850  0.1637 -0.2235
 3954SOL    HW123495   0.872   3.808   4.028  0.9948 -0.3294  1.7640
 3954SOL    HW223496   0.892   3.933   3.950 -0.8647 -0.4712 -0.3908
 3955SOL     OW23497   2.808   0.873  11.352  0.8311  0.0604  0.2984
 3955SOL    HW123498   2.900   0.869  11.326  1.6386  0.1931  3.0949
 3955SOL    HW223499   2.763   0.929  11.290 -0.0975 -0.9062  0.0901
 3956SOL     OW23500   3.804   0.574   3.575 -0.3080  0.3821 -0.3557
 3956SOL    HW123501   3.746   0.629   3.627  0.9494  1.3488  0.0351
 3956SOL    HW223502   3.785   0.617   3.492  1.9173  1.0780 -0.5257
 3957SOL     OW23503   2.898   4.094  16.785 -0.0711 -0.3063  0.0521
 3957SOL    HW123504   2.817   4.116  16.739  0.4125  0.6866 -0.3361
 3957SOL    HW223505   2.946   4.072  16.705 -0.3043  0.7950 -0.4058
 3958SOL     OW23506   0.040   0.716   2.914 -0.0282  0.4050  0.0911
 3958SOL    HW123507   0.000   0.708   2.827 -0.7831  1.7410  0.3148
 3958SOL    HW223508   0.122   0.765   2.907  1.0283 -1.6946 -2.3153
 3959SOL     OW23509   0.090   1.880   9.173  0.4804 -0.7780  0.6056
 3959SOL    HW123510   0.096   1.802   9.228  1.8760 -0.0459  1.5080
 3959SOL    HW223511   0.140   1.847   9.098  1.8938 -1.1205  1.7050
 3960SOL     OW23512   1.382   3.899   7.412  0.0918  0.1896 -0.0106
 3960SOL    HW123513   1.436   3.918   7.335 -0.5716 -0.2577 -0.5843
 3960SOL    HW223514   1.447   3.884   7.481  0.3150  0.1245 -0.2323
 3961SOL     OW23515   0.093   3.610   7.541  0.3719 -0.5334 -0.2848
 3961SOL    HW123516   0.188   3.598   7.552  0.2390 -1.7091 -0.4328
 3961SOL    HW223517   0.088   3.614   7.446 -2.0879  1.0749 -0.0923
 3962SOL     OW23518   1.874   3.294   8.555  0.2216  0.0879 -0.3097
 3962SOL    HW123519   1.876   3.244   8.473  0.9477  1.3590 -1.0707
 3962SOL    HW223520   1.841   3.228   8.617  0.2205 -0.2535 -0.6706
 3963SOL     OW23521   2.061   2.422   1.234  0.0660  1.1465  0.2576
 3963SOL    HW123522   2.115   2.496   1.262  1.9902  0.3501 -1.3822
 3963SOL    HW223523   2.066   2.357   1.304 -1.9540 -0.1664 -0.8054
 3964SOL     OW23524   2.777   3.718  10.936  0.0230 -0.0198  0.3923
 3964SOL    HW123525   2.805   3.633  10.903  1.0744  0.2687  0.5278
 3964SOL    HW223526   2.759   3.774  10.861  1.3157 -0.4518 -0.2303
 3965SOL     OW23527   4.206   1.751   7.882 -0.0658  0.4070  0.0806
 3965SOL    HW123528   4.274   1.789   7.826 -0.0782  1.1060  0.5423
 3965SOL    HW223529   4.205   1.663   7.844  2.7583  0.5470 -0.3367
 3966SOL     OW23530   4.186   3.908   5.600  0.4986 -0.2950  0.0309
 3966SOL    HW123531   4.107   3.926   5.652  0.6211  1.1642 -0.2873
 3966SOL    HW223532   4.226   3.843   5.657  2.6413  1.7792  0.9117
 3967SOL     OW23533   1.983   2.093   4.131  0.4690 -0.0208 -0.5480
 3967SOL    HW123534   1.986   2.172   4.185  0.3583 -0.8843  0.7267
 3967SOL    HW223535   1.975   2.133   4.045 -0.2592 -0.3807 -0.6472
 3968SOL     OW23536   1.575   1.138   5.748  0.1058 -0.0155 -0.4518
 3968SOL    HW123537   1.487   1.174   5.749  0.4825  0.9144  0.1324
 3968SOL    HW223538   1.556   1.045   5.747  2.1029 -0.3709 -4.1881
 3969SOL     OW23539   0.925   0.364   9.184 -0.2415 -0.2304  0.3120
 3969SOL    HW123540   0.915   0.454   9.153  0.6482 -0.2186  0.0293
 3969SOL    HW223541   0.857   0.354   9.250 -2.1308  0.8803 -1.4536
 3970SOL     OW23542   0.514   4.736  11.493  0.0428 -0.3579  0.7062
 3970SOL    HW123543   0.507   0.034  11.582 -0.7354 -0.4285  0.6712
 3970SOL    HW223544   0.585   4.673  11.502  0.2313 -0.0890  1.1233
 3971SOL     OW23545   3.864   1.646   5.359 -0.1908  0.1393  0.4966
 3971SOL    HW123546   3.947   1.695   5.363 -1.7075  2.9439 -2.1130
 3971SOL    HW223547   3.866   1.615   5.449 -2.2089 -0.3647  0.3712
 3972SOL     OW23548   4.643   4.011   1.359  0.0885  0.1339  0.0984
 3972SOL    HW123549   4.556   4.047   1.374  0.0625 -0.2073  0.7721
 3972SOL    HW223550   4.645   4.010   1.263 -3.3912 -0.4607  0.0313
 3973SOL     OW23551   2.792   4.070   7.499 -0.5199 -0.4396 -0.0533
 3973SOL    HW123552   2.703   4.060   7.532 -0.3814 -0.9849  0.1427
 3973SOL    HW223553   2.780   4.027   7.414  0.4676 -1.3980  0.2967
 3974SOL     OW23554   4.129   2.473   2.655  0.4331 -0.0360  0.2926
 3974SOL    HW123555   4.043   2.455   2.618  1.0813  0.6026 -1.5192
 3974SOL    HW223556   4.104   2.499   2.744 -1.6170 -0.4558 -0.1520
 3975SOL     OW23557   0.107   1.857   9.806 -0.0006 -0.1603  0.2621
 3975SOL    HW123558   0.134   1.925   9.743  0.1155 -2.1562 -1.8276
 3975SOL    HW223559   0.185   1.802   9.809  0.5187  0.4333 -1.8541
 3976SOL     OW23560   0.333   3.195   5.991  0.6829 -0.7374  0.0070
 3976SOL    HW123561   0.244   3.201   5.956  0.4700  4.3346  1.4285
 3976SOL    HW223562   0.368   3.284   5.995 -0.7608 -0.1026 -1.5119
 3977SOL     OW23563   3.310   4.467  17.258  0.2073 -0.0778 -0.7008
 3977SOL    HW123564   3.327   4.373  17.249  0.5703 -0.0615 -0.1852
 3977SOL    HW223565   3.231   4.454  17.310  1.1811  1.0237  1.0713
 3978SOL     OW23566   1.178   0.702  11.439 -0.1733 -0.6536 -0.3097
 3978SOL    HW123567   1.234   0.774  11.468  0.5311 -1.1576 -0.4011
 3978SOL    HW223568   1.255   0.648  11.422  2.1854  1.7738  2.6630
 3979SOL     OW23569   3.348   1.329   6.907  0.1711  0.8141 -0.2231
 3979SOL    HW123570   3.267   1.358   6.949  0.3042  1.8987 -0.7230
 3979SOL    HW223571   3.374   1.252   6.958 -2.0324  0.2488  0.0493
 3980SOL     OW23572   2.216   3.972   5.068  0.0512  0.3237 -0.1783
 3980SOL    HW123573   2.172   4.024   5.000  1.8145  0.5864 -1.1049
 3980SOL    HW223574   2.250   4.043   5.122 -0.8017  0.1278  0.6224
 3981SOL     OW23575   3.800   3.866   2.664  0.3685 -0.1497  0.0377
 3981SOL    HW123576   3.804   3.866   2.569 -0.1606 -1.3072  0.0120
 3981SOL    HW223577   3.714   3.902   2.686 -0.7040 -2.3990 -0.4152
 3982SOL     OW23578   0.960   0.821   9.394 -0.3339 -0.5819  0.0429
 3982SOL    HW123579   1.013   0.749   9.359 -0.4662 -1.6840  2.1251
 3982SOL    HW223580   0.901   0.843   9.321 -0.4758 -0.2689  0.2513
 3983SOL     OW23581   2.149   0.236  11.540  0.4771  0.0151  0.0614
 3983SOL    HW123582   2.205   0.236  11.462  1.9117 -0.8877  1.1011
 3983SOL    HW223583   2.060   0.261  11.514  0.2928 -0.4740  0.2306
 3984SOL     OW23584   4.252   1.968  13.496  0.2789 -0.6206 -0.0897
 3984SOL    HW123585   4.301   2.021  13.558  1.2812 -2.3424  0.6093
 3984SOL    HW223586   4.299   1.885  13.507  1.4305 -0.3084 -2.8131
 3985SOL     OW23587   4.708   2.955   6.077 -0.1166 -0.3576  0.6266
 3985SOL    HW123588   0.020   2.894   6.132  0.7937  0.7505  1.0206
 3985SOL    HW223589   4.726   2.913   5.993 -1.2035 -2.4627  1.4322
 3986SOL     OW23590   4.176   1.017   5.698  0.5083  0.3944 -0.8077
 3986SOL    HW123591   4.130   0.934   5.706  0.7448  0.0845 -2.5816
 3986SOL    HW223592   4.216   0.999   5.612 -1.4462  0.5486 -1.7494
 3987SOL     OW23593   3.619   1.701  16.545 -0.4061 -0.0120  0.6381
 3987SOL    HW123594   3.631   1.678  16.453 -0.2777  0.5047  0.5242
 3987SOL    HW223595   3.555   1.632  16.563 -1.5997  1.0481  0.5032
 3988SOL     OW23596   0.165   2.735   8.114  0.2131  0.1874  0.0473
 3988SOL    HW123597   0.207   2.651   8.135 -3.9192 -1.9441 -0.2234
 3988SOL    HW223598   0.225   2.790   8.164 -1.8594  1.4485  1.1557
 3989SOL     OW23599   3.543   0.975   3.267 -0.2006  0.1969  0.0004
 3989SOL    HW123600   3.597   1.051   3.289 -1.8100  1.0466  0.9247
 3989SOL    HW223601   3.585   0.942   3.187  2.2824 -2.7158  2.4845
 3990SOL     OW23602   0.144   0.758   7.324  0.2691 -0.1591 -0.0669
 3990SOL    HW123603   0.123   0.851   7.315  0.5929 -0.2696 -1.9063
 3990SOL    HW223604   0.058   0.718   7.319 -0.4805  1.7647 -2.6468
 3991SOL     OW23605   1.099   3.122  14.915  0.0276  0.5256 -0.0564
 3991SOL    HW123606   1.021   3.176  14.927  1.4084  2.2074  1.3619
 3991SOL    HW223607   1.168   3.173  14.957  0.6761 -1.2693  1.0256
 3992SOL     OW23608   0.040   3.340   6.462  0.1054 -0.1610  0.4800
 3992SOL    HW123609   0.128   3.336   6.500  1.5183  1.2470 -2.6983
 3992SOL    HW223610   4.728   3.271   6.507 -0.0656  0.1411  0.7552
 3993SOL     OW23611   1.256   1.769   5.309 -0.0790 -0.3348 -0.0759
 3993SOL    HW123612   1.335   1.800   5.264 -0.7989  0.2029 -0.9707
 3993SOL    HW223613   1.265   1.799   5.399  1.1986  0.2614 -0.3936
 3994SOL     OW23614   4.132   0.695   6.124  0.2260  0.2628 -0.0528
 3994SOL    HW123615   4.211   0.744   6.100  0.9507 -0.7567  0.2576
 3994SOL    HW223616   4.163   0.623   6.179  1.6260 -0.3720 -1.6782
 3995SOL     OW23617   2.701   0.756   3.682  0.1857 -0.2204  0.0973
 3995SOL    HW123618   2.653   0.834   3.709 -1.5533 -0.7688 -1.4091
 3995SOL    HW223619   2.702   0.716   3.769  0.6785  0.0267  0.2041
 3996SOL     OW23620   2.592   4.161   8.849 -0.5758 -0.5822  0.1720
 3996SOL    HW123621   2.534   4.237   8.844  4.0960  2.7757 -2.0683
 3996SOL    HW223622   2.516   4.102   8.843  1.1582 -2.8096  0.0341
 3997SOL     OW23623   3.465   1.741   6.375 -0.0135 -0.1796  0.5579
 3997SOL    HW123624   3.433   1.699   6.295 -2.2971 -0.4245  1.6090
 3997SOL    HW223625   3.517   1.669   6.411  1.4115  0.0368 -1.0744
 3998SOL     OW23626   3.070   3.334   9.687  0.2901 -0.1305  0.6816
 3998SOL    HW123627   3.031   3.363   9.770  2.0808  0.6188  1.2513
 3998SOL    HW223628   3.112   3.417   9.665  0.0021 -0.3523 -0.6583
 3999SOL     OW23629   1.317   4.232   6.324  0.2506 -0.0180  0.1000
 3999SOL    HW123630   1.315   4.161   6.388 -3.5041  1.2092  1.3629
 3999SOL    HW223631   1.378   4.294   6.365 -1.3257  2.9745 -2.0757
 4000SOL     OW23632   2.048   0.857   6.966 -0.3244 -0.2102  0.1796
 4000SOL    HW123633   2.040   0.793   6.895 -0.6584  0.9278 -0.8113
 4000SOL    HW223634   1.956   0.858   6.992 -0.7504  1.2804 -1.3413
 4001SOL     OW23635   0.336   0.791   9.395 -0.2985 -0.5449  0.1655
 4001SOL    HW123636   0.258   0.842   9.374 -1.3214 -1.2817  2.1368
 4001SOL    HW223637   0.369   0.841   9.470 -0.1680  0.3040 -0.4664
 4002SOL     OW23638   1.741   3.468  12.131  0.5977 -0.2996  0.2006
 4002SOL    HW123639   1.712   3.557  12.152 -1.0644 -0.8076  0.0634
 4002SOL    HW223640   1.743   3.434  12.220  0.3244 -0.0336  0.3069
 4003SOL     OW23641   1.317   3.818   9.329 -0.3645 -0.1348  0.3261
 4003SOL    HW123642   1.236   3.808   9.280 -0.0250 -1.2846 -0.0030
 4003SOL    HW223643   1.329   3.913   9.325 -1.8240  0.0446  0.3703
 4004SOL     OW23644   1.018   3.408   4.752 -0.0102 -0.3405  0.5707
 4004SOL    HW123645   1.082   3.376   4.689  0.5062 -1.0453  1.4742
 4004SOL    HW223646   0.942   3.386   4.697  1.2643 -0.9576 -0.9365
 4005SOL     OW23647   3.483   2.422   8.869  0.0687  0.2868  0.1997
 4005SOL    HW123648   3.539   2.424   8.946  0.4067 -0.2661 -0.0309
 4005SOL    HW223649   3.432   2.343   8.890  0.9023 -0.2574  0.1951
 4006SOL     OW23650   4.724   4.642   4.767 -0.0459  0.3586 -0.1862
 4006SOL    HW123651   4.663   4.709   4.735  0.3272  0.1237 -1.3632
 4006SOL    HW223652   0.059   4.648   4.705  0.6601  1.2817  0.7402
 4007SOL     OW23653   0.561   0.041  14.078  0.1763 -0.2335 -0.6331
 4007SOL    HW123654   0.554   0.033  14.173 -1.8816  2.0391 -0.5982
 4007SOL    HW223655   0.637   0.100  14.067 -0.4994  0.4773 -1.4583
 4008SOL     OW23656   3.696   2.625   5.206 -0.3180 -0.5572 -0.0091
 4008SOL    HW123657   3.734   2.662   5.286  0.9581  0.7254 -1.2051
 4008SOL    HW223658   3.622   2.686   5.198 -0.5230 -0.3416  3.3409
 4009SOL     OW23659   2.232   1.488   9.076 -0.0212 -0.0027  0.2078
 4009SOL    HW123660   2.217   1.493   9.171 -1.3908  0.8200 -0.0638
 4009SOL    HW223661   2.163   1.429   9.047 -1.3296  1.3700  0.5788
 4010SOL     OW23662   4.427   0.634   8.885  0.5606  0.2883 -0.3907
 4010SOL    HW123663   4.424   0.679   8.969  3.3338  1.2504 -0.8241
 4010SOL    HW223664   4.383   0.703   8.834  0.0985  0.7973  0.6970
 4011SOL     OW23665   3.727   0.756  16.424  0.6727 -0.3406 -0.8524
 4011SOL    HW123666   3.665   0.759  16.497  2.3628  0.1771  0.5603
 4011SOL    HW223667   3.674   0.761  16.344  0.6880 -0.8767 -0.8928
 4012SOL     OW23668   4.053   3.183  11.246 -0.0673 -0.0360  0.2616
 4012SOL    HW123669   4.089   3.101  11.211 -1.9595  0.2091 -2.2098
 4012SOL    HW223670   4.122   3.238  11.209 -0.4997 -0.7247 -1.5520
 4013SOL     OW23671   0.040   0.439  14.465 -0.4090 -0.5744  0.6586
 4013SOL    HW123672   0.017   0.349  14.490  0.5723 -1.4250 -1.4792
 4013SOL    HW223673   0.131   0.425  14.440  0.6493  1.0706  3.7024
 4014SOL     OW23674   1.318   3.493   2.333 -0.3368  0.1945 -0.3858
 4014SOL    HW123675   1.363   3.429   2.388 -0.3569  0.2703 -0.2823
 4014SOL    HW223676   1.256   3.531   2.395  0.9897  1.5678  0.0903
 4015SOL     OW23677   0.823   1.916  12.105 -0.4379  0.1567 -0.1727
 4015SOL    HW123678   0.806   1.955  12.191  0.7131 -0.7218  0.4641
 4015SOL    HW223679   0.918   1.928  12.104 -0.3203 -0.8419 -1.3384
 4016SOL     OW23680   1.525   2.982   6.418 -0.3060 -0.3083 -0.0605
 4016SOL    HW123681   1.603   2.965   6.365 -0.5309 -0.7396 -0.2511
 4016SOL    HW223682   1.561   3.011   6.502 -1.6247  1.1299  0.0137
 4017SOL     OW23683   2.230   4.712   6.308 -0.3057 -0.6294  0.1984
 4017SOL    HW123684   2.193   0.063   6.301 -0.2352 -0.7595 -1.7599
 4017SOL    HW223685   2.320   0.007   6.304 -0.5922  0.1771  0.1946
 4018SOL     OW23686   3.634   2.384   5.340 -0.6630 -0.6974 -0.6457
 4018SOL    HW123687   3.697   2.422   5.401 -2.2582  1.2062 -0.1625
 4018SOL    HW223688   3.628   2.461   5.283  2.1427  0.4181  0.5602
 4019SOL     OW23689   2.770   1.164   5.449 -0.7415 -0.3123  0.0930
 4019SOL    HW123690   2.696   1.201   5.497  0.5356  4.0947 -1.4000
 4019SOL    HW223691   2.795   1.084   5.495  1.0705  1.4958  2.2379
 4020SOL     OW23692   1.202   3.514  13.304  0.0878 -0.3076 -0.4024
 4020SOL    HW123693   1.201   3.608  13.322  1.1041 -0.5450  0.8969
 4020SOL    HW223694   1.175   3.513  13.212 -0.9112 -0.6333 -0.1077
 4021SOL     OW23695   0.622   4.152   7.248 -0.0472 -0.7121 -0.0324
 4021SOL    HW123696   0.549   4.214   7.250  0.0167 -0.6827  1.0220
 4021SOL    HW223697   0.609   4.105   7.330 -1.2164 -2.5380 -1.2710
 4022SOL     OW23698   4.734   3.266   3.348  0.4108  0.3815  0.3832
 4022SOL    HW123699   4.650   3.220   3.352 -0.1075  1.3817  1.3137
 4022SOL    HW223700   0.003   3.290   3.441 -1.2209  0.6317  0.4427
 4023SOL     OW23701   0.401   1.068   0.892  0.7214 -0.2723 -0.2588
 4023SOL    HW123702   0.476   1.111   0.931 -0.0969 -1.7792  2.9549
 4023SOL    HW223703   0.453   1.012   0.834  1.1601  1.1012 -1.1874
 4024SOL     OW23704   0.159   1.310   3.395  0.1378  0.0556  0.1074
 4024SOL    HW123705   0.082   1.343   3.348  1.0758 -0.0557 -1.5350
 4024SOL    HW223706   0.187   1.240   3.335 -1.6212  0.9411 -1.7346
 4025SOL     OW23707   0.342   2.885   5.018  0.2023 -0.3977  0.0835
 4025SOL    HW123708   0.425   2.922   5.046 -0.4704  0.0388  1.5096
 4025SOL    HW223709   0.298   2.954   4.968 -0.8106 -1.0201  0.1030
 4026SOL     OW23710   0.809   3.235   5.052  0.3594  0.6999 -0.2284
 4026SOL    HW123711   0.861   3.221   4.972 -1.4561  0.4182 -1.3559
 4026SOL    HW223712   0.842   3.161   5.104 -2.5150  1.2221  2.2744
 4027SOL     OW23713   1.645   4.291   3.856 -0.2276  0.2986  0.0895
 4027SOL    HW123714   1.556   4.318   3.835 -0.0925  0.2207 -0.5786
 4027SOL    HW223715   1.660   4.215   3.801 -2.0296 -0.2477  0.3535
 4028SOL     OW23716   2.507   4.116  10.833 -0.0354  0.5117 -0.1128
 4028SOL    HW123717   2.509   4.195  10.887 -0.4358 -0.4765  1.3612
 4028SOL    HW223718   2.512   4.049  10.902  2.1685  2.0142  1.1925
 4029SOL     OW23719   1.850   3.890   8.822 -0.7199 -0.2851 -0.1034
 4029SOL    HW123720   1.916   3.958   8.833  0.1549 -1.1645  0.0701
 4029SOL    HW223721   1.868   3.829   8.894 -0.4018 -0.2415 -0.1486
 4030SOL     OW23722   2.833   1.665   6.904 -0.1334 -0.2441 -0.0847
 4030SOL    HW123723   2.744   1.670   6.939  0.6594 -1.3823  2.0880
 4030SOL    HW223724   2.880   1.712   6.972 -0.4582  2.0350 -1.4606
 4031SOL     OW23725   2.750   4.330   7.400  0.4476  0.1999 -0.2356
 4031SOL    HW123726   2.664   4.338   7.441  0.4686  0.8090 -0.3001
 4031SOL    HW223727   2.768   4.240   7.428 -3.1734 -0.0959  1.0386
 4032SOL     OW23728   3.053   3.777   6.615 -0.2909  0.2869  0.6493
 4032SOL    HW123729   3.072   3.701   6.670  0.5602  0.2480  0.2932
 4032SOL    HW223730   3.030   3.835   6.688 -0.7156 -1.8552  2.2038
 4033SOL     OW23731   2.567   1.314   3.147 -0.0642  0.0457  0.1094
 4033SOL    HW123732   2.510   1.292   3.221 -0.2282 -2.2500 -0.6874
 4033SOL    HW223733   2.588   1.230   3.105  1.5448  0.7148 -0.3922
 4034SOL     OW23734   2.977   0.624  13.375  0.2275 -0.3786 -0.4145
 4034SOL    HW123735   3.006   0.541  13.415  1.1435  0.2207  0.1646
 4034SOL    HW223736   3.046   0.677  13.415 -1.0030  1.1511 -0.3418
 4035SOL     OW23737   4.170   2.262   6.545  0.6755 -0.4992  0.3102
 4035SOL    HW123738   4.172   2.338   6.604  1.1741 -1.0337  0.9728
 4035SOL    HW223739   4.116   2.302   6.477  1.0446  1.6303  1.2678
 4036SOL     OW23740   2.421   2.466   8.085 -0.1279 -0.2204  0.0673
 4036SOL    HW123741   2.504   2.450   8.041 -0.9477 -1.3791 -1.0821
 4036SOL    HW223742   2.434   2.560   8.095 -1.1034  0.0007 -0.7544
 4037SOL     OW23743   1.433   0.139   4.717  0.1007 -0.1041  0.6215
 4037SOL    HW123744   1.435   0.060   4.770  1.9457 -0.7580 -0.4285
 4037SOL    HW223745   1.377   0.114   4.643 -0.6721  0.4240  1.0308
 4038SOL     OW23746   2.577   1.778   7.146 -0.1719 -0.5001  0.1026
 4038SOL    HW123747   2.577   1.846   7.213 -0.1068 -0.7408  0.3483
 4038SOL    HW223748   2.537   1.825   7.074  1.7503  0.6283 -0.2206
 4039SOL     OW23749   4.158   3.367   8.622 -0.0953 -0.0341  0.3611
 4039SOL    HW123750   4.235   3.423   8.608 -0.4483  0.2954 -0.2765
 4039SOL    HW223751   4.088   3.420   8.585  1.4023  1.6904 -0.0218
 4040SOL     OW23752   3.388   2.526   5.866  0.3469  0.3949 -0.1417
 4040SOL    HW123753   3.308   2.506   5.818  0.0868 -1.1263  0.9346
 4040SOL    HW223754   3.425   2.440   5.880  0.8566  0.4222 -1.3483
 4041SOL     OW23755   1.463   4.450   5.071 -0.0702 -0.4813 -0.6461
 4041SOL    HW123756   1.486   4.404   5.152 -0.4426 -0.5690 -0.5896
 4041SOL    HW223757   1.370   4.427   5.072 -0.0947 -0.3890 -1.1658
 4042SOL     OW23758   1.094   4.251   2.665 -0.1407 -0.1446  0.2739
 4042SOL    HW123759   1.145   4.173   2.641  0.5782  0.2255  0.5847
 4042SOL    HW223760   1.163   4.314   2.683  0.7377 -0.5930 -1.5151
 4043SOL     OW23761   0.209   3.366   8.630 -0.2906  0.0934 -0.1838
 4043SOL    HW123762   0.259   3.401   8.705 -0.0620 -0.4046 -0.1034
 4043SOL    HW223763   0.187   3.282   8.671  1.6300  0.0455  0.7995
 4044SOL     OW23764   3.122   3.508   9.067  0.7218  0.0007  0.0263
 4044SOL    HW123765   3.109   3.562   9.146 -1.2077  1.6190 -1.3938
 4044SOL    HW223766   3.167   3.431   9.101  1.6841  1.0343  1.0791
 4045SOL     OW23767   1.725   0.366   6.371  0.1164  0.3426  0.6396
 4045SOL    HW123768   1.741   0.460   6.382 -2.1623  0.8894 -0.7601
 4045SOL    HW223769   1.745   0.356   6.277 -0.6130  1.2742  0.3850
 4046SOL     OW23770   3.117   2.238  15.381  0.0255  0.3099  0.0603
 4046SOL    HW123771   3.031   2.197  15.388  0.3864 -0.3202  0.8163
 4046SOL    HW223772   3.100   2.298  15.309 -0.6342 -1.8616 -1.6147
 4047SOL     OW23773   1.819   2.977   3.757  0.5701 -0.2807 -0.1139
 4047SOL    HW123774   1.825   3.072   3.742  1.2259  0.2043  3.2012
 4047SOL    HW223775   1.771   2.977   3.840 -0.4812  0.4005 -0.7143
 4048SOL     OW23776   2.835   2.000  14.431  0.0403  0.4192 -0.1310
 4048SOL    HW123777   2.872   2.006  14.519 -0.9564 -0.6767  0.3517
 4048SOL    HW223778   2.762   2.060  14.444 -1.2146 -0.4643 -2.9912
 4049SOL     OW23779   2.451   4.168   7.967  0.0279 -0.3382 -0.3175
 4049SOL    HW123780   2.424   4.077   7.958  1.1436 -0.6261 -0.6687
 4049SOL    HW223781   2.396   4.201   8.038  0.6586  0.5580 -0.2490
 4050SOL     OW23782   0.297   1.707   5.492  0.5115 -0.2084 -0.2506
 4050SOL    HW123783   0.260   1.666   5.414  1.3119  1.0816 -1.3139
 4050SOL    HW223784   0.227   1.771   5.505 -1.0022 -2.0942  0.7923
 4051SOL     OW23785   3.178   0.015   2.850  0.4336 -0.0184 -0.5811
 4051SOL    HW123786   3.272   0.032   2.847  0.4469  0.2274  1.3404
 4051SOL    HW223787   3.176   4.731   2.943  2.4660  0.1265 -0.5112
 4052SOL     OW23788   1.421   1.425  13.315  0.0660 -0.2894 -0.3862
 4052SOL    HW123789   1.416   1.520  13.310 -1.7255 -0.3636  0.1507
 4052SOL    HW223790   1.410   1.415  13.410  3.1536 -1.1068 -0.1090
 4053SOL     OW23791   0.908   0.291  12.543 -0.2000  0.0037 -0.0036
 4053SOL    HW123792   0.919   0.202  12.511 -2.6521 -1.0060  1.9424
 4053SOL    HW223793   0.925   0.348  12.468  1.5953 -0.3609  0.1297
 4054SOL     OW23794   2.144   0.083   5.329 -0.4183  0.4331 -0.1433
 4054SOL    HW123795   2.177   0.150   5.269 -0.8775  1.7152  1.0393
 4054SOL    HW223796   2.070   0.046   5.281 -0.8063 -2.1564  2.4469
 4055SOL     OW23797   4.543   0.163   2.236 -0.2935  0.6487 -0.5483
 4055SOL    HW123798   4.621   0.218   2.247  0.8743 -0.6531 -2.3523
 4055SOL    HW223799   4.475   0.212   2.283 -3.1962 -0.0726 -3.9949
 4056SOL     OW23800   3.185   4.471   5.557 -0.8100 -0.1790 -0.6930
 4056SOL    HW123801   3.177   4.445   5.465  0.0057 -1.9026 -0.2757
 4056SOL    HW223802   3.281   4.466   5.564 -0.8983 -1.4013 -0.3685
 4057SOL     OW23803   1.901   0.296   3.781  0.8370  0.1149  0.1056
 4057SOL    HW123804   1.843   0.306   3.857  1.1403 -0.7286  0.4498
 4057SOL    HW223805   1.957   0.371   3.796  0.8340  0.2505 -0.5530
 4058SOL     OW23806   0.246   2.477   5.359  0.6342  1.1732 -1.0135
 4058SOL    HW123807   0.165   2.525   5.348 -0.1128  0.4975  1.4795
 4058SOL    HW223808   0.308   2.532   5.311  0.8331  1.2558 -0.6665
 4059SOL     OW23809   2.002   4.457  14.779  0.2690  0.5395 -0.0880
 4059SOL    HW123810   2.032   4.525  14.839 -0.0152 -0.1791  0.8594
 4059SOL    HW223811   1.929   4.420  14.828  0.4850 -0.7931 -0.7840
 4060SOL     OW23812   0.756   1.507   5.513  0.3983 -0.0538 -0.0381
 4060SOL    HW123813   0.715   1.485   5.597  1.8487 -0.3477  0.5881
 4060SOL    HW223814   0.836   1.553   5.539  0.7722 -0.7252 -0.0054
 4061SOL     OW23815   0.842   2.522   7.337  0.4053 -0.3298 -0.4980
 4061SOL    HW123816   0.750   2.505   7.317  0.5498 -1.2418 -0.4066
 4061SOL    HW223817   0.864   2.540   7.245  0.0563  2.8740  0.0528
 4062SOL     OW23818   0.829   0.820   0.641 -0.4028  0.2456 -0.6293
 4062SOL    HW123819   0.911   0.857   0.609  0.1122 -0.8506 -0.5968
 4062SOL    HW223820   0.758   0.856   0.588 -1.7880  0.1987  1.1917
 4063SOL     OW23821   3.269   0.766  12.152 -0.0728 -0.6350 -0.3726
 4063SOL    HW123822   3.233   0.718  12.226 -1.0434  0.3142 -0.2344
 4063SOL    HW223823   3.352   0.790  12.191 -1.6902 -1.1473  3.3265
 4064SOL     OW23824   3.792   1.395  16.805 -0.0521  0.4689  0.3244
 4064SOL    HW123825   3.802   1.311  16.760  0.4636  1.4595 -1.4185
 4064SOL    HW223826   3.706   1.422  16.774 -0.3641 -0.2085  0.5969
 4065SOL     OW23827   1.114   3.512  12.987 -0.8000 -0.2412  0.2221
 4065SOL    HW123828   1.035   3.517  12.933 -0.7085  0.4359  0.1539
 4065SOL    HW223829   1.142   3.604  12.982 -0.2400 -0.3759  0.8952
 4066SOL     OW23830   2.164   1.936   9.784 -0.5168 -0.1944  0.0099
 4066SOL    HW123831   2.201   1.914   9.870 -0.8130  1.1115  0.4634
 4066SOL    HW223832   2.167   2.031   9.788 -1.4432 -0.1339 -0.7140
 4067SOL     OW23833   2.384   0.873  10.466  0.2678 -0.3583  0.4682
 4067SOL    HW123834   2.309   0.926  10.491 -0.2044 -0.4572 -0.7297
 4067SOL    HW223835   2.413   0.920  10.387  0.6998 -2.4386 -0.5955
 4068SOL     OW23836   1.531   2.692   2.345  0.4340 -0.4193  0.1187
 4068SOL    HW123837   1.541   2.600   2.370 -0.9157 -1.0963 -1.8916
 4068SOL    HW223838   1.437   2.694   2.362  0.4682  0.7642  0.1823
 4069SOL     OW23839   0.603   2.800  14.995 -0.0605 -0.2735  0.3643
 4069SOL    HW123840   0.543   2.807  14.921  1.5025  0.0726 -0.8587
 4069SOL    HW223841   0.569   2.723  15.042 -3.0577  0.3760 -0.7413
 4070SOL     OW23842   1.615   4.735   7.755 -0.4853  0.6587 -0.1815
 4070SOL    HW123843   1.669   4.663   7.724 -2.2096 -0.0367 -1.5815
 4070SOL    HW223844   1.535   4.720   7.703 -1.4262  0.8489  1.2115
 4071SOL     OW23845   3.489   1.509   5.606  0.8068 -0.0591 -0.5532
 4071SOL    HW123846   3.474   1.485   5.698 -0.1738  1.9218 -0.2005
 4071SOL    HW223847   3.428   1.454   5.557  1.7135 -2.5812  1.1700
 4072SOL     OW23848   3.680   3.737  12.190  0.0597  0.4867  0.5739
 4072SOL    HW123849   3.690   3.660  12.134  0.4818 -1.3064  3.1387
 4072SOL    HW223850   3.691   3.694  12.275 -0.7499  0.9022  0.8906
 4073SOL     OW23851   2.564   0.305   9.419  0.2250 -0.0764 -0.1325
 4073SOL    HW123852   2.493   0.367   9.400 -0.0367 -0.2880  0.1472
 4073SOL    HW223853   2.574   0.334   9.509  0.0322 -0.8136  0.1249
 4074SOL     OW23854   0.758   0.210  14.050 -0.0907  0.0441  1.1372
 4074SOL    HW123855   0.843   0.245  14.078  1.7045 -2.2242 -1.5702
 4074SOL    HW223856   0.739   0.266  13.975 -1.9329  0.7718  2.1262
 4075SOL     OW23857   1.064   2.776   6.857 -0.1206 -0.2084 -0.1816
 4075SOL    HW123858   1.097   2.840   6.793 -0.0385 -0.1748 -0.1068
 4075SOL    HW223859   0.970   2.790   6.848  0.3473  2.1272 -1.4916
 4076SOL     OW23860   0.078   2.194   2.119 -0.5532  0.4372  0.2296
 4076SOL    HW123861   0.019   2.188   2.044 -0.7430  1.1778  0.3234
 4076SOL    HW223862   0.013   2.210   2.186 -0.0138 -1.9682  1.3417
 4077SOL     OW23863   1.164   1.468   7.296  0.4334 -0.3897 -0.1267
 4077SOL    HW123864   1.101   1.506   7.357  0.1017  1.4178 -1.5858
 4077SOL    HW223865   1.138   1.504   7.211  1.3754  0.4410 -0.0640
 4078SOL     OW23866   2.570   3.295   1.170  0.0100  0.3800  0.3904
 4078SOL    HW123867   2.611   3.220   1.214  1.9324  1.6561  0.8005
 4078SOL    HW223868   2.558   3.351   1.247 -0.9151 -1.5600  1.6576
 4079SOL     OW23869   4.554   2.166   1.983 -0.0464 -0.3549  0.4779
 4079SOL    HW123870   4.538   2.102   1.914  1.7888 -1.1880  0.8248
 4079SOL    HW223871   4.475   2.189   2.032 -1.3735 -2.5857 -0.6415
 4080SOL     OW23872   4.461   3.717   1.555  0.2553 -0.8507  0.7059
 4080SOL    HW123873   4.546   3.714   1.600 -0.7637  0.7654  2.6832
 4080SOL    HW223874   4.491   3.710   1.464 -0.3447 -2.4568  0.6463
 4081SOL     OW23875   3.548   0.359   6.179  0.2690  0.5762 -0.4948
 4081SOL    HW123876   3.551   0.427   6.112 -1.6414  1.3882  0.2489
 4081SOL    HW223877   3.596   0.397   6.253 -0.0994  0.0522  0.0259
 4082SOL     OW23878   4.046   0.777   8.286 -0.0988 -0.1888  0.0448
 4082SOL    HW123879   4.025   0.696   8.331 -2.6015  0.7798  0.6237
 4082SOL    HW223880   3.979   0.786   8.218  1.0254 -0.1687 -1.0708
 4083SOL     OW23881   2.431   0.604   6.859  0.4586  0.1065 -0.4657
 4083SOL    HW123882   2.416   0.552   6.780 -1.8406  0.7297 -0.4544
 4083SOL    HW223883   2.413   0.689   6.818  3.2077  1.4172  1.0853
 4084SOL     OW23884   1.994   2.143   8.969  0.1164 -0.4216 -0.0993
 4084SOL    HW123885   1.979   2.121   8.877 -1.9043 -1.4065  0.4711
 4084SOL    HW223886   1.943   2.225   8.968 -2.4709 -2.0132  0.2986
 4085SOL     OW23887   4.726   2.965   2.341 -0.3374 -0.6840 -0.4097
 4085SOL    HW123888   4.651   2.907   2.333 -0.8317 -0.1990  0.5953
 4085SOL    HW223889   0.047   2.905   2.386  1.8990 -0.0589 -2.4923
 4086SOL     OW23890   1.457   3.345   0.477  0.8620  0.3339 -0.2297
 4086SOL    HW123891   1.413   3.275   0.429 -0.1715 -0.1741  1.4739
 4086SOL    HW223892   1.544   3.309   0.497  2.0882  2.8690 -1.0462
 4087SOL     OW23893   2.718   0.292   5.616 -0.8065 -0.0489 -0.4817
 4087SOL    HW123894   2.676   0.376   5.636 -0.4355 -0.3982  1.7275
 4087SOL    HW223895   2.651   0.244   5.665  1.1809 -1.4150  0.8829
 4088SOL     OW23896   2.249   3.676   1.215 -0.0991  0.1595  0.4286
 4088SOL    HW123897   2.171   3.620   1.218  0.2815 -0.3084  1.4399
 4088SOL    HW223898   2.298   3.622   1.276 -1.5626 -2.3994 -0.6528
 4089SOL     OW23899   3.649   3.752  17.340  0.5181  0.0461 -0.0595
 4089SOL    HW123900   3.660   3.738  17.246  1.6385  0.2969  0.0294
 4089SOL    HW223901   3.600   3.673  17.362  1.7263 -0.5916  0.3394
 4090SOL     OW23902   0.862   1.127   6.680 -0.0679  0.0923  0.2595
 4090SOL    HW123903   0.852   1.125   6.775  1.5316  0.9776  0.4479
 4090SOL    HW223904   0.800   1.062   6.645  0.0926  1.2311 -2.0979
 4091SOL     OW23905   1.855   3.230   4.792  0.4295 -0.4844  0.3072
 4091SOL    HW123906   1.941   3.203   4.821  0.4732 -0.1554  0.4870
 4091SOL    HW223907   1.841   3.185   4.709  0.2843 -0.2007  0.1763
 4092SOL     OW23908   3.047   0.215   8.105  0.4697  0.2691  0.6003
 4092SOL    HW123909   3.097   0.282   8.151 -0.9133  2.7706 -1.5454
 4092SOL    HW223910   3.011   0.259   8.028 -0.1306 -0.4154  0.4878
 4093SOL     OW23911   1.798   4.594   6.671 -0.0432 -0.1106 -0.4933
 4093SOL    HW123912   1.863   4.664   6.667 -0.2161 -0.0165 -1.5007
 4093SOL    HW223913   1.801   4.563   6.581 -1.1558  0.6241 -0.7871
 4094SOL     OW23914   3.079   3.515   5.926  0.2257  0.5616  0.3042
 4094SOL    HW123915   3.061   3.487   5.836 -0.9384  0.8684  0.4418
 4094SOL    HW223916   3.008   3.579   5.938  0.6383  1.1231 -0.2282
 4095SOL     OW23917   4.433   0.653  13.843 -0.4849 -0.2120 -0.3199
 4095SOL    HW123918   4.484   0.594  13.898  0.1499  0.9142  0.2943
 4095SOL    HW223919   4.403   0.722  13.903 -0.0927 -2.1486  2.0986
 4096SOL     OW23920   2.508   4.051   4.894  0.3310  0.1862  0.1423
 4096SOL    HW123921   2.540   4.016   4.811  2.2774  0.6829  0.6841
 4096SOL    HW223922   2.447   4.116   4.859 -1.0779 -1.0794  0.2574
 4097SOL     OW23923   0.423   0.111   9.172 -0.5269 -0.3639  0.3345
 4097SOL    HW123924   0.469   0.029   9.153  0.6608  0.6410 -1.0745
 4097SOL    HW223925   0.334   0.090   9.143 -0.4590  0.8513 -0.7458
 4098SOL     OW23926   3.918   0.950   5.935  0.3800  0.4023 -0.5593
 4098SOL    HW123927   3.896   0.873   5.987  0.7393 -1.1581 -2.6791
 4098SOL    HW223928   3.927   0.906   5.850  0.8429 -1.2078  0.3205
 4099SOL     OW23929   0.880   1.721   5.909  0.0104  0.1662  0.5483
 4099SOL    HW123930   0.963   1.754   5.876  0.2583 -0.6306  0.3584
 4099SOL    HW223931   0.892   1.678   5.993 -0.5861  0.3250  0.7180
 4100SOL     OW23932   3.092   3.280   4.678 -0.6220  0.4041  0.1066
 4100SOL    HW123933   3.160   3.291   4.744  0.3108  0.3288 -0.8573
 4100SOL    HW223934   3.054   3.368   4.684  0.2511  0.8081 -0.3427
 4101SOL     OW23935   3.955   2.218   3.546  0.1170 -0.0715 -0.3188
 4101SOL    HW123936   3.952   2.163   3.624  0.3514 -0.0709 -0.3114
 4101SOL    HW223937   4.035   2.188   3.505  0.1260 -1.4670  0.7222
 4102SOL     OW23938   2.382   3.009   1.920 -0.0548 -0.2602  0.3361
 4102SOL    HW123939   2.407   3.094   1.955 -2.5854 -0.1662  1.8784
 4102SOL    HW223940   2.312   2.975   1.976  1.0309 -0.5863  1.5098
 4103SOL     OW23941   2.412   1.101   4.138 -0.3386  0.0388  0.3436
 4103SOL    HW123942   2.331   1.150   4.147 -0.5915 -0.4875  0.9519
 4103SOL    HW223943   2.449   1.131   4.055 -0.4765 -0.4897  0.0932
 4104SOL     OW23944   0.320   4.712   7.950 -0.6048  0.1317 -0.4455
 4104SOL    HW123945   0.284   4.704   7.862  0.5059 -0.8320 -0.8028
 4104SOL    HW223946   0.249   0.014   8.002 -0.6030  0.0388 -0.3719
 4105SOL     OW23947   0.818   1.072   6.958  0.3051  0.3160 -0.3775
 4105SOL    HW123948   0.829   0.995   7.014  1.6255  0.6759 -0.1352
 4105SOL    HW223949   0.755   1.121   7.009 -0.5977 -2.3350  1.0823
 4106SOL     OW23950   3.265   0.420  12.541 -0.4813 -0.0469 -0.0359
 4106SOL    HW123951   3.231   0.369  12.614 -1.5455  1.1183  0.2698
 4106SOL    HW223952   3.339   0.362  12.522  1.6948  2.3319  1.1589
 4107SOL     OW23953   2.694   4.008   5.112  0.4167  0.0945 -0.3685
 4107SOL    HW123954   2.620   4.005   5.051 -0.5208 -0.1931  0.7822
 4107SOL    HW223955   2.654   4.033   5.195  1.3055  1.2910 -0.2994
 4108SOL     OW23956   0.582   4.105   1.293  0.1051  0.0753 -0.7989
 4108SOL    HW123957   0.600   4.041   1.361 -0.6488 -0.5241 -1.1688
 4108SOL    HW223958   0.545   4.058   1.218 -1.5051  1.6383 -1.0071
 4109SOL     OW23959   3.121   0.943  12.591 -0.6456  0.0371  0.2700
 4109SOL    HW123960   3.214   0.919  12.593 -0.8193 -0.7612 -1.0220
 4109SOL    HW223961   3.092   0.867  12.642 -0.3670 -1.0714 -1.2039
 4110SOL     OW23962   4.058   0.153  11.723 -0.0315 -0.3791 -0.2200
 4110SOL    HW123963   4.084   0.101  11.647 -0.3978 -0.8825  0.0023
 4110SOL    HW223964   4.029   0.232  11.677  0.2572 -1.1362 -1.6988
 4111SOL     OW23965   0.462   3.092   8.535  0.1770 -0.3886  0.1391
 4111SOL    HW123966   0.543   3.088   8.485  0.1830  0.6474  0.0650
 4111SOL    HW223967   0.419   3.171   8.504 -0.4048 -1.1415 -0.9861
 4112SOL     OW23968   4.584   2.517   2.822  0.1466 -0.1704  0.1386
 4112SOL    HW123969   4.567   2.427   2.796 -0.8797 -0.5674  2.1605
 4112SOL    HW223970   4.559   2.568   2.745  0.4230 -0.4679 -0.1430
 4113SOL     OW23971   1.518   3.961   7.638 -0.0410 -0.0140  0.2708
 4113SOL    HW123972   1.592   3.997   7.686 -1.5194  2.2979  0.8338
 4113SOL    HW223973   1.442   3.974   7.694 -0.0605  0.2490  0.1815
 4114SOL     OW23974   1.110   4.062   7.366  0.5262  0.0964 -0.1647
 4114SOL    HW123975   1.139   4.006   7.438  0.2952  1.1799  0.7817
 4114SOL    HW223976   1.165   4.049   7.289 -0.2871 -2.9172 -0.2222
 4115SOL     OW23977   3.169   3.357  11.933  0.6107  0.7820  0.9809
 4115SOL    HW123978   3.226   3.425  11.970  0.9490  1.4156 -0.6977
 4115SOL    HW223979   3.234   3.288  11.925 -0.5719 -0.3388  1.1583
 4116SOL     OW23980   1.311   2.621  16.192 -0.0029  0.6422  0.3954
 4116SOL    HW123981   1.226   2.643  16.156 -0.6340  0.0526  1.4962
 4116SOL    HW223982   1.313   2.680  16.268 -1.6367  0.3247  0.6748
 4117SOL     OW23983   0.776   3.907   1.772  0.1434 -0.2782  0.6423
 4117SOL    HW123984   0.837   3.953   1.830 -1.1278 -0.5587  2.2088
 4117SOL    HW223985   0.737   3.842   1.831 -0.0540 -0.0845  0.7237
 4118SOL     OW23986   3.120   4.725   7.954  0.4408 -0.2890  0.4499
 4118SOL    HW123987   3.082   0.049   8.018  1.1836  0.8869 -0.2542
 4118SOL    HW223988   3.034   4.690   7.930  1.6764 -1.1308 -2.7392
 4119SOL     OW23989   1.439   2.616   3.923 -0.1978  0.2191  0.5836
 4119SOL    HW123990   1.409   2.559   3.852 -3.9036 -0.1546  2.5035
 4119SOL    HW223991   1.405   2.701   3.892  0.9641  0.0526 -1.1985
 4120SOL     OW23992   3.490   2.789   1.397  0.0706 -0.2214  0.3370
 4120SOL    HW123993   3.407   2.785   1.443 -0.5007 -1.2962 -0.7791
 4120SOL    HW223994   3.494   2.708   1.346  0.2122  0.9447 -1.5343
 4121SOL     OW23995   1.331   3.906   8.073  0.2972 -0.2729 -0.4877
 4121SOL    HW123996   1.259   3.902   8.135  2.0580  0.0396  1.5793
 4121SOL    HW223997   1.398   3.944   8.129  1.5699 -0.3408 -1.9670
 4122SOL     OW23998   0.029   2.835   7.002  0.3828 -0.4217  0.0017
 4122SOL    HW123999   0.058   2.926   6.996  0.8577 -0.7265 -2.3586
 4122SOL    HW224000   0.074   2.788   6.931 -0.1268 -0.3900 -0.3423
 4123SOL     OW24001   0.194   2.180   4.738 -0.1185 -0.1040 -0.0144
 4123SOL    HW124002   0.236   2.206   4.820  0.5760  1.2337 -0.7911
 4123SOL    HW224003   0.121   2.128   4.770 -0.4528  0.8611  0.7919
 4124SOL     OW24004   1.209   4.176   1.691  0.2823  0.9714  0.0755
 4124SOL    HW124005   1.125   4.206   1.656 -0.1673 -0.0994  0.2196
 4124SOL    HW224006   1.271   4.212   1.628  0.9645  1.5199  1.0714
 4125SOL     OW24007   2.436   0.790   1.614 -0.0828 -0.2414  0.2700
 4125SOL    HW124008   2.440   0.747   1.529  0.1231  1.2483 -0.4723
 4125SOL    HW224009   2.362   0.850   1.604  0.0671 -0.1778 -0.4440
 4126SOL     OW24010   0.701   0.948  12.721  0.1373  0.0609 -0.2434
 4126SOL    HW124011   0.689   0.961  12.627  0.2169 -0.8482 -0.3832
 4126SOL    HW224012   0.779   0.892  12.721  0.1424  0.0698 -0.6564
 4127SOL     OW24013   4.136   2.071  10.978  0.6273 -0.7156 -0.6872
 4127SOL    HW124014   4.059   2.082  10.923 -0.5410 -2.1053  0.6734
 4127SOL    HW224015   4.163   1.980  10.973  0.0698 -0.9838  1.0684
 4128SOL     OW24016   1.838   3.658   7.675  0.1705  0.3392 -0.8090
 4128SOL    HW124017   1.809   3.567   7.680  1.1838  0.1222  1.1203
 4128SOL    HW224018   1.922   3.655   7.720 -0.0862  1.7606 -0.2070
 4129SOL     OW24019   3.078   1.519  11.658  0.0633  0.4304  0.2936
 4129SOL    HW124020   3.082   1.436  11.705  0.9264 -0.6852 -1.7642
 4129SOL    HW224021   3.171   1.540  11.660  0.0938  0.2590  0.6231
 4130SOL     OW24022   4.733   0.166  16.640  0.2210 -0.2296 -0.7593
 4130SOL    HW124023   0.011   0.221  16.564 -2.1561 -0.8848 -1.7139
 4130SOL    HW224024   4.641   0.142  16.632  0.6491 -2.3696  0.8336
 4131SOL     OW24025   3.077   3.198   8.812 -0.3221  0.3961  0.1226
 4131SOL    HW124026   3.123   3.120   8.843  1.2792  1.8158  1.3347
 4131SOL    HW224027   3.145   3.265   8.812  1.2921 -1.3002 -4.3740
 4132SOL     OW24028   3.846   0.235   5.205  0.2580 -0.6596  0.2448
 4132SOL    HW124029   3.925   0.253   5.154  0.2156 -1.6521 -0.1674
 4132SOL    HW224030   3.849   0.140   5.209 -1.8957 -0.6993  1.0116
 4133SOL     OW24031   2.586   2.562   0.673 -0.2672  0.3479 -0.6526
 4133SOL    HW124032   2.498   2.532   0.695 -0.0123 -1.5998 -2.3437
 4133SOL    HW224033   2.574   2.657   0.663 -0.0667  0.3471 -0.9121
 4134SOL     OW24034   2.591   4.321  10.544 -0.4044 -0.4287  0.4532
 4134SOL    HW124035   2.610   4.228  10.557 -0.0186 -0.6843 -1.8770
 4134SOL    HW224036   2.511   4.323  10.596 -0.0190 -1.9412  1.1300
 4135SOL     OW24037   1.467   0.046  15.442 -0.2011 -0.2278  0.2242
 4135SOL    HW124038   1.399   0.084  15.386  0.7703  0.4561 -0.4806
 4135SOL    HW224039   1.419   4.712  15.484 -1.0319  1.1451  1.6438
 4136SOL     OW24040   1.448   0.945   0.686 -0.0201 -0.3369  0.0093
 4136SOL    HW124041   1.460   0.935   0.781  0.6765 -0.7795 -0.1289
 4136SOL    HW224042   1.401   1.028   0.682  1.3079  0.4150  0.2785
 4137SOL     OW24043   3.545   1.390  13.137 -0.7556 -0.4223  0.3703
 4137SOL    HW124044   3.494   1.444  13.077 -0.0944 -1.2137 -0.8987
 4137SOL    HW224045   3.638   1.402  13.118 -0.4925 -4.1188 -0.7474
 4138SOL     OW24046   0.025   4.300   7.816 -0.1149 -0.3422 -0.0381
 4138SOL    HW124047   4.686   4.312   7.873 -0.4767 -0.6004 -0.4649
 4138SOL    HW224048   0.047   4.208   7.834  0.5085  0.1017  1.4828
 4139SOL     OW24049   2.444   2.364  13.006  0.4142  0.2508 -0.0686
 4139SOL    HW124050   2.441   2.450  12.963 -1.7923  0.4567  0.4863
 4139SOL    HW224051   2.532   2.375  13.041 -0.6413  1.2516  2.2225
 4140SOL     OW24052   2.359   1.806  12.661  0.0683  0.0134 -0.0645
 4140SOL    HW124053   2.396   1.887  12.627  0.5782 -0.7300 -1.2737
 4140SOL    HW224054   2.303   1.846  12.727 -1.7741  0.6625 -2.0231
 4141SOL     OW24055   0.309   0.402   0.368  0.3690  0.4518 -0.2640
 4141SOL    HW124056   0.253   0.474   0.338 -0.7842 -1.1612 -2.0047
 4141SOL    HW224057   0.389   0.453   0.378 -0.0533  1.2205 -0.7753
 4142SOL     OW24058   2.569   3.196   3.154 -0.0534  0.0421 -0.2076
 4142SOL    HW124059   2.557   3.279   3.199  0.1004  0.3734 -0.7692
 4142SOL    HW224060   2.566   3.139   3.230  2.3557 -1.2352 -1.0668
 4143SOL     OW24061   1.732   2.248   0.919  0.5644  0.7056 -0.4226
 4143SOL    HW124062   1.637   2.254   0.910  0.7595  0.6192 -2.6074
 4143SOL    HW224063   1.750   2.334   0.957  0.6425 -0.3242  1.8192
 4144SOL     OW24064   3.111   1.291   2.075  0.0071 -0.0992 -0.3994
 4144SOL    HW124065   3.107   1.275   1.981  1.3093 -2.1870 -0.1189
 4144SOL    HW224066   3.185   1.240   2.110 -0.1840 -2.0312 -2.8770
 4145SOL     OW24067   0.736   0.377   4.649 -0.5487 -0.0365 -0.6552
 4145SOL    HW124068   0.753   0.284   4.633 -1.7366  0.0600 -2.4770
 4145SOL    HW224069   0.809   0.396   4.708 -1.2451 -0.6850  0.4270
 4146SOL     OW24070   0.913   1.016  17.127 -0.8215  0.2561  0.1443
 4146SOL    HW124071   0.839   1.068  17.159  0.9243  1.7437  1.8153
 4146SOL    HW224072   0.965   1.001  17.207 -0.9771 -1.4468 -0.0710
 4147SOL     OW24073   3.122   1.461   1.424 -0.7572 -0.1063  0.1223
 4147SOL    HW124074   3.196   1.424   1.471 -0.4686  0.8393  0.4222
 4147SOL    HW224075   3.067   1.484   1.499  0.1438  1.8629  0.1710
 4148SOL     OW24076   0.145   2.821  15.554 -0.1858  0.2869 -0.3051
 4148SOL    HW124077   0.120   2.728  15.553 -1.5760  0.6320  1.5695
 4148SOL    HW224078   0.060   2.855  15.526  0.5832  2.0637 -0.4329
 4149SOL     OW24079   3.109   2.121  11.955 -0.5525  0.0240  0.3341
 4149SOL    HW124080   3.083   2.041  11.910  1.7146  0.2501 -1.3674
 4149SOL    HW224081   3.182   2.082  12.005  0.3508  1.8589  0.4476
 4150SOL     OW24082   3.376   3.907   2.561 -0.0031  0.5395 -0.1556
 4150SOL    HW124083   3.321   3.985   2.564 -1.0940 -0.2919  1.5123
 4150SOL    HW224084   3.379   3.899   2.466  1.4107  0.9936 -0.1506
 4151SOL     OW24085   0.980   3.441  11.625  0.4627  0.0684 -0.0708
 4151SOL    HW124086   0.984   3.366  11.684  3.8377 -1.6270 -2.4773
 4151SOL    HW224087   0.997   3.505  11.694 -1.5734 -0.6719  1.0992
 4152SOL     OW24088   4.477   3.264  13.270 -0.1561 -0.8039  0.2640
 4152SOL    HW124089   4.503   3.235  13.357  1.3224  1.5855  0.6047
 4152SOL    HW224090   4.456   3.356  13.284 -0.1533 -1.1593  2.5001
 4153SOL     OW24091   3.487   1.855   2.811  0.1323  0.8464  0.0075
 4153SOL    HW124092   3.502   1.888   2.899  2.5796 -1.9612  0.6169
 4153SOL    HW224093   3.456   1.765   2.824 -0.5143  1.3701  2.0994
 4154SOL     OW24094   4.638   2.647   4.182  0.6024  0.7577  0.2705
 4154SOL    HW124095   4.557   2.658   4.134  0.1256  2.1205  1.3887
 4154SOL    HW224096   4.651   2.552   4.172  0.2023  0.6840  0.4297
 4155SOL     OW24097   1.603   0.847   8.829 -0.4468 -0.2182  0.0589
 4155SOL    HW124098   1.590   0.837   8.923 -2.4500  1.2556 -0.0549
 4155SOL    HW224099   1.509   0.851   8.809  0.3939 -0.0661 -3.7823
 4156SOL     OW24100   1.744   0.326   6.988  0.5740 -0.1604  0.1950
 4156SOL    HW124101   1.726   0.420   6.990  1.5051 -0.0130  1.6093
 4156SOL    HW224102   1.674   0.283   7.037  1.3732 -1.4622  0.2096
 4157SOL     OW24103   0.522   2.331   9.756 -0.1905 -0.0924  0.1394
 4157SOL    HW124104   0.514   2.240   9.727  2.0233 -0.3569  0.3839
 4157SOL    HW224105   0.527   2.312   9.850  0.9264 -0.6816 -0.0385
 4158SOL     OW24106   0.345   2.093   5.644  0.3647  0.0307  0.5499
 4158SOL    HW124107   0.405   2.027   5.609  0.4573  0.7229 -0.5885
 4158SOL    HW224108   0.266   2.098   5.590  1.3179  1.0727 -0.7157
 4159SOL     OW24109   0.528   0.301   5.919  0.2218 -0.4243 -0.1159
 4159SOL    HW124110   0.483   0.382   5.892 -0.0653 -0.6858 -0.4198
 4159SOL    HW224111   0.583   0.288   5.843  0.6225 -1.0208  0.2778
 4160SOL     OW24112   1.417   0.894   0.230  0.0567 -0.4619 -0.1877
 4160SOL    HW124113   1.455   0.865   0.313  0.4786  0.0771 -0.1975
 4160SOL    HW224114   1.376   0.974   0.264 -0.3634 -0.2101 -1.3047
 4161SOL     OW24115   2.663   1.023   6.676  0.1329 -0.0919  0.0764
 4161SOL    HW124116   2.735   0.999   6.734  1.3369 -1.5246 -1.9819
 4161SOL    HW224117   2.648   0.941   6.629 -2.3867  2.0637 -2.9427
 4162SOL     OW24118   3.929   2.021   2.779  0.4051  0.0396 -0.4268
 4162SOL    HW124119   4.016   2.027   2.817 -1.3783 -0.8684  3.8621
 4162SOL    HW224120   3.922   1.929   2.754  0.9056  0.0884 -0.7485
 4163SOL     OW24121   1.811   3.516   0.269  0.0029  0.2315  0.0681
 4163SOL    HW124122   1.899   3.489   0.295 -0.5655  0.8441  2.6497
 4163SOL    HW224123   1.774   3.547   0.351 -0.0045 -0.3147  0.2701
 4164SOL     OW24124   2.670   4.274  14.078  0.1227 -0.0797 -0.1312
 4164SOL    HW124125   2.739   4.337  14.092  0.9380 -0.8370 -0.7204
 4164SOL    HW224126   2.652   4.242  14.166  0.3673 -0.0683 -0.0787
 4165SOL     OW24127   1.767   4.490   0.468  0.1620  0.2585 -0.2108
 4165SOL    HW124128   1.706   4.443   0.525 -1.6753  1.9247 -0.7674
 4165SOL    HW224129   1.727   4.576   0.484 -0.9620 -0.6044  1.7106
 4166SOL     OW24130   2.303   0.208   8.397 -0.0527  0.1738  0.2928
 4166SOL    HW124131   2.227   0.252   8.357 -0.4180 -0.6620  0.0710
 4166SOL    HW224132   2.316   0.270   8.469  3.8424  1.9084 -1.9030
 4167SOL     OW24133   0.756   1.910   5.262 -0.5592  0.5908 -0.6547
 4167SOL    HW124134   0.776   1.991   5.215  0.7067  0.9363  0.4484
 4167SOL    HW224135   0.829   1.851   5.248 -0.8317 -0.3629  1.8877
 4168SOL     OW24136   1.988   1.125   5.470 -0.1721 -1.4364 -0.0085
 4168SOL    HW124137   2.042   1.049   5.449  1.0926 -0.3483 -0.7482
 4168SOL    HW224138   1.931   1.130   5.393  0.2131  0.3187 -0.1940
 4169SOL     OW24139   0.621   2.719   3.826 -0.0658  0.0980  0.3993
 4169SOL    HW124140   0.541   2.767   3.801 -0.5819  1.4753  4.6805
 4169SOL    HW224141   0.580   2.634   3.842  0.3831  0.0852  1.4366
 4170SOL     OW24142   1.392   1.168   2.624  0.4246  0.4687  0.0660
 4170SOL    HW124143   1.382   1.095   2.563 -1.2007 -0.2574  1.1662
 4170SOL    HW224144   1.299   1.192   2.630  0.2111 -0.1631 -0.7290
 4171SOL     OW24145   2.148   0.542  14.328 -0.0264 -0.5960  0.2315
 4171SOL    HW124146   2.068   0.594  14.328  0.8088  0.7164  2.7773
 4171SOL    HW224147   2.206   0.612  14.300 -1.1806  1.1861  2.2966
 4172SOL     OW24148   1.896   0.367  11.480 -0.4397  0.2696  0.2728
 4172SOL    HW124149   1.812   0.398  11.445 -0.0902 -0.2905 -1.0627
 4172SOL    HW224150   1.937   0.373  11.394  2.3289 -1.4179  1.4879
 4173SOL     OW24151   2.196   0.459  15.498 -0.1033 -1.0294  0.1224
 4173SOL    HW124152   2.119   0.464  15.554  0.6330  0.2291  1.0395
 4173SOL    HW224153   2.271   0.469  15.557  0.3900 -1.4214 -0.4300
 4174SOL     OW24154   1.537   3.592   2.630  0.0836  0.3487 -0.8074
 4174SOL    HW124155   1.575   3.667   2.675 -0.4532  0.7465 -1.0316
 4174SOL    HW224156   1.606   3.568   2.567  2.6373 -0.5457  2.2970
 4175SOL     OW24157   0.664   3.264   4.365 -0.0706  0.2243 -0.4834
 4175SOL    HW124158   0.599   3.194   4.366 -1.6788  1.6887 -1.6699
 4175SOL    HW224159   0.703   3.268   4.278 -0.7605  5.2974 -0.5745
 4176SOL     OW24160   0.102   1.771  16.499 -0.2256 -0.2529  0.0641
 4176SOL    HW124161   0.100   1.847  16.557 -0.1549 -0.6624  0.6046
 4176SOL    HW224162   0.078   1.715  16.573 -2.5443 -0.1494 -0.5950
 4177SOL     OW24163   0.006   3.597   0.969 -0.0407  0.4416  0.4790
 4177SOL    HW124164   4.695   3.617   0.889  1.2279 -0.0989 -0.4219
 4177SOL    HW224165   4.688   3.540   1.021 -0.0895  2.2108  2.3604
 4178SOL     OW24166   4.039   3.477   3.556  0.5030  0.8333  0.0483
 4178SOL    HW124167   4.008   3.530   3.482 -1.0767  0.5027  0.4801
 4178SOL    HW224168   4.090   3.535   3.612  2.2838 -0.4507 -0.2637
 4179SOL     OW24169   3.580   4.118   7.669  0.1687 -0.2294  0.0448
 4179SOL    HW124170   3.558   4.163   7.751 -1.6059  1.0235 -1.1172
 4179SOL    HW224171   3.533   4.167   7.602  0.6909 -0.4638 -0.4930
 4180SOL     OW24172   3.205   4.108   0.209  0.2316  0.2906  0.1769
 4180SOL    HW124173   3.261   4.173   0.166 -0.7765  1.6132  0.8899
 4180SOL    HW224174   3.180   4.049   0.138 -0.6375 -0.8060  1.3973
 4181SOL     OW24175   4.064   3.540   7.751  0.1899  0.0012 -0.0349
 4181SOL    HW124176   4.009   3.492   7.689  1.0286 -0.1145 -0.6823
 4181SOL    HW224177   4.133   3.476   7.766 -0.4955 -0.8538 -0.5249
 4182SOL     OW24178   2.929   4.368   5.107 -0.0434  0.0210 -0.4076
 4182SOL    HW124179   2.844   4.342   5.142  0.7295  1.7117  2.7365
 4182SOL    HW224180   2.908   4.423   5.032  0.4394  2.0689  0.9770
 4183SOL     OW24181   0.175   1.157   3.622 -0.2961 -0.1085  0.1255
 4183SOL    HW124182   0.169   1.207   3.540 -0.7377 -0.4702 -0.0689
 4183SOL    HW224183   0.229   1.085   3.589 -2.3058 -1.3857 -0.4212
 4184SOL     OW24184   2.300   4.526  11.785  0.4657 -0.3189 -0.7329
 4184SOL    HW124185   2.246   4.604  11.774 -0.8037 -0.7839  2.3183
 4184SOL    HW224186   2.360   4.533  11.711  0.8547  1.7196 -0.2004
 4185SOL     OW24187   4.257   1.525   9.348 -1.1749 -0.0693  0.1232
 4185SOL    HW124188   4.238   1.518   9.442  0.5076 -0.7649  0.4188
 4185SOL    HW224189   4.310   1.604   9.357  0.8121 -1.2574 -1.1866
 4186SOL     OW24190   2.939   0.672   1.000 -0.0084  0.2124 -0.0178
 4186SOL    HW124191   2.858   0.689   1.048 -2.1431 -1.0679 -3.1731
 4186SOL    HW224192   2.996   0.694   1.073 -0.0500 -1.1780  0.4420
 4187SOL     OW24193   3.290   0.616   6.302 -0.3660  0.0514 -0.2783
 4187SOL    HW124194   3.293   0.704   6.340 -1.2425 -0.0286 -0.0106
 4187SOL    HW224195   3.195   0.605   6.295 -0.4548  1.2498 -1.0108
 4188SOL     OW24196   4.412   0.684   0.625 -0.8575 -0.2844  0.1150
 4188SOL    HW124197   4.350   0.696   0.696 -1.8949 -3.3624 -0.2764
 4188SOL    HW224198   4.385   0.747   0.558 -0.2040  2.2693  2.2596
 4189SOL     OW24199   0.239   2.961   0.101 -0.2478 -0.1798  0.0947
 4189SOL    HW124200   0.198   3.041   0.135  0.2595 -0.6162  1.7297
 4189SOL    HW224201   0.186   2.951   0.022  2.2100 -2.7933 -1.2165
 4190SOL     OW24202   3.097   0.752   1.222 -0.3850  0.6085  0.2753
 4190SOL    HW124203   3.171   0.798   1.182 -0.7780 -0.7232 -2.0377
 4190SOL    HW224204   3.054   0.821   1.271  0.3311  0.4721  1.0941
 4191SOL     OW24205   1.412   4.607   5.859 -0.0754  1.1153 -0.1201
 4191SOL    HW124206   1.389   4.665   5.931  2.2231  0.0359  1.4680
 4191SOL    HW224207   1.421   4.668   5.786 -1.3894  0.4756 -0.8379
 4192SOL     OW24208   4.449   4.634   3.719  0.1664  0.1865  0.1735
 4192SOL    HW124209   4.477   4.687   3.644  0.9559 -0.0046  0.3345
 4192SOL    HW224210   4.363   4.601   3.693  0.6902 -0.7226 -0.3880
 4193SOL     OW24211   4.131   4.678   7.144  0.3961  0.3172  0.4479
 4193SOL    HW124212   4.148   4.732   7.221 -1.5144  1.3166  0.1794
 4193SOL    HW224213   4.136   4.589   7.180  0.1518  0.2462  0.3092
 4194SOL     OW24214   2.794   2.289   1.591 -0.6241 -0.6975  0.2111
 4194SOL    HW124215   2.859   2.314   1.656 -0.5407 -1.7329  0.5227
 4194SOL    HW224216   2.827   2.210   1.548  2.0585 -0.1135  1.1853
 4195SOL     OW24217   2.717   1.244   1.249 -0.0874  0.4942  0.3089
 4195SOL    HW124218   2.683   1.236   1.160  1.0751 -2.9024  0.1553
 4195SOL    HW224219   2.802   1.281   1.228 -1.2673  3.2165  0.3254
 4196SOL     OW24220   0.614   4.130  10.936 -0.5310  0.0800 -0.1128
 4196SOL    HW124221   0.692   4.120  10.882 -0.8319 -0.9825 -0.3570
 4196SOL    HW224222   0.652   4.117  11.023  0.8027 -2.8250 -1.1203
 4197SOL     OW24223   1.194   0.716   3.447 -0.4500 -0.1483 -0.2106
 4197SOL    HW124224   1.132   0.708   3.519  0.0978 -0.5386  0.2196
 4197SOL    HW224225   1.275   0.680   3.483  0.4109  0.7683 -1.1998
 4198SOL     OW24226   0.750   0.636   5.027 -0.0053 -1.1143 -0.0329
 4198SOL    HW124227   0.661   0.632   5.064 -1.1699 -1.4836 -2.8484
 4198SOL    HW224228   0.790   0.709   5.074 -3.2162  0.1251  0.8306
 4199SOL     OW24229   2.351   0.013   7.316 -0.0675  0.1010  0.6274
 4199SOL    HW124230   2.314   4.662   7.321  0.1860  0.0176  1.0215
 4199SOL    HW224231   2.416   0.007   7.246  0.2332  2.9809  0.6811
 4200SOL     OW24232   3.069   3.770  12.948  0.4156  0.3539  0.2661
 4200SOL    HW124233   3.065   3.828  12.871 -2.1359 -2.9446 -2.0782
 4200SOL    HW224234   3.153   3.800  12.984  0.9732 -0.5953 -0.2237
 4201SOL     OW24235   4.531   0.927   8.390  0.0145  0.2016  0.1636
 4201SOL    HW124236   4.546   0.911   8.297 -0.5529 -0.6234  0.2112
 4201SOL    HW224237   4.447   0.882   8.397  0.2268 -0.3820 -1.0572
 4202SOL     OW24238   1.374   4.476  14.106  0.4630 -0.2297 -0.2263
 4202SOL    HW124239   1.399   4.384  14.116 -2.2410 -0.7570  1.6691
 4202SOL    HW224240   1.419   4.523  14.175 -0.2417  0.8557 -0.5114
 4203SOL     OW24241   2.682   2.787   3.457  0.6884  0.2576  0.2109
 4203SOL    HW124242   2.656   2.751   3.542 -0.1537  1.2437  0.3615
 4203SOL    HW224243   2.704   2.711   3.404  3.1421 -0.5334  2.3500
 4204SOL     OW24244   3.637   3.440   3.056 -0.0838  0.0477 -0.6310
 4204SOL    HW124245   3.562   3.385   3.030  0.4050 -1.5002  1.2676
 4204SOL    HW224246   3.689   3.439   2.975 -0.4994  2.4507 -0.9267
 4205SOL     OW24247   0.874   1.540  11.285 -0.1673  0.8561  0.0614
 4205SOL    HW124248   0.868   1.486  11.363 -0.1462  0.8096  0.0308
 4205SOL    HW224249   0.849   1.620  11.332  1.4492  2.0170 -1.0754
 4206SOL     OW24250   4.458   0.194  16.522  0.1748 -0.3482 -0.1079
 4206SOL    HW124251   4.369   0.192  16.485 -0.1948  0.4813  0.7144
 4206SOL    HW224252   4.434   0.223  16.610 -1.4957  0.3644 -0.7921
 4207SOL     OW24253   1.383   0.527   9.151  0.4119 -0.1487  0.1707
 4207SOL    HW124254   1.433   0.463   9.100  3.0616  0.7498  1.6679
 4207SOL    HW224255   1.439   0.603   9.135  2.0538 -1.4324 -0.2026
 4208SOL     OW24256   0.170   2.242   7.198 -0.4166 -0.4084 -0.5965
 4208SOL    HW124257   0.131   2.230   7.111 -0.3727 -3.5643 -0.1680
 4208SOL    HW224258   0.092   2.239   7.254 -0.3632 -0.8883 -0.5522
 4209SOL     OW24259   2.063   3.632   3.419  0.1704  0.5574 -0.0302
 4209SOL    HW124260   2.004   3.648   3.492 -2.0764  2.3309 -2.2160
 4209SOL    HW224261   2.145   3.637   3.468 -0.8202 -0.9332  1.7687
 4210SOL     OW24262   0.411   2.447   2.700 -0.0520 -0.0731 -0.6262
 4210SOL    HW124263   0.365   2.528   2.723 -0.0858 -0.7928  1.8821
 4210SOL    HW224264   0.471   2.433   2.774 -0.0027 -1.3342 -0.9166
 4211SOL     OW24265   0.634   3.627   6.539 -0.9283  0.3107 -0.6001
 4211SOL    HW124266   0.637   3.657   6.448  0.4443  1.5088 -0.1663
 4211SOL    HW224267   0.558   3.670   6.578 -1.2735 -2.4220  1.6638
 4212SOL     OW24268   0.314   3.908   3.589  0.1414  0.4179  0.0255
 4212SOL    HW124269   0.220   3.924   3.580 -0.3203 -1.8205  1.1224
 4212SOL    HW224270   0.307   3.849   3.663  0.2777  1.0515  0.5470
 4213SOL     OW24271   1.949   3.799   3.182  0.0788 -0.5253 -0.2935
 4213SOL    HW124272   1.975   3.744   3.256  1.4623 -1.6376 -1.5924
 4213SOL    HW224273   2.001   3.761   3.111  0.0314  1.1567 -1.2147
 4214SOL     OW24274   0.382   4.047  15.211 -0.6580  0.0589  0.3371
 4214SOL    HW124275   0.328   4.125  15.199 -1.2947 -0.6742 -1.6315
 4214SOL    HW224276   0.398   4.018  15.121  1.8901  0.0621  0.7839
 4215SOL     OW24277   4.360   1.335   2.663  0.5767 -0.0289  0.0915
 4215SOL    HW124278   4.344   1.386   2.584  0.7810 -1.0831 -0.6433
 4215SOL    HW224279   4.454   1.318   2.662  0.5914  0.0019  0.9846
 4216SOL     OW24280   1.581   2.946  13.165  0.2473 -0.2793 -0.0206
 4216SOL    HW124281   1.500   2.896  13.160 -0.2006  0.2670  2.0585
 4216SOL    HW224282   1.556   2.998  13.089 -0.7920 -0.3232  0.2974
 4217SOL     OW24283   0.871   3.106   7.432  0.6107 -0.0720 -0.4272
 4217SOL    HW124284   0.963   3.131   7.424  0.7938 -0.6067  0.0097
 4217SOL    HW224285   0.837   3.187   7.471  3.0330  0.7607 -0.0176
 4218SOL     OW24286   0.903   2.971  11.802  0.6156 -0.9550 -0.2501
 4218SOL    HW124287   0.853   2.892  11.783  0.5532 -0.1491 -3.3953
 4218SOL    HW224288   0.990   2.939  11.825  0.5207  0.9753  2.7848
 4219SOL     OW24289   2.318   2.962   2.728  0.3040 -0.2517  0.0475
 4219SOL    HW124290   2.409   2.960   2.757  0.2497 -0.7714  0.1856
 4219SOL    HW224291   2.282   3.023   2.792 -0.5519  1.6523 -2.2449
 4220SOL     OW24292   0.481   1.408   0.996  0.0774 -0.0397 -0.3144
 4220SOL    HW124293   0.521   1.415   0.910 -2.3351 -1.2778 -1.5515
 4220SOL    HW224294   0.451   1.498   1.014  0.7343  0.1464 -0.1627
 4221SOL     OW24295   1.809   0.613   3.767  0.1856 -0.6203 -0.0213
 4221SOL    HW124296   1.860   0.687   3.733 -0.4087 -0.4228 -0.4719
 4221SOL    HW224297   1.884   0.555   3.784  0.4280 -0.1336  0.5704
 4222SOL     OW24298   0.526   0.309   8.226 -0.2283 -1.2771 -0.0744
 4222SOL    HW124299   0.431   0.311   8.224 -0.1267  2.1221 -2.6314
 4222SOL    HW224300   0.536   0.293   8.320  1.9934  2.3156  0.3191
 4223SOL     OW24301   4.070   1.827  17.586  0.0241  0.6063 -0.0565
 4223SOL    HW124302   4.145   1.839  17.644 -0.4246 -3.1920  1.3279
 4223SOL    HW224303   4.071   1.897  17.521 -0.7296  1.1922  0.5696
 4224SOL     OW24304   1.358   1.907  11.240 -0.2478 -0.3195 -0.3328
 4224SOL    HW124305   1.328   1.843  11.175 -1.3641  0.7123 -0.8372
 4224SOL    HW224306   1.273   1.949  11.254 -0.6120 -0.7849 -1.1597
 4225SOL     OW24307   4.635   1.173   8.898  0.2068 -0.5416  0.0888
 4225SOL    HW124308   4.603   1.216   8.818  0.2316 -1.3970 -0.3792
 4225SOL    HW224309   4.597   1.227   8.967  0.4394  0.4454 -0.5525
 4226SOL     OW24310   4.590   4.651  15.410 -0.1115  0.0657 -0.4795
 4226SOL    HW124311   4.645   4.690  15.342 -1.6668  0.1680 -1.6741
 4226SOL    HW224312   4.551   4.581  15.358 -0.8916  1.0448 -1.2108
 4227SOL     OW24313   1.206   0.965   9.393 -1.0089 -0.3408  1.0408
 4227SOL    HW124314   1.139   1.011   9.343 -0.0988  0.6890  0.7700
 4227SOL    HW224315   1.169   0.876   9.389 -1.5892 -0.0608  0.0813
 4228SOL     OW24316   3.958   0.616   6.570 -0.0215  0.7543  0.0059
 4228SOL    HW124317   3.967   0.594   6.478  2.2820  0.5156  0.2789
 4228SOL    HW224318   4.048   0.624   6.602 -0.7069  2.6607  1.4757
 4229SOL     OW24319   1.339   2.683   9.217 -0.3392 -0.4228 -0.1218
 4229SOL    HW124320   1.311   2.744   9.285  0.5105  1.3836 -1.4053
 4229SOL    HW224321   1.309   2.722   9.135  0.4096 -0.2727 -0.3232
 4230SOL     OW24322   0.062   0.491   6.423  0.3603  0.1737  0.1820
 4230SOL    HW124323   0.098   0.574   6.391 -0.3302 -0.6437 -2.6422
 4230SOL    HW224324   0.054   0.498   6.518 -0.1692 -0.8573  0.2087
 4231SOL     OW24325   3.848   4.033   8.100  0.1244 -0.1703  0.1784
 4231SOL    HW124326   3.859   3.949   8.146 -0.1249 -1.0209 -1.3136
 4231SOL    HW224327   3.754   4.048   8.094 -0.0193 -1.8510 -1.7917
 4232SOL     OW24328   2.521   0.799   3.266 -0.3254  0.2257  0.5934
 4232SOL    HW124329   2.526   0.741   3.342 -2.2336 -1.3165 -0.4528
 4232SOL    HW224330   2.587   0.865   3.289 -2.3480  1.4724  2.8337
 4233SOL     OW24331   1.763   3.831   8.023  0.5408  0.3638  0.2495
 4233SOL    HW124332   1.739   3.888   8.095 -0.2168  0.8570 -0.3984
 4233SOL    HW224333   1.676   3.793   8.008  0.7126  0.2594 -0.4734
 4234SOL     OW24334   0.242   1.402   5.364 -0.4800  0.2833  0.0490
 4234SOL    HW124335   0.311   1.455   5.404 -1.2518  2.4642 -1.4679
 4234SOL    HW224336   0.173   1.398   5.429  1.0611 -0.9242  1.5993
 4235SOL     OW24337   0.507   2.493  10.619 -0.5328 -0.3644  0.0759
 4235SOL    HW124338   0.520   2.423  10.683 -0.1364  0.1958  0.6111
 4235SOL    HW224339   0.437   2.542  10.661 -1.3536 -1.1285 -0.4087
 4236SOL     OW24340   1.918   0.559   2.742  0.2045  0.5036 -0.1364
 4236SOL    HW124341   1.839   0.527   2.697 -0.1067  0.4879  0.4115
 4236SOL    HW224342   1.981   0.579   2.673  2.3181  0.5468  1.7984
 4237SOL     OW24343   3.606   4.491   5.422 -0.0393 -0.4056 -0.4445
 4237SOL    HW124344   3.570   4.437   5.492  2.3924 -0.9681  0.3789
 4237SOL    HW224345   3.529   4.543   5.401  0.6715  0.4547 -0.9372
 4238SOL     OW24346   4.163   3.493   8.955  0.3817 -0.4667  0.6945
 4238SOL    HW124347   4.214   3.565   8.919  2.8054 -2.0892  0.9267
 4238SOL    HW224348   4.181   3.485   9.049  0.8053 -2.4117  0.4310
 4239SOL     OW24349   2.297   0.294   0.415  0.3326  0.7710 -0.2437
 4239SOL    HW124350   2.348   0.288   0.495  0.9452  0.0903 -0.6797
 4239SOL    HW224351   2.312   0.205   0.381 -1.1084  0.0833  0.9037
 4240SOL     OW24352   0.337   3.680  14.989  0.6487  0.0147  0.2979
 4240SOL    HW124353   0.247   3.711  15.005  0.6337  0.8418 -1.3107
 4240SOL    HW224354   0.373   3.755  14.942 -0.1638  0.3084  0.1341
 4241SOL     OW24355   1.230   3.222   5.924 -0.1659  0.3896  0.3669
 4241SOL    HW124356   1.187   3.148   5.967 -0.3232 -0.2232 -0.8430
 4241SOL    HW224357   1.265   3.177   5.847 -1.7641  1.2063 -0.8446
 4242SOL     OW24358   3.264   1.740  11.021 -0.8969 -0.1139  0.2799
 4242SOL    HW124359   3.310   1.754  11.104 -0.6887  0.8847 -0.0003
 4242SOL    HW224360   3.188   1.798  11.022 -1.1467 -0.4429  0.3765
 4243SOL     OW24361   1.220   0.407   1.831  0.1183 -0.4441 -0.1676
 4243SOL    HW124362   1.153   0.468   1.862  0.1370  0.2181 -1.4427
 4243SOL    HW224363   1.189   0.322   1.864 -0.0094 -0.8274 -1.2760
 4244SOL     OW24364   2.979   2.516  10.344  0.0583  0.4916 -0.0449
 4244SOL    HW124365   2.976   2.611  10.332  1.0571  0.5794  0.4292
 4244SOL    HW224366   2.883   2.510  10.342 -0.0572  1.6753  1.4636
 4245SOL     OW24367   0.058   2.991   8.328 -0.0690 -0.3864  0.0323
 4245SOL    HW124368   0.069   3.086   8.328 -1.6722 -0.1965  1.0157
 4245SOL    HW224369   0.041   2.961   8.417  2.3717  1.0812  0.9979
 4246SOL     OW24370   3.190   4.297   3.090 -0.3775 -0.0010  0.1766
 4246SOL    HW124371   3.150   4.305   3.177  1.3095  0.7599  0.8765
 4246SOL    HW224372   3.267   4.243   3.108 -2.2952 -2.3504  1.4982
 4247SOL     OW24373   0.461   1.430   8.937 -0.4007 -0.1524 -0.0867
 4247SOL    HW124374   0.473   1.339   8.966 -1.3658 -0.9772 -2.2676
 4247SOL    HW224375   0.366   1.439   8.940 -0.3368  1.3010 -2.7359
 4248SOL     OW24376   1.582   1.396   4.255  0.2898  0.4339  0.8226
 4248SOL    HW124377   1.596   1.431   4.167 -1.8558  0.9877  0.6969
 4248SOL    HW224378   1.673   1.376   4.276  0.8586  2.6879  0.5757
 4249SOL     OW24379   4.691   2.101   8.412  0.4236 -0.4280  0.1283
 4249SOL    HW124380   4.735   2.020   8.438  2.2005  1.1631  2.0921
 4249SOL    HW224381   4.622   2.109   8.477 -0.9310 -3.7389 -0.9603
 4250SOL     OW24382   4.403   1.933   7.023  0.6841 -0.6578 -0.2354
 4250SOL    HW124383   4.309   1.947   7.033  0.9519  1.3512 -0.4105
 4250SOL    HW224384   4.427   2.026   7.030  0.6799 -0.6673 -0.0860
 4251SOL     OW24385   1.955   0.706   7.788  0.5195  0.2718 -0.5365
 4251SOL    HW124386   2.031   0.731   7.736 -0.4625  0.7142 -1.7613
 4251SOL    HW224387   1.896   0.679   7.718 -0.4913 -1.7294  1.0789
 4252SOL     OW24388   2.960   2.823   8.421  0.0268 -0.4697  0.3779
 4252SOL    HW124389   2.989   2.855   8.507 -0.0277 -1.4389  0.7595
 4252SOL    HW224390   2.897   2.755   8.443  0.8803 -0.7680  1.9612
 4253SOL     OW24391   1.058   2.933   4.261 -0.1764  1.0150  0.4152
 4253SOL    HW124392   0.964   2.942   4.245  0.0386  1.4158 -0.6190
 4253SOL    HW224393   1.089   2.981   4.184 -1.4695 -4.2945 -3.4502
 4254SOL     OW24394   0.684   0.876   7.663  0.3628  0.3447  0.2517
 4254SOL    HW124395   0.617   0.920   7.715  2.1447  2.4763  0.7704
 4254SOL    HW224396   0.687   0.944   7.595  2.6055  1.5278  1.5144
 4255SOL     OW24397   2.534   0.541  10.190  0.1246  0.2484 -0.2142
 4255SOL    HW124398   2.552   0.451  10.215 -2.8107 -0.0189  0.9353
 4255SOL    HW224399   2.503   0.572  10.275 -2.7308 -0.5009 -0.9859
 4256SOL     OW24400   1.142   0.327   3.587 -0.2974 -0.2044  0.8743
 4256SOL    HW124401   1.135   0.364   3.675  2.1947  0.5651  0.7424
 4256SOL    HW224402   1.108   0.400   3.536 -4.1759 -3.0986 -0.7211
 4257SOL     OW24403   4.305   1.989   8.214 -0.0941  0.1695 -0.3931
 4257SOL    HW124404   4.236   2.055   8.221  0.2795  0.2637  2.4289
 4257SOL    HW224405   4.322   1.964   8.305  1.9563  1.5067 -0.4087
 4258SOL     OW24406   2.759   0.779   2.019 -0.9476  0.1821 -0.1935
 4258SOL    HW124407   2.727   0.860   2.060  1.0236  0.8646 -0.0292
 4258SOL    HW224408   2.678   0.731   1.999  0.9145 -2.7515 -0.6176
 4259SOL     OW24409   0.896   4.222   5.825  0.7893  0.7552  0.2585
 4259SOL    HW124410   0.978   4.176   5.812 -1.4602 -3.1768  0.0930
 4259SOL    HW224411   0.908   4.259   5.913  1.0780  2.3133 -0.4345
 4260SOL     OW24412   0.273   1.999   6.243  0.1299 -0.2447  0.3062
 4260SOL    HW124413   0.222   2.078   6.228  0.0819 -0.0942  1.2478
 4260SOL    HW224414   0.288   1.979   6.150 -1.4634  0.7789 -0.1603
 4261SOL     OW24415   1.358   3.050   2.785 -0.2644  0.3693  0.2350
 4261SOL    HW124416   1.269   3.023   2.805 -0.2256 -0.1284 -0.2745
 4261SOL    HW224417   1.366   3.071   2.692  0.7376  1.7382  0.6140
 4262SOL     OW24418   0.714   4.160   1.877 -0.0897  0.0364  0.5741
 4262SOL    HW124419   0.634   4.205   1.850 -0.4820 -0.7179  0.4623
 4262SOL    HW224420   0.744   4.145   1.787 -0.4243 -0.5321  0.5515
 4263SOL     OW24421   0.860   3.379  10.267  0.3136 -0.0416  0.1042
 4263SOL    HW124422   0.900   3.366  10.352  2.3125 -0.5214 -0.9255
 4263SOL    HW224423   0.882   3.471  10.250 -1.2880  0.4689  0.7497
 4264SOL     OW24424   2.679   3.045   8.689  0.0209  0.2348 -0.2089
 4264SOL    HW124425   2.718   3.085   8.766 -0.7308 -0.6771  0.6420
 4264SOL    HW224426   2.682   2.951   8.706  1.6829  0.0812 -1.2833
 4265SOL     OW24427   2.378   2.104   1.944 -0.1986  0.3894 -0.3863
 4265SOL    HW124428   2.355   2.121   2.035  0.0591 -2.9888  0.2929
 4265SOL    HW224429   2.468   2.137   1.937 -0.3393  0.8722  0.0659
 4266SOL     OW24430   4.180   0.544  15.679 -0.1247  0.2290  0.4212
 4266SOL    HW124431   4.243   0.611  15.655 -0.4065  0.9879  1.7953
 4266SOL    HW224432   4.176   0.493  15.598  2.7684  1.1009 -0.2458
 4267SOL     OW24433   1.311   3.009   7.899 -0.6586  0.4070 -0.6213
 4267SOL    HW124434   1.263   2.930   7.923 -1.7598  0.7796 -1.6151
 4267SOL    HW224435   1.244   3.054   7.848 -1.3439 -2.1668 -1.9572
 4268SOL     OW24436   3.742   0.296   2.997 -0.3717 -0.6977  0.1366
 4268SOL    HW124437   3.776   0.217   3.039  1.3412  0.3510  0.6991
 4268SOL    HW224438   3.758   0.367   3.059 -0.0534  0.4937 -1.2927
 4269SOL     OW24439   2.312   3.098   8.181  0.5441  0.3817  0.0943
 4269SOL    HW124440   2.292   3.108   8.275  1.0742 -0.3491  0.2841
 4269SOL    HW224441   2.252   3.026   8.161  0.6902 -0.2362  1.8100
 4270SOL     OW24442   3.789   1.541   5.117 -0.6982 -0.0604 -0.0986
 4270SOL    HW124443   3.813   1.566   5.207  1.9249 -1.4453 -0.4378
 4270SOL    HW224444   3.802   1.617   5.060 -0.2036  0.9534  1.3382
 4271SOL     OW24445   2.148   0.837   8.046 -0.5019  0.0617 -0.3792
 4271SOL    HW124446   2.207   0.837   7.970 -0.6394 -1.9085 -0.4899
 4271SOL    HW224447   2.134   0.930   8.063  0.5696  0.0642  0.4973
 4272SOL     OW24448   2.959   4.529   2.311 -0.0396  0.0578 -0.2954
 4272SOL    HW124449   2.951   4.603   2.251 -0.9396  1.1750  1.1938
 4272SOL    HW224450   3.014   4.478   2.252  1.0779  1.5032 -0.5194
 4273SOL     OW24451   0.362   4.545   8.868 -0.7137  0.4740 -0.3160
 4273SOL    HW124452   0.355   4.582   8.780 -1.6234 -0.4207 -0.6279
 4273SOL    HW224453   0.294   4.478   8.859 -2.3232  2.3077 -1.8500
 4274SOL     OW24454   1.038   4.198   1.438 -0.7741  0.4719  0.2449
 4274SOL    HW124455   1.007   4.113   1.467 -2.6382  1.1314  0.1752
 4274SOL    HW224456   1.079   4.182   1.353 -1.0245  2.4304 -0.2593
 4275SOL     OW24457   3.008   3.538   8.655 -0.1635 -0.1145  0.2594
 4275SOL    HW124458   3.013   3.597   8.731 -1.2681  0.2118  0.0670
 4275SOL    HW224459   3.081   3.481   8.681 -0.9808 -1.1078  0.3768
 4276SOL     OW24460   4.039   0.414   4.801 -0.3305  0.3062 -0.8180
 4276SOL    HW124461   4.027   0.381   4.890 -1.6280  0.0997 -1.0706
 4276SOL    HW224462   3.949   0.430   4.774 -0.2168  3.5453  0.7915
 4277SOL     OW24463   0.770   0.994  10.784  0.0833  0.3025 -0.2926
 4277SOL    HW124464   0.760   0.945  10.703  2.1472  2.4037 -1.8147
 4277SOL    HW224465   0.681   0.980  10.817  0.4169  1.1556  0.9895
 4278SOL     OW24466   1.057   0.041   4.960 -0.3627 -0.4950 -0.1153
 4278SOL    HW124467   1.101   0.050   4.875  0.6523 -0.8666  0.3795
 4278SOL    HW224468   1.125   0.066   5.022 -0.0988 -1.6802  0.0831
 4279SOL     OW24469   4.414   4.262   6.819 -0.8427 -0.3422 -0.5525
 4279SOL    HW124470   4.325   4.227   6.819 -0.9292 -0.1357  0.2212
 4279SOL    HW224471   4.461   4.179   6.816  0.5428  0.4309 -0.5707
 4280SOL     OW24472   0.310   2.058   6.951 -0.1947 -0.2099  0.2644
 4280SOL    HW124473   0.310   1.992   7.020  0.8760 -0.6441 -0.1477
 4280SOL    HW224474   0.327   1.992   6.883 -0.3070  1.1989 -1.1254
 4281SOL     OW24475   3.172   1.177   3.073 -0.1089 -0.2048 -0.4298
 4281SOL    HW124476   3.216   1.093   3.058  0.7931  0.3810 -1.0727
 4281SOL    HW224477   3.134   1.187   2.986  3.1573 -0.6842 -1.8864
 4282SOL     OW24478   0.646   4.186   4.928 -0.3710  0.0727  0.2660
 4282SOL    HW124479   0.576   4.143   4.878 -0.3867  1.8644 -1.2146
 4282SOL    HW224480   0.622   4.170   5.020  0.6594  0.4099  0.5871
 4283SOL     OW24481   0.994   2.656  12.023 -0.3055 -0.4225 -0.0255
 4283SOL    HW124482   1.016   2.748  12.014  0.3456 -0.4059  1.6103
 4283SOL    HW224483   0.957   2.640  11.936  0.1547 -2.3180  0.1185
 4284SOL     OW24484   2.858   2.830   3.806 -0.2069 -0.3365  0.1611
 4284SOL    HW124485   2.842   2.868   3.720 -0.3624 -1.0550 -0.1292
 4284SOL    HW224486   2.767   2.834   3.834 -0.1940 -0.6940  0.2613
 4285SOL     OW24487   0.954   2.576   3.937  0.1743  0.6374 -0.2256
 4285SOL    HW124488   0.978   2.663   3.971 -0.7309  0.3054  1.2728
 4285SOL    HW224489   1.015   2.512   3.972 -0.6859 -0.5674 -0.9467
 4286SOL     OW24490   3.122   0.026  11.585 -0.1722 -0.2512 -0.3596
 4286SOL    HW124491   3.126   4.725  11.673 -2.7389 -0.6754 -0.4179
 4286SOL    HW224492   3.080   4.691  11.538  0.4725  1.4427 -3.5198
 4287SOL     OW24493   2.442   0.262  15.686 -0.3921  0.1193  0.5365
 4287SOL    HW124494   2.398   0.343  15.713 -0.0811  0.1569  0.9477
 4287SOL    HW224495   2.410   0.198  15.750 -1.7596 -1.1769 -1.4455
 4288SOL     OW24496   0.996   0.853   3.129 -0.2537 -0.0033  0.1128
 4288SOL    HW124497   1.052   0.778   3.151  1.5163  1.4520  0.6247
 4288SOL    HW224498   0.936   0.812   3.067 -0.0848  0.5455 -0.4191
 4289SOL     OW24499   3.183   0.792  10.363  0.0639 -0.2239 -0.2992
 4289SOL    HW124500   3.194   0.874  10.316  1.8561 -1.5696 -2.2604
 4289SOL    HW224501   3.194   0.726  10.294  0.1770  2.4532 -2.8119
 4290SOL     OW24502   1.613   1.290   4.582 -0.1271  0.1860  0.0219
 4290SOL    HW124503   1.648   1.311   4.495 -0.8190 -1.4266 -0.6562
 4290SOL    HW224504   1.525   1.260   4.558  0.7746 -1.1703 -1.6222
 4291SOL     OW24505   2.399   0.718   9.559  0.3361  0.2180  0.0967
 4291SOL    HW124506   2.349   0.727   9.478 -1.9712 -2.2583  1.2336
 4291SOL    HW224507   2.441   0.804   9.567  0.4823  0.1893 -0.3608
 4292SOL     OW24508   1.962   1.392   7.175 -0.0782  0.1507  0.1819
 4292SOL    HW124509   1.890   1.351   7.223 -0.1557 -1.4318 -1.2851
 4292SOL    HW224510   1.930   1.482   7.176 -1.0335 -0.1977  1.0752
 4293SOL     OW24511   4.134   3.392   1.478  0.0996  0.4386 -0.2954
 4293SOL    HW124512   4.159   3.466   1.423  1.3902  1.3392  1.4959
 4293SOL    HW224513   4.174   3.426   1.558  0.9051 -1.0777 -0.0561
 4294SOL     OW24514   0.725   1.553  16.138  0.0934  0.4020  0.2671
 4294SOL    HW124515   0.643   1.517  16.171  0.1701  0.5392  0.6037
 4294SOL    HW224516   0.783   1.547  16.214 -0.4105 -1.4438  0.4973
 4295SOL     OW24517   1.326   2.212   6.258  0.0736  0.2451  0.6484
 4295SOL    HW124518   1.301   2.304   6.265  1.5448  0.6554  0.5940
 4295SOL    HW224519   1.420   2.219   6.276  0.0873  1.8733 -0.0668
 4296SOL     OW24520   0.844   3.038   5.246  0.4129 -0.7683 -0.0251
 4296SOL    HW124521   0.855   2.949   5.280  0.7661  0.3659  2.8014
 4296SOL    HW224522   0.915   3.088   5.286  2.7077 -2.6137 -1.8019
 4297SOL     OW24523   2.190   3.444   4.715  0.1308 -0.3536 -0.3845
 4297SOL    HW124524   2.176   3.412   4.626 -1.7026 -0.0003 -0.2190
 4297SOL    HW224525   2.158   3.534   4.710  0.5449 -0.1925 -0.1464
 4298SOL     OW24526   0.755   3.126   8.645  0.3794 -0.3591 -0.4327
 4298SOL    HW124527   0.686   3.174   8.690 -0.1519  1.2601 -2.9468
 4298SOL    HW224528   0.834   3.172   8.674 -1.4393  0.7993  2.6244
 4299SOL     OW24529   2.971   1.361  11.223  0.5526 -0.1984  0.0959
 4299SOL    HW124530   3.051   1.311  11.234  0.3771 -0.2520  1.1419
 4299SOL    HW224531   2.993   1.441  11.270  2.2655 -0.9596  0.5572
 4300SOL     OW24532   4.709   0.759   5.539 -0.1735  0.2547 -0.2166
 4300SOL    HW124533   0.001   0.845   5.569 -0.4083  0.2854 -0.0759
 4300SOL    HW224534   4.692   0.721   5.626  0.9201 -2.2016 -1.0643
 4301SOL     OW24535   2.437   0.136   7.698  0.1652 -0.1466 -0.7825
 4301SOL    HW124536   2.520   0.090   7.708  0.8689  0.8897 -1.7733
 4301SOL    HW224537   2.466   0.220   7.734 -0.1393  0.2532 -1.4725
 4302SOL     OW24538   0.208   1.027   4.376  0.0410  0.3081 -0.2370
 4302SOL    HW124539   0.220   1.007   4.283  3.5471 -2.1380  0.7389
 4302SOL    HW224540   0.126   0.981   4.392  0.0846 -0.0839 -1.1687
 4303SOL     OW24541   1.171   2.675  17.071 -0.2374  0.5562 -0.7640
 4303SOL    HW124542   1.159   2.727  16.992  2.3204 -1.4653 -2.5005
 4303SOL    HW224543   1.255   2.628  17.073  0.4108  1.7279 -0.0995
 4304SOL     OW24544   4.240   2.987   3.885 -0.2918 -0.2871 -0.2269
 4304SOL    HW124545   4.194   3.046   3.945 -1.8236 -0.1213 -1.5545
 4304SOL    HW224546   4.326   2.985   3.927 -0.1629 -0.0965 -0.4769
 4305SOL     OW24547   2.907   3.946   9.534  0.0433 -0.1011  0.6171
 4305SOL    HW124548   2.833   3.915   9.482 -2.5206  0.8083  3.7317
 4305SOL    HW224549   2.931   4.034   9.504 -2.9740  0.5176  0.0176
 4306SOL     OW24550   2.741   4.694   6.418  0.7160  0.1326  0.5380
 4306SOL    HW124551   2.832   4.669   6.432  0.9258  0.4922 -0.1844
 4306SOL    HW224552   2.709   4.696   6.508 -0.0918  2.4943  0.2083
 4307SOL     OW24553   3.039   4.020   2.264 -0.2061  0.2583  0.1967
 4307SOL    HW124554   3.131   4.014   2.242 -0.4576  0.3025 -0.8711
 4307SOL    HW224555   3.006   4.002   2.176 -1.9942 -1.5099  1.2193
 4308SOL     OW24556   3.280   2.539   9.398 -0.0679 -0.7363  0.1868
 4308SOL    HW124557   3.354   2.533   9.459  0.6808 -1.6722 -0.8119
 4308SOL    HW224558   3.292   2.622   9.354  4.6904 -0.2556  2.4167
 4309SOL     OW24559   1.533   0.321   4.511  0.1107  0.6572  0.0519
 4309SOL    HW124560   1.505   0.281   4.593 -0.1620 -1.3555 -1.0334
 4309SOL    HW224561   1.587   0.389   4.551  0.3793  0.2298  0.4219
 4310SOL     OW24562   0.028   1.010   7.303  0.3167 -0.2880  0.0557
 4310SOL    HW124563   4.681   0.989   7.344  0.0608 -0.4852 -0.5749
 4310SOL    HW224564   0.008   1.061   7.225 -1.6863  0.9408  1.3633
 4311SOL     OW24565   0.651   0.988  12.457 -0.2898 -0.3322  0.5315
 4311SOL    HW124566   0.686   1.026  12.376  0.6409  0.6948  1.4202
 4311SOL    HW224567   0.576   1.047  12.462  0.7943  1.2197 -1.5351
 4312SOL     OW24568   1.248   0.943   5.586  0.0159  0.3626 -0.1975
 4312SOL    HW124569   1.306   0.872   5.611 -1.7226 -0.3149  1.8978
 4312SOL    HW224570   1.302   0.977   5.515 -0.7499 -0.9483 -1.4073
 4313SOL     OW24571   1.098   2.756  17.309 -0.5462 -0.8396 -0.3895
 4313SOL    HW124572   1.020   2.810  17.302 -1.1845 -1.6580  0.2996
 4313SOL    HW224573   1.122   2.746  17.217 -2.4915  0.5692 -1.0517
 4314SOL     OW24574   3.796   2.418   9.176 -0.1053 -0.3082 -0.2420
 4314SOL    HW124575   3.860   2.419   9.105  0.1435 -0.7802 -0.0227
 4314SOL    HW224576   3.848   2.357   9.228  0.1441 -0.6443 -0.8804
 4315SOL     OW24577   0.397   1.709   4.027 -0.2374  0.1548  0.0644
 4315SOL    HW124578   0.332   1.751   3.970  0.4486  0.4644 -0.4929
 4315SOL    HW224579   0.355   1.625   4.045 -1.5987  0.2771 -2.5327
 4316SOL     OW24580   4.288   2.265  16.073 -0.6680 -0.3523 -0.2852
 4316SOL    HW124581   4.269   2.211  16.150  0.0038 -2.0260 -1.2844
 4316SOL    HW224582   4.204   2.311  16.070  0.7351  2.2351 -0.1120
 4317SOL     OW24583   3.462   1.874  16.946 -0.3622 -0.1028  0.2050
 4317SOL    HW124584   3.376   1.847  16.978  0.1387 -0.7905  0.9653
 4317SOL    HW224585   3.515   1.809  16.992 -0.9633  0.6684  1.9955
 4318SOL     OW24586   3.163   3.105   6.616 -0.0792 -0.3684  0.1765
 4318SOL    HW124587   3.163   3.032   6.679  2.4498  0.2693  0.9243
 4318SOL    HW224588   3.193   3.172   6.679 -0.3991 -0.7440  0.7328
 4319SOL     OW24589   2.016   0.813  11.924  0.2370 -0.0855 -0.6529
 4319SOL    HW124590   2.012   0.733  11.975  2.4555  1.0048  1.2538
 4319SOL    HW224591   1.945   0.866  11.960  0.7996  1.6211 -2.0665
 4320SOL     OW24592   2.276   3.005   5.283 -0.2915 -0.1020 -0.1884
 4320SOL    HW124593   2.263   3.056   5.203  1.7296  1.5807  0.5404
 4320SOL    HW224594   2.323   3.070   5.336 -1.2599  1.1314 -0.8448
 4321SOL     OW24595   0.516   0.911   4.900  0.9012 -0.2537 -0.0728
 4321SOL    HW124596   0.458   0.895   4.825  3.1493 -0.7299 -1.7229
 4321SOL    HW224597   0.487   0.847   4.965  2.0512 -0.9388 -0.2328
 4322SOL     OW24598   1.113   0.619   3.222 -0.0377  0.0687 -0.1519
 4322SOL    HW124599   1.142   0.661   3.303 -0.9442 -0.3799  0.4081
 4322SOL    HW224600   1.050   0.557   3.259  0.8341 -1.0004 -0.4563
 4323SOL     OW24601   4.722   3.103   3.061  0.0723  0.7475 -0.0298
 4323SOL    HW124602   4.688   3.161   3.130  0.2918 -2.8647  3.1289
 4323SOL    HW224603   4.675   3.020   3.071  1.1510 -0.1277 -2.3109
 4324SOL     OW24604   3.736   3.712   1.708 -0.4592  0.0281  0.3877
 4324SOL    HW124605   3.748   3.761   1.789  0.7304  0.5421 -0.0825
 4324SOL    HW224606   3.719   3.776   1.639  0.9054 -1.1660 -1.0648
 4325SOL     OW24607   2.670   2.852   5.325  0.0192 -0.1985 -0.0482
 4325SOL    HW124608   2.616   2.892   5.257  1.3830  0.6227 -0.6440
 4325SOL    HW224609   2.619   2.866   5.405 -0.5138 -0.5865 -0.3220
 4326SOL     OW24610   3.473   0.050  10.320 -0.0305  0.6921 -0.5219
 4326SOL    HW124611   3.459   0.058  10.414  1.9221  2.0309 -0.3527
 4326SOL    HW224612   3.535   0.119  10.295 -0.0919  0.6221 -0.8798
 4327SOL     OW24613   1.176   1.351   2.593 -0.1746  0.4864 -0.5610
 4327SOL    HW124614   1.110   1.350   2.662  0.2538 -0.5536 -0.1668
 4327SOL    HW224615   1.123   1.369   2.516 -0.7178  0.2941 -0.2302
 4328SOL     OW24616   3.039   1.490  15.953 -0.4660  0.1639  0.3189
 4328SOL    HW124617   3.025   1.455  16.041  2.6696  2.5539  1.7720
 4328SOL    HW224618   2.957   1.538  15.941 -1.2808 -1.7182 -1.6402
 4329SOL     OW24619   3.903   3.665   7.246 -0.2597 -0.0064  0.1312
 4329SOL    HW124620   3.837   3.601   7.273  1.8332 -1.6339  1.4627
 4329SOL    HW224621   3.981   3.621   7.281 -0.2010  0.4503  0.5770
 4330SOL     OW24622   2.911   3.245   0.598  0.4900  0.2644  0.0877
 4330SOL    HW124623   2.949   3.302   0.664  0.1778 -0.4291  0.8664
 4330SOL    HW224624   2.857   3.308   0.550  0.3619 -0.2548 -0.4529
 4331SOL     OW24625   3.012   0.872  16.327 -0.1105  0.7140 -0.2925
 4331SOL    HW124626   3.094   0.864  16.375 -1.6088  0.2291  2.1627
 4331SOL    HW224627   3.004   0.784  16.290 -2.6136 -0.6858  3.5744
 4332SOL     OW24628   2.827   1.762   5.436  0.0013 -0.3621  0.8127
 4332SOL    HW124629   2.886   1.692   5.463 -1.6838 -1.1327  2.4910
 4332SOL    HW224630   2.762   1.757   5.506 -1.3760 -1.5104 -0.5502
 4333SOL     OW24631   2.590   4.496   2.094  0.7727 -0.3743  0.7387
 4333SOL    HW124632   2.584   4.441   2.172 -2.2357  1.1378  1.5539
 4333SOL    HW224633   2.506   4.478   2.052  0.8086  1.4290 -0.0998
 4334SOL     OW24634   3.684   0.218   6.695 -0.0071  0.2487  0.1149
 4334SOL    HW124635   3.590   0.207   6.704  0.1664 -1.3164 -0.0011
 4334SOL    HW224636   3.696   0.311   6.716 -2.9365  0.3369  1.3168
 4335SOL     OW24637   3.848   1.989   6.906 -0.0137  0.2417 -0.2946
 4335SOL    HW124638   3.842   2.062   6.845  0.3352  0.4146 -0.1208
 4335SOL    HW224639   3.925   2.024   6.950 -0.6132 -1.0597  1.8253
 4336SOL     OW24640   2.877   3.855   5.497  0.1333  0.5474 -0.1421
 4336SOL    HW124641   2.840   3.768   5.481  0.4016  0.4938 -0.4776
 4336SOL    HW224642   2.802   3.903   5.530 -0.5873 -0.7380  0.0886
 4337SOL     OW24643   3.218   0.152  15.871 -0.4758  0.1420 -0.3646
 4337SOL    HW124644   3.220   0.058  15.887  1.5490  0.4629  1.2949
 4337SOL    HW224645   3.311   0.162  15.852 -0.3890 -1.1258 -0.5763
 4338SOL     OW24646   0.622   0.665  13.438 -0.0906  0.5018  0.4550
 4338SOL    HW124647   0.663   0.722  13.373 -0.9865  0.1624 -0.4098
 4338SOL    HW224648   0.561   0.725  13.481 -0.3948  0.9028 -0.5444
 4339SOL     OW24649   0.403   0.426  13.789 -0.3824 -0.2286  0.5514
 4339SOL    HW124650   0.444   0.388  13.711  3.5286 -1.2530  3.1217
 4339SOL    HW224651   0.336   0.483  13.751 -0.8300 -1.5542 -0.6571
 4340SOL     OW24652   4.657   2.872   1.450 -0.5775 -0.1019  0.2728
 4340SOL    HW124653   4.639   2.833   1.536 -1.1473  1.4049  0.8390
 4340SOL    HW224654   0.006   2.912   1.452 -1.1516  1.1109  0.9529
 4341SOL     OW24655   2.328   1.569  15.924 -0.2879  0.5001 -0.6550
 4341SOL    HW124656   2.330   1.548  15.830 -0.9586  0.7544 -0.7279
 4341SOL    HW224657   2.277   1.649  15.928 -0.6836  0.2967 -1.6317
 4342SOL     OW24658   2.694   4.513   1.834  0.2175  0.2810  0.0591
 4342SOL    HW124659   2.716   4.595   1.791 -0.7379  0.1637 -0.6586
 4342SOL    HW224660   2.718   4.536   1.924 -1.8324 -0.9454  0.9396
 4343SOL     OW24661   3.139   1.350  15.568  0.5986 -0.1648  0.1367
 4343SOL    HW124662   3.049   1.383  15.572 -0.4345 -2.9490 -0.1647
 4343SOL    HW224663   3.138   1.270  15.515 -1.2728 -1.3450  1.9738
 4344SOL     OW24664   1.595   0.934  13.384 -0.5580  0.1060  0.4600
 4344SOL    HW124665   1.617   0.927  13.291 -0.9380 -2.9846  0.5895
 4344SOL    HW224666   1.680   0.955  13.423  0.8658 -1.5304 -1.7286
 4345SOL     OW24667   4.127   2.533   6.624 -0.3082  0.6212  0.1207
 4345SOL    HW124668   4.158   2.610   6.575 -0.6444  0.9776  0.4729
 4345SOL    HW224669   4.112   2.571   6.710  1.2458  0.6403  0.3809
 4346SOL     OW24670   1.624   1.332   2.497  0.3207 -0.9327  0.6046
 4346SOL    HW124671   1.577   1.258   2.535 -2.3478  0.1008 -0.6932
 4346SOL    HW224672   1.710   1.290   2.495  1.0023  0.5366 -1.4309
 4347SOL     OW24673   1.359   3.173   3.552 -0.4057 -0.1136 -0.4499
 4347SOL    HW124674   1.441   3.130   3.531  1.1217  2.3184  0.4662
 4347SOL    HW224675   1.301   3.124   3.494 -1.9939  1.2512 -0.0440
 4348SOL     OW24676   0.003   3.734   3.958  0.4496 -0.2646 -0.2973
 4348SOL    HW124677   4.684   3.811   3.960 -1.0432 -1.3889  0.4210
 4348SOL    HW224678   4.737   3.721   4.053  0.1566 -0.4448 -0.3349
 4349SOL     OW24679   3.991   0.110   2.891  0.4833 -0.2152  0.1162
 4349SOL    HW124680   4.078   0.103   2.852  0.5926  0.8720  0.1573
 4349SOL    HW224681   3.954   0.028   2.859 -0.3073  0.4154 -0.5963
 4350SOL     OW24682   0.722   2.209  12.137 -0.1481  1.1602  0.0505
 4350SOL    HW124683   0.679   2.159  12.206 -2.0282  1.6620 -0.7682
 4350SOL    HW224684   0.810   2.218  12.174 -0.8523  0.2760  1.9322
 4351SOL     OW24685   3.836   1.290   3.481  0.0070  0.1158 -0.0197
 4351SOL    HW124686   3.832   1.283   3.576  2.9767 -1.5695 -0.0236
 4351SOL    HW224687   3.923   1.327   3.468 -0.4505  0.5552 -1.8845
 4352SOL     OW24688   1.976   3.439   7.781 -0.1837 -0.2021  0.1148
 4352SOL    HW124689   2.025   3.477   7.854 -0.3678 -0.3458  0.3132
 4352SOL    HW224690   1.924   3.380   7.835 -0.0168 -2.5133 -2.2223
 4353SOL     OW24691   4.435   2.564   4.402  0.2268  0.2328  0.7613
 4353SOL    HW124692   4.387   2.548   4.483  1.0570 -1.1399  0.9857
 4353SOL    HW224693   4.455   2.476   4.370  3.7958  1.8134 -1.3951
 4354SOL     OW24694   3.067   4.150   3.579  0.0037 -0.3661  0.8083
 4354SOL    HW124695   3.133   4.082   3.595  0.1090 -1.1587 -2.9908
 4354SOL    HW224696   3.081   4.208   3.654  1.3232 -1.9273  1.7579
 4355SOL     OW24697   4.614   3.235   5.125 -0.3772 -0.7691 -0.7693
 4355SOL    HW124698   4.664   3.158   5.097  0.4809 -1.9949  4.1530
 4355SOL    HW224699   4.691   3.272   5.167 -2.2298 -0.0269  1.9722
 4356SOL     OW24700   0.069   0.847   4.719 -0.4574 -0.3114  0.5848
 4356SOL    HW124701   0.162   0.848   4.697 -0.6097  0.4663  0.0024
 4356SOL    HW224702   0.043   0.762   4.755 -2.7467 -0.2545 -0.9657
 4357SOL     OW24703   2.589   1.002   8.633  0.4202 -0.4734 -0.2654
 4357SOL    HW124704   2.563   1.071   8.571  0.4928  0.1263  0.3770
 4357SOL    HW224705   2.684   1.011   8.626  0.2942  0.0235 -1.3642
 4358SOL     OW24706   4.288   2.021   6.511  0.3506  0.0539 -0.1381
 4358SOL    HW124707   4.249   2.108   6.507  1.1137  0.3311 -1.5602
 4358SOL    HW224708   4.215   1.970   6.547  1.0578 -0.1259  1.0158
 4359SOL     OW24709   0.042   4.179   0.558  0.1807  0.4443  0.6031
 4359SOL    HW124710   0.019   4.089   0.533 -0.0125  0.7626 -0.3695
 4359SOL    HW224711   4.713   4.239   0.523 -1.9078 -1.9724  0.3662
 4360SOL     OW24712   3.162   0.765   0.409 -0.1003  0.0332 -0.9394
 4360SOL    HW124713   3.220   0.841   0.415 -0.9790  0.7068 -0.9460
 4360SOL    HW224714   3.175   0.737   0.318 -1.5599 -0.9832 -0.8379
 4361SOL     OW24715   3.366   3.530   9.570  0.2587 -0.0960  0.1057
 4361SOL    HW124716   3.370   3.592   9.497 -0.4829  0.9534  0.9584
 4361SOL    HW224717   3.292   3.562   9.621  1.1426 -1.6873  2.4466
 4362SOL     OW24718   2.859   1.715  14.662 -0.3702 -0.8201  0.5655
 4362SOL    HW124719   2.942   1.680  14.694 -0.0795  0.7838  1.5601
 4362SOL    HW224720   2.837   1.777  14.732  0.6267  0.6135 -0.3866
 4363SOL     OW24721   4.675   1.596  14.008  0.0810  0.0788  0.0055
 4363SOL    HW124722   0.006   1.549  14.057 -1.1816 -0.1970  1.5027
 4363SOL    HW224723   4.693   1.686  14.035  2.3724  0.7366 -3.7594
 4364SOL     OW24724   1.373   3.759   6.688 -0.3964 -0.4382  0.5442
 4364SOL    HW124725   1.317   3.684   6.708 -1.2832  0.5787  1.8707
 4364SOL    HW224726   1.422   3.736   6.609 -0.7067  0.8620 -0.0218
 4365SOL     OW24727   2.876   1.121   7.013  0.4476  0.4474 -0.4693
 4365SOL    HW124728   2.790   1.080   7.008  0.4253  0.3398  0.8028
 4365SOL    HW224729   2.909   1.109   6.924 -2.4214 -2.3007 -1.1590
 4366SOL     OW24730   4.062   0.240   3.200  0.1105  0.3333  0.0232
 4366SOL    HW124731   3.983   0.224   3.252  1.7319 -2.9813  1.4448
 4366SOL    HW224732   4.071   0.161   3.147 -1.3407  0.6474 -0.6897
 4367SOL     OW24733   3.648   1.110   9.056  0.3547  0.0314  0.1412
 4367SOL    HW124734   3.605   1.131   9.138 -1.0751  0.8320 -0.8055
 4367SOL    HW224735   3.721   1.171   9.041 -1.1206  1.6285 -0.6060
 4368SOL     OW24736   0.581   3.109   3.801  0.5770  0.4410  0.3171
 4368SOL    HW124737   0.649   3.064   3.850  0.9500 -0.1212 -0.7129
 4368SOL    HW224738   0.619   3.124   3.714 -0.7670 -1.0079 -0.5297
 4369SOL     OW24739   0.218   1.632   3.056  0.2761 -0.2748 -0.0204
 4369SOL    HW124740   0.194   1.668   2.971  1.0470 -0.9915 -0.5437
 4369SOL    HW224741   0.185   1.543   3.044 -1.7788  0.5953 -0.7985
 4370SOL     OW24742   1.940   2.239  12.370  0.1863 -0.8515  0.7558
 4370SOL    HW124743   1.950   2.152  12.333  3.9985  0.4224 -1.1241
 4370SOL    HW224744   2.022   2.278  12.340 -1.0885  1.4886  0.2844
 4371SOL     OW24745   4.343   1.618   9.011 -0.0112 -0.3075 -0.2645
 4371SOL    HW124746   4.328   1.573   9.094 -0.2617 -0.1477 -0.2233
 4371SOL    HW224747   4.388   1.549   8.962  0.6581 -1.9293  2.5922
 4372SOL     OW24748   0.662   2.220   8.030 -0.3755 -0.3485  0.3343
 4372SOL    HW124749   0.750   2.224   8.066 -0.9924  2.3104  1.5749
 4372SOL    HW224750   0.680   2.179   7.945  0.7029  1.4092 -0.2811
 4373SOL     OW24751   1.713   4.264   8.274 -0.4142  0.1577  0.1617
 4373SOL    HW124752   1.757   4.315   8.343  1.6923 -1.4785  0.0397
 4373SOL    HW224753   1.785   4.279   8.213  0.6622 -1.9739  0.9036
 4374SOL     OW24754   4.544   0.365  10.533 -0.1355 -0.2658  0.1658
 4374SOL    HW124755   4.589   0.335  10.611  2.1502  1.9784 -0.2518
 4374SOL    HW224756   4.478   0.296  10.529 -2.5988  2.0088  1.7539
 4375SOL     OW24757   4.609   3.490   9.615 -0.0009  0.4285 -0.3184
 4375SOL    HW124758   4.535   3.457   9.665  0.5393 -0.5334 -0.1575
 4375SOL    HW224759   4.634   3.405   9.578 -0.4964 -0.5129  1.5239
 4376SOL     OW24760   3.219   3.508   7.266 -0.4719 -0.1307  0.1295
 4376SOL    HW124761   3.215   3.422   7.224  0.4118 -0.0266 -0.1713
 4376SOL    HW224762   3.302   3.532   7.224 -0.5421  1.6075  0.9576
 4377SOL     OW24763   3.814   4.308   8.581  0.4375  0.2601  0.7224
 4377SOL    HW124764   3.866   4.232   8.606 -0.7877 -0.7278  0.3008
 4377SOL    HW224765   3.864   4.348   8.511  0.8293 -2.6460 -0.6450
 4378SOL     OW24766   2.676   3.236   5.591 -0.1463  0.4958 -0.3355
 4378SOL    HW124767   2.749   3.251   5.531 -0.4757 -0.1236 -0.8880
 4378SOL    HW224768   2.630   3.319   5.586 -2.1523 -0.6165 -0.3689
 4379SOL     OW24769   0.792   3.574   8.566  0.2256 -0.0635 -0.0688
 4379SOL    HW124770   0.712   3.522   8.564 -0.3815  0.8957 -1.1690
 4379SOL    HW224771   0.791   3.625   8.647 -1.9905 -1.8300  0.9926
 4380SOL     OW24772   1.371   0.205   0.301  0.0180  0.6200 -0.0855
 4380SOL    HW124773   1.407   0.121   0.270 -4.6869 -0.4299 -2.7115
 4380SOL    HW224774   1.446   0.234   0.352  1.5211 -0.5181 -1.6279
 4381SOL     OW24775   0.953   2.044   0.544 -0.1253 -0.3197  0.3513
 4381SOL    HW124776   1.001   2.083   0.471  0.9478 -1.7005  0.3019
 4381SOL    HW224777   0.892   1.987   0.498 -1.0319  0.8303  0.1243
 4382SOL     OW24778   4.520   2.930   9.020 -0.3143  0.4584  0.1811
 4382SOL    HW124779   4.599   2.876   9.028 -1.0020 -0.3999  1.2498
 4382SOL    HW224780   4.498   2.914   8.928 -2.0779  0.4128  0.6100
 4383SOL     OW24781   4.086   2.404   6.971 -0.7372  0.2136 -0.5468
 4383SOL    HW124782   3.996   2.417   7.000 -0.3857 -0.1894  0.7476
 4383SOL    HW224783   4.089   2.454   6.889  2.0333 -0.4941 -0.8601
 4384SOL     OW24784   0.332   1.282  10.697  0.0246 -0.5163 -0.3986
 4384SOL    HW124785   0.358   1.210  10.640  0.5855 -0.7751  0.1801
 4384SOL    HW224786   0.273   1.243  10.763  0.3751 -0.4957 -0.0704
 4385SOL     OW24787   0.374   2.523   9.630 -0.1432  0.3650  0.2933
 4385SOL    HW124788   0.294   2.525   9.682  0.6349  1.7964  1.4346
 4385SOL    HW224789   0.426   2.457   9.675  0.2495 -0.8755 -1.9811
 4386SOL     OW24790   4.159   1.393  14.080 -1.0722  0.4127 -0.1697
 4386SOL    HW124791   4.100   1.454  14.036 -2.3476  1.2535  2.7336
 4386SOL    HW224792   4.113   1.311  14.060 -0.8768  1.5600 -5.1405
 4387SOL     OW24793   0.202   2.915   7.535  0.6244 -0.0253  0.0791
 4387SOL    HW124794   0.223   3.003   7.567 -3.0480  0.7925  0.2872
 4387SOL    HW224795   0.122   2.905   7.587 -0.2395  1.3785 -0.9789
 4388SOL     OW24796   0.316   3.266   0.605 -0.2882 -0.5889 -0.1917
 4388SOL    HW124797   0.287   3.341   0.554 -0.2972 -1.1144 -0.9775
 4388SOL    HW224798   0.337   3.205   0.533 -0.1346 -0.1709 -0.5001
 4389SOL     OW24799   4.019   1.168  14.043  0.4787  0.2989  0.1135
 4389SOL    HW124800   3.931   1.185  14.011  0.4004 -1.1705 -0.4898
 4389SOL    HW224801   4.009   1.154  14.137 -2.3422 -0.4162 -0.2825
 4390SOL     OW24802   3.176   0.416   8.428 -0.2088  0.1441 -0.2157
 4390SOL    HW124803   3.179   0.432   8.522  1.3029 -0.6775 -0.1253
 4390SOL    HW224804   3.089   0.445   8.402 -0.3066 -0.8656 -1.0096
 4391SOL     OW24805   3.890   4.226   2.446 -0.1359  0.3894  0.1433
 4391SOL    HW124806   3.863   4.169   2.375  0.2996 -1.3238  1.3618
 4391SOL    HW224807   3.909   4.311   2.406  0.1433  1.2707  2.1480
 4392SOL     OW24808   3.641   1.201   2.880  0.6045 -0.0327  0.2087
 4392SOL    HW124809   3.639   1.244   2.966 -0.5808  0.4706 -0.0754
 4392SOL    HW224810   3.636   1.280   2.826  0.5917 -0.7812 -0.8899
 4393SOL     OW24811   1.429   3.171  15.448 -0.1105  0.6647 -0.0214
 4393SOL    HW124812   1.363   3.148  15.382  1.1660  2.1563 -1.8039
 4393SOL    HW224813   1.384   3.138  15.526 -0.1784 -0.6267 -0.6064
 4394SOL     OW24814   3.685   3.461  13.810  0.1173  0.1995  0.1759
 4394SOL    HW124815   3.713   3.541  13.853  1.3255 -0.5722  0.8077
 4394SOL    HW224816   3.590   3.466  13.821 -0.0025  1.5439 -1.5246
 4395SOL     OW24817   2.602   1.906   1.353  0.2051 -0.2093 -0.0336
 4395SOL    HW124818   2.696   1.920   1.365  0.2317 -1.5055  1.3583
 4395SOL    HW224819   2.589   1.815   1.381 -1.2027 -0.0881 -0.2977
 4396SOL     OW24820   2.807   0.506   1.289  0.0121  0.0808  0.0866
 4396SOL    HW124821   2.871   0.436   1.276 -0.5318  0.1625 -3.0453
 4396SOL    HW224822   2.777   0.513   1.198 -2.0036  1.9166  0.9054
 4397SOL     OW24823   3.020   2.143  12.792 -0.1843 -0.2866 -0.0491
 4397SOL    HW124824   3.101   2.118  12.837 -0.7186 -0.1723  0.9862
 4397SOL    HW224825   2.991   2.056  12.766 -0.5492 -0.3069  0.4355
 4398SOL     OW24826   1.659   2.592   3.034  0.3901 -0.4153 -0.0011
 4398SOL    HW124827   1.589   2.557   3.089  1.5675 -1.3633  0.8816
 4398SOL    HW224828   1.670   2.528   2.964  1.4063 -1.1676  0.8573
 4399SOL     OW24829   3.684   3.398   4.221  0.4354 -0.1722 -0.0051
 4399SOL    HW124830   3.713   3.415   4.311 -3.8637  1.5984  1.0530
 4399SOL    HW224831   3.590   3.415   4.234  0.2353 -3.0470  2.1307
 4400SOL     OW24832   0.528   3.102  15.381 -0.1227 -0.2777  0.1272
 4400SOL    HW124833   0.437   3.092  15.351  0.7254  0.3453 -2.6784
 4400SOL    HW224834   0.535   3.024  15.435  0.1499  1.0618  2.0218
 4401SOL     OW24835   0.525   3.689   7.333  0.4169  0.4293  0.1213
 4401SOL    HW124836   0.583   3.732   7.395  0.9638  0.2616 -0.2724
 4401SOL    HW224837   0.503   3.605   7.374  1.0761 -1.1633 -2.8061
 4402SOL     OW24838   1.773   0.488  17.486 -0.3270 -0.2451  0.0048
 4402SOL    HW124839   1.793   0.441  17.567  0.5107 -0.6417 -0.4327
 4402SOL    HW224840   1.732   0.414  17.442  0.9728 -0.7967 -0.2536
 4403SOL     OW24841   1.250   2.562  10.029  0.4615 -0.3288 -0.2185
 4403SOL    HW124842   1.213   2.543   9.943  0.4410 -2.0929  0.1795
 4403SOL    HW224843   1.230   2.656  10.025 -0.6824 -0.4734  1.8947
 4404SOL     OW24844   2.721   0.426  16.021  0.0143 -0.3174  0.2082
 4404SOL    HW124845   2.781   0.498  16.004 -2.2376  1.5484  0.2264
 4404SOL    HW224846   2.714   0.380  15.937  2.4225 -1.2053  0.4856
 4405SOL     OW24847   4.395   0.606   3.301  0.6290 -0.0627 -0.1246
 4405SOL    HW124848   4.354   0.536   3.353  0.2520 -0.6327 -1.1912
 4405SOL    HW224849   4.457   0.642   3.365 -1.4432  0.6520  1.4791
 4406SOL     OW24850   3.326   0.043   5.579  0.2846 -0.2555 -0.3537
 4406SOL    HW124851   3.344   0.134   5.556  1.5235 -0.4707 -0.2262
 4406SOL    HW224852   3.230   0.036   5.581  0.1752  1.7634  0.8921
 4407SOL     OW24853   0.705   2.382  13.108 -0.2933 -0.1798  0.1747
 4407SOL    HW124854   0.728   2.367  13.200  2.0739 -0.7264 -0.5315
 4407SOL    HW224855   0.783   2.357  13.060 -1.4871 -1.2749 -1.2014
 4408SOL     OW24856   2.346   4.114  14.314 -0.2198  0.1039 -1.0548
 4408SOL    HW124857   2.428   4.143  14.353 -0.0357 -0.6832 -0.8426
 4408SOL    HW224858   2.376   4.051  14.248  0.1796 -1.5894  0.7382
 4409SOL     OW24859   0.701   2.960   6.527  0.3036 -1.0314 -0.1673
 4409SOL    HW124860   0.695   2.925   6.438 -0.1501  3.0283 -1.7260
 4409SOL    HW224861   0.779   3.014   6.514 -0.2973 -0.0197  0.4593
 4410SOL     OW24862   0.680   2.188   4.881 -0.7382  0.1686  0.5230
 4410SOL    HW124863   0.641   2.268   4.846 -0.7875 -0.0318  0.1214
 4410SOL    HW224864   0.598   2.139   4.888  0.9136 -2.6358  0.5022
 4411SOL     OW24865   1.104   0.079  13.847  0.2642 -0.4865 -0.2878
 4411SOL    HW124866   1.084   0.088  13.940  0.3528 -0.8070 -0.2356
 4411SOL    HW224867   1.188   0.033  13.843  0.6361  0.0318  1.4790
 4412SOL     OW24868   4.420   0.495   7.185  0.3831 -0.2649 -0.8476
 4412SOL    HW124869   4.394   0.455   7.102 -0.1694 -3.0109  0.6317
 4412SOL    HW224870   4.409   0.423   7.248 -0.6253  0.2925 -0.3866
 4413SOL     OW24871   0.618   3.099  14.896 -0.0266  0.3935  0.3482
 4413SOL    HW124872   0.629   3.010  14.931 -1.9369 -0.5224 -1.3482
 4413SOL    HW224873   0.699   3.147  14.911  0.1710 -0.1364  0.9793
 4414SOL     OW24874   2.169   1.721   9.629 -0.0264  0.1712 -0.0167
 4414SOL    HW124875   2.168   1.785   9.700 -0.7691 -0.4337  0.5195
 4414SOL    HW224876   2.142   1.779   9.557 -0.3747 -0.2804 -0.2527
 4415SOL     OW24877   2.909   4.341   1.063 -0.5381 -0.4024  0.6333
 4415SOL    HW124878   2.919   4.373   1.153  1.8787 -0.3929  0.3779
 4415SOL    HW224879   2.959   4.411   1.021 -0.0088 -1.6186 -0.7356
 4416SOL     OW24880   4.133   3.941   2.420  0.1841  0.2084 -0.6789
 4416SOL    HW124881   4.189   3.877   2.377 -1.1998 -1.0919 -0.5044
 4416SOL    HW224882   4.045   3.914   2.397 -0.2827 -0.0163  1.3610
 4417SOL     OW24883   1.656   1.092   2.929 -0.2368  0.2025 -0.5525
 4417SOL    HW124884   1.725   1.158   2.919 -0.3409  0.3035 -0.6169
 4417SOL    HW224885   1.671   1.073   3.021  1.6393  0.4996 -0.8055
 4418SOL     OW24886   1.002   2.168   3.682  0.0461  0.5780 -0.2897
 4418SOL    HW124887   1.049   2.144   3.762  0.1959 -0.7334 -0.7722
 4418SOL    HW224888   0.970   2.257   3.698 -0.1030 -0.0252  2.6946
 4419SOL     OW24889   1.692   0.510  10.546 -0.0762 -0.3498 -0.4813
 4419SOL    HW124890   1.772   0.562  10.544 -1.2835  1.5201  0.5332
 4419SOL    HW224891   1.718   0.419  10.530 -0.4837 -0.7544  1.1702
 4420SOL     OW24892   4.381   3.162   0.824  0.5032  0.0405 -0.1010
 4420SOL    HW124893   4.334   3.103   0.765  0.0876 -0.8324  1.1144
 4420SOL    HW224894   4.468   3.125   0.838 -1.2951 -2.8457  3.3593
 4421SOL     OW24895   2.053   2.695   4.196 -0.8648 -0.0147 -0.1352
 4421SOL    HW124896   2.113   2.622   4.209  0.9095  1.5300  0.3363
 4421SOL    HW224897   2.059   2.723   4.288 -1.4305  1.9299 -0.6719
 4422SOL     OW24898   3.647   4.630   3.563  0.6712 -0.9076  0.3127
 4422SOL    HW124899   3.582   4.698   3.549  0.1104 -1.0625  2.1787
 4422SOL    HW224900   3.639   4.630   3.658 -0.8846 -0.1399  0.1709
 4423SOL     OW24901   2.455   3.379   1.882  0.1031  0.3329 -0.2462
 4423SOL    HW124902   2.425   3.316   1.947 -0.7426  2.3328  1.2939
 4423SOL    HW224903   2.542   3.404   1.912  0.5535 -0.6578 -0.6925
 4424SOL     OW24904   0.384   4.345   4.456  0.2895 -0.1541 -0.1547
 4424SOL    HW124905   0.300   4.315   4.420 -0.8751  0.7090  1.8048
 4424SOL    HW224906   0.426   4.384   4.379 -0.5533 -1.1692 -1.1222
 4425SOL     OW24907   0.458   0.896   9.622 -0.4023  0.6495 -0.0090
 4425SOL    HW124908   0.506   0.814   9.614 -0.0089  0.9011 -0.2100
 4425SOL    HW224909   0.442   0.910   9.715  2.7138  1.8254  0.3578
 4426SOL     OW24910   3.887   2.241   2.056 -0.1203 -0.4592 -0.7876
 4426SOL    HW124911   3.972   2.284   2.068  0.6259 -2.1825  0.1910
 4426SOL    HW224912   3.858   2.242   2.147  0.8740  1.5221 -0.4888
 4427SOL     OW24913   0.141   3.420   0.425 -0.1011 -0.3017 -0.0772
 4427SOL    HW124914   0.092   3.500   0.444 -1.1297 -0.8700 -0.3059
 4427SOL    HW224915   0.084   3.356   0.468  1.2261 -2.3852 -1.4009
 4428SOL     OW24916   0.611   1.489   3.946  0.2799  0.3674  0.1640
 4428SOL    HW124917   0.692   1.529   3.977  1.0815 -0.8155 -0.4205
 4428SOL    HW224918   0.553   1.565   3.935 -1.4998 -1.2278 -1.4735
 4429SOL     OW24919   0.758   4.221   0.758 -0.3024 -0.1915  0.2110
 4429SOL    HW124920   0.847   4.237   0.790 -0.2957 -1.1243  0.6604
 4429SOL    HW224921   0.774   4.142   0.707  1.3851 -0.8723  1.8135
 4430SOL     OW24922   2.800   2.101  13.076  0.0186 -0.0683 -0.7360
 4430SOL    HW124923   2.752   2.100  12.993 -0.5275  0.9360 -0.4184
 4430SOL    HW224924   2.730   2.106  13.140  0.3969  1.8943 -0.4864
 4431SOL     OW24925   2.413   0.512   9.003  0.1455  0.2953  0.3440
 4431SOL    HW124926   2.420   0.481   8.913  2.4877  1.3912  0.1557
 4431SOL    HW224927   2.371   0.596   8.987  1.5391  0.6137 -1.6477
 4432SOL     OW24928   2.597   2.039  13.720 -0.1101 -0.7100  0.0035
 4432SOL    HW124929   2.561   2.042  13.809  1.4834  1.8684  0.5759
 4432SOL    HW224930   2.520   2.050  13.665  0.9568 -1.3666 -1.5988
 4433SOL     OW24931   3.889   0.615   5.021  0.1402  0.8699 -0.4384
 4433SOL    HW124932   3.983   0.632   5.022  0.3646 -0.4559  3.6238
 4433SOL    HW224933   3.880   0.573   4.936  0.8099 -2.1706  0.9614
 4434SOL     OW24934   1.795   4.414  14.957 -0.0838  0.4835 -0.3547
 4434SOL    HW124935   1.700   4.425  14.958 -0.3052 -1.4951  1.2610
 4434SOL    HW224936   1.824   4.496  14.997 -1.4606 -0.6334  2.8742
 4435SOL     OW24937   3.217   3.099   5.905  0.4484 -0.7575 -0.6662
 4435SOL    HW124938   3.175   3.030   5.955  2.5372 -0.7055  1.1604
 4435SOL    HW224939   3.152   3.169   5.905  0.2938 -0.9042  0.0160
 4436SOL     OW24940   2.169   4.565   8.977 -0.1489  0.4994 -0.8507
 4436SOL    HW124941   2.223   4.644   8.976  0.6357  0.0180  2.4567
 4436SOL    HW224942   2.229   4.520   9.037 -0.4790  0.2555 -0.7074
 4437SOL     OW24943   0.337   0.492   9.067 -0.3083  0.3208 -0.1110
 4437SOL    HW124944   0.256   0.441   9.064 -0.2008  0.2818 -2.3057
 4437SOL    HW224945   0.329   0.549   8.991  1.6820  1.3855  0.4753
 4438SOL     OW24946   0.496   3.204   4.941 -0.1731 -0.1383  0.3168
 4438SOL    HW124947   0.436   3.157   4.883  0.0622 -0.0978  0.0431
 4438SOL    HW224948   0.444   3.272   4.984 -1.8851 -0.0047 -1.9847
 4439SOL     OW24949   4.463   0.578   8.322  0.1502  0.5885  0.0467
 4439SOL    HW124950   4.386   0.523   8.313  0.3174  0.0815  1.6883
 4439SOL    HW224951   4.482   0.577   8.416 -1.2759 -0.5574  0.3172
 4440SOL     OW24952   1.282   4.266   9.759 -0.3078  0.2538 -0.8315
 4440SOL    HW124953   1.237   4.348   9.776 -1.8304 -0.9825  1.0734
 4440SOL    HW224954   1.315   4.247   9.846 -0.0962  1.6889 -0.6047
 4441SOL     OW24955   4.296   2.172   4.524  0.0065  0.6198 -0.3246
 4441SOL    HW124956   4.204   2.164   4.550  0.6729 -1.0399  1.5251
 4441SOL    HW224957   4.337   2.155   4.609  0.2413  0.7770 -0.4070
 4442SOL     OW24958   1.879   0.028   9.360 -0.0361 -0.2842  0.0411
 4442SOL    HW124959   1.821   0.100   9.384  0.4494  0.9967 -2.6194
 4442SOL    HW224960   1.888   4.722   9.445 -0.2181  0.7602  0.5942
 4443SOL     OW24961   2.797   2.885   1.393  0.1709  0.3217  0.4342
 4443SOL    HW124962   2.772   2.816   1.455 -1.0449  1.0277  0.7407
 4443SOL    HW224963   2.858   2.931   1.450  1.6876 -0.1602 -0.7989
 4444SOL     OW24964   3.985   1.383   2.189 -0.3241  0.4274  0.3323
 4444SOL    HW124965   3.991   1.291   2.162  3.1524  0.5164  0.8344
 4444SOL    HW224966   3.897   1.408   2.159  1.0170  1.4656 -2.6401
 4445SOL     OW24967   0.023   2.900   3.571 -0.1980  0.2564  0.3349
 4445SOL    HW124968   0.047   2.822   3.621  1.6569  0.1576 -0.7177
 4445SOL    HW224969   0.084   2.891   3.498 -0.9565  1.2855 -0.4217
 4446SOL     OW24970   1.349   4.272   2.976 -0.0202 -0.1099  0.4244
 4446SOL    HW124971   1.436   4.235   2.959 -0.3809 -0.5447 -0.4801
 4446SOL    HW224972   1.323   4.206   3.040  0.4399  1.0104  1.7553
 4447SOL     OW24973   2.947   2.025  11.660  0.0505 -0.6345 -0.6891
 4447SOL    HW124974   2.972   2.012  11.569  2.5721  1.6843 -0.3217
 4447SOL    HW224975   2.871   1.970  11.675  0.8591 -0.7419  2.9835
 4448SOL     OW24976   1.528   2.332   9.366  0.7641  0.0126 -0.4809
 4448SOL    HW124977   1.447   2.378   9.387 -0.6243 -2.0921 -1.2032
 4448SOL    HW224978   1.484   2.262   9.317  1.1428 -0.4537 -0.1603
 4449SOL     OW24979   0.893   3.902   2.845  0.0468  0.4011  0.3004
 4449SOL    HW124980   0.971   3.959   2.840  1.9620 -1.9241  3.8106
 4449SOL    HW224981   0.838   3.942   2.912 -1.0691 -0.1113 -0.3210
 4450SOL     OW24982   3.412   1.137   1.959 -0.2600  0.3605 -0.4731
 4450SOL    HW124983   3.429   1.074   1.889 -1.0947 -0.6788  0.2611
 4450SOL    HW224984   3.318   1.122   1.957 -0.3212  0.7040  0.0745
 4451SOL     OW24985   1.176   4.225   2.226  0.6097 -0.5159  0.0972
 4451SOL    HW124986   1.213   4.313   2.232 -1.9839  0.5900 -0.0989
 4451SOL    HW224987   1.227   4.202   2.149 -0.3573 -0.5317 -0.5424
 4452SOL     OW24988   2.625   0.664  17.117  0.4160  0.0289  0.1192
 4452SOL    HW124989   2.565   0.649  17.191 -0.8840  1.1955 -0.6788
 4452SOL    HW224990   2.629   0.578  17.077  2.3290 -0.2448  0.9340
 4453SOL     OW24991   1.552   0.433  12.549 -0.1218 -0.1709  0.0618
 4453SOL    HW124992   1.573   0.347  12.511  1.4312 -0.4091  1.4771
 4453SOL    HW224993   1.630   0.443  12.603 -0.6605  0.8750  0.6247
 4454SOL     OW24994   2.466   2.688   7.848  0.3476 -0.2895 -0.5309
 4454SOL    HW124995   2.546   2.636   7.837  0.1282 -0.7602  0.0686
 4454SOL    HW224996   2.516   2.747   7.904  0.7254 -0.0129 -1.1661
 4455SOL     OW24997   2.867   2.482   6.145 -0.1809  0.0498 -0.1067
 4455SOL    HW124998   2.895   2.420   6.077  3.0876  0.1432  1.1714
 4455SOL    HW224999   2.825   2.551   6.095  1.1161  0.4379 -0.6549
 4456SOL     OW25000   3.529   3.400   9.084  0.7035  0.1753  0.1249
 4456SOL    HW125001   3.503   3.459   9.014 -0.7312 -2.1403 -1.3281
 4456SOL    HW225002   3.549   3.451   9.162  1.9386  0.9069 -0.6839
 4457SOL     OW25003   1.801   0.706  11.396  0.7182  0.1861  0.0474
 4457SOL    HW125004   1.749   0.625  11.399  1.1751 -0.0565  1.3927
 4457SOL    HW225005   1.856   0.688  11.472 -0.8014  2.5742  1.6758
 4458SOL     OW25006   0.404   2.318   7.486  0.3227 -0.2287 -0.4222
 4458SOL    HW125007   0.376   2.375   7.415  0.0615  1.7622  1.2865
 4458SOL    HW225008   0.323   2.315   7.537 -0.8971  0.4272 -2.3536
 4459SOL     OW25009   4.467   4.509   6.978 -0.4959 -0.1010 -0.1213
 4459SOL    HW125010   4.464   4.591   6.929  0.0053 -1.3363 -2.1899
 4459SOL    HW225011   4.423   4.453   6.915  1.3880  0.6091 -2.0790
 4460SOL     OW25012   3.432   1.617   1.623 -0.0449  0.4944  0.3034
 4460SOL    HW125013   3.423   1.644   1.715 -0.7024  0.1761  0.3290
 4460SOL    HW225014   3.413   1.523   1.626 -0.3142  0.5435  0.0932
 4461SOL     OW25015   4.630   0.989   4.984 -0.0388 -0.7323 -0.0438
 4461SOL    HW125016   4.714   0.948   4.964  0.1646  0.3233 -1.4233
 4461SOL    HW225017   4.663   1.055   5.045  0.0128 -0.2734 -0.5675
 4462SOL     OW25018   2.522   3.247   6.355 -0.0076  0.3730  0.8824
 4462SOL    HW125019   2.548   3.173   6.299  0.3564  1.5904 -0.5478
 4462SOL    HW225020   2.590   3.313   6.342  1.4375 -2.0702 -4.0385
 4463SOL     OW25021   1.126   0.015  13.161 -0.6178  0.3430 -0.3548
 4463SOL    HW125022   1.201   4.698  13.138 -1.5761 -0.4943 -1.4724
 4463SOL    HW225023   1.093   4.691  13.226  1.6904 -0.2471  0.2848
 4464SOL     OW25024   0.487   1.945   5.215  0.3602  0.8524 -0.6537
 4464SOL    HW125025   0.472   2.031   5.255  0.5746  0.9492 -0.7810
 4464SOL    HW225026   0.579   1.938   5.243  0.7661  0.2520 -2.1399
 4465SOL     OW25027   0.789   2.225  10.894  0.8514  0.2942 -0.0012
 4465SOL    HW125028   0.839   2.297  10.933  1.0338 -0.6533  1.5332
 4465SOL    HW225029   0.702   2.259  10.874  1.0025  0.2350 -0.7532
 4466SOL     OW25030   2.398   3.390   0.861  0.0194 -0.3942 -0.1200
 4466SOL    HW125031   2.384   3.455   0.792  1.0464 -1.0303 -0.9258
 4466SOL    HW225032   2.330   3.419   0.922  0.6725  0.4126  0.2234
 4467SOL     OW25033   0.527   0.930  15.311 -0.0652  0.1546 -0.1714
 4467SOL    HW125034   0.448   0.950  15.261 -0.9570  0.6358  1.4595
 4467SOL    HW225035   0.587   0.954  15.240 -0.9162 -0.7498 -1.2074
 4468SOL     OW25036   3.688   2.116  16.913 -0.1236 -0.1096 -0.2143
 4468SOL    HW125037   3.775   2.080  16.897  0.4771  0.2849  2.2379
 4468SOL    HW225038   3.639   2.040  16.942  0.2454 -0.0396  0.5766
 4469SOL     OW25039   4.707   4.188   8.817 -0.5150  0.3994 -0.3436
 4469SOL    HW125040   4.660   4.241   8.753 -0.7598  0.9124  0.2654
 4469SOL    HW225041   4.642   4.183   8.886 -0.5129 -0.4075 -0.3987
 4470SOL     OW25042   3.802   1.573   6.333 -0.0027  0.5860  0.5600
 4470SOL    HW125043   3.858   1.650   6.340  0.1815  0.5756 -0.8260
 4470SOL    HW225044   3.861   1.500   6.314 -1.2917 -0.0886 -0.8533
 4471SOL     OW25045   3.778   1.150   3.258 -0.4568 -0.0623  0.2036
 4471SOL    HW125046   3.797   1.197   3.340 -0.2951 -0.9617  0.6867
 4471SOL    HW225047   3.864   1.113   3.239 -1.0169 -0.0987 -2.1655
 4472SOL     OW25048   4.171   2.875   5.691 -0.0258  0.1131 -0.1516
 4472SOL    HW125049   4.115   2.948   5.715  1.3374  1.1837 -0.2298
 4472SOL    HW225050   4.242   2.894   5.752  0.1478 -1.2664  0.0740
 4473SOL     OW25051   3.522   0.383   4.938  0.0042 -0.2302 -0.5356
 4473SOL    HW125052   3.451   0.433   4.979  0.8834  0.5699  0.0107
 4473SOL    HW225053   3.477   0.333   4.870  3.0375 -0.7381 -2.1657
 4474SOL     OW25054   1.113   0.897   2.533 -0.5315  0.6286 -0.3855
 4474SOL    HW125055   1.208   0.910   2.524 -0.4377 -1.8627 -3.0922
 4474SOL    HW225056   1.110   0.907   2.628 -1.3965 -0.1968 -0.3274
 4475SOL     OW25057   3.553   1.870  16.115  0.0924  0.0895  0.0111
 4475SOL    HW125058   3.613   1.942  16.096  0.4392 -0.2779 -0.2727
 4475SOL    HW225059   3.599   1.823  16.185  1.6806 -0.4397 -1.4029
 4476SOL     OW25060   0.257   0.298   8.180  0.0516 -0.1471 -0.2455
 4476SOL    HW125061   0.205   0.313   8.101  0.1489  0.6808 -0.1516
 4476SOL    HW225062   0.184   0.324   8.236  0.3102 -0.8360  0.4046
 4477SOL     OW25063   0.418   3.656  10.230 -0.8007  0.0733  0.4590
 4477SOL    HW125064   0.465   3.576  10.254 -1.4461 -0.1445  0.9675
 4477SOL    HW225065   0.327   3.633  10.243 -0.7512 -0.7286 -0.6147
 4478SOL     OW25066   4.083   1.598  15.047 -0.6479  0.0075  0.7023
 4478SOL    HW125067   4.156   1.537  15.056 -0.5424 -0.0321 -0.4091
 4478SOL    HW225068   4.012   1.538  15.072 -1.2292 -0.0533 -1.1113
 4479SOL     OW25069   2.151   2.332   3.000 -0.2014  0.0524  0.1877
 4479SOL    HW125070   2.134   2.369   2.913 -2.3323 -0.3841  0.4143
 4479SOL    HW225071   2.063   2.300   3.018  0.3372 -1.9412 -0.7531
 4480SOL     OW25072   1.791   3.835   5.063 -0.0072 -0.2522 -0.3575
 4480SOL    HW125073   1.797   3.787   5.145  2.0572  1.2845  0.3828
 4480SOL    HW225074   1.696   3.835   5.047  0.1190  0.4462 -1.1242
 4481SOL     OW25075   4.367   1.990   4.719  0.2424 -0.8202 -0.1287
 4481SOL    HW125076   4.423   1.976   4.796  0.2988  0.7461  0.1300
 4481SOL    HW225077   4.306   1.918   4.735 -1.2684  0.0727 -1.8640
 4482SOL     OW25078   2.842   4.066   4.174 -0.3323 -0.2874  0.5136
 4482SOL    HW125079   2.863   4.083   4.266  0.5455  3.1608 -0.3217
 4482SOL    HW225080   2.847   3.970   4.173  0.3350 -0.2238 -1.6017
 4483SOL     OW25081   1.709   4.426   4.066  0.2672 -0.0334  0.5036
 4483SOL    HW125082   1.677   4.375   3.991 -0.2641 -1.3443  1.6290
 4483SOL    HW225083   1.755   4.497   4.020  0.1440  2.3357  4.0602
 4484SOL     OW25084   0.190   2.605   8.865  0.1436 -0.3957  0.6101
 4484SOL    HW125085   0.111   2.619   8.918  0.3496 -1.7681  1.3010
 4484SOL    HW225086   0.256   2.613   8.934 -2.5868  1.0872  3.0470
 4485SOL     OW25087   2.288   4.168   2.728 -0.4385  0.2168 -0.2727
 4485SOL    HW125088   2.382   4.189   2.728 -0.7705  1.7505 -1.1151
 4485SOL    HW225089   2.268   4.184   2.636  0.4659  2.0232 -0.1727
 4486SOL     OW25090   0.541   4.212   4.633 -0.0991 -0.2647  0.1226
 4486SOL    HW125091   0.619   4.208   4.577  0.2941 -0.5488  0.6913
 4486SOL    HW225092   0.483   4.256   4.571  2.9639 -0.2632 -2.7352
 4487SOL     OW25093   2.044   1.402   2.973 -0.1567  0.1202  0.1716
 4487SOL    HW125094   2.114   1.340   2.990 -0.9580 -0.4526  1.3753
 4487SOL    HW225095   2.088   1.487   2.977  0.8300 -0.3603 -0.5364
 4488SOL     OW25096   2.428   0.428   2.147 -0.5130  0.2383  0.2189
 4488SOL    HW125097   2.516   0.393   2.135 -0.7617  0.1158 -1.1910
 4488SOL    HW225098   2.440   0.515   2.107 -0.9328 -0.5226 -1.5586
 4489SOL     OW25099   2.578   3.350   8.517 -0.1384  0.4713  0.1362
 4489SOL    HW125100   2.629   3.423   8.551 -2.0164  1.0899  1.6382
 4489SOL    HW225101   2.638   3.277   8.525 -0.4210  0.1920 -0.3068
 4490SOL     OW25102   3.549   3.495   0.635 -0.0966  0.3872  0.3131
 4490SOL    HW125103   3.519   3.545   0.559 -1.6712  1.2643  1.5061
 4490SOL    HW225104   3.474   3.517   0.691 -0.1864  0.2981  0.2290
 4491SOL     OW25105   2.161   1.419   2.031  0.4426 -0.1338 -0.2876
 4491SOL    HW125106   2.167   1.467   2.114 -0.9481 -1.6518  0.6962
 4491SOL    HW225107   2.238   1.363   2.037  1.2079  0.8702 -0.8008
 4492SOL     OW25108   1.290   4.254   8.492 -0.1789  0.5908 -0.1512
 4492SOL    HW125109   1.280   4.160   8.481 -0.9705  0.5357  0.9622
 4492SOL    HW225110   1.368   4.265   8.439  0.5424  1.4164  1.0754
 4493SOL     OW25111   3.100   1.325  17.419  1.0502 -0.1328  0.3098
 4493SOL    HW125112   3.006   1.336  17.433  1.0662 -1.6968  1.5341
 4493SOL    HW225113   3.137   1.306  17.505 -0.5954 -0.0783  1.0295
 4494SOL     OW25114   1.365   3.448   9.493 -0.0222 -0.0011  0.4924
 4494SOL    HW125115   1.277   3.435   9.457 -0.4442  1.6812  0.8838
 4494SOL    HW225116   1.362   3.400   9.576 -1.1183  0.2729  0.6184
 4495SOL     OW25117   3.591   1.726   5.402  0.1336 -0.6050  0.8289
 4495SOL    HW125118   3.586   1.671   5.480 -0.1850 -0.0105  1.2313
 4495SOL    HW225119   3.687   1.730   5.405  0.0296  0.5029  2.4198
 4496SOL     OW25120   2.654   2.661  14.880  0.4096 -0.9456 -0.5627
 4496SOL    HW125121   2.703   2.585  14.914  0.2236 -1.0993 -0.6390
 4496SOL    HW225122   2.579   2.660  14.940 -0.7575 -0.2788 -2.0140
 4497SOL     OW25123   1.769   0.890   6.996 -0.2033 -0.3985 -0.3989
 4497SOL    HW125124   1.763   0.963   7.057 -1.8054  0.8224 -1.9986
 4497SOL    HW225125   1.679   0.886   6.966 -0.9333  0.0260  1.7637
 4498SOL     OW25126   2.912   1.380   6.243 -0.1598  0.3466  0.0058
 4498SOL    HW125127   2.941   1.385   6.152  0.7121 -1.4073  0.1760
 4498SOL    HW225128   2.820   1.402   6.235  0.3303  1.6918 -2.0016
 4499SOL     OW25129   1.763   2.330   1.337  0.1846  0.3369 -0.0306
 4499SOL    HW125130   1.779   2.372   1.253  1.6248  0.2770  0.1995
 4499SOL    HW225131   1.822   2.254   1.339  0.7084  0.7538  0.5806
 4500SOL     OW25132   3.633   3.535   8.527  0.2088 -0.2211 -0.9525
 4500SOL    HW125133   3.562   3.587   8.490 -0.6302 -0.9524 -0.3921
 4500SOL    HW225134   3.596   3.447   8.531  1.5031 -0.6766  1.1838
 4501SOL     OW25135   3.898   2.061   4.293  0.0227  0.7704  0.0591
 4501SOL    HW125136   3.900   1.968   4.271  1.6568  0.5673  1.0880
 4501SOL    HW225137   3.990   2.079   4.271 -0.1629  0.8588 -0.6415
 4502SOL     OW25138   2.465   3.281   2.676 -0.5199 -0.2970 -0.0853
 4502SOL    HW125139   2.491   3.226   2.749 -2.1887  0.8317  1.3691
 4502SOL    HW225140   2.506   3.252   2.595  0.3731 -0.4246  0.4123
 4503SOL     OW25141   3.486   3.110   6.529 -0.2235  0.0131 -0.7854
 4503SOL    HW125142   3.434   3.036   6.497 -0.5438  0.5382 -1.4788
 4503SOL    HW225143   3.437   3.128   6.610 -0.3358 -0.4809 -0.7414
 4504SOL     OW25144   2.501   3.588  16.322 -0.1450  0.4034  0.0370
 4504SOL    HW125145   2.542   3.673  16.309 -0.1550  0.2167 -1.1938
 4504SOL    HW225146   2.580   3.541  16.294 -0.7642  0.1153 -1.2401
 4505SOL     OW25147   1.465   1.139   1.789  0.4840 -0.8219  0.2683
 4505SOL    HW125148   1.451   1.089   1.869  1.2470 -2.6609 -0.7640
 4505SOL    HW225149   1.380   1.145   1.747  1.2534  3.2899 -0.6844
 4506SOL     OW25150   0.220   0.873   7.010  0.2000 -0.4281 -0.5643
 4506SOL    HW125151   0.315   0.863   7.007  0.2227 -0.5763  0.7922
 4506SOL    HW225152   0.226   0.946   7.072  1.2703  1.2303 -2.5985
 4507SOL     OW25153   2.235   4.263   8.143 -0.6912  0.2487  0.2411
 4507SOL    HW125154   2.246   4.200   8.214  1.8315 -1.3638 -1.5724
 4507SOL    HW225155   2.230   4.337   8.203  1.8714  1.3005 -0.8359
 4508SOL     OW25156   3.888   4.658  11.304  0.2172 -0.1181 -0.6124
 4508SOL    HW125157   3.941   4.579  11.300  0.7889  0.1607  1.6434
 4508SOL    HW225158   3.923   4.699  11.383 -0.1632  0.8349 -0.9401
 4509SOL     OW25159   2.255   1.602   7.181  0.3465  0.4742 -0.1008
 4509SOL    HW125160   2.251   1.696   7.159  1.3759  1.1547  2.6832
 4509SOL    HW225161   2.282   1.568   7.096  1.6390  4.3970 -1.2666
 4510SOL     OW25162   1.395   3.521   7.540 -0.0444  0.5197  0.7871
 4510SOL    HW125163   1.392   3.524   7.635  1.5513  0.0317  0.8578
 4510SOL    HW225164   1.344   3.598   7.515 -5.0739 -2.4837  1.8906
 4511SOL     OW25165   1.975   4.565   3.283  0.2211 -0.1426 -0.1566
 4511SOL    HW125166   1.881   4.585   3.288  0.4235  0.5217  0.9854
 4511SOL    HW225167   1.969   4.521   3.199  0.6967  0.3619 -0.4481
 4512SOL     OW25168   0.935   0.823   1.474  0.4017 -0.4882  0.0159
 4512SOL    HW125169   1.004   0.875   1.432  0.5245 -1.3891 -0.8849
 4512SOL    HW225170   0.857   0.872   1.450  1.1562 -0.2606 -1.9898
 4513SOL     OW25171   1.564   2.196   4.605 -0.0303  0.2394  0.2505
 4513SOL    HW125172   1.488   2.220   4.658  1.0048  1.9427  0.9566
 4513SOL    HW225173   1.611   2.279   4.603  1.4121 -0.5931  0.1785
 4514SOL     OW25174   1.257   1.197   8.199 -0.3581 -0.2202 -0.0705
 4514SOL    HW125175   1.285   1.286   8.218 -0.9977 -0.0185 -0.0841
 4514SOL    HW225176   1.339   1.152   8.176  0.7809  1.1952  1.2020
 4515SOL     OW25177   2.625   3.001   3.758 -0.1102  0.0659 -0.2116
 4515SOL    HW125178   2.536   2.973   3.735 -0.7083  1.6510  0.1763
 4515SOL    HW225179   2.616   3.083   3.807  1.2001  0.5270 -0.7318
 4516SOL     OW25180   2.591   3.876   5.451 -0.0876 -0.0970  0.4279
 4516SOL    HW125181   2.542   3.888   5.532 -0.6302 -0.9940  0.2313
 4516SOL    HW225182   2.587   3.969   5.428 -4.3279 -0.4534 -0.2190
 4517SOL     OW25183   1.650   4.267   5.570 -0.5213 -0.0047  0.3513
 4517SOL    HW125184   1.600   4.269   5.652 -0.5751 -2.4420  0.3547
 4517SOL    HW225185   1.740   4.277   5.602 -0.1115 -3.7512  0.3802
 4518SOL     OW25186   1.269   3.346  13.520  0.0206 -0.0924 -0.3279
 4518SOL    HW125187   1.239   3.373  13.433 -1.2268 -0.8410 -0.1296
 4518SOL    HW225188   1.303   3.424  13.564 -0.9042 -0.0634  0.3440
 4519SOL     OW25189   2.673   1.966  12.476  0.2067  0.2397 -0.6718
 4519SOL    HW125190   2.635   1.895  12.424  0.0666 -1.5568  1.8897
 4519SOL    HW225191   2.589   2.000  12.509  0.7133 -0.1835  1.0336
 4520SOL     OW25192   4.524   4.358  16.963  0.0126 -0.2688 -0.3691
 4520SOL    HW125193   4.561   4.360  16.875  0.5902  0.8489 -0.0954
 4520SOL    HW225194   4.440   4.404  16.955 -0.0023  0.0002  1.3343
 4521SOL     OW25195   4.250   4.516  14.871 -0.1673 -0.1116 -0.0025
 4521SOL    HW125196   4.186   4.546  14.807 -1.4446 -1.0882  0.8200
 4521SOL    HW225197   4.331   4.546  14.829 -0.3470  0.5465  0.1123
 4522SOL     OW25198   3.006   3.738   3.736  0.0771 -0.1383 -0.0475
 4522SOL    HW125199   3.007   3.757   3.643 -2.1964 -0.6257 -0.1590
 4522SOL    HW225200   2.964   3.812   3.780 -0.7587 -0.9009  0.4259
 4523SOL     OW25201   3.900   4.062  14.707  0.6568  1.0323  0.1051
 4523SOL    HW125202   3.851   4.069  14.624  0.5268  0.0989  0.1024
 4523SOL    HW225203   3.907   4.155  14.730 -0.8629  1.9079 -2.9027
 4524SOL     OW25204   2.768   2.195   1.217  0.6930 -0.4266  0.3291
 4524SOL    HW125205   2.804   2.274   1.257  2.5532 -0.5096 -1.2077
 4524SOL    HW225206   2.676   2.217   1.231  0.3818 -0.2630 -1.9173
 4525SOL     OW25207   1.359   3.657   2.110 -0.2209  0.4755  0.2430
 4525SOL    HW125208   1.362   3.605   2.190 -1.2357 -0.4327 -0.3118
 4525SOL    HW225209   1.313   3.736   2.137  0.1321  0.5255  0.7018
 4526SOL     OW25210   2.938   3.713   4.063  0.3534 -0.2511  0.5041
 4526SOL    HW125211   2.927   3.746   4.153 -0.9698 -1.1732  0.6725
 4526SOL    HW225212   2.994   3.783   4.030  3.4907 -2.5408  0.9718
 4527SOL     OW25213   0.209   2.425   6.294  0.2047  0.2156 -0.4106
 4527SOL    HW125214   0.135   2.449   6.238  0.2503  1.3920  0.0336
 4527SOL    HW225215   0.172   2.349   6.339 -1.1604  1.0985 -0.0339
 4528SOL     OW25216   1.119   3.500   3.332  0.7969  0.4210 -0.2819
 4528SOL    HW125217   1.064   3.578   3.338  0.3276  0.1000 -0.4340
 4528SOL    HW225218   1.191   3.530   3.388  0.4945  0.1187  0.2622
 4529SOL     OW25219   4.472   3.788   4.372  0.4611  0.2727  0.4301
 4529SOL    HW125220   4.499   3.831   4.453 -1.4396  0.1938  1.1111
 4529SOL    HW225221   4.396   3.843   4.354 -0.4489 -0.4426  2.0666
 4530SOL     OW25222   2.672   2.153  15.745  0.9823  0.1647 -0.3860
 4530SOL    HW125223   2.684   2.173  15.652 -1.3845  2.2303 -0.2725
 4530SOL    HW225224   2.749   2.205  15.768  1.2160 -0.6258  0.6044
 4531SOL     OW25225   0.197   1.014   5.945  0.7172  0.1933 -0.1045
 4531SOL    HW125226   0.248   0.958   6.003 -3.4440 -0.6380  2.8219
 4531SOL    HW225227   0.205   1.097   5.991  0.7242  1.2670 -2.0213
 4532SOL     OW25228   1.715   3.709  17.510  0.4449 -0.4085 -0.2978
 4532SOL    HW125229   1.733   3.620  17.542  0.4708 -0.3744 -0.2181
 4532SOL    HW225230   1.675   3.758  17.582  0.3673 -1.7080  0.5449
 4533SOL     OW25231   4.600   0.851   8.079 -0.5829  0.9358 -0.2931
 4533SOL    HW125232   4.511   0.884   8.071 -0.7813  1.0156  2.4020
 4533SOL    HW225233   4.655   0.913   8.030  0.5249  1.6207  1.8147
 4534SOL     OW25234   1.040   2.775   9.804  0.0833  0.4119  0.1796
 4534SOL    HW125235   1.016   2.787   9.896 -0.2841  0.7230  0.0397
 4534SOL    HW225236   0.986   2.698   9.785  0.8228  0.1371 -0.8025
 4535SOL     OW25237   1.873   4.463   7.972  0.2021  0.4841 -0.3350
 4535SOL    HW125238   1.922   4.459   7.890  1.9902  1.2483  0.6862
 4535SOL    HW225239   1.919   4.395   8.021  0.0704  0.4238 -0.2961
 4536SOL     OW25240   3.968   4.275  13.019 -0.3380  0.4003  0.2423
 4536SOL    HW125241   4.049   4.261  12.970  0.0166 -0.6236  1.1163
 4536SOL    HW225242   3.965   4.199  13.077 -1.5712 -0.4847 -0.9873
 4537SOL     OW25243   1.914   3.634   9.347 -0.2761 -0.4857 -0.2326
 4537SOL    HW125244   1.847   3.647   9.415 -1.1829 -0.0978 -1.1938
 4537SOL    HW225245   1.873   3.566   9.294 -0.1812 -0.9076  0.2365
 4538SOL     OW25246   0.061   0.313   5.987  0.5952  0.1875  0.0266
 4538SOL    HW125247   0.080   0.379   5.920 -1.5270 -0.9734 -1.7116
 4538SOL    HW225248   0.010   0.252   5.934 -0.7061  1.3410 -0.0591
 4539SOL     OW25249   0.621   3.078   9.645  0.2018  0.0484  0.1259
 4539SOL    HW125250   0.581   3.081   9.732  1.3414  1.0118  0.6083
 4539SOL    HW225251   0.654   3.167   9.643 -0.5720  0.3550  1.1828
 4540SOL     OW25252   2.051   4.224  11.466 -0.1887 -0.0624 -0.6649
 4540SOL    HW125253   2.111   4.253  11.534 -1.9401  0.6707  0.5906
 4540SOL    HW225254   2.116   4.199  11.401 -0.4747 -0.2364 -0.8826
 4541SOL     OW25255   2.140   2.836  14.867  0.0269  0.5416 -0.2531
 4541SOL    HW125256   2.100   2.799  14.946 -0.7647 -0.3762 -1.0768
 4541SOL    HW225257   2.214   2.885  14.901 -0.6325  0.7641  0.8714
 4542SOL     OW25258   0.591   1.392  16.507 -0.7907  0.6516 -0.0786
 4542SOL    HW125259   0.540   1.405  16.427 -0.0404  0.7429 -0.5475
 4542SOL    HW225260   0.671   1.341  16.494  0.0315  1.4509  1.8543
 4543SOL     OW25261   1.840   1.053   5.254  0.5261  0.0928 -0.0067
 4543SOL    HW125262   1.829   0.964   5.221  0.8549  0.1343 -0.2353
 4543SOL    HW225263   1.751   1.086   5.255  0.9733  1.4407 -2.7579
 4544SOL     OW25264   3.291   3.288   6.186  0.4608 -0.0985 -0.3386
 4544SOL    HW125265   3.288   3.208   6.238 -0.4827  0.7271  0.8713
 4544SOL    HW225266   3.205   3.287   6.145  0.0103  0.8550  0.5656
 4545SOL     OW25267   1.945   1.962   5.029 -0.2401 -0.0844  0.3687
 4545SOL    HW125268   2.012   1.896   5.009 -1.2599 -0.3480 -2.1584
 4545SOL    HW225269   1.920   2.004   4.947 -1.5382  0.8630  1.2755
 4546SOL     OW25270   0.219   2.136  17.017  0.1581 -0.0567  0.3113
 4546SOL    HW125271   0.271   2.128  16.937 -0.0284  0.9780  0.0841
 4546SOL    HW225272   0.234   2.230  17.025 -0.4458 -0.1981  2.9256
 4547SOL     OW25273   4.600   0.412  16.852  0.9178  0.3722  0.1892
 4547SOL    HW125274   4.587   0.485  16.791 -1.7786  1.6473  2.2579
 4547SOL    HW225275   4.673   0.361  16.817 -3.5624 -4.4486 -2.0490
 4548SOL     OW25276   3.432   4.198   8.173  0.5957 -0.4696 -0.7438
 4548SOL    HW125277   3.363   4.182   8.237 -0.4627  0.9433 -1.5230
 4548SOL    HW225278   3.487   4.257   8.225  2.4040 -0.7111 -2.3471
 4549SOL     OW25279   2.749   2.767   6.869 -0.0045 -1.2542  0.2956
 4549SOL    HW125280   2.811   2.757   6.796  1.2922  0.0774  1.2019
 4549SOL    HW225281   2.696   2.838   6.832 -0.1516 -0.7824  1.4176
 4550SOL     OW25282   4.492   2.037   6.357  0.1716  0.1596 -0.2954
 4550SOL    HW125283   4.424   2.029   6.423  1.1155  1.3501  0.8395
 4550SOL    HW225284   4.470   1.964   6.298  0.5316  0.2788 -0.5813
 4551SOL     OW25285   1.463   4.612   3.979  0.1553  0.0261 -0.1242
 4551SOL    HW125286   1.445   4.521   3.958 -2.5249  0.7257 -0.9332
 4551SOL    HW225287   1.553   4.628   3.954 -0.2271  0.2564 -1.3354
 4552SOL     OW25288   2.644   1.001   0.119  0.1929 -0.3751 -0.3504
 4552SOL    HW125289   2.680   1.044   0.196  0.6668  0.7578 -1.2081
 4552SOL    HW225290   2.552   0.991   0.144 -0.0254  0.8607 -0.6477
 4553SOL     OW25291   0.184   1.651  14.912  0.2060  0.0391 -0.2326
 4553SOL    HW125292   0.162   1.671  14.821  1.0692  0.9641 -0.2403
 4553SOL    HW225293   0.100   1.643  14.958 -1.0745  3.3600 -2.0150
 4554SOL     OW25294   0.947   3.871   7.742  0.3449 -0.4240 -0.3969
 4554SOL    HW125295   0.894   3.794   7.762 -2.5412  1.7599  0.3104
 4554SOL    HW225296   1.003   3.835   7.673 -1.1398 -1.2052 -1.1842
 4555SOL     OW25297   0.322   3.230  12.415  0.3491  0.3262 -0.1571
 4555SOL    HW125298   0.267   3.300  12.450  0.6726 -0.0680  1.1261
 4555SOL    HW225299   0.404   3.231  12.464  0.2373  2.5683 -0.0331
 4556SOL     OW25300   2.235   1.873   7.134 -0.3274 -1.3102  0.4377
 4556SOL    HW125301   2.290   1.870   7.056  0.0284 -0.2484  0.6550
 4556SOL    HW225302   2.272   1.953   7.171 -0.3782 -2.2383  2.5319
 4557SOL     OW25303   4.165   4.628   3.680  0.5085 -0.1142  0.2420
 4557SOL    HW125304   4.104   4.658   3.613  0.8579 -1.4181 -0.6450
 4557SOL    HW225305   4.168   4.706   3.735  0.8229 -0.4393  0.6859
 4558SOL     OW25306   3.257   2.570   7.958  0.6465 -0.0997 -0.0867
 4558SOL    HW125307   3.162   2.554   7.955  0.5683  0.5717 -1.3463
 4558SOL    HW225308   3.273   2.661   7.932 -0.7515  0.7758  2.0940
 4559SOL     OW25309   1.887   0.822   7.402  0.5939  0.3611  0.2719
 4559SOL    HW125310   1.858   0.897   7.350  0.7565 -0.4343 -0.9760
 4559SOL    HW225311   1.981   0.814   7.386  0.6575 -0.4002  1.0209
 4560SOL     OW25312   3.202   0.707   8.363 -0.5882  0.8153 -0.0973
 4560SOL    HW125313   3.285   0.660   8.358 -1.1970 -0.1977 -0.8229
 4560SOL    HW225314   3.143   0.638   8.331  0.6590 -0.7221  0.8845
 4561SOL     OW25315   1.265   1.873  12.461  0.5991  0.0239  0.0232
 4561SOL    HW125316   1.239   1.963  12.482 -0.6155  0.1262 -1.9332
 4561SOL    HW225317   1.323   1.859  12.536  0.2695  1.6391  0.5819
 4562SOL     OW25318   2.630   2.420  16.263  0.5765  0.0065  0.7429
 4562SOL    HW125319   2.648   2.504  16.223 -0.5967  0.9139  2.1111
 4562SOL    HW225320   2.537   2.432  16.284  0.4119 -3.0623  1.7903
 4563SOL     OW25321   4.632   0.144   5.836 -0.1905  0.3401  0.3109
 4563SOL    HW125322   4.662   0.091   5.762 -0.5765  1.9120 -0.9592
 4563SOL    HW225323   4.538   0.150   5.819  0.2205  1.6819 -1.4593
 4564SOL     OW25324   3.232   2.998   8.959  0.5264  0.6892  0.5263
 4564SOL    HW125325   3.275   3.078   8.990 -0.0563  2.0894 -2.1900
 4564SOL    HW225326   3.307   2.946   8.931  0.8314  1.2911  0.2167
 4565SOL     OW25327   0.336   2.662   0.089  1.0754  0.1036 -0.0337
 4565SOL    HW125328   0.275   2.589   0.101 -0.6083  1.7098  1.3164
 4565SOL    HW225329   0.338   2.676  17.743 -4.1400  1.5535  0.0368
 4566SOL     OW25330   2.661   2.996   0.874  0.5640  0.1706 -0.1480
 4566SOL    HW125331   2.621   3.083   0.877  1.7179  0.6515  1.0560
 4566SOL    HW225332   2.648   2.973   0.782 -0.6556  0.5738 -0.0841
 4567SOL     OW25333   2.486   1.326  13.316  0.5807 -0.1167  0.0507
 4567SOL    HW125334   2.546   1.257  13.289  0.2700  1.3921 -4.3686
 4567SOL    HW225335   2.508   1.386  13.245 -1.1347 -1.0448 -1.2521
 4568SOL     OW25336   1.320   3.642   7.828 -0.2696  0.1306  0.0426
 4568SOL    HW125337   1.402   3.637   7.877 -0.5419 -0.9111  0.4000
 4568SOL    HW225338   1.335   3.725   7.783  0.0959  0.6195  1.0737
 4569SOL     OW25339   3.112   0.135   8.891  0.4393  0.2969 -0.5178
 4569SOL    HW125340   3.032   0.096   8.926  0.7654  0.8215  0.8289
 4569SOL    HW225341   3.090   0.228   8.894 -1.0274 -0.0690  0.1581
 4570SOL     OW25342   3.464   4.540   6.755 -0.8579 -0.0659 -0.2598
 4570SOL    HW125343   3.543   4.525   6.806 -1.6409 -0.2306  0.9101
 4570SOL    HW225344   3.397   4.528   6.823 -2.5015 -0.0909 -1.8741
 4571SOL     OW25345   4.433   1.574   7.314 -0.2925 -0.5308 -0.2566
 4571SOL    HW125346   4.410   1.504   7.375 -2.8695 -0.4525 -1.1300
 4571SOL    HW225347   4.349   1.599   7.275 -1.6022 -2.6089  1.1987
 4572SOL     OW25348   4.285   0.212   4.903 -0.2593 -0.0694  0.2077
 4572SOL    HW125349   4.284   0.287   4.961  2.9158  0.2748 -0.1484
 4572SOL    HW225350   4.363   0.225   4.848 -0.7673 -1.4556 -0.8517
 4573SOL     OW25351   3.939   2.284   3.857 -0.2469 -0.5026 -0.0435
 4573SOL    HW125352   3.955   2.279   3.951  0.4616 -1.1414 -0.2038
 4573SOL    HW225353   3.979   2.210   3.811  0.4186  0.6392 -1.3003
 4574SOL     OW25354   3.002   3.544   5.653  0.3012 -0.0968  0.0748
 4574SOL    HW125355   2.930   3.565   5.593  0.4706 -0.6800 -0.3351
 4574SOL    HW225356   3.062   3.618   5.652  0.9710 -0.6541 -1.0823
 4575SOL     OW25357   1.247   2.902  13.644 -0.3398  0.3953 -0.4923
 4575SOL    HW125358   1.228   2.989  13.680  1.2878 -0.0345  1.3348
 4575SOL    HW225359   1.177   2.893  13.578 -2.6118 -0.8202  2.0719
 4576SOL     OW25360   1.683   3.765  17.240  0.2527  0.7985  0.2488
 4576SOL    HW125361   1.685   3.736  17.331 -2.5175 -2.1662 -0.6305
 4576SOL    HW225362   1.670   3.681  17.195  0.1598  1.6307 -1.2791
 4577SOL     OW25363   3.443   0.160   3.147 -0.0265 -0.0159 -0.3983
 4577SOL    HW125364   3.352   0.131   3.146  0.6341 -2.0527 -0.8228
 4577SOL    HW225365   3.448   0.138   3.054  2.1052 -0.8503 -0.0763
 4578SOL     OW25366   2.858   4.713  14.912  0.3309 -0.1185  0.4773
 4578SOL    HW125367   2.910   4.649  14.960  0.4080  0.3852  1.0664
 4578SOL    HW225368   2.900   0.055  14.946 -2.2719  1.6601 -0.5046
 4579SOL     OW25369   0.895   0.428   5.249  0.2567 -0.7019 -0.1317
 4579SOL    HW125370   0.865   0.337   5.247 -0.7342 -0.3840  0.3160
 4579SOL    HW225371   0.967   0.415   5.187  2.2436  2.4458  1.5035
 4580SOL     OW25372   2.433   3.355   7.819  0.2807 -0.8730 -0.3367
 4580SOL    HW125373   2.391   3.326   7.900  1.1106 -0.0536  0.3801
 4580SOL    HW225374   2.460   3.268   7.788 -2.2782 -2.5693  2.2166
 4581SOL     OW25375   3.854   2.873   5.955  0.1560  0.4688 -0.4160
 4581SOL    HW125376   3.886   2.946   5.903  0.5979  0.2461 -0.4607
 4581SOL    HW225377   3.918   2.889   6.024  1.5226 -0.4075 -1.4717
 4582SOL     OW25378   0.656   4.489   2.953  0.2899 -0.0415  0.4452
 4582SOL    HW125379   0.658   4.418   2.889 -2.7041 -1.9155  2.4463
 4582SOL    HW225380   0.561   4.500   2.960  0.1749 -0.0759 -1.0311
 4583SOL     OW25381   1.872   1.820   2.110  0.7826 -0.3916  0.4464
 4583SOL    HW125382   1.936   1.809   2.039 -0.0159  0.9673 -0.4918
 4583SOL    HW225383   1.869   1.914   2.095 -0.6627 -0.4590  0.3981
 4584SOL     OW25384   2.183   2.004  10.355 -0.1962 -0.0983 -0.2394
 4584SOL    HW125385   2.219   1.923  10.391  1.5997  1.1471  0.7657
 4584SOL    HW225386   2.260   2.044  10.314 -0.0104  0.3361  0.5240
 4585SOL     OW25387   1.102   3.614   2.498  0.0737 -0.3147  0.2115
 4585SOL    HW125388   1.046   3.566   2.558  1.9467 -0.0681  2.1660
 4585SOL    HW225389   1.168   3.646   2.559  0.4960 -0.8649  0.0498
 4586SOL     OW25390   0.212   0.572  13.597  0.1768 -0.0613 -0.3268
 4586SOL    HW125391   0.135   0.560  13.654  1.0849 -4.0073  0.0289
 4586SOL    HW225392   0.194   0.513  13.524  0.1542  0.5620 -0.8219
 4587SOL     OW25393   1.527   3.859   9.025 -0.3707  0.0786  0.0182
 4587SOL    HW125394   1.440   3.829   9.001 -0.2623 -0.0718 -0.1860
 4587SOL    HW225395   1.532   3.947   8.987  2.5714 -0.1971 -0.2282
 4588SOL     OW25396   1.837   3.404   2.128  0.2402 -0.0217 -0.0885
 4588SOL    HW125397   1.883   3.352   2.063 -0.1259  1.0520 -1.2258
 4588SOL    HW225398   1.826   3.485   2.077  0.1390  0.6461  0.9959
 4589SOL     OW25399   0.822   0.551  10.892 -0.4471 -0.0879  0.0829
 4589SOL    HW125400   0.896   0.585  10.942  1.1508 -0.9997 -1.6743
 4589SOL    HW225401   0.857   0.464  10.875  0.7278  0.4166 -0.0508
 4590SOL     OW25402   1.036   0.575   1.913  0.5770  0.0973  0.1048
 4590SOL    HW125403   1.018   0.607   2.001 -1.3479  1.8050 -0.9031
 4590SOL    HW225404   0.986   0.632   1.854  0.0696  0.4176  0.8547
 4591SOL     OW25405   1.530   2.064  11.055  1.1841 -0.4262 -0.5384
 4591SOL    HW125406   1.467   2.025  11.115  0.6904 -0.7707 -1.2759
 4591SOL    HW225407   1.590   2.101  11.120 -1.2933  0.3094  1.3400
 4592SOL     OW25408   2.216   4.167   3.528  0.2575  0.8946 -0.4511
 4592SOL    HW125409   2.163   4.236   3.489 -0.2767  0.3491 -0.6876
 4592SOL    HW225410   2.221   4.127   3.442  1.0164  1.5282 -0.7068
 4593SOL     OW25411   0.778   3.357   6.302 -0.2362  0.4105  0.4152
 4593SOL    HW125412   0.702   3.308   6.270 -0.5467  1.3366 -0.2918
 4593SOL    HW225413   0.850   3.348   6.240 -0.6954  2.2665 -0.3842
 4594SOL     OW25414   1.986   3.723   6.433  0.5497  0.0712  0.2950
 4594SOL    HW125415   1.946   3.781   6.497 -1.3853 -0.1165 -0.7646
 4594SOL    HW225416   2.062   3.689   6.481  0.0488 -0.6794  0.5532
 4595SOL     OW25417   2.211   0.312   6.812 -0.8427  0.1262 -0.0498
 4595SOL    HW125418   2.129   0.345   6.775 -0.1529  0.0869 -1.6386
 4595SOL    HW225419   2.200   0.220   6.789  0.5928  0.3462 -1.6015
 4596SOL     OW25420   2.661   1.124   1.681 -0.0722  0.1777 -0.8158
 4596SOL    HW125421   2.664   1.031   1.659  0.2594  0.3516 -1.4940
 4596SOL    HW225422   2.591   1.158   1.625 -2.0560 -1.6335  0.5634
 4597SOL     OW25423   1.120   0.262   7.622 -0.6264  0.1534  0.2931
 4597SOL    HW125424   1.060   0.337   7.617 -1.1573 -0.4470 -2.4033
 4597SOL    HW225425   1.166   0.284   7.703  1.9598 -1.4552 -0.7618
 4598SOL     OW25426   0.226   3.601   4.873  0.7167 -0.2413  0.0123
 4598SOL    HW125427   0.313   3.564   4.856  1.1867  0.3322  1.1392
 4598SOL    HW225428   0.223   3.679   4.818  1.2408 -0.8515 -0.8759
 4599SOL     OW25429   4.167   3.228   8.954 -0.1474  0.5094  0.2465
 4599SOL    HW125430   4.253   3.233   8.913 -0.9267 -0.0772 -1.4883
 4599SOL    HW225431   4.144   3.321   8.951 -0.7467  0.4903  4.0346
 4600SOL     OW25432   2.488   2.520   1.842 -0.2276 -0.7121  0.0429
 4600SOL    HW125433   2.442   2.603   1.829 -3.1608 -1.9539  2.5704
 4600SOL    HW225434   2.413   2.462   1.852 -1.1387  0.7857  1.9125
 4601SOL     OW25435   3.924   0.033   2.299  0.2242  0.3503 -0.7408
 4601SOL    HW125436   3.906   4.686   2.340  0.1725 -0.0096 -1.5149
 4601SOL    HW225437   3.904   0.080   2.380 -0.3380 -0.1732 -0.5706
 4602SOL     OW25438   1.134   2.139  13.912 -0.2880  0.6137 -0.4447
 4602SOL    HW125439   1.086   2.211  13.952 -1.1482  0.7831 -1.7580
 4602SOL    HW225440   1.221   2.142  13.952 -1.5985  0.7870  2.3848
 4603SOL     OW25441   0.753   4.107   6.074  0.5415  0.2456 -0.3985
 4603SOL    HW125442   0.660   4.127   6.066  0.2460 -0.2020  1.9205
 4603SOL    HW225443   0.790   4.195   6.082  0.0444  0.5305 -1.2019
 4604SOL     OW25444   2.651   4.591   4.483  0.1600 -0.9072  0.2378
 4604SOL    HW125445   2.648   4.670   4.537 -0.1154  0.1081 -1.2650
 4604SOL    HW225446   2.630   4.620   4.395 -0.5750  0.0057  0.7113
 4605SOL     OW25447   4.481   1.815   8.576 -0.5270 -0.0909 -0.3184
 4605SOL    HW125448   4.532   1.793   8.654 -0.1506  0.2129 -0.4762
 4605SOL    HW225449   4.481   1.729   8.535  0.4724  0.9891 -2.6509
 4606SOL     OW25450   2.497   4.256   7.477  0.1092  0.1147  0.1337
 4606SOL    HW125451   2.514   4.192   7.408  1.2058  0.1332  0.3841
 4606SOL    HW225452   2.421   4.222   7.525  0.9284 -1.7330  0.1257
 4607SOL     OW25453   0.464   1.895  12.538 -0.3055 -0.4672 -0.2889
 4607SOL    HW125454   0.498   1.821  12.489 -0.5448  0.4241 -1.8146
 4607SOL    HW225455   0.447   1.851  12.621  0.3895 -1.0010 -0.4392
 4608SOL     OW25456   2.866   2.494   6.645  0.5241  0.4929 -0.1629
 4608SOL    HW125457   2.783   2.526   6.680  1.4183  0.7459  1.7463
 4608SOL    HW225458   2.837   2.491   6.554 -2.6399 -0.7440  0.8890
 4609SOL     OW25459   3.672   1.071   5.263  0.2921 -0.2830  0.0079
 4609SOL    HW125460   3.642   1.000   5.320 -1.1114 -0.6478 -1.2066
 4609SOL    HW225461   3.736   1.118   5.317 -0.2377  0.4242  0.0156
 4610SOL     OW25462   3.225   2.422  11.553  0.2158  0.2930 -0.2192
 4610SOL    HW125463   3.172   2.358  11.601 -0.2697  1.9635  1.4733
 4610SOL    HW225464   3.171   2.498  11.575 -1.2716 -1.4133  2.0912
 4611SOL     OW25465   2.781   1.152  17.690  0.3042 -0.4375  0.8364
 4611SOL    HW125466   2.719   1.095  17.735 -0.0941  0.8527  1.9252
 4611SOL    HW225467   2.840   1.159   0.017 -1.1026 -1.9644  2.0721
 4612SOL     OW25468   0.375   2.805   4.717  0.2891 -0.0755  0.6217
 4612SOL    HW125469   0.396   2.776   4.806  0.2916 -0.4263  0.5043
 4612SOL    HW225470   0.303   2.745   4.701 -0.4129  0.7315  0.7769
 4613SOL     OW25471   2.533   2.238   7.784  0.2427  0.0196  0.0386
 4613SOL    HW125472   2.532   2.168   7.719  2.1143  1.1748 -1.2466
 4613SOL    HW225473   2.526   2.190   7.866 -0.0340 -1.7180 -1.0024
 4614SOL     OW25474   4.683   1.641   7.190  0.1253 -0.1035  0.0646
 4614SOL    HW125475   4.600   1.613   7.228 -0.8606  3.4449  0.5774
 4614SOL    HW225476   4.701   1.572   7.126 -0.7298 -1.6801  1.5163
 4615SOL     OW25477   3.827   0.945   9.568  0.3500  0.2835 -0.2573
 4615SOL    HW125478   3.903   0.895   9.598  0.9997  0.6061 -1.3766
 4615SOL    HW225479   3.756   0.909   9.621  0.0363  0.6230 -0.4564
 4616SOL     OW25480   1.644   4.042   6.550  0.1122  0.4497 -0.4676
 4616SOL    HW125481   1.621   3.972   6.490 -0.4043  1.2042 -1.1540
 4616SOL    HW225482   1.598   4.123   6.525 -0.5754  0.4951  0.9349
 4617SOL     OW25483   1.661   0.543   8.695  0.1757 -0.1169 -0.3100
 4617SOL    HW125484   1.600   0.598   8.744  0.4902  0.4547 -0.5703
 4617SOL    HW225485   1.722   0.611   8.667 -1.0494  0.4400 -1.6311
 4618SOL     OW25486   1.463   1.208   3.361 -0.2892 -0.7582  0.8700
 4618SOL    HW125487   1.477   1.142   3.293 -0.7441  0.3846 -0.3235
 4618SOL    HW225488   1.382   1.251   3.336  0.9220  0.9760 -0.0637
 4619SOL     OW25489   4.346   0.936   3.595  0.1715 -0.1268  0.4287
 4619SOL    HW125490   4.345   0.842   3.576 -0.5332 -0.0079 -0.1230
 4619SOL    HW225491   4.440   0.948   3.586  0.4122 -1.0529  1.6304
 4620SOL     OW25492   4.087   1.059   2.958  0.5264  0.4922 -0.3308
 4620SOL    HW125493   4.080   1.074   3.053 -1.1783  0.0750 -0.3875
 4620SOL    HW225494   4.136   0.978   2.943  1.4358  0.8324  0.7884
 4621SOL     OW25495   0.037   3.573   7.833 -0.1317 -0.0217 -0.1983
 4621SOL    HW125496   0.088   3.635   7.886 -2.0875  1.2791  0.1695
 4621SOL    HW225497   0.063   3.618   7.752  0.5008  1.5917  0.8807
 4622SOL     OW25498   1.253   1.762  14.117  0.2289 -0.4274 -0.2247
 4622SOL    HW125499   1.301   1.798  14.192 -0.1323 -3.6313  1.5253
 4622SOL    HW225500   1.307   1.782  14.041  0.0504  2.1068  0.3249
 4623SOL     OW25501   0.204   1.853   3.841  0.1484 -0.1689 -0.2042
 4623SOL    HW125502   0.188   1.936   3.884 -3.0962 -0.9424  0.0789
 4623SOL    HW225503   0.239   1.878   3.755 -0.7566 -0.8710 -0.7761
 4624SOL     OW25504   4.403   3.961   2.866 -0.1408  0.2248  0.0462
 4624SOL    HW125505   4.421   3.870   2.891  0.5117  0.0188 -1.1823
 4624SOL    HW225506   4.318   3.951   2.822 -0.0569 -1.8902  0.3812
 4625SOL     OW25507   3.251   1.595  11.928 -0.6630 -0.5819 -0.4758
 4625SOL    HW125508   3.156   1.598  11.917 -0.6486  1.7124  0.0258
 4625SOL    HW225509   3.275   1.505  11.950  1.2461  0.5050  1.8622
 4626SOL     OW25510   4.136   3.282  12.659 -0.1611  0.1610 -0.8642
 4626SOL    HW125511   4.106   3.250  12.744 -0.4162  0.2602 -0.9159
 4626SOL    HW225512   4.059   3.333  12.634 -0.5919  0.4678  1.0885
 4627SOL     OW25513   0.683   2.465  13.817  0.1806  0.0168 -0.2991
 4627SOL    HW125514   0.641   2.502  13.739 -0.1046  0.2878 -0.0188
 4627SOL    HW225515   0.644   2.378  13.820 -1.6942  0.8300 -1.1095
 4628SOL     OW25516   3.560   1.342   4.590  0.4839  0.2582  0.0093
 4628SOL    HW125517   3.484   1.296   4.556  1.5232 -1.2939 -0.2067
 4628SOL    HW225518   3.549   1.340   4.685  1.6261  1.8726  0.1813
 4629SOL     OW25519   3.852   3.384  12.770 -0.1484  0.1241 -0.4851
 4629SOL    HW125520   3.857   3.479  12.763  4.9362 -0.0641  0.6521
 4629SOL    HW225521   3.774   3.374  12.824 -0.3961 -3.5984 -1.5017
 4630SOL     OW25522   1.383   1.063   2.046 -0.0581  0.5190 -0.3093
 4630SOL    HW125523   1.385   0.971   2.022 -1.0677  0.0449  1.4390
 4630SOL    HW225524   1.437   1.070   2.125  0.0891  1.8317 -0.5328
 4631SOL     OW25525   3.179   2.220  14.184  0.3360 -0.0706 -0.2982
 4631SOL    HW125526   3.107   2.250  14.129  0.3158 -0.9253 -0.7210
 4631SOL    HW225527   3.160   2.127  14.179  2.2954 -0.5684  1.5308
 4632SOL     OW25528   0.099   3.303  14.199  0.1826  0.8226 -0.1971
 4632SOL    HW125529   0.053   3.381  14.168 -2.6159  0.4767  3.1654
 4632SOL    HW225530   0.165   3.334  14.261 -0.3705  0.7486  0.4210
 4633SOL     OW25531   2.425   1.201  16.618 -0.2120 -0.2000 -0.4150
 4633SOL    HW125532   2.492   1.220  16.552  0.2091 -0.4744 -0.0697
 4633SOL    HW225533   2.478   1.204  16.698  0.6791  0.3077 -1.0135
 4634SOL     OW25534   1.443   3.952   1.196  0.4679 -0.3650  0.1255
 4634SOL    HW125535   1.349   3.953   1.214  0.9160 -0.1905  2.4239
 4634SOL    HW225536   1.474   3.967   1.286  1.9870 -0.3509 -0.3962
 4635SOL     OW25537   2.165   1.906  12.835 -0.1617  0.0250 -0.2298
 4635SOL    HW125538   2.073   1.927  12.819  0.3510  1.9985 -0.7118
 4635SOL    HW225539   2.176   1.894  12.929 -0.3756  1.1684 -0.0527
 4636SOL     OW25540   1.822   1.103   5.888 -0.6351 -0.0496  0.4525
 4636SOL    HW125541   1.760   1.130   5.820 -1.1162  2.7069  2.0014
 4636SOL    HW225542   1.909   1.110   5.850 -1.1485  0.3922 -0.6232
 4637SOL     OW25543   1.210   3.025  13.311 -0.5334  0.1818  0.1910
 4637SOL    HW125544   1.190   2.943  13.356 -1.6805  0.6391  0.5322
 4637SOL    HW225545   1.128   3.074  13.322 -0.5397  0.2191 -0.0339
 4638SOL     OW25546   0.034   1.421   4.638 -0.1880  0.6372  0.1601
 4638SOL    HW125547   0.023   1.424   4.734 -2.2232 -0.7161 -0.0117
 4638SOL    HW225548   0.128   1.406   4.636 -0.4319 -0.9015  0.1684
 4639SOL     OW25549   4.565   4.073  17.166  0.2554  0.2940 -0.4137
 4639SOL    HW125550   4.470   4.074  17.171  0.3963 -1.0396  2.6507
 4639SOL    HW225551   4.594   4.161  17.190  1.1247 -0.6301  1.9710
 4640SOL     OW25552   1.170   1.052   1.658  0.6990  0.1871 -0.1899
 4640SOL    HW125553   1.208   0.967   1.633  1.5591  0.5976 -0.2861
 4640SOL    HW225554   1.130   1.040   1.744 -0.3238  0.7957 -0.5923
 4641SOL     OW25555   3.507   3.059  17.025  0.4206  0.2020  0.0509
 4641SOL    HW125556   3.443   2.994  16.997  0.2866  0.0488  0.6950
 4641SOL    HW225557   3.489   3.061  17.119 -1.3634 -1.2214 -0.2692
 4642SOL     OW25558   1.029   3.914  10.613 -0.0869  0.4556  0.0878
 4642SOL    HW125559   0.975   3.835  10.615 -0.4845  0.7740  1.6513
 4642SOL    HW225560   0.964   3.984  10.624 -0.3484 -0.0557  1.7745
 4643SOL     OW25561   2.056   4.038   0.804 -0.6279 -0.0127  0.0720
 4643SOL    HW125562   2.105   4.119   0.822 -0.4361 -0.4911  1.7409
 4643SOL    HW225563   2.034   4.045   0.711 -1.3731  1.7994  0.3886
 4644SOL     OW25564   2.863   3.614   8.963 -0.9929  0.5297  0.0912
 4644SOL    HW125565   2.810   3.535   8.948  0.1100 -0.3090  0.5605
 4644SOL    HW225566   2.941   3.573   9.002 -2.2109  0.1624  2.1757
 4645SOL     OW25567   2.871   2.357  15.419  0.7170  0.0416 -0.2493
 4645SOL    HW125568   2.949   2.380  15.469  0.3678 -0.6728  0.6169
 4645SOL    HW225569   2.861   2.263  15.436  0.5336  0.3112  1.0628
 4646SOL     OW25570   4.393   2.422   2.243 -0.1440  0.0401  0.6433
 4646SOL    HW125571   4.370   2.470   2.323 -0.5151  0.3972  0.3192
 4646SOL    HW225572   4.350   2.475   2.176  3.5957  1.1240 -0.9252
 4647SOL     OW25573   4.415   1.650  17.726  0.1532  0.2819 -0.0009
 4647SOL    HW125574   4.505   1.616  17.731 -0.1262 -0.7693 -2.0374
 4647SOL    HW225575   4.369   1.569  17.702 -1.4141  1.1945 -0.0938
 4648SOL     OW25576   2.956   4.734  11.838  0.6664 -0.4646 -0.1728
 4648SOL    HW125577   2.940   4.688  11.920  0.2532 -1.6899 -0.9317
 4648SOL    HW225578   2.915   0.081  11.854  2.2854  0.6022 -1.7488
 4649SOL     OW25579   0.125   3.043  12.446  0.1900  0.5953  0.3993
 4649SOL    HW125580   0.129   3.034  12.351 -0.7817 -1.7784  0.5854
 4649SOL    HW225581   0.182   3.119  12.458  1.8639 -0.6181  0.2194
 4650SOL     OW25582   2.602   1.204   2.309  0.0518 -0.3783  0.0359
 4650SOL    HW125583   2.638   1.229   2.395 -0.2775  1.0682 -0.2429
 4650SOL    HW225584   2.577   1.289   2.274 -1.5310 -0.1025  1.8447
 4651SOL     OW25585   3.648   3.310   6.033  0.5000  0.1607  0.4810
 4651SOL    HW125586   3.577   3.326   5.972  0.2966  0.0752  0.6970
 4651SOL    HW225587   3.615   3.338   6.118  0.7512 -0.0751  0.6573
 4652SOL     OW25588   1.197   1.555   3.000  0.2511  0.3212  0.7035
 4652SOL    HW125589   1.233   1.639   3.028 -2.2284  1.3803  0.6992
 4652SOL    HW225590   1.231   1.488   3.059  0.9103 -1.2962 -1.5041
 4653SOL     OW25591   4.283   2.673   7.532  0.0004  0.3602  0.1816
 4653SOL    HW125592   4.301   2.714   7.616 -0.5460  0.3831  0.2865
 4653SOL    HW225593   4.190   2.695   7.524 -0.0927 -0.2166 -0.3185
 4654SOL     OW25594   2.596   0.445  16.980 -0.1203 -0.1941 -0.2041
 4654SOL    HW125595   2.554   0.360  16.993 -0.5795  0.4245  2.2228
 4654SOL    HW225596   2.515   0.493  16.965 -0.3317 -0.5573 -0.2448
 4655SOL     OW25597   1.625   0.039   5.190  0.4961  0.3388 -0.2293
 4655SOL    HW125598   1.608   0.116   5.136 -0.0992  1.0107  0.9422
 4655SOL    HW225599   1.653   4.713   5.123 -0.5518 -1.0823  0.6982
 4656SOL     OW25600   2.379   0.907  11.103  0.4973  0.6463  0.1372
 4656SOL    HW125601   2.448   0.972  11.115  0.0503  0.5853  2.9322
 4656SOL    HW225602   2.391   0.874  11.192 -0.4152 -0.8767 -0.2989
 4657SOL     OW25603   4.295   1.178   3.333 -0.0640 -0.1598 -0.1040
 4657SOL    HW125604   4.302   1.201   3.426  1.1421  0.5539 -0.3679
 4657SOL    HW225605   4.335   1.258   3.297 -2.1209  0.6024 -0.6795
 4658SOL     OW25606   0.925   0.528  12.710  0.3064  0.0639 -0.3941
 4658SOL    HW125607   0.900   0.457  12.651  0.9551 -1.4584  1.1613
 4658SOL    HW225608   0.916   0.494  12.799  1.2095 -1.1332 -0.7819
 4659SOL     OW25609   4.070   3.755   8.699 -0.0190  0.4338  0.2473
 4659SOL    HW125610   4.089   3.803   8.618 -2.9503 -0.0934 -0.7540
 4659SOL    HW225611   4.125   3.677   8.698 -1.2348 -0.4336  0.4755
 4660SOL     OW25612   2.036   1.009   8.310  0.2577  0.0406  0.1848
 4660SOL    HW125613   2.111   1.011   8.369  0.2309  0.4396  0.2045
 4660SOL    HW225614   2.076   1.046   8.231 -1.0064 -2.1571 -1.5022
 4661SOL     OW25615   2.203   1.993   1.766 -0.1225  0.0662  0.3450
 4661SOL    HW125616   2.261   1.938   1.714  3.0283  1.5570  2.2308
 4661SOL    HW225617   2.267   2.036   1.824  0.8727 -1.8764  0.6781
 4662SOL     OW25618   2.242   4.124   4.328  0.0485 -0.2537 -0.1895
 4662SOL    HW125619   2.209   4.188   4.265  0.6249  0.5484  0.3295
 4662SOL    HW225620   2.329   4.105   4.293  0.0081  2.0210 -1.5445
 4663SOL     OW25621   1.830   2.136   3.286 -0.2909 -0.2494 -0.2762
 4663SOL    HW125622   1.825   2.082   3.365 -0.3229 -0.0816 -0.1645
 4663SOL    HW225623   1.748   2.113   3.242 -1.2037  1.8204  0.3457
 4664SOL     OW25624   3.953   4.221   4.724 -0.2280  0.0385  0.0213
 4664SOL    HW125625   4.023   4.186   4.669  1.1051  1.2375  0.9499
 4664SOL    HW225626   3.985   4.311   4.727 -1.1498  0.4291 -2.2064
 4665SOL     OW25627   1.814   0.249  14.558 -0.0562 -0.6560  0.7639
 4665SOL    HW125628   1.854   0.283  14.477 -2.2444 -0.6971 -0.3230
 4665SOL    HW225629   1.810   0.156  14.537  2.5064 -0.5569 -0.2407
 4666SOL     OW25630   1.699   4.584   2.571  0.3564 -0.4174  0.7673
 4666SOL    HW125631   1.644   4.506   2.567 -1.2122  0.7414 -0.6095
 4666SOL    HW225632   1.686   4.607   2.663  1.1429 -0.3570  0.8627
 4667SOL     OW25633   1.142   1.376  11.356 -0.2602 -0.5296  0.0853
 4667SOL    HW125634   1.212   1.346  11.413 -1.0591 -1.3991  0.6151
 4667SOL    HW225635   1.188   1.442  11.304 -0.0190 -0.6359  0.1640
 4668SOL     OW25636   4.624   3.229   7.051  0.2466 -0.1457 -0.8203
 4668SOL    HW125637   4.706   3.277   7.061  0.0817  0.0604 -0.4542
 4668SOL    HW225638   4.570   3.242   7.128  0.0015 -1.8870 -0.7048
 4669SOL     OW25639   4.373   3.584  11.836  0.3155 -0.0261  0.0184
 4669SOL    HW125640   4.412   3.663  11.800 -0.7668  1.1251  1.3841
 4669SOL    HW225641   4.404   3.592  11.926  1.7921 -2.3373 -0.2868
 4670SOL     OW25642   0.864   4.030   3.657  0.6565  0.3173 -0.5357
 4670SOL    HW125643   0.813   3.978   3.719  1.1561  0.4079 -0.0528
 4670SOL    HW225644   0.801   4.028   3.585  0.5473  1.6027 -0.4767
 4671SOL     OW25645   1.224   1.578   1.894 -0.5025  0.1535  0.2074
 4671SOL    HW125646   1.273   1.500   1.921  1.2292  1.1944  0.0797
 4671SOL    HW225647   1.286   1.613   1.829 -2.6138  1.2545 -1.1997
 4672SOL     OW25648   1.396   1.810   7.830  0.3528  0.0185 -0.0618
 4672SOL    HW125649   1.356   1.778   7.749 -1.1535 -0.6767  0.9547
 4672SOL    HW225650   1.473   1.860   7.803 -0.6471  1.7817  0.3874
 4673SOL     OW25651   4.732   0.037   0.138 -0.2613  0.1807  0.4026
 4673SOL    HW125652   4.676   4.731   0.073  0.9909 -0.3166 -0.3412
 4673SOL    HW225653   0.056   4.705   0.163 -0.6398  0.0492  0.9691
 4674SOL     OW25654   0.930   0.520   4.844  0.3986 -0.6642  0.3600
 4674SOL    HW125655   1.009   0.504   4.895  0.0036  2.2671  1.8673
 4674SOL    HW225656   0.873   0.534   4.919  1.4551 -2.1467  1.4198
 4675SOL     OW25657   0.702   2.284   3.518 -0.1455  0.4888  0.5545
 4675SOL    HW125658   0.710   2.350   3.449  0.3836 -1.8364 -1.5802
 4675SOL    HW225659   0.767   2.220   3.489  1.0036  1.2059  1.5751
 4676SOL     OW25660   1.896   2.585   3.185  0.2971  0.8846  0.4033
 4676SOL    HW125661   1.889   2.507   3.239  1.5432  2.4428  2.8354
 4676SOL    HW225662   1.814   2.586   3.135  0.4468  1.2041  0.1642
 4677SOL     OW25663   1.213   0.427  11.862  0.0062 -0.6845 -0.0718
 4677SOL    HW125664   1.237   0.335  11.867 -0.4296 -0.8107 -0.3898
 4677SOL    HW225665   1.250   0.434  11.774 -1.7580  0.4766 -0.7057
 4678SOL     OW25666   3.199   3.044  16.409 -0.2274 -0.2157  0.1386
 4678SOL    HW125667   3.234   3.131  16.427  2.1488 -1.0254 -0.5007
 4678SOL    HW225668   3.271   3.009  16.356 -0.3262  0.7822 -0.6728
 4679SOL     OW25669   3.870   4.473   7.119  0.5988 -0.0093 -0.3553
 4679SOL    HW125670   3.784   4.514   7.112  1.8423  2.7948  0.6412
 4679SOL    HW225671   3.918   4.550   7.149  0.8012 -0.1048 -0.4374
 4680SOL     OW25672   1.613   3.554   5.275  0.8380 -0.3309 -0.0336
 4680SOL    HW125673   1.560   3.540   5.354 -1.6094  2.4518 -1.2351
 4680SOL    HW225674   1.651   3.469   5.254  0.5408 -0.6779  0.8078
 4681SOL     OW25675   1.698   0.393   1.093  0.6042 -0.1204  0.1989
 4681SOL    HW125676   1.696   0.448   1.171  0.7014 -0.8871  0.7435
 4681SOL    HW225677   1.704   0.465   1.030 -1.9249 -0.1256 -0.0524
 4682SOL     OW25678   2.995   1.138   3.778  0.2918  0.8050  0.5747
 4682SOL    HW125679   2.947   1.089   3.712  2.0196  0.4014 -0.3965
 4682SOL    HW225680   3.024   1.222   3.742 -0.9021  0.9475 -0.0631
 4683SOL     OW25681   3.363   2.025  16.752 -0.6176  0.5071  0.2214
 4683SOL    HW125682   3.278   1.986  16.772  0.4713 -1.9776 -0.0864
 4683SOL    HW225683   3.412   1.976  16.818 -0.4494  2.1061  1.3134
 4684SOL     OW25684   1.656   0.478  11.406  0.5901 -0.0707 -0.5460
 4684SOL    HW125685   1.625   0.484  11.497 -0.3709 -1.5597 -0.7731
 4684SOL    HW225686   1.596   0.421  11.358 -0.2712 -0.2343  0.7104
 4685SOL     OW25687   4.279   2.585  10.408  0.3393  0.0869  0.2296
 4685SOL    HW125688   4.308   2.579  10.317 -1.3106 -0.8499 -0.2182
 4685SOL    HW225689   4.184   2.589  10.398  0.1030 -0.5259  2.2790
 4686SOL     OW25690   3.125   1.636   5.490 -0.0941 -0.2379 -0.0127
 4686SOL    HW125691   3.217   1.662   5.485 -0.0540 -0.4521 -0.4430
 4686SOL    HW225692   3.097   1.649   5.399  1.7568  1.2984 -0.3542
 4687SOL     OW25693   4.307   0.756   3.072 -0.3843 -0.2171  0.2119
 4687SOL    HW125694   4.311   0.704   3.152  0.7814 -1.2330 -0.5014
 4687SOL    HW225695   4.395   0.794   3.072 -0.5820  0.2171 -1.1066
 4688SOL     OW25696   3.397   2.288   8.247  0.2611 -0.6648  0.9281
 4688SOL    HW125697   3.329   2.229   8.280 -0.1390 -0.2211  0.9001
 4688SOL    HW225698   3.368   2.289   8.155  0.3957 -0.4047  0.8908
 4689SOL     OW25699   0.145   3.455   3.194  0.0986 -0.2922 -0.0662
 4689SOL    HW125700   0.075   3.521   3.195  1.0454  0.7372 -1.9149
 4689SOL    HW225701   0.108   3.381   3.241 -0.0959 -2.2574 -3.2895
 4690SOL     OW25702   0.481   4.293  12.657 -0.0602 -0.2205  0.0834
 4690SOL    HW125703   0.552   4.247  12.613 -0.6803 -1.8846  0.8136
 4690SOL    HW225704   0.486   4.382  12.623 -1.7593 -0.5870 -1.1415
 4691SOL     OW25705   0.424   3.496   6.807  0.5173  0.5262 -0.2574
 4691SOL    HW125706   0.479   3.573   6.822  2.4048 -0.8481 -0.0142
 4691SOL    HW225707   0.457   3.439   6.877  0.4233 -0.1507 -0.7556
 4692SOL     OW25708   3.750   4.214   2.683 -0.3898 -0.3839 -0.1758
 4692SOL    HW125709   3.661   4.211   2.649 -0.3431 -0.4351 -0.2927
 4692SOL    HW225710   3.812   4.239   2.614  0.6821  0.0933  0.9636
 4693SOL     OW25711   4.271   1.949   3.766  0.1419  1.1483 -0.0418
 4693SOL    HW125712   4.340   1.997   3.812 -0.4016  0.7016  1.2282
 4693SOL    HW225713   4.313   1.865   3.751  0.2411  1.4486 -1.4958
 4694SOL     OW25714   2.411   1.571   8.889 -0.1500 -0.1895 -0.0966
 4694SOL    HW125715   2.401   1.659   8.925  2.0921  0.8933 -2.1001
 4694SOL    HW225716   2.363   1.521   8.955  2.7250 -1.0675  1.3069
 4695SOL     OW25717   1.656   2.318   2.869  0.4008 -0.0209  0.0826
 4695SOL    HW125718   1.706   2.275   2.938  1.9969  0.8759 -0.5081
 4695SOL    HW225719   1.678   2.279   2.784 -2.7796  0.5187 -0.9835
 4696SOL     OW25720   1.748   2.983   6.036 -0.3271 -0.7286  0.5348
 4696SOL    HW125721   1.669   3.025   6.070 -0.5430 -1.6840  1.2066
 4696SOL    HW225722   1.745   2.903   6.089 -0.9256 -1.1255 -0.0936
 4697SOL     OW25723   3.188   2.616   6.819  0.5987  0.2102 -0.1131
 4697SOL    HW125724   3.265   2.561   6.803  1.1978  0.8323  0.6052
 4697SOL    HW225725   3.119   2.589   6.759 -0.2783  0.0013  0.9864
 4698SOL     OW25726   2.151   0.229   6.310 -0.1546 -0.3832  0.5137
 4698SOL    HW125727   2.126   0.306   6.361 -0.2875  1.7040 -2.6424
 4698SOL    HW225728   2.085   0.214   6.242 -1.2796 -1.3809  1.8436
 4699SOL     OW25729   3.947   2.921   6.491 -0.0584 -0.3474 -0.3395
 4699SOL    HW125730   3.857   2.937   6.465  0.9685  2.4253 -2.1752
 4699SOL    HW225731   3.953   2.963   6.577  2.9156 -2.6445  0.5727
 4700SOL     OW25732   1.998   2.219   6.465 -0.0733  0.4704  0.3960
 4700SOL    HW125733   2.046   2.301   6.462  1.6404 -0.5000  0.8823
 4700SOL    HW225734   2.029   2.175   6.386  2.9193  0.3394  1.6378
 4701SOL     OW25735   3.289   0.526   5.336  0.4047 -0.7529 -0.5471
 4701SOL    HW125736   3.213   0.477   5.304 -0.4497  0.7665 -0.8358
 4701SOL    HW225737   3.353   0.463   5.302  0.8586  0.7084 -2.4183
 4702SOL     OW25738   4.542   3.127   4.205 -0.3268  0.0800 -0.3929
 4702SOL    HW125739   4.615   3.165   4.253 -0.3837  0.0521 -0.2855
 4702SOL    HW225740   4.485   3.094   4.275  0.2882  0.2695  0.1944
 4703SOL     OW25741   3.145   3.910   2.825 -0.8330 -0.2447 -0.2680
 4703SOL    HW125742   3.114   4.000   2.811  0.4913  0.1199 -0.9194
 4703SOL    HW225743   3.139   3.877   2.735 -0.2011  0.0649 -0.4270
 4704SOL     OW25744   3.236   1.956  11.444  0.4063 -0.1986  0.1836
 4704SOL    HW125745   3.249   1.918  11.531  1.9710 -3.4990 -1.4885
 4704SOL    HW225746   3.180   1.888  11.406 -0.5259  0.6593 -0.0091
 4705SOL     OW25747   1.479   3.698   0.661  0.1138  1.0862 -0.2756
 4705SOL    HW125748   1.405   3.708   0.601  1.4932 -0.4862 -2.2733
 4705SOL    HW225749   1.432   3.633   0.713 -0.4762  1.3986 -0.4242
 4706SOL     OW25750   4.160   4.186   2.495  0.1360 -0.1224 -0.2592
 4706SOL    HW125751   4.173   4.095   2.469 -1.4063 -0.3294 -0.2914
 4706SOL    HW225752   4.066   4.203   2.497  0.0092 -0.9459  1.0602
 4707SOL     OW25753   0.765   1.683   8.703  0.0649  0.8254  0.2833
 4707SOL    HW125754   0.854   1.655   8.724  0.2248 -0.0570 -1.5120
 4707SOL    HW225755   0.751   1.631   8.623 -3.0305  0.1801  1.2698
 4708SOL     OW25756   0.860   1.364   7.793 -0.0000  0.5903  0.2639
 4708SOL    HW125757   0.895   1.306   7.725  2.0408  1.2779  0.7432
 4708SOL    HW225758   0.783   1.313   7.819 -0.0598  1.4164  1.6743
 4709SOL     OW25759   1.947   4.057   4.202 -0.1067  0.0362  0.1513
 4709SOL    HW125760   1.987   4.084   4.119 -1.3714 -1.2610 -0.8819
 4709SOL    HW225761   2.016   4.004   4.242 -0.0276  0.5176  0.6549
 4710SOL     OW25762   1.511   4.263   6.557  0.4540  0.3918  0.1222
 4710SOL    HW125763   1.460   4.296   6.631 -0.1395  0.1328 -0.1769
 4710SOL    HW225764   1.549   4.347   6.530 -0.9773  0.7533 -0.7656
 4711SOL     OW25765   2.828   3.781   8.734  0.0150 -0.2127 -0.3373
 4711SOL    HW125766   2.784   3.860   8.702 -0.8157 -0.4966  0.0875
 4711SOL    HW225767   2.909   3.821   8.765  0.0787 -0.4702 -0.1710
 4712SOL     OW25768   0.736   3.763   7.968  0.4642  0.6478  0.0905
 4712SOL    HW125769   0.654   3.751   8.016 -0.2548  2.8672 -0.5836
 4712SOL    HW225770   0.793   3.699   8.011 -1.9728 -2.0456 -0.6709
 4713SOL     OW25771   0.744   0.750   9.820 -0.3586  0.0644 -0.3338
 4713SOL    HW125772   0.660   0.752   9.776  0.3415  2.4823 -1.5032
 4713SOL    HW225773   0.803   0.794   9.759 -0.8266  0.2925 -0.6194
 4714SOL     OW25774   2.564   2.389   2.929 -0.1687  0.0204  0.1612
 4714SOL    HW125775   2.511   2.417   2.855 -1.5078  0.5740  1.3315
 4714SOL    HW225776   2.625   2.462   2.931 -0.7662  0.4794  1.4655
 4715SOL     OW25777   0.543   3.634   8.802 -0.0164  0.3833 -0.0965
 4715SOL    HW125778   0.637   3.632   8.824 -0.5302 -3.7363  1.7716
 4715SOL    HW225779   0.504   3.674   8.880 -2.3165 -2.1665  0.0822
 4716SOL     OW25780   0.345   0.150  16.191 -0.4589  0.0358 -0.3771
 4716SOL    HW125781   0.342   0.241  16.221  0.4867  0.1037 -0.4879
 4716SOL    HW225782   0.372   0.153  16.099 -3.0540 -1.1856 -1.1863
 4717SOL     OW25783   3.312   3.303   9.276  0.2759  0.7448 -0.1281
 4717SOL    HW125784   3.269   3.233   9.326  1.1889 -0.2625 -0.7516
 4717SOL    HW225785   3.379   3.334   9.337 -1.3999 -0.0567  2.1320
 4718SOL     OW25786   4.464   0.156  15.531 -0.0415  0.0887 -0.4735
 4718SOL    HW125787   4.512   0.208  15.467 -0.1731  1.6496  0.7084
 4718SOL    HW225788   4.489   0.066  15.508  0.6747  0.1724 -0.0228
 4719SOL     OW25789   0.983   3.952   1.598 -0.0156 -0.2709 -0.1004
 4719SOL    HW125790   1.061   3.926   1.648  1.1561  1.7848 -0.8829
 4719SOL    HW225791   0.914   3.945   1.664  0.6057  1.0695  0.7004
 4720SOL     OW25792   2.870   1.847   3.210 -0.4939 -0.1806 -0.1787
 4720SOL    HW125793   2.786   1.893   3.200 -0.3897  0.0834  0.1582
 4720SOL    HW225794   2.847   1.763   3.170  2.8038 -0.7141 -0.9509
 4721SOL     OW25795   4.410   4.085   6.524 -0.5410  0.1108 -0.3768
 4721SOL    HW125796   4.451   4.031   6.591  1.8108  2.9235  0.4310
 4721SOL    HW225797   4.486   4.136   6.496  0.1839  0.1286  1.6024
 4722SOL     OW25798   4.386   3.607  15.872 -0.2925 -0.1219  0.1156
 4722SOL    HW125799   4.323   3.658  15.821  0.0350  0.1476 -0.0198
 4722SOL    HW225800   4.451   3.676  15.883  1.1651 -1.2952 -1.0109
 4723SOL     OW25801   3.944   4.300  15.161 -0.2720 -0.7144  0.1022
 4723SOL    HW125802   3.967   4.380  15.114  0.4045 -0.0693  1.5379
 4723SOL    HW225803   3.856   4.279  15.130 -1.0674 -0.0821  1.9171
 4724SOL     OW25804   4.343   1.446   3.270 -0.8526 -0.3391 -0.4277
 4724SOL    HW125805   4.305   1.444   3.182  1.1761 -0.4221 -1.2817
 4724SOL    HW225806   4.415   1.505   3.248 -0.2174 -0.8664  0.2590
 4725SOL     OW25807   0.303   0.143  11.336  0.4673  0.1863  0.2503
 4725SOL    HW125808   0.276   0.200  11.408  1.6483  1.0791  0.0055
 4725SOL    HW225809   0.359   0.079  11.380  0.9216  0.7298  0.4701
 4726SOL     OW25810   0.765   2.754   3.142  0.0319  0.0912  0.3870
 4726SOL    HW125811   0.837   2.698   3.112  0.2939  0.6600 -0.0482
 4726SOL    HW225812   0.722   2.789   3.064 -0.7630 -0.3284  0.6434
 4727SOL     OW25813   0.785   2.275  15.840  0.3747 -0.1732 -0.4649
 4727SOL    HW125814   0.718   2.343  15.827 -0.0958 -0.6392 -0.4875
 4727SOL    HW225815   0.759   2.190  15.804  0.5988  0.4486 -2.0828
 4728SOL     OW25816   1.684   3.661   6.620 -0.5293 -0.0377 -0.2584
 4728SOL    HW125817   1.750   3.646   6.552 -3.1536  2.0369 -3.2422
 4728SOL    HW225818   1.608   3.608   6.597 -2.3960  1.6935  1.9386
 4729SOL     OW25819   2.935   2.065   6.302 -0.4997  0.1690 -0.1124
 4729SOL    HW125820   3.016   2.115   6.317 -0.8582  0.5354  0.5743
 4729SOL    HW225821   2.899   2.055   6.390  1.2356  0.5376  0.6571
 4730SOL     OW25822   3.633   4.575  14.266  0.5510  0.6284  0.3771
 4730SOL    HW125823   3.590   4.646  14.219  1.7226 -0.0138 -1.6314
 4730SOL    HW225824   3.552   4.554  14.314  0.9196  0.6297  0.9993
 4731SOL     OW25825   3.413   3.321   1.402  0.3484 -0.1069  0.2482
 4731SOL    HW125826   3.361   3.401   1.392  0.8535  0.3769  1.4853
 4731SOL    HW225827   3.425   3.315   1.497 -0.4228 -0.6191  0.3212
 4732SOL     OW25828   1.573   4.394   7.254 -0.8879 -0.3204 -0.7263
 4732SOL    HW125829   1.482   4.421   7.242 -0.7470  0.5905  0.2119
 4732SOL    HW225830   1.569   4.305   7.290 -0.5620 -1.3096 -3.1451
 4733SOL     OW25831   0.522   0.291  13.585 -0.5339  0.4133  0.0150
 4733SOL    HW125832   0.596   0.332  13.540  0.2856  0.5630  1.5039
 4733SOL    HW225833   0.569   0.219  13.627 -0.6288 -1.1911 -2.6510
 4734SOL     OW25834   4.579   1.498  10.515  0.0455  0.3754 -0.4158
 4734SOL    HW125835   4.615   1.545  10.590 -2.7448 -0.6958  1.5852
 4734SOL    HW225836   4.658   1.454  10.482 -0.3548  0.2138 -1.1551
 4735SOL     OW25837   1.895   2.476  11.168  0.5292 -0.1542  0.5634
 4735SOL    HW125838   1.949   2.396  11.174  4.2169  2.2082 -1.1374
 4735SOL    HW225839   1.915   2.504  11.078 -0.3707 -0.2787  0.3253
 4736SOL     OW25840   3.129   1.090   7.102 -0.1194  0.2874  0.8726
 4736SOL    HW125841   3.133   1.175   7.147  1.0623  1.6967 -1.9068
 4736SOL    HW225842   3.036   1.097   7.081 -0.3742  0.6667  2.1098
 4737SOL     OW25843   2.976   3.191   8.111 -0.1668 -0.5609  0.2319
 4737SOL    HW125844   2.995   3.226   8.198  0.0239 -0.5914  0.2025
 4737SOL    HW225845   2.990   3.276   8.069  0.6471 -0.3045  1.0085
 4738SOL     OW25846   2.464   2.222   3.861 -0.4571  0.0005 -0.4803
 4738SOL    HW125847   2.404   2.164   3.908  0.3623  0.4315  1.0748
 4738SOL    HW225848   2.518   2.270   3.923 -0.4266  0.9063 -1.2095
 4739SOL     OW25849   2.941   1.330   7.480  0.1394 -0.2145  0.1048
 4739SOL    HW125850   2.887   1.382   7.539  2.3450  0.4509  1.5247
 4739SOL    HW225851   2.882   1.260   7.449  3.3957 -1.6275 -2.8809
 4740SOL     OW25852   2.281   1.570  12.530 -0.0221 -0.3157 -0.2319
 4740SOL    HW125853   2.360   1.519  12.550 -1.3739 -2.5854 -0.6952
 4740SOL    HW225854   2.302   1.652  12.575 -0.8469 -1.1322  1.6084
 4741SOL     OW25855   2.917   0.760   4.295 -0.2245 -0.1346 -0.6877
 4741SOL    HW125856   2.971   0.837   4.314  0.8675 -1.0241 -0.1596
 4741SOL    HW225857   2.974   0.691   4.260 -1.1044 -1.6035  0.7366
 4742SOL     OW25858   4.068   0.594   2.657 -0.6822  0.9382 -0.8314
 4742SOL    HW125859   4.067   0.505   2.694 -0.6693  1.2886  0.0186
 4742SOL    HW225860   3.983   0.603   2.613 -2.0512 -0.3230  1.5203
 4743SOL     OW25861   0.834   1.134  15.160  0.2671 -0.3076  0.5237
 4743SOL    HW125862   0.827   1.071  15.088 -0.0608  0.4360 -0.0998
 4743SOL    HW225863   0.742   1.163  15.158  0.0096 -1.0726  1.1411
 4744SOL     OW25864   1.834   4.474   2.277  0.0733  0.2807  0.3314
 4744SOL    HW125865   1.923   4.510   2.274  0.7659 -1.6066 -1.0566
 4744SOL    HW225866   1.787   4.535   2.335  0.4712  2.0689 -1.2467
 4745SOL     OW25867   3.200   2.537   0.370 -0.6287 -0.0860  0.1889
 4745SOL    HW125868   3.215   2.581   0.286 -0.0708  1.7665  1.2604
 4745SOL    HW225869   3.168   2.612   0.420  0.2718  1.0698 -0.9550
 4746SOL     OW25870   3.338   4.526   4.533  0.1914  0.3765 -0.1281
 4746SOL    HW125871   3.305   4.611   4.503 -1.4364 -0.4742 -0.7587
 4746SOL    HW225872   3.267   4.465   4.513 -0.0894  1.2307 -1.7808
 4747SOL     OW25873   0.908   0.735   1.726 -0.3716  0.4155 -0.3466
 4747SOL    HW125874   0.941   0.785   1.651  0.1549  2.0721  0.9827
 4747SOL    HW225875   0.815   0.758   1.724 -0.8924 -1.6247  1.0304
 4748SOL     OW25876   1.136   3.086   8.904 -0.1328  0.3780  0.1976
 4748SOL    HW125877   1.208   3.121   8.957  0.4666 -0.4338 -0.0796
 4748SOL    HW225878   1.057   3.129   8.936  2.1136  1.9425  3.6031
 4749SOL     OW25879   2.774   2.321   3.591 -0.6211 -0.1946 -0.5526
 4749SOL    HW125880   2.855   2.288   3.554 -1.2322  0.4822 -2.4792
 4749SOL    HW225881   2.720   2.279   3.524  0.9303  0.2543 -2.0917
 4750SOL     OW25882   1.037   1.097   9.240 -0.1617  0.4944  0.1542
 4750SOL    HW125883   1.021   1.190   9.257  1.5021  0.9550 -0.7298
 4750SOL    HW225884   0.948   1.063   9.230 -0.1300  0.4314  0.0781
 4751SOL     OW25885   1.685   1.810   4.231 -0.0472  0.3920 -0.9063
 4751SOL    HW125886   1.766   1.778   4.271 -1.5036  0.1466  1.8907
 4751SOL    HW225887   1.670   1.890   4.282 -0.7335 -0.3354  0.0501
 4752SOL     OW25888   3.305   0.238   6.211 -0.1325 -0.2126 -0.5115
 4752SOL    HW125889   3.386   0.277   6.178  0.0525  0.4916  0.7914
 4752SOL    HW225890   3.315   0.237   6.306  0.1990  0.1255 -0.5443
 4753SOL     OW25891   3.438   0.071   2.875  0.0418  0.3296  0.0378
 4753SOL    HW125892   3.429   0.164   2.855  1.3962  0.2644 -0.8798
 4753SOL    HW225893   3.486   0.048   2.796 -0.8374 -2.0973  0.2004
 4754SOL     OW25894   1.572   1.690  11.212 -0.4183 -0.0193  0.0034
 4754SOL    HW125895   1.585   1.692  11.307 -2.0164 -1.2993  0.2478
 4754SOL    HW225896   1.635   1.759  11.192 -1.1257  0.8534  0.8077
 4755SOL     OW25897   4.011   2.871   4.535 -0.1609  0.0120  0.0211
 4755SOL    HW125898   4.000   2.860   4.441  0.0857 -0.0105 -0.0047
 4755SOL    HW225899   4.106   2.877   4.545 -0.1780  0.3148 -0.0219
 4756SOL     OW25900   4.505   2.614   8.895  0.3565  0.1311  0.5080
 4756SOL    HW125901   4.583   2.633   8.947 -0.4341  3.2797  0.5413
 4756SOL    HW225902   4.512   2.676   8.823 -0.4088 -2.6299 -1.9643
 4757SOL     OW25903   2.455   1.486   8.616  0.1435 -0.7029  0.0136
 4757SOL    HW125904   2.495   1.546   8.553  0.7415 -1.4964 -0.3504
 4757SOL    HW225905   2.449   1.536   8.698  0.1922  1.6785 -1.4348
 4758SOL     OW25906   0.876   0.863   7.137  0.4083 -0.2601 -0.1903
 4758SOL    HW125907   0.819   0.787   7.129  0.0561  0.0943 -1.0056
 4758SOL    HW225908   0.875   0.875   7.232  0.8578 -0.3143 -0.1809
 4759SOL     OW25909   2.117   4.493  10.743  0.2877  0.4019  0.8827
 4759SOL    HW125910   2.191   4.496  10.682 -1.0221  0.8089 -0.6677
 4759SOL    HW225911   2.095   4.585  10.760 -0.9655  0.6480 -2.0965
 4760SOL     OW25912   4.103   1.085   5.208  0.2540  0.0502  0.5416
 4760SOL    HW125913   4.073   1.056   5.122  0.7512  2.1302 -0.3317
 4760SOL    HW225914   4.057   1.169   5.208  3.0639  1.5917  1.3099
 4761SOL     OW25915   2.178   0.612   8.205  0.2538  0.3634 -0.4804
 4761SOL    HW125916   2.222   0.542   8.157  1.5904  2.4073 -2.2375
 4761SOL    HW225917   2.179   0.684   8.142  1.4130  0.0816 -0.7832
 4762SOL     OW25918   1.879   4.193   6.594 -0.3677 -0.5815  0.3276
 4762SOL    HW125919   1.891   4.178   6.688  1.9840  1.7795  0.4133
 4762SOL    HW225920   1.788   4.166   6.580 -0.6085  1.3947 -1.9282
 4763SOL     OW25921   1.010   3.798   4.986  0.8733  0.0887 -0.0989
 4763SOL    HW125922   1.032   3.873   5.041 -1.6924  0.2177  0.7177
 4763SOL    HW225923   1.097   3.761   4.967  0.3427 -0.9989 -0.3955
 4764SOL     OW25924   4.353   1.158   8.788 -0.0337 -0.0128  0.1354
 4764SOL    HW125925   4.280   1.198   8.835 -0.6354 -1.1963  0.2007
 4764SOL    HW225926   4.341   1.185   8.697 -1.3779 -0.0826  0.2848
 4765SOL     OW25927   0.413   1.222   7.682 -0.6749  0.2161  0.1844
 4765SOL    HW125928   0.456   1.215   7.767 -2.5874  1.0915  1.2305
 4765SOL    HW225929   0.472   1.193   7.612 -0.0684  0.2436  0.6857
 4766SOL     OW25930   4.625   0.439   6.167 -0.4998  0.2215  0.8811
 4766SOL    HW125931   4.676   0.398   6.097 -2.1990  1.1503 -0.8879
 4766SOL    HW225932   4.688   0.433   6.240 -3.3148 -1.4796  3.1466
 4767SOL     OW25933   2.392   3.777  10.859  0.0317 -0.4802 -0.6527
 4767SOL    HW125934   2.459   3.782  10.791  1.3550 -2.1053  0.5167
 4767SOL    HW225935   2.447   3.756  10.935 -0.8593 -0.7897 -0.1003
 4768SOL     OW25936   3.701   0.864   3.686  0.6094  0.3569  0.1236
 4768SOL    HW125937   3.689   0.847   3.593 -1.7773 -0.6981  0.5938
 4768SOL    HW225938   3.750   0.945   3.678  1.6247  0.1599  4.2018
 4769SOL     OW25939   2.548   3.982   7.625  0.6741  0.1506  0.1969
 4769SOL    HW125940   2.547   3.887   7.633 -1.2681  0.3710  2.8063
 4769SOL    HW225941   2.456   4.006   7.610  1.0898  1.6893  0.1118
 4770SOL     OW25942   2.447   3.213   9.911 -0.1252 -0.0382 -0.2131
 4770SOL    HW125943   2.524   3.260   9.878  1.2208 -1.1360  1.3439
 4770SOL    HW225944   2.409   3.180   9.830 -2.3862  0.0369  0.8218
 4771SOL     OW25945   0.331   3.399   7.894  0.0419 -0.1861  0.0591
 4771SOL    HW125946   0.238   3.387   7.913 -0.1033 -0.4800 -0.8181
 4771SOL    HW225947   0.366   3.317   7.929 -0.8067 -1.0139 -1.0420
 4772SOL     OW25948   2.064   3.880  11.805  0.1306 -0.1200 -0.2234
 4772SOL    HW125949   2.026   3.813  11.863 -1.7099 -0.1083 -1.4214
 4772SOL    HW225950   2.092   3.943  11.872 -2.9979  0.2900  0.6921
 4773SOL     OW25951   3.953   2.711  14.133  0.3014 -0.4010  0.1559
 4773SOL    HW125952   4.016   2.732  14.202 -0.5653 -2.1472  1.4947
 4773SOL    HW225953   3.927   2.622  14.156  0.6220 -0.9981 -1.7587
 4774SOL     OW25954   4.708   3.989   0.085 -0.1395 -0.1695 -0.1005
 4774SOL    HW125955   4.707   4.014  17.741 -0.9929  1.0828  0.2384
 4774SOL    HW225956   4.652   3.912   0.081 -0.2108  0.0461 -3.3145
 4775SOL     OW25957   3.566   4.640   3.817 -0.3074  0.3927 -0.2831
 4775SOL    HW125958   3.577   4.641   3.912 -2.4313 -1.3103 -0.0168
 4775SOL    HW225959   3.550   4.735   3.810  0.3588  0.5026 -0.3172
 4776SOL     OW25960   2.016   2.261   6.985  0.0687  0.1454  0.4088
 4776SOL    HW125961   2.023   2.347   7.026 -0.5457  1.3558 -2.0527
 4776SOL    HW225962   2.089   2.215   7.027  1.0083  0.8035 -0.4896
 4777SOL     OW25963   3.012   2.494   5.532  0.8416 -0.6531 -0.3903
 4777SOL    HW125964   2.979   2.523   5.447 -1.9021  2.0855  1.5609
 4777SOL    HW225965   2.939   2.519   5.590 -0.1329  0.0458 -1.9073
 4778SOL     OW25966   4.313   4.244   3.194  0.2717 -0.0140  0.4576
 4778SOL    HW125967   4.290   4.178   3.128  0.3195 -0.9866  1.4059
 4778SOL    HW225968   4.266   4.323   3.166 -0.6160 -1.6642 -2.7675
 4779SOL     OW25969   1.899   1.664   7.293 -0.4557 -0.8410 -0.3068
 4779SOL    HW125970   1.816   1.670   7.340 -2.0677  0.7490 -3.3568
 4779SOL    HW225971   1.901   1.747   7.246  1.9047  0.4857  2.1573
 4780SOL     OW25972   1.892   1.587   1.054  0.2007  0.1806 -0.3212
 4780SOL    HW125973   1.831   1.541   1.113 -0.7899  0.2611 -1.2791
 4780SOL    HW225974   1.842   1.589   0.972  0.9652 -0.5222 -0.8022
 4781SOL     OW25975   1.332   4.273  11.224 -0.1157  0.0005 -0.6997
 4781SOL    HW125976   1.424   4.246  11.214 -0.8082 -2.1557 -1.3640
 4781SOL    HW225977   1.278   4.201  11.189  1.1606 -1.6386  0.6965
 4782SOL     OW25978   0.920   0.285   4.168 -0.0844  0.4554 -0.4382
 4782SOL    HW125979   0.825   0.271   4.172  0.0205 -0.4667 -1.2220
 4782SOL    HW225980   0.947   0.197   4.193  0.2942  0.7106  0.0549
 4783SOL     OW25981   1.457   4.617   4.827 -0.3762  0.3360  0.1926
 4783SOL    HW125982   1.517   4.563   4.775 -0.9297  0.4836 -0.5961
 4783SOL    HW225983   1.460   4.581   4.916 -0.2000  0.3714  0.2013
 4784SOL     OW25984   2.869   2.459   2.494 -0.2197  0.6782  0.2780
 4784SOL    HW125985   2.796   2.405   2.524  1.4217 -1.8834 -0.3532
 4784SOL    HW225986   2.928   2.392   2.460 -0.8569  1.1704 -1.8139
 4785SOL     OW25987   2.049   2.897   2.969 -0.0104 -0.3910 -0.5687
 4785SOL    HW125988   1.967   2.864   3.006 -1.1714  0.9856 -1.8857
 4785SOL    HW225989   2.108   2.840   3.018 -0.7982 -0.9961 -0.3095
 4786SOL     OW25990   2.781   4.268   9.006  0.6032  0.3861 -0.5432
 4786SOL    HW125991   2.716   4.214   8.962 -0.2317  0.9558  0.0015
 4786SOL    HW225992   2.804   4.338   8.944 -0.1602 -1.6636 -3.1531
 4787SOL     OW25993   4.247   4.203   1.197 -0.0137  0.1927  0.4160
 4787SOL    HW125994   4.235   4.289   1.157 -1.6777 -0.1241  0.2525
 4787SOL    HW225995   4.310   4.165   1.135 -1.0940  1.7298 -1.6210
 4788SOL     OW25996   2.734   1.219   6.474 -0.4941 -0.3225 -0.7772
 4788SOL    HW125997   2.704   1.137   6.514  2.0338 -1.1272 -0.5338
 4788SOL    HW225998   2.658   1.245   6.422  1.1593  3.2883 -1.3786
 4789SOL     OW25999   3.547   2.383   3.522 -0.0993 -0.8148 -0.1905
 4789SOL    HW126000   3.640   2.383   3.547  0.8091  0.1720 -3.5794
 4789SOL    HW226001   3.544   2.477   3.506 -1.9555 -0.6307  1.2186
 4790SOL     OW26002   4.113   0.255  13.156  0.7661 -0.0222  0.3807
 4790SOL    HW126003   4.057   0.238  13.232  1.2871  0.6623  0.9149
 4790SOL    HW226004   4.137   0.347  13.163 -1.0935  0.5267 -0.4216
 4791SOL     OW26005   2.746   2.735   5.613  0.5706  0.5756 -0.3281
 4791SOL    HW126006   2.746   2.822   5.652 -2.2685  0.0600  0.8057
 4791SOL    HW226007   2.758   2.676   5.687 -0.4369 -2.1459 -2.3292
 4792SOL     OW26008   2.642   4.316   4.431 -0.3333 -0.7051 -1.0676
 4792SOL    HW126009   2.601   4.401   4.415 -1.8633 -1.0722  0.9061
 4792SOL    HW226010   2.648   4.326   4.526 -0.2704 -1.0481 -1.0330
 4793SOL     OW26011   0.586   3.872   0.680  0.2859  0.5004 -0.1855
 4793SOL    HW126012   0.528   3.805   0.714  2.2601 -0.9463  0.3107
 4793SOL    HW226013   0.525   3.937   0.645 -0.4502  0.2711  0.6812
 4794SOL     OW26014   1.579   0.800  13.660 -0.6688 -0.1744  0.4279
 4794SOL    HW126015   1.657   0.774  13.611  0.2641  0.2242  1.7113
 4794SOL    HW226016   1.568   0.880  13.608  0.1701  0.9858  2.0146
 4795SOL     OW26017   0.406   0.937  12.137 -0.0709 -0.1171  0.0850
 4795SOL    HW126018   0.383   0.865  12.078  2.0158 -0.8234  0.1509
 4795SOL    HW226019   0.369   0.914  12.222 -1.5466  1.5599 -0.0891
 4796SOL     OW26020   0.546   3.666   6.119 -0.0431  0.1664  0.0760
 4796SOL    HW126021   0.485   3.738   6.140 -2.1419 -1.6111  0.1027
 4796SOL    HW226022   0.604   3.667   6.195  0.9772 -0.9344 -0.6941
 4797SOL     OW26023   1.961   2.104   7.618  0.2501  0.2477  0.2633
 4797SOL    HW126024   1.943   2.199   7.620 -0.7822  0.0433  1.1336
 4797SOL    HW226025   1.878   2.076   7.579  0.2994  0.0088  0.3326
 4798SOL     OW26026   1.731   3.479   8.413  0.4311  0.4046 -0.0824
 4798SOL    HW126027   1.805   3.477   8.353  1.4072  2.3421  1.0487
 4798SOL    HW226028   1.770   3.459   8.498 -0.5986 -0.7501  0.1150
 4799SOL     OW26029   2.589   4.019  11.073 -0.1657 -0.0253  0.0938
 4799SOL    HW126030   2.680   4.048  11.085  0.3777 -2.1967  1.1197
 4799SOL    HW226031   2.591   3.951  11.140 -1.9001 -1.6588 -1.5028
 4800SOL     OW26032   3.183   1.413   3.952 -0.2879 -0.1050  0.3320
 4800SOL    HW126033   3.228   1.497   3.962  0.1314 -0.5621  2.3733
 4800SOL    HW226034   3.140   1.406   4.037 -0.3874  1.1770  0.3912
 4801SOL     OW26035   1.327   2.889  17.417 -0.5591  0.2820 -0.0237
 4801SOL    HW126036   1.257   2.835  17.381 -1.3561  1.7337 -0.6817
 4801SOL    HW226037   1.291   2.913  17.502  0.5560  0.8899  0.2822
 4802SOL     OW26038   2.628   0.368   4.243 -0.1877  0.1149 -0.4234
 4802SOL    HW126039   2.579   0.431   4.191  0.2187  1.0674  0.3556
 4802SOL    HW226040   2.717   0.395   4.219 -0.1175  0.2938  0.0398
 4803SOL     OW26041   0.640   0.060   8.658  0.3951  0.3584  0.3077
 4803SOL    HW126042   0.684   0.104   8.585  0.7404 -0.5985 -0.0499
 4803SOL    HW226043   0.567   0.023   8.609  0.4917 -1.3035  1.4166
 4804SOL     OW26044   4.234   2.679   9.254  0.5680  0.2137 -0.1507
 4804SOL    HW126045   4.213   2.598   9.207  1.9519 -0.0527 -0.3013
 4804SOL    HW226046   4.155   2.685   9.307  1.1179  2.4055  0.4501
 4805SOL     OW26047   1.182   3.102   0.611 -0.2214  0.0290  0.6485
 4805SOL    HW126048   1.176   3.148   0.527 -0.7154  2.4212  1.9778
 4805SOL    HW226049   1.090   3.079   0.620  0.2978 -2.3543 -0.2720
 4806SOL     OW26050   0.852   4.547   2.725  0.7376  0.5143 -0.3428
 4806SOL    HW126051   0.775   4.563   2.671  0.4832 -1.8194 -0.6895
 4806SOL    HW226052   0.864   4.453   2.713 -1.2063  0.1324  0.6845
 4807SOL     OW26053   2.337   1.823   8.983  0.3236 -0.0531 -0.7277
 4807SOL    HW126054   2.425   1.840   9.018  0.0967  0.0678 -0.2113
 4807SOL    HW226055   2.304   1.912   8.969 -2.0163 -0.8396 -0.2175
 4808SOL     OW26056   0.436   1.581   4.683  0.2547 -0.1349 -0.3634
 4808SOL    HW126057   0.437   1.656   4.624  1.6423  0.9727  1.0828
 4808SOL    HW226058   0.431   1.616   4.772 -1.1064 -0.2903 -0.3795
 4809SOL     OW26059   0.009   1.567   8.078 -0.0565 -0.5453  0.3242
 4809SOL    HW126060   4.713   1.626   8.145 -0.8339 -0.1640 -0.4056
 4809SOL    HW226061   4.717   1.479   8.097 -0.6081 -0.2848  0.6597
 4810SOL     OW26062   4.462   4.190  17.740 -0.1761 -0.4861  0.0590
 4810SOL    HW126063   4.388   4.169  17.683  0.0859  0.3274 -0.5816
 4810SOL    HW226064   4.422   4.200   0.078 -1.0657 -1.4919 -0.2300
 4811SOL     OW26065   2.582   3.741   1.814 -0.2735 -0.0950  0.1156
 4811SOL    HW126066   2.620   3.815   1.861  1.3965 -1.2573  0.5695
 4811SOL    HW226067   2.641   3.668   1.833  1.4039  0.7534 -1.9690
 4812SOL     OW26068   0.598   1.648  16.405  0.0440  0.1646 -0.1461
 4812SOL    HW126069   0.629   1.570  16.450  0.0412 -0.3628 -1.0577
 4812SOL    HW226070   0.521   1.610  16.362  1.1418 -3.1195  0.8482
 4813SOL     OW26071   0.364   0.137   7.472  0.1523 -0.2234  0.0955
 4813SOL    HW126072   0.451   0.121   7.438 -0.0074 -1.0012  0.0467
 4813SOL    HW226073   0.324   0.134   7.385  0.0758 -1.1262  0.1540
 4814SOL     OW26074   0.734   3.005   9.158 -0.4440 -0.1967 -0.3709
 4814SOL    HW126075   0.646   2.999   9.122 -1.8664  3.1568  2.4927
 4814SOL    HW226076   0.712   3.013   9.251  0.8642  0.8750 -0.1537
 4815SOL     OW26077   4.170   2.405   8.519  0.9758 -0.2397  0.0614
 4815SOL    HW126078   4.136   2.317   8.534  0.8841 -0.0538  0.9184
 4815SOL    HW226079   4.227   2.422   8.594 -0.3643 -3.6236  1.8122
 4816SOL     OW26080   3.127   1.224  14.828 -0.2903 -0.2853 -0.1671
 4816SOL    HW126081   3.145   1.147  14.775  0.9629 -0.0634 -0.0559
 4816SOL    HW226082   3.101   1.284  14.758  2.9402  0.9181 -0.3386
 4817SOL     OW26083   1.558   1.621   5.625 -0.0271  0.3550  0.0937
 4817SOL    HW126084   1.495   1.588   5.689  0.9226 -3.7394 -1.0974
 4817SOL    HW226085   1.562   1.715   5.643  0.1594  0.4940 -0.7107
 4818SOL     OW26086   3.217   0.068   5.197 -0.1639  0.2425  0.4519
 4818SOL    HW126087   3.204   0.159   5.171  1.2640  0.6876  1.3325
 4818SOL    HW226088   3.260   0.034   5.119  0.5430 -3.2524  2.3801
 4819SOL     OW26089   0.608   0.707   4.255 -0.3036  0.1820 -0.3354
 4819SOL    HW126090   0.602   0.800   4.236 -1.9198  0.2876  0.7224
 4819SOL    HW226091   0.638   0.720   4.345  0.2801  2.1902 -0.8157
 4820SOL     OW26092   3.185   3.142   5.588  0.3727  0.1427 -0.2021
 4820SOL    HW126093   3.266   3.118   5.632 -0.2626 -1.1989  0.2511
 4820SOL    HW226094   3.170   3.061   5.539  0.8113  0.0562 -0.1911
 4821SOL     OW26095   2.140   1.111   7.821 -0.2863 -0.1001  0.3627
 4821SOL    HW126096   2.221   1.082   7.780  0.4797  2.3476  0.1647
 4821SOL    HW226097   2.136   1.206   7.826 -0.9918 -0.1083  0.0066
 4822SOL     OW26098   1.622   0.093   2.023 -0.1767  0.0398  0.4201
 4822SOL    HW126099   1.547   0.073   2.079  0.0226 -1.1213  0.2689
 4822SOL    HW226100   1.688   0.076   2.089  0.0648  1.6081  0.5837
 4823SOL     OW26101   3.984   3.629  12.234 -0.9095  0.1383 -0.1820
 4823SOL    HW126102   4.052   3.621  12.168 -0.7154 -1.3191  0.2018
 4823SOL    HW226103   3.979   3.722  12.257 -0.1664  0.5598 -1.7303
 4824SOL     OW26104   2.718   0.541   2.615 -0.2360  0.1157 -0.1516
 4824SOL    HW126105   2.698   0.487   2.691  0.7439  0.1956  0.1689
 4824SOL    HW226106   2.803   0.578   2.642  1.8624 -3.3329 -2.1842
 4825SOL     OW26107   0.105   3.984  14.850  0.0942  0.3509 -0.3711
 4825SOL    HW126108   0.123   3.895  14.880  1.3446  0.7539  0.0866
 4825SOL    HW226109   0.062   4.023  14.926  2.9441 -1.1141  1.9677
 4826SOL     OW26110   4.499   3.553   8.999  0.6674 -0.0635  0.0676
 4826SOL    HW126111   4.476   3.544   9.091 -1.2859  2.8722 -0.1553
 4826SOL    HW226112   4.431   3.610   8.963 -0.1865 -1.8525 -1.1714
 4827SOL     OW26113   0.795   3.650   5.923  0.1412  0.0620 -0.0385
 4827SOL    HW126114   0.719   3.667   5.979 -0.5048 -1.1638 -0.5472
 4827SOL    HW226115   0.807   3.742   5.901  1.1406  0.5238  2.4554
 4828SOL     OW26116   3.788   0.898   7.508  0.2125  0.2581  0.0052
 4828SOL    HW126117   3.840   0.836   7.456 -3.7048 -0.1812 -3.3212
 4828SOL    HW226118   3.776   0.841   7.584 -0.2411 -1.6868 -1.5358
 4829SOL     OW26119   2.197   3.881  15.563 -0.8388  0.0928  0.8485
 4829SOL    HW126120   2.127   3.827  15.600 -1.3749  0.5041  0.4176
 4829SOL    HW226121   2.231   3.913  15.647  0.5750  1.5141 -0.2726
 4830SOL     OW26122   3.661   1.731   4.362  0.0947  0.3463  0.1421
 4830SOL    HW126123   3.604   1.779   4.421  2.3348  3.4453 -0.2475
 4830SOL    HW226124   3.603   1.660   4.332  2.2092 -1.8419  1.1963
 4831SOL     OW26125   4.367   0.279   7.337 -0.1930 -0.3373  0.3428
 4831SOL    HW126126   4.424   0.279   7.414 -0.8345  1.5506  0.8145
 4831SOL    HW226127   4.294   0.221   7.359 -2.7441  2.8357  0.1570
 4832SOL     OW26128   1.622   0.275  17.412  0.3181 -0.5809 -0.6614
 4832SOL    HW126129   1.587   0.217  17.480  0.9124 -1.1156 -0.8154
 4832SOL    HW226130   1.618   0.226  17.329  0.2044 -2.0883  0.2376
 4833SOL     OW26131   4.540   3.155   7.643  0.5312  0.3083  0.2715
 4833SOL    HW126132   4.602   3.218   7.607  0.9359 -0.0340  0.3672
 4833SOL    HW226133   4.542   3.180   7.735  0.7962  0.0992  0.3235
 4834SOL     OW26134   4.045   3.835   2.064 -0.6570  0.0830 -0.4802
 4834SOL    HW126135   4.082   3.770   2.124 -0.4245  2.2647  1.7254
 4834SOL    HW226136   4.112   3.902   2.058 -2.6315  2.0618 -0.2946
 4835SOL     OW26137   0.408   0.007   4.903  0.5994 -0.4318 -0.8397
 4835SOL    HW126138   0.341   4.715   4.965  0.3695 -0.6867 -1.2069
 4835SOL    HW226139   0.462   4.665   4.899  3.6653  1.5642  1.3814
 4836SOL     OW26140   3.143   4.183  11.558  0.6694 -0.4912 -0.2518
 4836SOL    HW126141   3.150   4.229  11.475 -0.0636 -1.5278 -0.8747
 4836SOL    HW226142   3.222   4.130  11.551  1.1933  0.3619 -0.7734
 4837SOL     OW26143   0.687   4.728   4.005  0.2448 -0.0759  0.6043
 4837SOL    HW126144   0.634   4.735   3.926 -0.4724 -2.1651  0.8867
 4837SOL    HW226145   0.758   4.665   3.989  1.8658  2.0007 -0.3565
 4838SOL     OW26146   0.926   1.542   8.020 -0.1375  0.1354  0.3603
 4838SOL    HW126147   0.994   1.598   7.982  0.3454 -1.1718 -0.7022
 4838SOL    HW226148   0.891   1.493   7.945 -0.8261  0.0622  0.7306
 4839SOL     OW26149   3.625   1.676   1.412 -0.2388 -0.1415 -0.0843
 4839SOL    HW126150   3.630   1.754   1.468 -1.0721  0.2185 -0.5045
 4839SOL    HW226151   3.548   1.628   1.445  1.6552 -1.1875  2.8178
 4840SOL     OW26152   3.738   0.402  12.962 -0.4973  0.2037 -0.4019
 4840SOL    HW126153   3.711   0.488  12.929  0.2209 -0.3826 -2.4938
 4840SOL    HW226154   3.668   0.347  12.928 -0.9180  0.2256  0.4356
 4841SOL     OW26155   0.471   3.623   1.842  0.0963 -0.0636  0.3360
 4841SOL    HW126156   0.415   3.687   1.799 -0.0305  1.9454  3.4337
 4841SOL    HW226157   0.542   3.682   1.866 -0.1169 -0.3123  1.5874
 4842SOL     OW26158   4.077   2.685   5.880 -0.5966 -0.5153 -0.2597
 4842SOL    HW126159   4.093   2.733   5.798  0.6128  0.6395  0.6607
 4842SOL    HW226160   3.981   2.691   5.885 -0.5019  0.2251  0.6193
 4843SOL     OW26161   4.026   1.544   4.384 -0.3599  0.0240 -0.8927
 4843SOL    HW126162   4.121   1.533   4.381 -0.2303 -0.7463  5.1909
 4843SOL    HW226163   4.004   1.477   4.449 -0.1433  1.0836  0.2554
 4844SOL     OW26164   4.086   2.707   8.539 -0.2754 -0.1364 -0.7588
 4844SOL    HW126165   4.130   2.742   8.616 -1.0777  0.0443 -0.3839
 4844SOL    HW226166   4.162   2.665   8.499  0.3515  2.2018 -2.0069
 4845SOL     OW26167   3.053   2.242   9.499  0.4181  0.3819 -0.1044
 4845SOL    HW126168   2.973   2.249   9.446 -1.9149 -0.7577  3.2952
 4845SOL    HW226169   3.126   2.221   9.440 -0.1700  0.3553 -0.8289
 4846SOL     OW26170   3.999   2.476   5.152 -0.1219 -0.4091 -0.8438
 4846SOL    HW126171   4.038   2.562   5.137  0.9423 -0.8307 -0.4671
 4846SOL    HW226172   3.904   2.486   5.145 -0.4082 -1.2986  1.8893
 4847SOL     OW26173   0.774   4.032   7.883 -0.5211  0.0860  0.3391
 4847SOL    HW126174   0.865   4.037   7.854  0.1289  1.3706  2.6633
 4847SOL    HW226175   0.761   3.940   7.903 -1.1560  0.2136  0.5150
 4848SOL     OW26176   3.191   0.488   1.219  0.7301 -0.2194  0.8796
 4848SOL    HW126177   3.162   0.579   1.206  0.7774 -0.4916 -1.1066
 4848SOL    HW226178   3.230   0.494   1.306 -0.6681 -2.4809  1.6656
 4849SOL     OW26179   1.555   1.507   8.581 -0.3648 -0.1043 -0.0992
 4849SOL    HW126180   1.634   1.558   8.570 -1.3148  1.2158 -0.7800
 4849SOL    HW226181   1.543   1.467   8.495 -1.4650 -0.5903  0.2699
 4850SOL     OW26182   0.315   2.451   7.294 -0.6157 -0.1076 -0.4566
 4850SOL    HW126183   0.255   2.525   7.278 -1.8164 -1.7718 -3.6809
 4850SOL    HW226184   0.261   2.384   7.253 -1.0522  0.3012 -0.5572
 4851SOL     OW26185   0.406   1.958  12.092  0.3140 -0.5428 -0.2513
 4851SOL    HW126186   0.373   1.941  12.180  0.1838 -0.6061 -0.3113
 4851SOL    HW226187   0.501   1.955  12.093  0.2785 -1.7694 -0.5881
 4852SOL     OW26188   0.321   1.105  14.148 -0.5237 -0.1722  0.2623
 4852SOL    HW126189   0.314   1.131  14.240 -0.4447  0.0018  0.2191
 4852SOL    HW226190   0.230   1.107  14.121 -0.4147 -1.2294 -0.1666
 4853SOL     OW26191   2.513   1.842   3.544 -0.7393  1.0717 -0.0149
 4853SOL    HW126192   2.556   1.792   3.613 -2.2842 -0.1684  0.0338
 4853SOL    HW226193   2.519   1.933   3.575 -0.1048 -0.1184  3.3119
 4854SOL     OW26194   3.690   2.987  10.218  0.2124 -0.1570  0.8312
 4854SOL    HW126195   3.758   2.968  10.282  0.9628  1.0416  0.3861
 4854SOL    HW226196   3.728   3.055  10.162 -1.3569  1.5760  1.8829
 4855SOL     OW26197   3.648   1.907   8.100 -0.3660 -0.1901  0.0231
 4855SOL    HW126198   3.738   1.932   8.079 -0.1068 -0.7277  0.5261
 4855SOL    HW226199   3.614   1.996   8.114  0.1196 -0.1425  0.8803
 4856SOL     OW26200   3.974   0.245   0.510  0.1180 -0.0089 -0.3623
 4856SOL    HW126201   4.066   0.262   0.532 -0.5545  0.5798  1.9632
 4856SOL    HW226202   3.988   0.227   0.417 -0.0398  0.6827 -0.5189
 4857SOL     OW26203   0.374   3.898   7.614 -0.0975 -0.4134 -0.8183
 4857SOL    HW126204   0.383   3.935   7.701 -1.6904 -1.2233 -0.3097
 4857SOL    HW226205   0.335   3.971   7.566 -0.0286  0.4204  0.3998
 4858SOL     OW26206   0.295   1.625   1.049 -0.1722  0.5173  0.0971
 4858SOL    HW126207   0.295   1.664   1.136  0.1239 -1.9875  1.2062
 4858SOL    HW226208   0.201   1.622   1.035 -0.1091  2.5024 -0.7118
 4859SOL     OW26209   4.031   4.008   1.729  0.7260 -0.0612 -0.2860
 4859SOL    HW126210   4.012   3.935   1.671 -0.1384 -2.5327  3.0978
 4859SOL    HW226211   4.052   4.075   1.665  2.6625 -0.3004  0.0779
 4860SOL     OW26212   1.538   2.320   4.892 -0.0506  0.0001  0.1763
 4860SOL    HW126213   1.488   2.401   4.885 -1.2308 -0.7470 -0.0841
 4860SOL    HW226214   1.483   2.253   4.850 -0.8921  0.3721  0.7086
 4861SOL     OW26215   2.135   2.590  14.097  0.5050 -0.1117  0.0801
 4861SOL    HW126216   2.086   2.654  14.045  0.7892 -0.0100 -0.0616
 4861SOL    HW226217   2.174   2.638  14.169 -0.7251 -0.1502  0.7702
 4862SOL     OW26218   1.209   2.588   1.821 -0.2178 -0.2433  0.5214
 4862SOL    HW126219   1.265   2.547   1.887 -0.6628 -1.6044  0.0602
 4862SOL    HW226220   1.121   2.592   1.859 -0.5337 -1.1908 -0.1109
 4863SOL     OW26221   1.773   1.056   4.061 -0.3346  0.1062 -0.8061
 4863SOL    HW126222   1.682   1.081   4.078 -0.6124 -2.2995  1.3083
 4863SOL    HW226223   1.820   1.133   4.093 -0.7490  0.4008 -0.8974
 4864SOL     OW26224   2.859   4.208   1.983 -0.1298  0.0362 -0.0304
 4864SOL    HW126225   2.900   4.122   1.985 -0.2345 -0.0093  0.1638
 4864SOL    HW226226   2.781   4.196   2.036 -0.5651 -0.6880 -0.8183
 4865SOL     OW26227   1.017   0.562   7.192 -0.0557 -0.0584 -0.0983
 4865SOL    HW126228   0.927   0.531   7.183 -1.2019  3.0062  0.7651
 4865SOL    HW226229   1.015   0.635   7.254 -1.2596 -0.9304  0.8683
 4866SOL     OW26230   3.034   2.542   9.214 -0.2382  0.5819  0.1836
 4866SOL    HW126231   3.016   2.593   9.293  2.7084  0.3425  0.9780
 4866SOL    HW226232   3.079   2.604   9.157  2.2723 -1.4129  0.0226
 4867SOL     OW26233   0.729   1.675   4.238 -0.3825 -0.5730 -0.1605
 4867SOL    HW126234   0.649   1.668   4.290  0.1810 -0.4912  0.7082
 4867SOL    HW226235   0.688   1.677   4.152 -0.3476 -0.8097 -0.1824
 4868SOL     OW26236   0.441   2.892   5.449  0.2284  0.0269 -0.2581
 4868SOL    HW126237   0.472   2.811   5.408 -0.7242 -0.1930 -0.5416
 4868SOL    HW226238   0.464   2.872   5.540  2.6073  1.2606 -0.5812
 4869SOL     OW26239   0.522   1.266   8.683  0.2635 -0.0628  0.0628
 4869SOL    HW126240   0.578   1.256   8.606  0.0954  0.8633 -0.1774
 4869SOL    HW226241   0.539   1.186   8.733 -1.2150  0.8137  1.9767
 4870SOL     OW26242   4.164   0.636   4.687 -0.3648 -0.3108  0.3523
 4870SOL    HW126243   4.141   0.551   4.724 -2.2526  0.1183  0.1499
 4870SOL    HW226244   4.117   0.639   4.604  0.4124 -0.2868 -0.0917
 4871SOL     OW26245   2.012   3.003   7.956 -0.0453  0.1649  0.6627
 4871SOL    HW126246   2.092   3.022   7.907 -2.3423  1.8973 -2.4722
 4871SOL    HW226247   2.052   2.936   8.011 -0.5562  0.5912  1.5406
 4872SOL     OW26248   1.534   3.531   8.818 -0.2166  0.2354 -0.2997
 4872SOL    HW126249   1.572   3.470   8.754  0.3400 -1.3823  1.5574
 4872SOL    HW226250   1.547   3.615   8.775 -0.3650  1.1977  1.5585
 4873SOL     OW26251   1.237   1.413  10.959 -0.1020  0.4702 -0.3010
 4873SOL    HW126252   1.261   1.436  11.049  0.2944  0.3075 -0.3651
 4873SOL    HW226253   1.157   1.465  10.953 -2.1383 -2.6452  0.0058
 4874SOL     OW26254   3.382   4.208  17.236 -0.0503 -0.5448  0.3434
 4874SOL    HW126255   3.393   4.114  17.251 -1.6593 -0.9361 -0.9785
 4874SOL    HW226256   3.327   4.211  17.157 -0.7116 -3.2124  0.6858
 4875SOL     OW26257   2.330   0.868   8.383  0.1479 -0.2199 -0.2797
 4875SOL    HW126258   2.365   0.825   8.461 -0.2213  1.7319  0.9737
 4875SOL    HW226259   2.320   0.960   8.409  0.1620 -0.6863  1.3366
 4876SOL     OW26260   4.650   0.669   5.798  0.3441 -0.3289 -0.2896
 4876SOL    HW126261   4.571   0.616   5.810 -2.0774  3.4321  0.1151
 4876SOL    HW226262   4.663   0.693   5.890 -1.9153 -3.1965  0.7704
 4877SOL     OW26263   4.199   1.648   6.443  0.6039  0.1622 -0.1843
 4877SOL    HW126264   4.209   1.634   6.349  0.5185 -0.6818 -0.0696
 4877SOL    HW226265   4.242   1.565   6.464  0.8364 -0.3581 -2.7493
 4878SOL     OW26266   0.548   3.126   2.924  0.1608  0.2191  0.0188
 4878SOL    HW126267   0.547   3.187   2.851  1.6056  0.6019  0.3095
 4878SOL    HW226268   0.474   3.160   2.973 -0.9792  0.7496 -2.0763
 4879SOL     OW26269   1.587   0.305   4.230  0.5431 -0.0298 -0.4609
 4879SOL    HW126270   1.518   0.365   4.201  0.7183  0.3693 -0.0647
 4879SOL    HW226271   1.579   0.322   4.324  0.0124 -0.7550 -0.3734
 4880SOL     OW26272   3.138   1.446   7.065  0.7034 -0.2380 -0.3010
 4880SOL    HW126273   3.143   1.403   7.150 -1.8400 -2.6626 -1.3773
 4880SOL    HW226274   3.045   1.469   7.057  1.1517  1.6951  0.1997
 4881SOL     OW26275   4.315   0.368   8.539 -0.2448  0.0499  0.0607
 4881SOL    HW126276   4.286   0.409   8.458  0.0347 -0.3888 -0.2649
 4881SOL    HW226277   4.309   0.275   8.514  0.4864 -0.3251  1.2948
 4882SOL     OW26278   2.688   1.753   2.640  0.1265  0.1732 -0.2006
 4882SOL    HW126279   2.740   1.769   2.719  0.0256 -0.9820  0.1007
 4882SOL    HW226280   2.727   1.670   2.610 -0.1615  0.5887 -1.6957
 4883SOL     OW26281   0.186   0.674   7.865 -0.1744  0.0121 -0.1554
 4883SOL    HW126282   0.223   0.631   7.942 -1.2049 -0.2006  0.2159
 4883SOL    HW226283   0.202   0.765   7.888  0.1595  0.2931 -1.4810
 4884SOL     OW26284   3.002   1.914   7.992  0.4773  0.2107 -0.0664
 4884SOL    HW126285   2.942   1.974   7.948 -0.1122 -0.3302 -0.0010
 4884SOL    HW226286   3.090   1.940   7.963  0.9800 -1.8862 -0.4243
 4885SOL     OW26287   0.449   2.067   4.967 -0.4669 -0.6776 -0.4747
 4885SOL    HW126288   0.483   2.028   5.047  2.8563  2.0610 -0.5529
 4885SOL    HW226289   0.363   2.099   4.995 -0.8689 -1.7577 -0.4884
 4886SOL     OW26290   4.663   3.454   3.801 -0.5773  0.6298 -0.1036
 4886SOL    HW126291   4.662   3.409   3.885  2.4598  0.7816  0.0222
 4886SOL    HW226292   4.702   3.537   3.829 -0.8360  0.0174  2.0826
 4887SOL     OW26293   3.990   0.179   0.244 -0.5935  0.1392  0.3949
 4887SOL    HW126294   4.006   0.086   0.231 -0.0601 -0.2379  3.7644
 4887SOL    HW226295   3.895   0.169   0.244 -0.7153  1.1944 -1.2523
 4888SOL     OW26296   1.325   2.100   2.278  0.6101 -0.3119 -0.7122
 4888SOL    HW126297   1.248   2.080   2.330  0.1162 -1.1230 -1.7409
 4888SOL    HW226298   1.368   2.171   2.326 -1.1048 -0.0216  0.3688
 4889SOL     OW26299   2.425   2.171   5.374 -0.3894  0.0429 -0.9356
 4889SOL    HW126300   2.427   2.179   5.278 -0.0332 -1.5017 -1.0531
 4889SOL    HW226301   2.463   2.253   5.405  1.0495 -0.1582 -2.1729
 4890SOL     OW26302   1.247   0.790   1.864  0.3632 -0.1638  0.2623
 4890SOL    HW126303   1.258   0.773   1.770 -0.6765 -4.4190  0.9264
 4890SOL    HW226304   1.283   0.707   1.895 -0.5155 -0.1710  1.2296
 4891SOL     OW26305   4.352   2.278  11.032  0.2490  0.3730 -0.0397
 4891SOL    HW126306   4.294   2.208  11.002 -1.0899  1.6956 -0.5249
 4891SOL    HW226307   4.301   2.315  11.103  1.9933  1.1758  0.7953
 4892SOL     OW26308   1.926   1.684   3.370 -0.2585  0.6630  0.0411
 4892SOL    HW126309   2.000   1.742   3.351 -0.1577  0.7086  0.5690
 4892SOL    HW226310   1.848   1.728   3.336 -1.4655 -0.4175  1.4233
 4893SOL     OW26311   3.502   0.749  10.313  0.0105 -0.3939  0.0453
 4893SOL    HW126312   3.516   0.669  10.262 -1.9870 -0.7949  0.1275
 4893SOL    HW226313   3.407   0.748  10.320  0.2116 -2.3016  2.2174
 4894SOL     OW26314   3.516   0.237   5.442  0.0393  0.3855 -0.0699
 4894SOL    HW126315   3.608   0.242   5.465 -0.1430 -0.2684  0.7927
 4894SOL    HW226316   3.530   0.275   5.355  1.7734  1.8356  0.8277
 4895SOL     OW26317   3.702   2.097   2.935 -0.4812 -0.1139  0.2120
 4895SOL    HW126318   3.685   2.025   2.996  0.1166 -0.2045  0.2682
 4895SOL    HW226319   3.769   2.054   2.882  0.9948  1.9597  0.4367
 4896SOL     OW26320   2.529   0.671   1.303  0.2001 -0.0751 -0.2082
 4896SOL    HW126321   2.591   0.609   1.339 -1.2564 -2.1112 -1.2082
 4896SOL    HW226322   2.447   0.624   1.323  1.0744 -0.8542  1.5293
 4897SOL     OW26323   1.677   2.931  17.672 -0.0061  0.4065 -0.0255
 4897SOL    HW126324   1.697   2.863  17.607  1.7153  1.0673 -0.1745
 4897SOL    HW226325   1.751   2.918  17.731 -0.0582  0.0395 -0.0382
 4898SOL     OW26326   2.053   1.381   3.811 -0.0385 -0.2406  0.1275
 4898SOL    HW126327   2.093   1.424   3.735 -3.1829  0.9465 -0.8691
 4898SOL    HW226328   1.993   1.316   3.773  0.7902  0.6868 -2.7367
 4899SOL     OW26329   2.387   1.500   3.254 -0.3832 -0.2287  0.0550
 4899SOL    HW126330   2.292   1.490   3.262 -0.4629  1.2547  1.0402
 4899SOL    HW226331   2.407   1.439   3.184 -0.4915 -2.6498  2.1382
 4900SOL     OW26332   3.729   2.516   8.272 -0.0999 -0.1860  0.0420
 4900SOL    HW126333   3.783   2.454   8.223  0.4209 -1.2556  1.9463
 4900SOL    HW226334   3.780   2.532   8.352 -1.7860 -0.8713  1.2524
 4901SOL     OW26335   0.875   4.352   6.087  0.0292 -0.1051 -0.5709
 4901SOL    HW126336   0.950   4.406   6.111 -0.5091  1.0346 -1.4609
 4901SOL    HW226337   0.810   4.409   6.128  0.2263 -0.2633 -0.0458
 4902SOL     OW26338   1.049   3.994  14.936 -0.4181 -0.3094  0.0294
 4902SOL    HW126339   1.007   3.959  14.857 -1.0346 -1.9792  1.0976
 4902SOL    HW226340   1.064   3.915  14.989 -1.9068 -2.5195 -2.8266
 4903SOL     OW26341   4.139   0.636  10.075  0.0927 -0.1632 -0.2565
 4903SOL    HW126342   4.170   0.558  10.122 -0.5174 -0.1711  0.1398
 4903SOL    HW226343   4.222   0.679  10.054 -0.7719  0.6347 -2.0366
 4904SOL     OW26344   1.798   4.140  17.000  0.2148  0.0987  0.1050
 4904SOL    HW126345   1.821   4.067  17.057  0.6273  0.7491  0.7804
 4904SOL    HW226346   1.862   4.122  16.930  1.2511  0.7111  0.8896
 4905SOL     OW26347   0.530   1.690   7.079  0.1026 -0.1530  0.3987
 4905SOL    HW126348   0.581   1.689   7.160  1.5836 -0.6665 -0.5400
 4905SOL    HW226349   0.533   1.597   7.056 -0.4271  0.1519 -0.9027
 4906SOL     OW26350   1.666   0.207   2.574  0.1190  0.3028 -1.0181
 4906SOL    HW126351   1.592   0.151   2.598  0.1377  1.1114  0.9403
 4906SOL    HW226352   1.737   0.143   2.571  2.7040  3.0182  1.4040
 4907SOL     OW26353   0.990   3.194   5.736  0.2044  0.1712 -0.3292
 4907SOL    HW126354   0.921   3.259   5.722  1.5195  1.4909 -0.6721
 4907SOL    HW226355   1.044   3.241   5.800 -1.2594  0.0543  0.9954
 4908SOL     OW26356   2.730   0.585   4.440  0.0677 -0.4278 -0.6891
 4908SOL    HW126357   2.817   0.621   4.428 -0.2263  0.5876  0.2387
 4908SOL    HW226358   2.744   0.506   4.388  0.2148 -0.1882 -1.0169
 4909SOL     OW26359   4.062   2.730   1.174  0.1102  0.3002 -0.1653
 4909SOL    HW126360   4.058   2.812   1.124 -0.7604  0.5891  0.3732
 4909SOL    HW226361   3.984   2.742   1.229 -0.6501 -0.1203 -1.1338
 4910SOL     OW26362   4.226   4.556  13.753  0.2593 -0.5447 -0.7093
 4910SOL    HW126363   4.313   4.594  13.749  0.3749 -0.9844 -2.2173
 4910SOL    HW226364   4.190   4.617  13.817  1.3291 -1.2826  0.5774
 4911SOL     OW26365   3.863   0.530   5.291 -0.5347  0.3073 -0.1389
 4911SOL    HW126366   3.837   0.438   5.284  1.3764 -0.3408  1.2461
 4911SOL    HW226367   3.882   0.553   5.201 -1.7626  2.0076  0.0335
 4912SOL     OW26368   4.662   1.286   6.785 -0.3539 -0.0577 -0.4640
 4912SOL    HW126369   4.586   1.229   6.773 -0.7870  0.3414  0.4309
 4912SOL    HW226370   4.676   1.301   6.691 -1.8938  0.0447 -0.6719
 4913SOL     OW26371   2.990   0.297   1.202 -0.0483  0.3600  0.0117
 4913SOL    HW126372   2.949   0.244   1.133  3.5664  0.3839 -2.1872
 4913SOL    HW226373   3.042   0.353   1.144  2.8552 -2.0172  0.2858
 4914SOL     OW26374   3.485   1.626   5.144  0.5547 -0.3368 -0.0339
 4914SOL    HW126375   3.552   1.665   5.199  0.2042  0.0839  0.0943
 4914SOL    HW226376   3.425   1.696   5.119  1.1490  0.1252 -0.1645
 4915SOL     OW26377   1.998   4.381  15.467  0.0029 -0.0222  0.1312
 4915SOL    HW126378   1.906   4.397  15.485  0.0265  1.6606 -1.1809
 4915SOL    HW226379   1.989   4.292  15.434 -1.3157 -0.0061  0.4849
 4916SOL     OW26380   0.320   2.970   2.710 -0.3825  0.1645 -0.0201
 4916SOL    HW126381   0.287   3.049   2.753 -0.3321 -0.8077  1.7819
 4916SOL    HW226382   0.360   2.922   2.782  1.4787 -0.3229 -1.3774
 4917SOL     OW26383   4.494   3.392  15.019  0.0831 -0.2072 -0.0658
 4917SOL    HW126384   4.528   3.354  15.100 -0.1828  1.0690  0.6297
 4917SOL    HW226385   4.405   3.357  15.030  0.0182  0.4113  1.3687
 4918SOL     OW26386   2.644   4.149   5.411  0.0157 -0.1692  0.7983
 4918SOL    HW126387   2.602   4.235   5.408 -1.5149 -1.0357 -1.6846
 4918SOL    HW226388   2.736   4.171   5.429  0.0205 -0.0875  0.6742
 4919SOL     OW26389   1.032   3.586   2.826 -0.0112  1.1071  0.0428
 4919SOL    HW126390   1.009   3.558   2.915  0.6936  0.1549 -0.0780
 4919SOL    HW226391   1.125   3.603   2.844 -0.8887  2.1341  3.5470
 4920SOL     OW26392   3.923   1.447   4.160  0.0838 -0.1577  0.5528
 4920SOL    HW126393   3.950   1.483   4.245 -0.7218 -1.4258  1.3391
 4920SOL    HW226394   3.830   1.462   4.146  0.5811  3.9187  1.5913
 4921SOL     OW26395   0.080   4.479  15.848 -0.0633  0.2859 -1.2347
 4921SOL    HW126396   0.019   4.491  15.921  2.6473  0.2726  1.0259
 4921SOL    HW226397   0.159   4.472  15.900 -0.3685  1.4285 -0.6281
 4922SOL     OW26398   3.741   0.172   4.048 -0.6528 -0.2803  0.0424
 4922SOL    HW126399   3.826   0.158   4.005 -2.1459 -3.2426 -1.8946
 4922SOL    HW226400   3.691   0.171   3.966  0.3648  2.9343 -0.6523
 4923SOL     OW26401   0.261   3.907   5.207  0.3718 -0.6854 -0.6528
 4923SOL    HW126402   0.348   3.934   5.235 -1.1384  1.7316  1.7203
 4923SOL    HW226403   0.206   3.955   5.269  1.5578 -0.6095  0.3297
 4924SOL     OW26404   0.593   2.222  13.745  0.0701 -0.2596 -0.6856
 4924SOL    HW126405   0.561   2.195  13.659  1.2649 -3.3389 -0.1709
 4924SOL    HW226406   0.683   2.191  13.740  0.2097  0.2308 -1.2279
 4925SOL     OW26407   3.911   3.996  16.887 -0.2679  0.4426 -0.1479
 4925SOL    HW126408   3.980   3.943  16.847  0.3601  0.0658  1.3969
 4925SOL    HW226409   3.935   4.080  16.847 -0.8394  1.5234  1.7589
 4926SOL     OW26410   2.681   4.729   7.644 -0.1042  0.3323 -0.5738
 4926SOL    HW126411   2.627   4.650   7.638 -0.2707  0.3176  1.1887
 4926SOL    HW226412   2.710   4.724   7.553 -1.3620 -1.1117 -0.8791
 4927SOL     OW26413   4.485   0.654   7.793  0.0753  0.4430 -0.1268
 4927SOL    HW126414   4.569   0.658   7.746  0.4243  0.7312  0.5326
 4927SOL    HW226415   4.436   0.691   7.720  1.6854  2.9000  0.0400
 4928SOL     OW26416   2.143   1.374   7.632  0.6274 -0.8733  0.3651
 4928SOL    HW126417   2.054   1.347   7.609  0.6459 -0.2400 -0.4327
 4928SOL    HW226418   2.133   1.461   7.595  0.7064 -1.6126 -1.3985
 4929SOL     OW26419   1.674   0.620   0.913 -0.7406  0.4154  0.4795
 4929SOL    HW126420   1.732   0.697   0.906 -0.4177 -0.0132 -1.5951
 4929SOL    HW226421   1.644   0.608   0.823 -3.1560 -1.0332  1.5040
 4930SOL     OW26422   0.311   4.336   6.787 -0.2301 -0.0067 -0.1166
 4930SOL    HW126423   0.344   4.277   6.719  0.3155  1.9778 -1.5928
 4930SOL    HW226424   0.267   4.405   6.736  0.0479  0.2941  0.0464
 4931SOL     OW26425   4.062   1.295  10.113 -0.0794 -0.0401 -1.0914
 4931SOL    HW126426   4.081   1.250  10.195 -0.9823  0.2408 -0.7215
 4931SOL    HW226427   3.999   1.364  10.133  1.9435  0.9547  1.6636
 4932SOL     OW26428   0.066   1.680  14.671 -0.0557 -0.1220  0.2347
 4932SOL    HW126429   4.732   1.717  14.620 -0.0058 -0.0660  0.2054
 4932SOL    HW226430   0.111   1.641  14.595  2.7515 -0.4528  2.0559
 4933SOL     OW26431   4.728   2.504   6.089 -0.2438 -0.4978  0.6982
 4933SOL    HW126432   4.639   2.516   6.056  1.6382  0.6286 -4.0524
 4933SOL    HW226433   0.031   2.495   6.002 -0.4932  0.3588  0.4913
 4934SOL     OW26434   2.559   1.632   1.379 -0.1366  0.1763  0.5066
 4934SOL    HW126435   2.488   1.568   1.384 -0.2970  0.2495 -0.8706
 4934SOL    HW226436   2.640   1.591   1.409 -0.0127 -0.8930 -1.3101
 4935SOL     OW26437   3.819   0.440   6.936  0.0838 -0.3298 -1.0098
 4935SOL    HW126438   3.777   0.474   7.015 -0.3291  2.6332 -2.5055
 4935SOL    HW226439   3.753   0.465   6.871 -0.7973  2.2889  0.8945
 4936SOL     OW26440   1.606   4.491   4.293 -0.0499 -0.4184 -0.5171
 4936SOL    HW126441   1.662   4.471   4.218 -1.0804  1.6028 -1.8471
 4936SOL    HW226442   1.612   4.587   4.288 -1.3003 -0.3930 -1.3582
 4937SOL     OW26443   2.846   4.406  15.931 -0.3489  0.6446  0.4596
 4937SOL    HW126444   2.822   4.497  15.919  2.3748  1.6473  2.5776
 4937SOL    HW226445   2.941   4.406  15.943 -0.2725 -2.8367  0.0365
 4938SOL     OW26446   3.622   2.928   9.823  0.5526 -0.0054 -0.0795
 4938SOL    HW126447   3.600   2.935   9.730  2.5578  0.1593 -0.5439
 4938SOL    HW226448   3.678   3.006   9.822 -1.5966  1.5218  0.1998
 4939SOL     OW26449   1.217   0.724  12.963 -0.6384 -0.5397 -0.5289
 4939SOL    HW126450   1.300   0.770  12.976 -0.3896 -0.9247 -0.7611
 4939SOL    HW226451   1.163   0.769  13.028 -0.3071 -0.2448 -0.4549
 4940SOL     OW26452   3.978   1.737   5.034  0.0049  0.5500 -0.0269
 4940SOL    HW126453   4.014   1.688   5.107 -4.1505 -2.1524  0.2094
 4940SOL    HW226454   4.029   1.817   5.021 -0.1492  0.4124 -1.4705
 4941SOL     OW26455   1.647   1.487  16.110  0.2609 -0.2559  0.3727
 4941SOL    HW126456   1.554   1.476  16.095  0.8886  1.6891 -5.1422
 4941SOL    HW226457   1.665   1.412  16.166 -2.3511 -0.0508  1.4686
 4942SOL     OW26458   2.334   1.411  14.146 -0.0271  0.3198  0.1805
 4942SOL    HW126459   2.324   1.317  14.160 -1.2761  0.7586  2.2532
 4942SOL    HW226460   2.246   1.437  14.120  1.1448  1.1329 -2.9636
 4943SOL     OW26461   2.663   1.676   3.728 -1.0268 -0.2444 -0.0446
 4943SOL    HW126462   2.711   1.607   3.682  0.4470 -0.1551  1.3442
 4943SOL    HW226463   2.596   1.628   3.776 -0.0608 -0.7631  0.7880
 4944SOL     OW26464   4.707   0.140  14.508 -0.3335 -0.4921  0.3103
 4944SOL    HW126465   4.625   0.135  14.459  0.4747 -0.2264 -1.0806
 4944SOL    HW226466   4.710   0.049  14.537  2.0747 -0.7039 -0.6167
 4945SOL     OW26467   0.690   1.660   9.178 -0.0806  0.6896  0.3231
 4945SOL    HW126468   0.722   1.608   9.104 -0.8299  1.2921 -0.4274
 4945SOL    HW226469   0.633   1.600   9.227  1.3374 -0.2809  0.8006
 4946SOL     OW26470   2.707   3.296  16.170 -0.4721  0.0345 -0.0200
 4946SOL    HW126471   2.685   3.337  16.086 -0.8462 -0.8195 -0.3386
 4946SOL    HW226472   2.747   3.374  16.208  0.2548  0.4400 -1.5929
 4947SOL     OW26473   4.597   2.913  14.170  0.3070 -0.0982  0.7532
 4947SOL    HW126474   4.676   2.944  14.214  1.6924 -1.3402 -0.8430
 4947SOL    HW226475   4.575   2.839  14.226 -0.2286 -0.9730 -0.6107
 4948SOL     OW26476   1.107   2.134   2.589  0.6943  0.5179 -0.1791
 4948SOL    HW126477   1.103   2.114   2.496 -0.4048  1.1236 -0.2664
 4948SOL    HW226478   1.137   2.045   2.611  1.8327  1.0646  0.5144
 4949SOL     OW26479   1.977   2.388  17.260  0.1171  0.5292  0.1029
 4949SOL    HW126480   1.948   2.311  17.211 -1.8142  1.3491 -0.0167
 4949SOL    HW226481   2.063   2.352  17.282 -0.3250 -0.5271  0.1227
 4950SOL     OW26482   0.182   1.643   7.730  0.1662 -0.0213 -0.2012
 4950SOL    HW126483   0.197   1.701   7.805 -0.6915  1.1288 -0.9219
 4950SOL    HW226484   0.222   1.690   7.657 -1.9731  2.9697  0.5587
 4951SOL     OW26485   0.425   2.777  13.411 -0.3136 -0.3144  0.5847
 4951SOL    HW126486   0.367   2.821  13.473 -1.8125  1.2682 -1.9605
 4951SOL    HW226487   0.510   2.806  13.445 -0.6536 -0.5433  1.6107
 4952SOL     OW26488   0.828   2.298   7.133 -0.1361 -0.0878 -0.1619
 4952SOL    HW126489   0.759   2.296   7.200 -0.1066  2.1068 -0.0461
 4952SOL    HW226490   0.779   2.320   7.053  0.5669 -1.5704 -0.9873
 4953SOL     OW26491   2.259   1.171   2.646  0.0056  0.3082 -0.2025
 4953SOL    HW126492   2.347   1.137   2.629 -0.3312 -0.1969 -0.8932
 4953SOL    HW226493   2.251   1.186   2.740 -1.3369  2.0737 -0.5951
 4954SOL     OW26494   3.396   0.290   7.867 -0.2451  0.0986  0.1032
 4954SOL    HW126495   3.453   0.365   7.887 -1.4467  0.6380  1.5378
 4954SOL    HW226496   3.440   0.226   7.923 -0.2192 -0.1299 -0.1792
 4955SOL     OW26497   0.420   1.052   2.511  0.7604 -0.3898 -0.0802
 4955SOL    HW126498   0.369   1.122   2.468  2.5145  1.7238  1.2763
 4955SOL    HW226499   0.502   1.054   2.462  0.9132 -1.1471  0.1540
 4956SOL     OW26500   2.416   0.231  17.031 -0.6018 -0.1841  0.1460
 4956SOL    HW126501   2.421   0.201  17.122 -2.0999 -1.2761 -0.1410
 4956SOL    HW226502   2.329   0.269  17.019 -1.5129 -2.1133  0.7423
 4957SOL     OW26503   1.233   0.672   5.170 -0.2947  0.2579  0.6311
 4957SOL    HW126504   1.183   0.649   5.249  2.2118 -1.1017  1.8119
 4957SOL    HW226505   1.276   0.592   5.141  1.4755  2.7510 -3.4734
 4958SOL     OW26506   1.127   1.675   4.001 -0.4772 -0.0058  0.0428
 4958SOL    HW126507   1.156   1.747   4.057  0.5257  0.1819 -0.7410
 4958SOL    HW226508   1.034   1.692   3.983 -0.5602 -1.4593 -0.9062
 4959SOL     OW26509   3.804   3.620  12.974  0.5479 -0.2684 -0.2893
 4959SOL    HW126510   3.897   3.599  12.966  0.3562 -1.1125 -0.2861
 4959SOL    HW226511   3.783   3.571  13.053  2.1935  0.0987  0.3810
 4960SOL     OW26512   0.558   4.332   0.923 -0.0967 -0.4109  0.2687
 4960SOL    HW126513   0.580   4.392   0.994 -0.5568  1.3939 -1.1092
 4960SOL    HW226514   0.638   4.284   0.902  0.3561  0.4028  0.1657
 4961SOL     OW26515   4.343   3.882  15.481 -0.2759 -0.4977 -0.4216
 4961SOL    HW126516   4.313   3.900  15.392  0.5489 -1.1412 -0.8240
 4961SOL    HW226517   4.278   3.812  15.495 -0.1338 -0.5598 -0.0687
 4962SOL     OW26518   1.193   1.047   3.543 -0.5140  0.3509  0.0123
 4962SOL    HW126519   1.142   1.127   3.551 -2.1232 -0.6731 -0.0790
 4962SOL    HW226520   1.180   1.002   3.626  1.2402  1.2342  0.7689
 4963SOL     OW26521   4.047   3.833   5.107 -0.0753  0.7903 -0.6612
 4963SOL    HW126522   4.010   3.885   5.036  0.6113  2.6427  0.3213
 4963SOL    HW226523   4.025   3.746   5.075  2.0686  0.0679 -0.1600
 4964SOL     OW26524   1.504   1.528   7.602 -0.1655 -0.1235  0.2541
 4964SOL    HW126525   1.562   1.529   7.678 -0.4037  0.3243  0.4327
 4964SOL    HW226526   1.465   1.442   7.615  1.4931 -1.1542 -1.6705
 4965SOL     OW26527   2.313   3.326   8.058  0.1712 -0.0133  0.3455
 4965SOL    HW126528   2.372   3.369   8.119  0.5644  0.5377 -0.4191
 4965SOL    HW226529   2.302   3.243   8.105 -0.4306  0.2445  0.6565
 4966SOL     OW26530   2.060   0.381   2.927  0.2038 -0.3109 -0.4198
 4966SOL    HW126531   2.113   0.349   2.854 -1.8685 -1.7495 -1.2774
 4966SOL    HW226532   2.012   0.434   2.863 -1.4993 -0.6936  0.5445
 4967SOL     OW26533   0.515   2.572  16.558 -0.2651 -0.2807  0.0093
 4967SOL    HW126534   0.589   2.544  16.612 -0.7961  0.1097  0.9591
 4967SOL    HW226535   0.467   2.603  16.635  1.8881  5.7479 -1.0857
 4968SOL     OW26536   2.392   2.420   4.738  0.1744 -0.7300 -0.6460
 4968SOL    HW126537   2.479   2.457   4.719  0.7461 -0.6219  2.1560
 4968SOL    HW226538   2.403   2.342   4.685  0.8105  1.1068 -3.2038
 4969SOL     OW26539   3.444   1.466   5.881  0.2882 -0.3280 -0.5439
 4969SOL    HW126540   3.473   1.388   5.928  2.6939 -0.0539 -1.5633
 4969SOL    HW226541   3.351   1.452   5.864  0.0905  0.6904 -0.2876
 4970SOL     OW26542   2.510   3.185   5.111 -0.4513 -0.2873 -0.3411
 4970SOL    HW126543   2.485   3.248   5.044  0.5659  0.0180 -0.4377
 4970SOL    HW226544   2.561   3.239   5.171 -0.5226 -0.4376 -0.1419
 4971SOL     OW26545   0.284   3.891  10.129 -0.1746 -0.0222 -0.0908
 4971SOL    HW126546   0.331   3.809  10.147  0.3807  0.1735 -0.6332
 4971SOL    HW226547   0.338   3.926  10.058  0.3375 -2.1808 -0.7762
 4972SOL     OW26548   1.478   2.293  13.296  0.1846  0.4329  0.0607
 4972SOL    HW126549   1.564   2.284  13.338 -0.3736 -1.1052  0.8752
 4972SOL    HW226550   1.490   2.337  13.212 -1.0287 -1.6223 -1.1767
 4973SOL     OW26551   3.396   0.630  15.418 -0.3546 -0.2138  0.3148
 4973SOL    HW126552   3.393   0.597  15.328  0.7566  3.5604 -1.1250
 4973SOL    HW226553   3.358   0.548  15.449  0.3605  0.7887  3.8303
 4974SOL     OW26554   0.586   1.970   6.793 -0.5027  0.1549  0.6288
 4974SOL    HW126555   0.652   2.026   6.753 -2.0540  1.6926  0.2162
 4974SOL    HW226556   0.653   1.927   6.846 -0.7150 -0.2588  0.5615
 4975SOL     OW26557   4.279   0.112  15.082  0.4459 -0.1551 -0.8738
 4975SOL    HW126558   4.215   0.045  15.104  2.0030 -1.0835  0.8606
 4975SOL    HW226559   4.362   0.093  15.128  1.7680  1.3557 -2.6258
 4976SOL     OW26560   2.114   2.414  11.571  0.2643 -0.3425  0.1551
 4976SOL    HW126561   2.078   2.418  11.660  2.4662  0.6282  1.0301
 4976SOL    HW226562   2.037   2.432  11.519 -0.1660  2.1900  1.6654
 4977SOL     OW26563   2.152   0.782   9.701  0.2627  0.8409 -0.0702
 4977SOL    HW126564   2.155   0.853   9.765 -2.0614  1.0871 -0.2113
 4977SOL    HW226565   2.241   0.787   9.666  0.6430 -0.2669  0.7507
 4978SOL     OW26566   1.214   4.025   0.234 -0.1181 -0.0134  0.4091
 4978SOL    HW126567   1.258   4.055   0.313 -1.5306 -1.3661  1.6833
 4978SOL    HW226568   1.126   3.999   0.259 -0.1385  1.5303  1.8983
 4979SOL     OW26569   2.596   1.043  11.968 -0.4020 -0.3387 -0.1570
 4979SOL    HW126570   2.582   0.957  11.929 -3.9646 -0.9392  2.3942
 4979SOL    HW226571   2.504   1.064  11.985 -0.2152  0.9636 -0.7488
 4980SOL     OW26572   0.709   2.789   3.541  0.5947 -0.0632  0.7762
 4980SOL    HW126573   0.635   2.752   3.589 -0.5724 -1.5936 -2.2259
 4980SOL    HW226574   0.779   2.776   3.605  0.0309 -1.9752  1.0065
 4981SOL     OW26575   0.011   3.130   7.834 -0.6834 -0.2748 -0.4071
 4981SOL    HW126576   0.090   3.142   7.780 -0.7795  0.9683 -0.2702
 4981SOL    HW226577   0.000   3.035   7.823 -0.7269 -0.4312  1.1069
 4982SOL     OW26578   3.740   0.282   7.399 -0.5133 -0.1675 -0.1666
 4982SOL    HW126579   3.752   0.367   7.359 -1.9324 -0.1718 -0.6273
 4982SOL    HW226580   3.809   0.233   7.355 -0.2064  0.0424  0.0829
 4983SOL     OW26581   2.615   1.754   8.722 -0.2689 -0.2598  0.7555
 4983SOL    HW126582   2.672   1.708   8.783  0.6422  1.5475  1.2636
 4983SOL    HW226583   2.630   1.704   8.641 -0.8630 -0.4441  0.7588
 4984SOL     OW26584   1.363   2.590   5.825 -0.0569 -0.6939 -0.3697
 4984SOL    HW126585   1.292   2.648   5.798  0.2471 -0.2634 -0.2349
 4984SOL    HW226586   1.413   2.668   5.848 -0.5158  0.2230 -2.4771
 4985SOL     OW26587   1.541   3.651   0.023  0.7808 -0.0677 -0.2088
 4985SOL    HW126588   1.633   3.630   0.043  1.3925  0.9421 -1.8939
 4985SOL    HW226589   1.491   3.571   0.035 -1.1945  1.5248  2.0338
 4986SOL     OW26590   4.712   4.235   3.130 -0.0136 -0.1163 -0.8185
 4986SOL    HW126591   4.662   4.234   3.049 -1.5190 -0.6667  0.1107
 4986SOL    HW226592   0.028   4.156   3.134  0.9896  0.6058  0.0473
 4987SOL     OW26593   0.292   3.911  13.763  0.0534 -0.1227 -0.0039
 4987SOL    HW126594   0.278   3.923  13.669  2.6312  0.5096 -0.3032
 4987SOL    HW226595   0.254   3.985  13.811  1.9530 -0.1952  1.5850
 4988SOL     OW26596   2.077   3.412   0.386 -1.0633 -0.2717 -0.8414
 4988SOL    HW126597   2.163   3.401   0.426 -0.7313  0.2406 -1.4352
 4988SOL    HW226598   2.076   3.507   0.378  1.2142  0.1348  3.5030
 4989SOL     OW26599   2.285   3.496  15.096 -0.6651 -0.4700  0.2074
 4989SOL    HW126600   2.371   3.478  15.060  0.6507  0.9057  2.6042
 4989SOL    HW226601   2.237   3.511  15.015 -1.3709  3.1579  1.2786
 4990SOL     OW26602   4.295   0.502  11.593  0.3799 -0.1689  0.5167
 4990SOL    HW126603   4.327   0.485  11.504 -1.4884  3.7730 -0.9281
 4990SOL    HW226604   4.355   0.456  11.651 -1.6588 -2.6637  0.6642
 4991SOL     OW26605   0.076   3.841   1.477  0.2204  0.1259  0.0944
 4991SOL    HW126606   0.012   3.900   1.436  0.9161  1.2150  0.5685
 4991SOL    HW226607   0.094   3.775   1.411  0.2276  0.3927 -0.1691
 4992SOL     OW26608   4.364   1.628   5.220 -0.5664 -0.6987 -0.0485
 4992SOL    HW126609   4.286   1.581   5.188  1.2191 -3.7502  0.0477
 4992SOL    HW226610   4.434   1.571   5.188 -0.8666 -1.4190  0.5673
 4993SOL     OW26611   3.712   2.411   4.514  0.4408 -0.2746 -0.3525
 4993SOL    HW126612   3.800   2.416   4.550  0.3205 -1.1621  0.0889
 4993SOL    HW226613   3.703   2.485   4.455  1.6477  0.2762  0.1754
 4994SOL     OW26614   1.761   2.754  12.688  0.2992  0.2215 -0.1374
 4994SOL    HW126615   1.733   2.842  12.663  0.5227  0.0444 -1.0171
 4994SOL    HW226616   1.834   2.772  12.747  0.7222 -2.1845  0.0540
 4995SOL     OW26617   3.925   1.301   5.139  0.0252  0.3782 -0.2871
 4995SOL    HW126618   3.897   1.381   5.096  0.8179  0.3859 -0.8013
 4995SOL    HW226619   3.840   1.263   5.160 -0.7654  2.4342  0.1375
 4996SOL     OW26620   3.097   4.730   9.284 -0.4295  0.3705  0.2353
 4996SOL    HW126621   3.143   4.737   9.367  2.6383 -1.4364 -1.3121
 4996SOL    HW226622   3.139   4.656   9.241  0.8182  2.5137 -2.2557
 4997SOL     OW26623   1.103   1.709   3.363  0.3747 -0.2167  0.0906
 4997SOL    HW126624   1.080   1.631   3.312 -0.0689 -0.7828  1.1483
 4997SOL    HW226625   1.147   1.674   3.441  0.2200 -1.3417 -0.3175
 4998SOL     OW26626   1.492   1.031   7.616  0.2562 -0.4066 -0.3474
 4998SOL    HW126627   1.498   0.946   7.660  0.8428  0.0904  0.5317
 4998SOL    HW226628   1.494   1.000   7.526  1.3169  1.2150 -0.8844
 4999SOL     OW26629   0.008   3.592   6.548  0.4107  0.2790 -0.5480
 4999SOL    HW126630   0.017   3.525   6.480  1.1038 -0.4057  0.2299
 4999SOL    HW226631   4.701   3.545   6.618  3.0366  0.5024  1.2735
 5000SOL     OW26632   0.481   3.384   9.466 -0.3305 -0.2016 -0.7130
 5000SOL    HW126633   0.408   3.374   9.527  0.9976  1.9491  1.2287
 5000SOL    HW226634   0.541   3.436   9.519 -0.1677  1.1225 -2.1989
 5001SOL     OW26635   0.807   3.392   3.317  0.1356  0.3615  0.0500
 5001SOL    HW126636   0.751   3.349   3.382  1.5921  0.0593  1.1111
 5001SOL    HW226637   0.871   3.442   3.367 -1.3177  0.1513  2.1030
 5002SOL     OW26638   2.280   4.390   5.437 -0.1425 -0.0890 -0.1831
 5002SOL    HW126639   2.335   4.379   5.515  0.4076  1.9109 -0.2983
 5002SOL    HW226640   2.210   4.453   5.453 -0.4391 -1.0483  2.3881
 5003SOL     OW26641   2.097   0.393   1.295  0.3924 -0.0155  0.0794
 5003SOL    HW126642   2.098   0.359   1.385  2.5030  0.2401  0.1493
 5003SOL    HW226643   2.116   0.314   1.245  0.2550  0.6641 -1.0576
 5004SOL     OW26644   2.497   0.673   6.480 -0.0247 -0.1394  0.1000
 5004SOL    HW126645   2.416   0.673   6.530 -0.9355  1.2876 -1.3981
 5004SOL    HW226646   2.535   0.591   6.513  1.9874  0.4260 -0.7983
 5005SOL     OW26647   1.457   3.342  13.116 -0.0722  0.1797  0.2190
 5005SOL    HW126648   1.441   3.302  13.202 -2.5984  1.7645  0.5041
 5005SOL    HW226649   1.472   3.432  13.145 -1.9258  1.2760 -2.2812
 5006SOL     OW26650   3.691   3.019  12.481 -0.0130 -0.1786  0.1375
 5006SOL    HW126651   3.732   2.932  12.482 -1.8409 -1.0793 -1.3052
 5006SOL    HW226652   3.758   3.076  12.517 -0.0276 -0.7131  1.0060
 5007SOL     OW26653   0.297   3.839   7.281 -0.0215 -0.0826 -0.0434
 5007SOL    HW126654   0.286   3.928   7.315 -2.5151  0.7443 -3.0374
 5007SOL    HW226655   0.387   3.818   7.307 -1.3017 -1.8668  2.9906
 5008SOL     OW26656   2.301   1.053   7.243  0.1483 -0.2937  0.4362
 5008SOL    HW126657   2.317   1.002   7.322 -0.1154 -1.5465 -0.3252
 5008SOL    HW226658   2.265   1.128   7.290 -0.2837  1.7758 -3.1178
 5009SOL     OW26659   0.557   3.915   2.506  0.0279 -0.0408  0.6281
 5009SOL    HW126660   0.645   3.902   2.471  0.3053 -0.6410  1.5284
 5009SOL    HW226661   0.512   3.954   2.432 -0.6662  1.2167  1.7126
 5010SOL     OW26662   2.610   2.744  12.001 -0.4740  0.5349 -0.1853
 5010SOL    HW126663   2.680   2.808  11.988 -1.3696  1.2675 -1.4214
 5010SOL    HW226664   2.540   2.795  11.960  0.2761  2.2130  0.6200
 5011SOL     OW26665   0.740   4.671   5.960 -0.1537 -0.3438 -0.3516
 5011SOL    HW126666   0.823   4.627   5.944 -0.5221 -1.3408  0.4342
 5011SOL    HW226667   0.690   4.674   5.879  1.0219 -4.1661 -1.2582
 5012SOL     OW26668   3.608   2.884   5.796  0.0555  0.1740 -0.7266
 5012SOL    HW126669   3.580   2.827   5.725  3.6294 -2.8525  0.2773
 5012SOL    HW226670   3.681   2.843   5.842 -1.3877  2.0004  3.2592
 5013SOL     OW26671   2.605   4.464   0.260 -0.0099 -0.1157  0.4255
 5013SOL    HW126672   2.683   4.415   0.290  0.3768  0.3797  0.2219
 5013SOL    HW226673   2.604   4.423   0.173  2.9926  4.3157 -1.7058
 5014SOL     OW26674   2.985   0.181   7.130 -0.4899  0.3479  0.3646
 5014SOL    HW126675   2.902   0.228   7.136 -0.4385  0.2097  2.2177
 5014SOL    HW226676   2.971   0.118   7.059 -0.0823  0.0127  0.5794
 5015SOL     OW26677   1.648   3.840   4.661  0.3368  0.1939 -0.2847
 5015SOL    HW126678   1.735   3.863   4.695  0.8489 -0.1374 -1.3789
 5015SOL    HW226679   1.609   3.783   4.728 -0.9450 -1.2797 -2.2628
 5016SOL     OW26680   2.883   4.505   9.925  0.3807  0.7462  0.0767
 5016SOL    HW126681   2.963   4.512   9.977 -0.3234  1.0645  1.1443
 5016SOL    HW226682   2.924   4.468   9.847 -0.4839 -0.1008  0.0198
 5017SOL     OW26683   4.217   1.808   8.639  0.0490 -0.1265  0.5136
 5017SOL    HW126684   4.194   1.717   8.620  0.9277 -0.1120 -0.6839
 5017SOL    HW226685   4.312   1.811   8.630  0.0367 -2.3496 -0.4290
 5018SOL     OW26686   2.311   3.104   9.276  0.0664  0.9372 -0.1229
 5018SOL    HW126687   2.356   3.150   9.347  0.7014 -0.2577  0.2503
 5018SOL    HW226688   2.252   3.053   9.331 -0.9879  0.4196 -1.7429
 5019SOL     OW26689   1.766   2.529   5.515  0.1893 -0.2618 -0.2910
 5019SOL    HW126690   1.752   2.501   5.425  2.5560 -1.0008 -0.4468
 5019SOL    HW226691   1.697   2.595   5.518  0.4332 -0.0827  1.4256
 5020SOL     OW26692   1.583   3.230   7.920  0.3113 -0.6393 -0.2567
 5020SOL    HW126693   1.523   3.287   7.873  0.1240 -0.6769 -0.0612
 5020SOL    HW226694   1.535   3.208   8.000  0.5223 -2.0442 -0.5190
 5021SOL     OW26695   3.270   3.998   3.118  0.1933  0.4069 -0.5449
 5021SOL    HW126696   3.198   4.039   3.071  0.1984  0.4874 -0.4832
 5021SOL    HW226697   3.316   4.068   3.164  0.1407  0.9378 -1.3145
 5022SOL     OW26698   3.167   2.637   6.263  0.3260 -0.1351 -0.0507
 5022SOL    HW126699   3.164   2.662   6.355 -1.4425  3.2988 -1.0502
 5022SOL    HW226700   3.094   2.575   6.254  0.1255  0.1313 -0.2551
 5023SOL     OW26701   0.200   3.785   2.028 -0.2148  0.6599  0.4225
 5023SOL    HW126702   0.278   3.839   2.013  1.0540 -0.8132  1.7563
 5023SOL    HW226703   0.246   3.710   2.065  1.5620  1.1534 -0.7601
 5024SOL     OW26704   4.689   2.349   7.632 -0.3772 -0.2406  0.2920
 5024SOL    HW126705   4.638   2.422   7.598 -1.1204 -1.3820 -1.0299
 5024SOL    HW226706   4.623   2.293   7.672  0.6219 -0.6195  1.4163
 5025SOL     OW26707   1.672   1.691  16.651 -0.3936 -0.0031 -0.5587
 5025SOL    HW126708   1.607   1.730  16.710 -0.2972  0.3391 -0.6810
 5025SOL    HW226709   1.696   1.614  16.703  0.7706  1.6477  1.3689
 5026SOL     OW26710   0.202   2.334   0.152  0.5971  0.0293  0.0096
 5026SOL    HW126711   0.119   2.356   0.110 -0.1212 -1.6633  0.5360
 5026SOL    HW226712   0.260   2.291   0.090 -0.1591  0.0894 -0.7339
 5027SOL     OW26713   3.021   4.374   2.102 -0.3811 -0.1166 -0.3485
 5027SOL    HW126714   3.098   4.319   2.088  1.8342  2.9265 -0.3143
 5027SOL    HW226715   2.944   4.337   2.060  0.1932  0.5145 -1.9518
 5028SOL     OW26716   4.269   1.304   5.636 -0.0311  0.1908  0.0268
 5028SOL    HW126717   4.265   1.226   5.581  0.5373 -0.4511  0.9050
 5028SOL    HW226718   4.252   1.262   5.720  1.4258  3.2811  1.8853
 5029SOL     OW26719   2.867   0.033   8.996 -0.6019 -0.3182 -0.3155
 5029SOL    HW126720   2.789   0.071   8.955  0.4023  0.7265 -1.2256
 5029SOL    HW226721   2.857   0.053   9.089  1.2592 -2.9976  0.4678
 5030SOL     OW26722   2.311   2.881   4.935  0.1605  0.1061 -0.3339
 5030SOL    HW126723   2.236   2.928   4.973  0.0699  1.4148 -2.1308
 5030SOL    HW226724   2.270   2.798   4.912  0.9764 -0.5780  0.6816
 5031SOL     OW26725   2.778   3.804   8.209  0.0351 -0.5730  1.2675
 5031SOL    HW126726   2.747   3.714   8.216 -0.9037 -0.3972 -0.7115
 5031SOL    HW226727   2.709   3.846   8.260  0.8426 -0.2593  2.1088
 5032SOL     OW26728   3.317   1.540   2.057 -0.2699  0.1701  0.4829
 5032SOL    HW126729   3.372   1.540   2.136 -1.5647 -1.9845  1.3698
 5032SOL    HW226730   3.230   1.537   2.096  0.4224  0.0209  2.0322
 5033SOL     OW26731   0.144   1.336   7.268  0.0233  0.2012 -0.0844
 5033SOL    HW126732   0.059   1.327   7.313  0.1840 -0.3085  0.1121
 5033SOL    HW226733   0.195   1.392   7.326  1.2754 -1.9348  0.8756
 5034SOL     OW26734   1.378   2.647  11.878  0.5911 -0.4694  0.1879
 5034SOL    HW126735   1.453   2.642  11.818 -1.1734 -0.4368 -2.0605
 5034SOL    HW226736   1.427   2.632  11.959  1.0673  2.3156  0.4367
 5035SOL     OW26737   0.045   2.216   9.559  0.6270  0.0125  0.6734
 5035SOL    HW126738   4.710   2.179   9.508  1.9379 -2.7434  0.8139
 5035SOL    HW226739   4.727   2.272   9.612 -0.1823  0.0294 -0.1884
 5036SOL     OW26740   4.643   3.146   3.631  0.4392 -0.2610 -0.1526
 5036SOL    HW126741   4.643   3.055   3.602  1.2280 -1.0645  2.4019
 5036SOL    HW226742   4.555   3.178   3.612  0.5619 -0.1168 -0.4910
 5037SOL     OW26743   2.785   2.560   4.164 -0.5014  0.3881 -0.9183
 5037SOL    HW126744   2.861   2.570   4.107 -0.2470  0.2755 -0.5949
 5037SOL    HW226745   2.795   2.643   4.211 -0.6235 -1.3781  2.1667
 5038SOL     OW26746   0.775   0.527   8.212 -0.2992 -0.0306 -0.5539
 5038SOL    HW126747   0.687   0.499   8.236  0.6489 -2.7317 -0.1680
 5038SOL    HW226748   0.809   0.439   8.196  0.4898  0.3713 -1.0831
 5039SOL     OW26749   0.837   4.501  17.587  0.3830 -0.2560  0.4133
 5039SOL    HW126750   0.918   4.476  17.632  0.5034  0.6140  0.6914
 5039SOL    HW226751   0.782   4.524  17.662 -0.8542  0.9822 -0.8761
 5040SOL     OW26752   3.494   4.074   5.362  0.4919 -0.0707 -0.5198
 5040SOL    HW126753   3.465   3.991   5.324  1.6741 -1.1683  0.9145
 5040SOL    HW226754   3.583   4.055   5.394  1.0297  2.3587 -0.6218
 5041SOL     OW26755   2.535   3.300  12.571 -0.0713  0.6869 -0.0182
 5041SOL    HW126756   2.618   3.286  12.618  0.6829 -0.3083 -1.6285
 5041SOL    HW226757   2.499   3.382  12.603 -0.0488 -0.5276  3.1133
 5042SOL     OW26758   2.114   0.115   3.746 -0.2807 -0.0615 -0.3653
 5042SOL    HW126759   2.039   0.172   3.766 -1.2528 -1.1672 -0.8810
 5042SOL    HW226760   2.092   0.054   3.675 -2.2914  0.1855  0.0447
 5043SOL     OW26761   1.868   3.209   4.519  0.0598 -0.0024 -0.3413
 5043SOL    HW126762   1.872   3.305   4.516 -0.5238  0.0614  1.4036
 5043SOL    HW226763   1.811   3.186   4.445  1.3108 -0.4757 -1.1602
 5044SOL     OW26764   1.725   3.892   4.083 -0.3415  0.2384 -0.1434
 5044SOL    HW126765   1.784   3.942   4.140 -0.3933  0.8360 -0.6042
 5044SOL    HW226766   1.676   3.853   4.155  0.9018  1.7649  1.5409
 5045SOL     OW26767   2.783   0.032   5.974  0.4351 -0.1882 -0.3090
 5045SOL    HW126768   2.808   0.106   5.918  0.5392 -1.2165 -1.6201
 5045SOL    HW226769   2.835   0.051   6.052  1.0441 -1.0591 -0.4979
 5046SOL     OW26770   1.166   1.240   3.050 -0.2020 -0.6428  0.4799
 5046SOL    HW126771   1.206   1.182   3.115 -1.2838  0.0970  1.7892
 5046SOL    HW226772   1.245   1.244   2.996 -1.1486  4.0616 -0.5352
 5047SOL     OW26773   4.133   2.583   0.970 -0.4337 -0.1377 -0.2723
 5047SOL    HW126774   4.123   2.642   1.044  3.0621 -0.7613  0.7240
 5047SOL    HW226775   4.179   2.509   1.009  0.7488  0.5850 -0.3112
 5048SOL     OW26776   0.316   0.038   8.626  0.2162  0.0746  0.1060
 5048SOL    HW126777   0.367   0.056   8.547 -1.7043  0.4511 -1.0584
 5048SOL    HW226778   0.335   0.108   8.688  0.6502  0.6281 -0.6409
 5049SOL     OW26779   3.428   4.103   6.537 -0.1660 -0.3578  0.5875
 5049SOL    HW126780   3.379   4.029   6.572 -0.7896  0.0253  0.5361
 5049SOL    HW226781   3.468   4.071   6.456  1.3031  0.8395  0.8435
 5050SOL     OW26782   3.825   1.468   9.481 -0.2791  0.5351 -0.2858
 5050SOL    HW126783   3.824   1.509   9.568  0.5167  1.2739 -0.6350
 5050SOL    HW226784   3.755   1.404   9.493 -0.1739  0.2708 -1.1439
 5051SOL     OW26785   1.290   1.855   5.556 -0.1294 -0.1131  0.0164
 5051SOL    HW126786   1.238   1.936   5.558 -0.5325 -0.3670 -0.1445
 5051SOL    HW226787   1.375   1.885   5.588 -1.1818  1.7316  1.1373
 5052SOL     OW26788   1.011   2.873   8.404  0.3554  0.0497  0.4340
 5052SOL    HW126789   1.063   2.940   8.448  2.2472 -0.8290 -0.5000
 5052SOL    HW226790   1.019   2.805   8.471 -1.2376  0.0160  0.5963
 5053SOL     OW26791   1.860   3.343   2.570 -0.2751  0.1330 -0.4702
 5053SOL    HW126792   1.825   3.402   2.503  2.0239  1.2531 -0.6629
 5053SOL    HW226793   1.943   3.332   2.525  0.7432  1.0897  1.1469
 5054SOL     OW26794   3.772   3.120   4.257  0.0673 -0.0607 -0.1922
 5054SOL    HW126795   3.782   3.137   4.350  0.0261 -1.8701  0.1415
 5054SOL    HW226796   3.764   3.210   4.226 -0.9576 -0.1634 -0.2271
 5055SOL     OW26797   4.126   1.661   5.441 -0.7187 -0.2873  0.8839
 5055SOL    HW126798   4.212   1.622   5.452 -0.4401 -0.7092 -2.7003
 5055SOL    HW226799   4.150   1.754   5.443 -0.4388 -0.3701  1.3948
 5056SOL     OW26800   2.122   2.837   8.558  0.1085  0.2743  0.3032
 5056SOL    HW126801   2.129   2.761   8.616  1.9007 -0.3837 -0.7703
 5056SOL    HW226802   2.216   2.843   8.539 -0.1709  2.2588 -0.4374
 5057SOL     OW26803   1.504   1.738   8.061  0.8105 -0.1952  0.3893
 5057SOL    HW126804   1.442   1.786   8.115  1.3713  0.8471  0.1169
 5057SOL    HW226805   1.458   1.745   7.977  1.4239 -1.6734 -0.0584
 5058SOL     OW26806   4.007   2.707   1.582  0.7350 -0.5049  0.0947
 5058SOL    HW126807   3.919   2.669   1.579  0.3958  0.3277 -0.5341
 5058SOL    HW226808   3.993   2.784   1.527 -2.1981  0.2920  1.9189
 5059SOL     OW26809   4.641   1.295   7.353  0.4511  0.0929  0.2656
 5059SOL    HW126810   4.548   1.291   7.377 -0.2241  0.5351 -2.2796
 5059SOL    HW226811   4.642   1.233   7.279 -1.4416  1.6109 -1.0442
 5060SOL     OW26812   4.706   3.396   7.471  0.1653 -0.3413 -0.2845
 5060SOL    HW126813   0.001   3.477   7.509  2.4944 -0.9236 -1.0018
 5060SOL    HW226814   0.018   3.388   7.389  2.1194 -0.2161  0.8877
 5061SOL     OW26815   2.041   4.640  15.355  0.1947  0.1992 -0.0961
 5061SOL    HW126816   2.018   4.551  15.381 -2.3166  0.6353 -0.8035
 5061SOL    HW226817   2.101   4.652  15.428  2.2147  0.4546 -1.7869
 5062SOL     OW26818   2.715   1.209   8.441 -0.2019 -0.3341 -0.2382
 5062SOL    HW126819   2.782   1.142   8.454 -1.0354 -1.3038 -0.8842
 5062SOL    HW226820   2.753   1.252   8.364 -1.6764 -0.2999 -0.9492
 5063SOL     OW26821   1.297   1.235   7.305  0.4595  0.1607 -0.4278
 5063SOL    HW126822   1.314   1.212   7.214  0.4398 -0.2543 -0.3267
 5063SOL    HW226823   1.251   1.317   7.289  1.1614  0.7146  0.3289
 5064SOL     OW26824   2.520   4.065   3.230 -0.6216  0.2116 -0.0173
 5064SOL    HW126825   2.535   4.154   3.199  1.3789 -0.0685  0.1447
 5064SOL    HW226826   2.533   4.015   3.149 -1.6403  0.9346 -0.6165
 5065SOL     OW26827   3.846   2.327  10.301 -0.3111 -0.6402  0.1794
 5065SOL    HW126828   3.903   2.250  10.307 -0.6209 -0.7647  1.4272
 5065SOL    HW226829   3.764   2.288  10.268 -0.7408  0.0320  0.4628
 5066SOL     OW26830   2.391   2.239  15.775  0.1267  0.7288 -0.5625
 5066SOL    HW126831   2.477   2.199  15.788 -0.8360 -0.2788  2.7558
 5066SOL    HW226832   2.352   2.196  15.699 -0.3887 -0.9289  0.6413
 5067SOL     OW26833   3.847   3.921   0.513  0.0552 -0.4366  0.2242
 5067SOL    HW126834   3.858   3.869   0.433  0.5412  1.1976 -0.7984
 5067SOL    HW226835   3.773   3.977   0.488 -0.1387 -0.3060  1.0919
 5068SOL     OW26836   1.275   0.983   6.886 -0.5680 -0.2703 -0.1348
 5068SOL    HW126837   1.274   1.062   6.940 -0.5313  1.5467 -2.7882
 5068SOL    HW226838   1.218   0.936   6.946  1.8187 -1.1829  1.4116
 5069SOL     OW26839   1.956   4.484   7.477  0.0658  0.3328 -0.0356
 5069SOL    HW126840   1.906   4.417   7.430 -0.9006  0.7539  0.3981
 5069SOL    HW226841   1.904   4.564   7.471  1.4393  1.3960  2.0308
 5070SOL     OW26842   0.043   4.048   8.593  0.0574 -0.7601 -0.6244
 5070SOL    HW126843   0.020   4.094   8.674 -3.1553 -1.3479 -1.2199
 5070SOL    HW226844   0.070   3.960   8.619 -1.3240 -0.1929  2.7140
 5071SOL     OW26845   2.448   2.023  13.965  0.1194  0.1965 -0.1742
 5071SOL    HW126846   2.428   2.044  14.056  2.7880  2.0091 -0.0188
 5071SOL    HW226847   2.379   1.960  13.942 -0.3465  0.7332 -0.2557
 5072SOL     OW26848   0.551   4.556   6.829 -0.0241  0.1683  0.1161
 5072SOL    HW126849   0.516   4.616   6.763 -2.3701  0.5249  1.6848
 5072SOL    HW226850   0.486   4.486   6.832 -0.3450  0.4417 -0.2510
 5073SOL     OW26851   1.176   0.431  10.053 -1.0498  0.2610  0.4774
 5073SOL    HW126852   1.269   0.446  10.037 -0.7518 -1.5870  0.4860
 5073SOL    HW226853   1.145   0.521  10.065  2.3199  1.8169 -2.5799
 5074SOL     OW26854   0.606   3.147   9.926 -0.5433  0.2256  0.2310
 5074SOL    HW126855   0.532   3.146   9.987 -1.5512 -1.6255 -0.9990
 5074SOL    HW226856   0.674   3.118   9.987  0.0513 -0.7668 -0.8933
 5075SOL     OW26857   0.272   0.605   6.777 -0.1467  0.5124 -0.0681
 5075SOL    HW126858   0.238   0.555   6.851  2.2713 -2.8294 -1.2245
 5075SOL    HW226859   0.358   0.632   6.807  0.2834 -1.1673  0.1858
 5076SOL     OW26860   3.193   2.613   5.011 -0.2766 -0.2970  0.2450
 5076SOL    HW126861   3.261   2.679   5.022 -0.7935  0.1702  0.6935
 5076SOL    HW226862   3.162   2.641   4.925  1.7001  2.3398  0.3945
 5077SOL     OW26863   3.065   4.690   1.670 -0.2277  0.2730  0.2099
 5077SOL    HW126864   3.043   4.598   1.680  1.1390  0.3008  3.5561
 5077SOL    HW226865   2.986   4.714   1.622 -2.2974 -2.7025  2.1453
 5078SOL     OW26866   2.657   3.439  10.105  0.4836  0.3671  0.1714
 5078SOL    HW126867   2.561   3.441  10.100  0.5280 -2.0702 -2.1825
 5078SOL    HW226868   2.680   3.446  10.012  1.5393  0.3067  0.4351
 5079SOL     OW26869   0.350   3.225   3.771 -0.1682  0.2373 -0.3080
 5079SOL    HW126870   0.308   3.160   3.828 -1.5197  0.5230 -0.9787
 5079SOL    HW226871   0.436   3.184   3.781  0.0702  0.7330 -0.3444
 5080SOL     OW26872   1.017   4.263   0.904  0.2855  0.0234  0.4501
 5080SOL    HW126873   1.055   4.234   0.987  1.7295 -1.4225 -0.7080
 5080SOL    HW226874   1.095   4.283   0.852  0.5009  3.6839  2.1506
 5081SOL     OW26875   0.177   0.054  14.241  0.4736  0.2662 -0.5343
 5081SOL    HW126876   0.091   0.080  14.209  0.6035  2.6631  1.0954
 5081SOL    HW226877   0.153   4.713  14.289  0.5809  0.7333  0.2793
 5082SOL     OW26878   1.184   0.674   9.723 -1.0647 -0.0571  0.1794
 5082SOL    HW126879   1.264   0.622   9.719 -2.3384 -1.8566 -1.8499
 5082SOL    HW226880   1.115   0.610   9.707 -0.0513 -1.3077  0.7979
 5083SOL     OW26881   4.615   3.645  15.179  0.4416 -0.0330  0.1723
 5083SOL    HW126882   4.683   3.577  15.180  0.6522  0.1934  1.2825
 5083SOL    HW226883   4.527   3.607  15.189 -0.6706  3.2593  2.7341
 5084SOL     OW26884   3.632   0.237  13.627 -0.0446  0.5324  0.3778
 5084SOL    HW126885   3.639   0.185  13.547 -0.0727  1.1547 -0.0261
 5084SOL    HW226886   3.592   0.179  13.692  1.8237 -1.6343 -0.4066
 5085SOL     OW26887   1.032   3.074   4.522  0.6945  0.1441  0.6328
 5085SOL    HW126888   1.093   3.035   4.460 -0.4533 -0.5460 -0.0569
 5085SOL    HW226889   1.011   3.156   4.475 -0.4887 -0.6502 -0.2409
 5086SOL     OW26890   0.429   0.368  15.258  0.8194  0.5905 -0.6154
 5086SOL    HW126891   0.346   0.403  15.289 -0.4187 -1.7492 -1.2998
 5086SOL    HW226892   0.476   0.446  15.290 -0.0888  1.3300 -1.1123
 5087SOL     OW26893   4.193   0.091   6.696  0.1325 -0.3379  0.5788
 5087SOL    HW126894   4.165   0.107   6.786 -1.6028  0.6485 -0.1291
 5087SOL    HW226895   4.269   0.038   6.720  0.3597  0.3804  1.4313
 5088SOL     OW26896   1.022   4.608   0.706 -0.4766 -0.0396 -0.2039
 5088SOL    HW126897   0.993   4.567   0.788 -0.4604 -0.6583 -0.5037
 5088SOL    HW226898   0.936   4.644   0.684 -1.5179 -2.1849  0.2971
 5089SOL     OW26899   2.308   0.711   5.254 -0.1325  0.2911 -0.1972
 5089SOL    HW126900   2.391   0.691   5.296 -1.4138 -3.5086  0.4490
 5089SOL    HW226901   2.286   0.782   5.315 -1.6617 -0.4023  0.0500
 5090SOL     OW26902   1.923   0.204   7.275 -0.1219 -0.5564 -0.3861
 5090SOL    HW126903   2.012   0.229   7.297 -0.4964 -0.2660  0.8043
 5090SOL    HW226904   1.878   0.288   7.272  1.5495  0.3303 -0.0880
 5091SOL     OW26905   4.114   4.589  16.944  0.1792  0.4473 -0.2225
 5091SOL    HW126906   4.099   4.613  16.853  1.1138  0.3335 -0.4038
 5091SOL    HW226907   4.114   4.677  16.982  0.9660  0.0323  0.7369
 5092SOL     OW26908   0.375   3.390   5.092  0.5380 -0.1749 -0.0615
 5092SOL    HW126909   0.338   3.473   5.121  1.6904 -1.1439  4.2261
 5092SOL    HW226910   0.465   3.422   5.086  0.9704 -1.2134  0.8554
 5093SOL     OW26911   1.023   0.369   2.971 -0.3754  0.2472 -0.5820
 5093SOL    HW126912   1.041   0.319   3.050  0.3942 -1.9505 -2.1665
 5093SOL    HW226913   0.968   0.440   3.005 -0.6635  0.3429 -1.2461
 5094SOL     OW26914   4.370   1.563  12.358  0.3880 -0.3870  0.1984
 5094SOL    HW126915   4.345   1.500  12.426 -0.5242  0.1571  0.3731
 5094SOL    HW226916   4.440   1.514  12.315  0.2632 -0.8886  0.5642
 5095SOL     OW26917   0.119   3.541   2.510  0.2486 -0.0851  0.8138
 5095SOL    HW126918   0.202   3.586   2.491  0.1883  0.0577  0.8929
 5095SOL    HW226919   0.140   3.461   2.461  1.1996  0.9738 -0.5311
 5096SOL     OW26920   1.745   1.921  15.234 -0.0521 -0.3644  0.1683
 5096SOL    HW126921   1.752   1.959  15.146 -1.8287  2.5722  1.3065
 5096SOL    HW226922   1.658   1.947  15.261  0.3393  2.0227 -0.8387
 5097SOL     OW26923   2.265   2.734   5.256 -0.1373 -0.0425 -0.4110
 5097SOL    HW126924   2.265   2.830   5.253 -1.0313 -0.0736 -1.3847
 5097SOL    HW226925   2.172   2.730   5.234 -0.6734  0.6769  1.7747
 5098SOL     OW26926   4.416   3.369   8.066 -0.2441  0.5260  0.1555
 5098SOL    HW126927   4.473   3.428   8.016  1.0669 -1.9333 -1.2225
 5098SOL    HW226928   4.387   3.319   7.990  1.6121  1.0322 -0.8752
 5099SOL     OW26929   3.047   0.332  16.840  0.3933 -0.2900 -0.0866
 5099SOL    HW126930   2.978   0.325  16.775  1.5494 -0.3859 -1.3055
 5099SOL    HW226931   3.004   0.295  16.918  0.5703 -2.1118 -0.8494
 5100SOL     OW26932   3.299   3.124  12.189 -0.3189 -0.2005 -0.0038
 5100SOL    HW126933   3.329   3.151  12.103  1.0601 -3.7232 -0.6131
 5100SOL    HW226934   3.301   3.029  12.181 -2.2920 -0.3909  1.7974
 5101SOL     OW26935   0.187   1.420   0.278  0.4076 -0.2798 -0.0374
 5101SOL    HW126936   0.116   1.413   0.214  0.0438 -1.8921  0.5560
 5101SOL    HW226937   0.225   1.333   0.288  0.2541 -0.3588 -0.1321
 5102SOL     OW26938   2.716   2.567  10.380  0.1738 -0.5272 -0.2849
 5102SOL    HW126939   2.678   2.621  10.310  0.1524  0.1367  0.2453
 5102SOL    HW226940   2.723   2.630  10.452  0.4217 -2.9429  1.7946
 5103SOL     OW26941   2.754   3.566   5.536  0.8856 -0.2383  0.0808
 5103SOL    HW126942   2.667   3.542   5.505  1.0089 -0.8391  0.2092
 5103SOL    HW226943   2.742   3.544   5.629 -1.0986 -0.7927 -0.3053
 5104SOL     OW26944   1.689   2.495   7.663  0.3312 -0.2753  0.0345
 5104SOL    HW126945   1.703   2.539   7.747 -0.1185 -0.0336 -0.0171
 5104SOL    HW226946   1.613   2.437   7.672 -0.2831  0.5777  0.4067
 5105SOL     OW26947   3.840   4.647  14.102 -0.2112  0.3663 -0.3173
 5105SOL    HW126948   3.775   4.679  14.039 -0.3406  1.3617  0.3173
 5105SOL    HW226949   3.789   4.614  14.175 -0.2874  1.2603  0.0405
 5106SOL     OW26950   2.762   3.108  10.513 -0.5540  0.4309  0.2565
 5106SOL    HW126951   2.727   3.112  10.424 -0.5177 -2.9412  0.0939
 5106SOL    HW226952   2.686   3.138  10.564  0.5753  0.2356  2.0375
 5107SOL     OW26953   1.490   0.890   9.958  0.2764  0.0044 -0.0493
 5107SOL    HW126954   1.456   0.932   9.879  1.4638  0.3335 -0.3899
 5107SOL    HW226955   1.481   0.799   9.929  1.8290  0.1030 -0.8539
 5108SOL     OW26956   0.324   4.072   8.667 -0.0797 -0.0667  0.1920
 5108SOL    HW126957   0.359   4.070   8.578  0.7248 -0.4654  0.5143
 5108SOL    HW226958   0.235   4.100   8.647 -1.4440 -2.8807  2.4660
 5109SOL     OW26959   2.008   2.176   2.295 -0.2505  0.0694  0.4332
 5109SOL    HW126960   2.032   2.105   2.353  1.0736  0.2924  0.1544
 5109SOL    HW226961   1.962   2.126   2.227  0.2753  0.8366 -0.4974
 5110SOL     OW26962   4.191   0.954  17.325 -0.6165 -0.2421  0.2150
 5110SOL    HW126963   4.221   0.920  17.241  2.1487 -0.9958  1.4955
 5110SOL    HW226964   4.138   1.028  17.296 -1.6709 -0.8166  0.6794
 5111SOL     OW26965   2.512   1.988  16.104 -0.6941 -0.0711 -0.1614
 5111SOL    HW126966   2.499   2.079  16.077 -0.9616 -0.3004 -0.7978
 5111SOL    HW226967   2.427   1.968  16.143 -0.8138  1.3997  0.3507
 5112SOL     OW26968   4.696   2.423   5.540 -0.6329  0.2822 -0.0590
 5112SOL    HW126969   4.722   2.454   5.453  0.3514 -0.8786 -0.1845
 5112SOL    HW226970   4.733   2.336   5.522 -0.0153  0.5238  0.0445
 5113SOL     OW26971   4.296   2.993   0.033 -0.2193 -0.5104 -0.4350
 5113SOL    HW126972   4.220   3.029  17.736 -0.3612 -0.5372 -0.2229
 5113SOL    HW226973   4.267   2.998   0.125  0.2159  1.3230 -0.3932
 5114SOL     OW26974   4.662   1.848   6.985 -0.0236  0.3350  0.1487
 5114SOL    HW126975   4.672   1.780   7.053 -0.5097  0.4695  0.3525
 5114SOL    HW226976   4.568   1.847   6.968  0.1309  3.4393 -0.7532
 5115SOL     OW26977   2.426   0.999   9.509  0.5785  0.4203  0.0195
 5115SOL    HW126978   2.422   0.991   9.604 -0.8347  0.1253 -0.0724
 5115SOL    HW226979   2.376   1.080   9.500  1.5014  0.9799 -0.1069
 5116SOL     OW26980   0.349   3.095  14.964 -0.1329  0.1332  0.0458
 5116SOL    HW126981   0.421   3.149  14.933  1.4738 -2.2210 -0.3661
 5116SOL    HW226982   0.339   3.124  15.055 -1.6919 -0.0815 -0.0565
 5117SOL     OW26983   1.304   0.341   7.398 -0.2202 -0.2550 -0.1417
 5117SOL    HW126984   1.225   0.314   7.444  0.6240 -2.0152  0.2964
 5117SOL    HW226985   1.339   0.398   7.466  1.5093 -0.2482 -1.0364
 5118SOL     OW26986   3.303   3.620   5.486 -0.3848  0.4189  0.3185
 5118SOL    HW126987   3.351   3.608   5.567  1.2446  1.1174 -0.5545
 5118SOL    HW226988   3.230   3.675   5.515 -1.0459 -0.7143  0.8094
 5119SOL     OW26989   1.149   2.876  11.928 -0.4422  0.1677 -1.2065
 5119SOL    HW126990   1.232   2.831  11.910  0.8571  1.7317  0.8543
 5119SOL    HW226991   1.174   2.968  11.925 -0.9839  0.2410 -3.3043
 5120SOL     OW26992   2.378   4.357   5.699  0.1384 -0.2147  0.1232
 5120SOL    HW126993   2.473   4.343   5.701  0.2295  0.2468 -0.7200
 5120SOL    HW226994   2.377   4.451   5.719 -0.7818 -0.3329  0.5960
 5121SOL     OW26995   2.744   2.679   5.950 -0.1460 -0.5114 -0.5528
 5121SOL    HW126996   2.795   2.758   5.970  0.4533 -0.8619 -0.6864
 5121SOL    HW226997   2.659   2.723   5.946  0.6668  1.1397  0.0596
 5122SOL     OW26998   3.715   2.128   4.474 -0.0242  0.4709 -0.3567
 5122SOL    HW126999   3.709   2.222   4.457  0.2852  0.6729  0.6511
 5122SOL    HW227000   3.799   2.095   4.443 -1.2912 -2.1233 -1.0306
 5123SOL     OW27001   4.527   1.102   3.199 -0.7756 -0.3465  0.0063
 5123SOL    HW127002   4.493   1.107   3.110  3.3518  1.9143 -1.4425
 5123SOL    HW227003   4.450   1.100   3.256  0.0075  0.9788  1.1137
 5124SOL     OW27004   2.049   1.342   8.428 -0.2784  0.2115  0.2269
 5124SOL    HW127005   2.097   1.260   8.425 -1.5911 -0.5740  0.5695
 5124SOL    HW227006   1.968   1.319   8.382  1.3283 -1.1132 -1.8873
 5125SOL     OW27007   1.542   0.789   7.724 -0.3269  0.0624  0.5819
 5125SOL    HW127008   1.623   0.766   7.679 -1.3789 -1.2942 -0.6082
 5125SOL    HW227009   1.562   0.764   7.815  1.7958  1.8346  0.6069
 5126SOL     OW27010   3.479   2.152   1.185 -0.1610 -0.1463  0.1274
 5126SOL    HW127011   3.411   2.113   1.130 -0.1504  1.9430 -1.3937
 5126SOL    HW227012   3.517   2.073   1.222  1.7880 -0.1402 -1.7937
 5127SOL     OW27013   3.170   0.837  16.683 -0.2207 -0.0708 -0.4223
 5127SOL    HW127014   3.120   0.803  16.758 -0.0879 -0.2906 -0.4339
 5127SOL    HW227015   3.183   0.931  16.690 -0.7378  0.0342 -0.8543
 5128SOL     OW27016   0.058   1.582   6.600 -0.3714  0.4922 -0.1374
 5128SOL    HW127017   0.142   1.558   6.638  0.0287  1.7462 -0.2286
 5128SOL    HW227018   0.068   1.677   6.594  2.5192  0.3011  1.9823
 5129SOL     OW27019   1.672   3.865   9.305  0.4792  0.0288 -0.3095
 5129SOL    HW127020   1.601   3.866   9.241 -1.2368  0.9951  1.5917
 5129SOL    HW227021   1.640   3.797   9.363 -1.0186 -0.9273 -2.2732
 5130SOL     OW27022   4.197   1.648   2.890 -0.2138 -0.1362  0.0239
 5130SOL    HW127023   4.274   1.705   2.884 -0.4317  0.4318  2.6013
 5130SOL    HW227024   4.140   1.707   2.940  0.2587 -0.4412  0.9271
 5131SOL     OW27025   0.309   4.252  17.246 -0.3199 -0.1908 -0.0703
 5131SOL    HW127026   0.296   4.344  17.268  0.5527  0.1004 -0.7694
 5131SOL    HW227027   0.403   4.248  17.227 -0.1081  0.3008  0.8756
 5132SOL     OW27028   0.282   1.348   4.623 -0.1786 -0.0571 -0.1276
 5132SOL    HW127029   0.322   1.430   4.653  1.1867 -0.8080  0.0726
 5132SOL    HW227030   0.332   1.286   4.676  0.7287  1.2885  0.6039
 5133SOL     OW27031   1.232   3.120  11.864  0.3606 -0.0859 -0.2833
 5133SOL    HW127032   1.295   3.187  11.888  0.5067 -0.8643  1.4939
 5133SOL    HW227033   1.265   3.094  11.778 -0.3884 -0.9214 -0.3211
 5134SOL     OW27034   1.436   0.401  10.997 -0.0487 -0.1295  0.3173
 5134SOL    HW127035   1.462   0.464  10.930 -1.1489 -0.3167 -0.2794
 5134SOL    HW227036   1.526   0.370  11.012  0.2417  0.2637 -0.5802
 5135SOL     OW27037   1.748   0.075   0.287  0.2227 -0.4282  0.0933
 5135SOL    HW127038   1.760   0.058   0.381 -0.1575 -2.1415 -0.1610
 5135SOL    HW227039   1.658   0.046   0.269  0.3167  0.0495 -1.1141
 5136SOL     OW27040   3.005   1.840   1.665 -0.9244 -0.1486 -0.3181
 5136SOL    HW127041   3.010   1.746   1.681  1.5691  0.1286  0.5573
 5136SOL    HW227042   2.983   1.846   1.572  3.0957  3.8256 -1.0030
 5137SOL     OW27043   3.358   2.321  14.326  0.0184  0.0431 -0.1237
 5137SOL    HW127044   3.411   2.243  14.344 -0.0507 -0.1496 -0.7545
 5137SOL    HW227045   3.287   2.280  14.276 -1.3440 -0.3734  2.1860
 5138SOL     OW27046   3.491   2.741   2.749 -0.5918  0.0795  0.0068
 5138SOL    HW127047   3.472   2.689   2.671 -1.4244  0.5720 -0.1173
 5138SOL    HW227048   3.538   2.676   2.801  0.2196 -1.3530 -2.5023
 5139SOL     OW27049   1.006   4.234  13.869  0.4991 -0.0995  0.1061
 5139SOL    HW127050   1.099   4.238  13.847 -0.4866 -0.7691 -4.2471
 5139SOL    HW227051   1.000   4.151  13.917  0.1153  0.8058  1.6165
 5140SOL     OW27052   3.633   4.263   5.217 -0.2432  0.0289 -0.5879
 5140SOL    HW127053   3.682   4.329   5.267 -0.8343  0.0423 -0.0172
 5140SOL    HW227054   3.628   4.188   5.276 -0.6594 -0.1722 -0.8776
 5141SOL     OW27055   4.311   2.975   4.286 -0.2350 -0.5656 -0.0990
 5141SOL    HW127056   4.221   2.972   4.320  0.2933  1.2498  1.4486
 5141SOL    HW227057   4.348   2.900   4.332  2.4461  0.3641 -0.7540
 5142SOL     OW27058   4.063   1.101  12.101  0.6332  0.1627 -0.0956
 5142SOL    HW127059   4.125   1.146  12.044 -0.0270 -0.4750 -1.3409
 5142SOL    HW227060   4.119   1.025  12.119  3.4859  2.3130  0.0154
 5143SOL     OW27061   4.447   4.647  14.726 -0.0575  0.2665 -0.6915
 5143SOL    HW127062   4.511   4.601  14.672 -0.4786 -0.8031 -0.2591
 5143SOL    HW227063   4.433   4.718  14.662 -0.5083  0.6294 -0.1905
 5144SOL     OW27064   1.327   3.454   5.995  0.6447 -0.3489  0.4125
 5144SOL    HW127065   1.274   3.534   5.982  3.0913  1.1258 -0.4190
 5144SOL    HW227066   1.277   3.388   5.947 -1.2527  0.0633  1.8295
 5145SOL     OW27067   2.679   3.481   5.804 -0.0781  0.6953  0.2168
 5145SOL    HW127068   2.677   3.403   5.860  3.1809  0.0139 -0.6006
 5145SOL    HW227069   2.584   3.490   5.793 -0.3440 -2.1284  0.2781
 5146SOL     OW27070   4.005   4.303  14.751  1.1084  0.2478 -0.6049
 5146SOL    HW127071   4.057   4.358  14.691  1.8580  0.8072  0.5568
 5146SOL    HW227072   4.075   4.276  14.810 -0.0290  1.0846  1.1187
 5147SOL     OW27073   4.479   3.825   0.871  0.2230  0.2797 -0.1105
 5147SOL    HW127074   4.433   3.785   0.944  1.4103  0.3918  0.6944
 5147SOL    HW227075   4.513   3.749   0.823 -1.4165 -0.8367  0.4949
 5148SOL     OW27076   0.047   3.813  14.020 -0.0156  0.5717  0.1144
 5148SOL    HW127077   0.080   3.888  13.971  0.4361 -0.2085 -0.7596
 5148SOL    HW227078   0.062   3.832  14.112 -0.7122  3.5562 -0.3840
 5149SOL     OW27079   2.840   1.591   4.048  0.1379 -0.2115 -0.2128
 5149SOL    HW127080   2.899   1.619   3.978  1.6102 -3.4840 -0.2909
 5149SOL    HW227081   2.789   1.516   4.015 -0.3430 -0.8847  2.0506
 5150SOL     OW27082   4.049   4.225   8.049  0.1747  0.1691  0.1971
 5150SOL    HW127083   3.972   4.177   8.079 -0.7664  0.5444 -1.6475
 5150SOL    HW227084   4.052   4.291   8.118  1.1993  0.0834  0.2427
 5151SOL     OW27085   3.466   3.689  10.527 -0.8104  0.0969 -0.3988
 5151SOL    HW127086   3.424   3.655  10.606 -0.0386 -0.9115 -0.4208
 5151SOL    HW227087   3.456   3.783  10.540 -0.0799  0.1697 -0.3671
 5152SOL     OW27088   2.909   4.055   6.350 -0.2557  0.4882  0.0477
 5152SOL    HW127089   2.971   4.102   6.406 -0.0127 -0.0642  0.2478
 5152SOL    HW227090   2.831   4.109   6.358 -1.3011 -1.3147  1.7143
 5153SOL     OW27091   4.695   1.856   8.107  0.2619  0.4073 -0.0203
 5153SOL    HW127092   4.715   1.870   8.200 -1.5970 -0.5321  0.5221
 5153SOL    HW227093   4.698   1.939   8.059  0.2538  0.3993 -0.0345
 5154SOL     OW27094   3.467   2.133  11.903  0.3693 -0.5202 -0.0200
 5154SOL    HW127095   3.520   2.064  11.862  0.0750 -1.4816  1.2180
 5154SOL    HW227096   3.453   2.189  11.827 -2.2183  0.5969  1.2766
 5155SOL     OW27097   0.496   4.170   2.887  0.5282  0.5991 -0.0685
 5155SOL    HW127098   0.442   4.121   2.825  0.8229  0.6683 -0.3754
 5155SOL    HW227099   0.482   4.115   2.964  0.5101 -0.7605 -1.0449
 5156SOL     OW27100   4.181   0.146   1.129 -0.3766  0.4713 -0.1568
 5156SOL    HW127101   4.124   0.165   1.054  2.4744  1.0910 -2.1561
 5156SOL    HW227102   4.148   0.064   1.166 -3.6324  1.0878 -1.6161
 5157SOL     OW27103   0.906   2.918   7.686  0.1218 -0.0087 -0.0161
 5157SOL    HW127104   0.897   2.827   7.713 -0.2083 -0.2549 -0.9499
 5157SOL    HW227105   0.900   2.964   7.770 -0.3753 -0.6912  0.3142
 5158SOL     OW27106   0.798   0.552   5.604  0.0839 -0.2135 -0.1848
 5158SOL    HW127107   0.728   0.582   5.662 -1.0862 -1.4447 -0.9501
 5158SOL    HW227108   0.819   0.626   5.547  0.9627  0.7510  1.3963
 5159SOL     OW27109   3.774   1.210   7.156  0.0359 -0.4923 -0.1473
 5159SOL    HW127110   3.739   1.129   7.194  1.2325 -0.3030  1.3390
 5159SOL    HW227111   3.725   1.272   7.210  2.1277 -0.3708  1.6172
 5160SOL     OW27112   3.086   1.700   7.560  0.3240  0.4602  0.3369
 5160SOL    HW127113   3.010   1.673   7.508  0.3694  0.6748  0.1591
 5160SOL    HW227114   3.131   1.751   7.493 -2.6808 -1.1790 -3.0131
 5161SOL     OW27115   1.090   3.218   3.358  0.4888  0.2679  0.6165
 5161SOL    HW127116   1.064   3.305   3.391  0.5897  0.9767 -1.2087
 5161SOL    HW227117   1.167   3.248   3.311  0.7999  0.8078  1.4578
 5162SOL     OW27118   0.535   0.714   6.490  0.3619  0.1772 -0.5197
 5162SOL    HW127119   0.579   0.652   6.549  0.1860 -0.1146 -0.6938
 5162SOL    HW227120   0.515   0.663   6.412  3.1305 -1.3346 -0.2436
 5163SOL     OW27121   0.127   1.832  17.424 -0.0685  0.3719 -0.0503
 5163SOL    HW127122   0.157   1.918  17.394 -2.4165  1.6851  1.3049
 5163SOL    HW227123   0.152   1.772  17.354  1.2740  1.6419 -0.6532
 5164SOL     OW27124   0.084   1.888  14.375  0.0981  0.0239  0.1240
 5164SOL    HW127125   0.028   1.812  14.383  1.9070 -1.4036 -0.7038
 5164SOL    HW227126   0.167   1.842  14.392 -0.1726 -0.6817 -0.4767
 5165SOL     OW27127   4.709   0.641   3.185 -0.1133  0.7906  0.5530
 5165SOL    HW127128   0.014   0.633   3.100 -1.5618 -0.8905 -0.0229
 5165SOL    HW227129   4.618   0.627   3.160  0.0816 -0.1087  0.3505
 5166SOL     OW27130   2.267   4.221   4.767 -0.1190  0.0575  0.5771
 5166SOL    HW127131   2.198   4.288   4.765 -1.0271 -0.8978 -0.4703
 5166SOL    HW227132   2.222   4.144   4.733  0.0654  0.4319 -0.5313
 5167SOL     OW27133   1.431   1.862  14.312  0.2616  0.4456 -0.6576
 5167SOL    HW127134   1.475   1.942  14.284  1.3443  0.8907  2.3867
 5167SOL    HW227135   1.501   1.815  14.358  2.0008  2.8069 -0.8924
 5168SOL     OW27136   1.799   0.104   2.219  0.4880  0.3505 -0.0827
 5168SOL    HW127137   1.894   0.105   2.207  0.6828 -1.8224  1.4652
 5168SOL    HW227138   1.793   0.076   2.310 -0.2911  3.5950  0.8626
 5169SOL     OW27139   0.114   2.523   9.476 -0.5385 -0.2011 -0.0381
 5169SOL    HW127140   0.141   2.510   9.385 -2.4827 -0.0834 -0.6208
 5169SOL    HW227141   0.050   2.454   9.493 -0.8255  0.6600  2.3412
 5170SOL     OW27142   2.404   3.968   9.493  0.2978  0.0879 -0.3041
 5170SOL    HW127143   2.365   3.881   9.488 -0.0671  0.1286  1.7732
 5170SOL    HW227144   2.326   4.021   9.476  1.1235  0.9696 -1.3646
 5171SOL     OW27145   4.095   0.609   3.077 -0.3125 -0.2635  0.3908
 5171SOL    HW127146   4.174   0.657   3.049  0.0532 -0.8539  0.3995
 5171SOL    HW227147   4.135   0.527   3.047  0.2115 -0.4075  1.4869
 5172SOL     OW27148   3.543   2.916   3.499 -0.4140 -0.1587  0.0115
 5172SOL    HW127149   3.552   2.900   3.592  2.9838  0.7329 -0.1706
 5172SOL    HW227150   3.497   3.000   3.499  0.1495  0.1486  1.5274
 5173SOL     OW27151   4.552   1.671   5.962 -0.1398 -0.0193  0.2519
 5173SOL    HW127152   4.645   1.661   5.942 -1.0927 -0.4041 -3.9843
 5173SOL    HW227153   4.511   1.611   5.900  1.1368  1.8067 -2.3773
 5174SOL     OW27154   1.908   2.574   4.560 -0.3299 -0.4863  0.1506
 5174SOL    HW127155   1.877   2.556   4.649  0.0485  1.3772  0.6707
 5174SOL    HW227156   1.843   2.521   4.515 -0.5789 -0.0994  0.0482
 5175SOL     OW27157   1.495   4.343   2.535  0.1768 -0.0856  0.8236
 5175SOL    HW127158   1.455   4.256   2.526 -0.6458  0.5101 -1.1740
 5175SOL    HW227159   1.453   4.371   2.617 -0.7490  0.8832  0.0138
 5176SOL     OW27160   3.404   1.384  14.598  0.2609  0.6352  0.2394
 5176SOL    HW127161   3.317   1.369  14.563  0.6566  1.6059 -1.1687
 5176SOL    HW227162   3.406   1.477  14.620 -2.1197  0.0937  2.6062
 5177SOL     OW27163   3.998   1.465   9.259  0.4619  0.0815  0.0566
 5177SOL    HW127164   4.088   1.441   9.281  0.5529 -0.8444 -1.2933
 5177SOL    HW227165   3.966   1.486   9.347  1.3593 -0.3476  0.4894
 5178SOL     OW27166   3.843   3.781  11.335 -0.7033 -0.3267  0.0192
 5178SOL    HW127167   3.856   3.696  11.294 -2.1141 -0.1212 -0.8396
 5178SOL    HW227168   3.793   3.751  11.411  2.3791 -0.7461  1.9100
 5179SOL     OW27169   2.428   2.311   6.557 -0.7781  0.1834  0.3256
 5179SOL    HW127170   2.459   2.231   6.599 -2.2070  1.1742  3.2964
 5179SOL    HW227171   2.442   2.387   6.614 -2.2038 -0.2631  1.2617
 5180SOL     OW27172   0.588   1.116   7.491 -0.2848  0.4110 -0.0873
 5180SOL    HW127173   0.649   1.183   7.459 -0.5406 -0.6465 -2.8068
 5180SOL    HW227174   0.543   1.090   7.410 -1.6533  1.4957  0.3209
 5181SOL     OW27175   2.690   3.443   6.712  0.2121 -0.5320  0.1261
 5181SOL    HW127176   2.738   3.365   6.741  1.9683  0.1410 -1.0362
 5181SOL    HW227177   2.609   3.399   6.685  0.4978 -2.3607  2.2499
 5182SOL     OW27178   4.575   0.349   8.664 -0.0556  0.4494  0.3359
 5182SOL    HW127179   4.487   0.371   8.632  0.2463  0.7896 -0.2624
 5182SOL    HW227180   4.596   0.437   8.698  0.7855  0.8683 -1.2637
 5183SOL     OW27181   4.034   3.670   2.501 -0.1468  0.0112  0.0039
 5183SOL    HW127182   4.107   3.651   2.559  0.5478  0.0669 -0.8493
 5183SOL    HW227183   3.961   3.633   2.550 -0.2180  0.1377 -0.0068
 5184SOL     OW27184   3.765   3.752  17.069  0.4010  0.3558 -0.1601
 5184SOL    HW127185   3.839   3.694  17.053 -0.4331 -1.3590  2.0257
 5184SOL    HW227186   3.803   3.835  17.041  0.0519  0.8279  0.7452
 5185SOL     OW27187   0.384   0.519   9.346  0.3374  0.6140  1.0394
 5185SOL    HW127188   0.380   0.519   9.250  3.6226 -1.3405  0.9029
 5185SOL    HW227189   0.341   0.603   9.363  1.1220  1.3489 -0.5605
 5186SOL     OW27190   4.556   1.540   2.209  0.2549  0.3856 -0.5094
 5186SOL    HW127191   4.554   1.606   2.139 -0.0719 -0.2369 -1.0866
 5186SOL    HW227192   4.461   1.526   2.214  0.5017 -0.3938  2.1446
 5187SOL     OW27193   3.163   1.087   1.858  0.0805 -0.8331 -0.0184
 5187SOL    HW127194   3.102   1.014   1.872  0.1562 -0.8923  0.0020
 5187SOL    HW227195   3.176   1.088   1.763  0.5395 -1.0021  0.0476
 5188SOL     OW27196   0.188   3.506  10.259  0.7266 -0.0573 -0.1328
 5188SOL    HW127197   0.160   3.438  10.197 -1.2426 -0.7233  1.4727
 5188SOL    HW227198   0.112   3.563  10.245 -1.1123 -2.3740  0.3275
 5189SOL     OW27199   0.514   0.204  14.464  0.1021  0.3237 -0.2778
 5189SOL    HW127200   0.528   0.113  14.439  0.1221  0.5753 -1.2134
 5189SOL    HW227201   0.419   0.216  14.456  0.5277  1.8110 -3.2280
 5190SOL     OW27202   2.767   0.337  13.475 -0.2179  0.3001  0.6802
 5190SOL    HW127203   2.673   0.347  13.460 -0.2259 -1.5130 -0.4672
 5190SOL    HW227204   2.785   0.430  13.462 -0.1529 -0.1963 -2.7519
 5191SOL     OW27205   3.311   1.355   1.602 -0.0983 -0.3026 -0.5715
 5191SOL    HW127206   3.363   1.299   1.545 -0.4203 -0.9069 -0.2792
 5191SOL    HW227207   3.276   1.299   1.672  0.3771  0.0697 -0.0327
 5192SOL     OW27208   0.046   4.449   9.083  0.0217 -1.1050  0.0042
 5192SOL    HW127209   0.031   4.509   9.010  2.8760  0.6150  0.8113
 5192SOL    HW227210   4.696   4.445   9.122  0.5361  0.4771  1.2877
 5193SOL     OW27211   4.394   1.570   1.410  0.1640  0.0629  0.2733
 5193SOL    HW127212   4.340   1.497   1.379 -0.4419  1.5402 -2.1786
 5193SOL    HW227213   4.383   1.553   1.503 -1.0388  3.4909  0.7733
 5194SOL     OW27214   3.052   3.723   1.882  0.0205  0.1204 -0.4490
 5194SOL    HW127215   2.972   3.709   1.833 -0.4632 -0.1468  0.4219
 5194SOL    HW227216   3.094   3.786   1.823  3.1092  1.0848  2.7276
 5195SOL     OW27217   2.880   2.025   8.231  0.7909 -0.0877  0.3021
 5195SOL    HW127218   2.934   1.997   8.157  1.1646  2.1280 -0.2513
 5195SOL    HW227219   2.939   2.016   8.306 -0.2954  2.2134  1.4301
 5196SOL     OW27220   3.235   0.270   7.020 -0.6429  0.1630 -0.9401
 5196SOL    HW127221   3.329   0.260   7.037 -0.8016  2.0181  0.9093
 5196SOL    HW227222   3.182   0.192   7.037 -1.1872 -0.0994 -3.8326
 5197SOL     OW27223   3.508   2.004  14.822  0.0022 -0.3805  0.2485
 5197SOL    HW127224   3.515   2.076  14.760  1.4202 -2.1390 -1.6554
 5197SOL    HW227225   3.599   1.991  14.850 -0.4724 -1.5978  1.2088
 5198SOL     OW27226   0.255   0.414  12.776 -0.2158 -0.2901 -0.7023
 5198SOL    HW127227   0.222   0.487  12.829 -1.5819 -1.0264 -0.5401
 5198SOL    HW227228   0.256   0.450  12.687  0.9452  1.6669  0.0856
 5199SOL     OW27229   2.948   2.272   7.461  0.5502 -0.0351  0.2596
 5199SOL    HW127230   3.002   2.329   7.406  1.4652 -2.2622 -1.1217
 5199SOL    HW227231   2.865   2.321   7.458 -0.3112 -1.4987  0.4009
 5200SOL     OW27232   2.857   3.774   3.229  0.0840  0.2417  0.1859
 5200SOL    HW127233   2.766   3.760   3.257 -0.4436  1.4477 -0.9010
 5200SOL    HW227234   2.850   3.776   3.134  0.2034 -1.1209  0.1519
 5201SOL     OW27235   0.051   4.585   4.417 -0.4452 -0.1373  0.6838
 5201SOL    HW127236   0.127   4.563   4.469  0.7113  2.0852 -0.0500
 5201SOL    HW227237   4.725   4.514   4.426  0.2021 -0.8709 -0.5386
 5202SOL     OW27238   1.890   2.968   9.328 -0.8439  0.7965  0.6270
 5202SOL    HW127239   1.811   2.938   9.372 -0.0140 -1.5439  0.5704
 5202SOL    HW227240   1.856   3.055   9.309  1.6375  1.9203  1.3622
 5203SOL     OW27241   0.895   1.898   3.713  0.7086 -0.4480  0.2348
 5203SOL    HW127242   0.909   1.983   3.672  1.9744 -0.5348  0.4727
 5203SOL    HW227243   0.981   1.856   3.703  1.1572  0.3782  0.6110
 5204SOL     OW27244   0.285   2.439   4.110  0.4618  0.0686 -0.4252
 5204SOL    HW127245   0.257   2.349   4.127 -0.5148  0.5347  0.3809
 5204SOL    HW227246   0.211   2.478   4.063 -0.3576  0.1955  0.9667
 5205SOL     OW27247   3.471   2.374   7.565  0.0846 -0.4869  0.4544
 5205SOL    HW127248   3.561   2.345   7.553  1.1145  3.0308 -0.1436
 5205SOL    HW227249   3.485   2.468   7.564 -0.0170 -0.4618  1.3771
 5206SOL     OW27250   2.619   2.514   1.585 -0.2180  0.0502 -0.0422
 5206SOL    HW127251   2.558   2.507   1.659  1.3881 -3.6470  0.9527
 5206SOL    HW227252   2.678   2.439   1.599 -0.9646 -0.4628  0.3552
 5207SOL     OW27253   0.710   2.863   4.182  0.0083 -0.3130 -0.0086
 5207SOL    HW127254   0.745   2.867   4.271 -1.5262  0.0866  0.5840
 5207SOL    HW227255   0.678   2.773   4.178  0.6264 -0.5311 -0.0092
 5208SOL     OW27256   3.815   3.354   2.884 -0.1505  0.1980 -0.2714
 5208SOL    HW127257   3.884   3.299   2.921 -0.6948 -1.8625 -2.3286
 5208SOL    HW227258   3.739   3.296   2.876 -1.4457  2.1855 -2.5520
 5209SOL     OW27259   0.288   2.092  10.203 -0.0216  0.1863 -0.4990
 5209SOL    HW127260   0.332   2.012  10.231  1.0648  0.7630 -0.5453
 5209SOL    HW227261   0.209   2.085  10.258  1.3912 -0.6547  1.4290
 5210SOL     OW27262   1.070   0.992   2.182 -0.0110 -0.0997  0.3496
 5210SOL    HW127263   1.108   0.904   2.181 -0.3711 -0.2527  0.2803
 5210SOL    HW227264   1.032   1.009   2.269 -1.9806 -1.4152 -0.2588
 5211SOL     OW27265   2.590   4.501  10.322  0.4168  0.5623 -0.0118
 5211SOL    HW127266   2.669   4.456  10.351  0.2983  0.5696  0.3182
 5211SOL    HW227267   2.529   4.437  10.358  2.3005 -2.4878 -2.2591
 5212SOL     OW27268   3.692   3.502   0.867 -0.0363  0.2753  0.4991
 5212SOL    HW127269   3.668   3.412   0.845 -0.2037  0.3976  0.1819
 5212SOL    HW227270   3.664   3.550   0.789  0.3052  1.5650  1.1659
 5213SOL     OW27271   3.445   1.992   6.407  0.3173  0.0735 -0.4297
 5213SOL    HW127272   3.436   1.897   6.396  2.5105 -0.0741 -0.8310
 5213SOL    HW227273   3.401   2.019   6.326 -0.0856  0.1925 -0.1732
 5214SOL     OW27274   2.663   1.514   4.329 -0.3395 -0.0715  0.1201
 5214SOL    HW127275   2.655   1.535   4.236 -1.6064  0.5031  0.3532
 5214SOL    HW227276   2.662   1.601   4.368 -1.8366 -0.5489  1.1629
 5215SOL     OW27277   3.658   0.105  13.393 -0.1502 -0.0447 -0.3549
 5215SOL    HW127278   3.710   0.056  13.329  0.4419 -1.1488  0.9643
 5215SOL    HW227279   3.569   0.074  13.380 -0.1261 -0.0618 -0.4818
 5216SOL     OW27280   4.140   4.230  12.768  0.5445  0.0415  0.3389
 5216SOL    HW127281   4.216   4.286  12.788  0.6496 -0.3489  1.0136
 5216SOL    HW227282   4.186   4.171  12.709  0.4589 -0.5413  0.8624
 5217SOL     OW27283   0.780   3.894   5.851 -0.3294 -0.5634  0.3458
 5217SOL    HW127284   0.700   3.917   5.802  1.0197  1.6861 -0.7982
 5217SOL    HW227285   0.780   3.963   5.917  0.8464  1.2058 -1.5135
 5218SOL     OW27286   2.206   0.327  14.086 -0.3437 -0.5407  0.5251
 5218SOL    HW127287   2.161   0.411  14.090  0.9618  0.1391  0.8952
 5218SOL    HW227288   2.205   0.299  14.178  3.0523  1.1473  1.0483
 5219SOL     OW27289   1.197   4.409   4.748 -0.5189 -0.1080  0.2704
 5219SOL    HW127290   1.198   4.423   4.843 -0.6463  0.5098  0.1766
 5219SOL    HW227291   1.270   4.347   4.746  0.5789  1.1472  1.1501
 5220SOL     OW27292   0.700   2.486   5.183 -0.4768 -0.2282 -0.3813
 5220SOL    HW127293   0.769   2.553   5.179 -1.4618  0.8004 -0.0124
 5220SOL    HW227294   0.672   2.494   5.092  1.9413 -0.8876 -1.1833
 5221SOL     OW27295   4.515   2.963   7.986 -0.1217 -0.3967  0.0847
 5221SOL    HW127296   4.452   2.894   7.967  0.8953 -0.6144 -2.5105
 5221SOL    HW227297   4.593   2.912   7.962  0.1684 -0.6435  1.5390
 5222SOL     OW27298   0.704   2.836  10.022  0.0676 -0.3110 -0.2236
 5222SOL    HW127299   0.619   2.805  10.052 -0.0911 -0.2604 -0.6198
 5222SOL    HW227300   0.693   2.825   9.928  2.8512 -1.6383 -0.4016
 5223SOL     OW27301   4.342   2.540   2.490  0.2959 -0.3909  0.2671
 5223SOL    HW127302   4.272   2.512   2.549 -0.2271  1.4529  0.5207
 5223SOL    HW227303   4.383   2.607   2.545  0.8159 -0.7626  0.3378
 5224SOL     OW27304   3.785   1.430   8.946 -0.5138 -0.1567  0.1839
 5224SOL    HW127305   3.738   1.403   9.025  1.6866 -0.9658  1.2187
 5224SOL    HW227306   3.758   1.362   8.885 -1.3712  0.8393 -0.5417
 5225SOL     OW27307   3.448   2.956   8.188  0.0232  0.2179 -0.3062
 5225SOL    HW127308   3.507   2.911   8.248  0.3888  0.3285 -0.5811
 5225SOL    HW227309   3.386   3.006   8.242 -1.4966 -0.7087 -1.1652
 5226SOL     OW27310   1.519   1.917   8.710 -0.5378 -0.0089 -0.5179
 5226SOL    HW127311   1.489   1.958   8.629 -1.1645  0.7758  0.1114
 5226SOL    HW227312   1.438   1.875   8.737  0.1797 -0.2217  1.3183
 5227SOL     OW27313   0.062   3.954   3.222  0.4478 -0.1208  0.2532
 5227SOL    HW127314   0.150   3.992   3.233  0.7687 -0.8437  0.2046
 5227SOL    HW227315   0.088   3.890   3.155 -1.8930 -1.0916  0.2865
 5228SOL     OW27316   2.008   1.398   9.883 -0.2581  0.1188  0.3677
 5228SOL    HW127317   2.076   1.459   9.910  0.4248 -0.2034 -0.6050
 5228SOL    HW227318   1.922   1.436   9.901 -0.9764 -0.8503 -0.9828
 5229SOL     OW27319   2.410   4.477  13.727 -0.6977  0.3130 -0.2974
 5229SOL    HW127320   2.412   4.397  13.779 -0.7855 -0.2906 -1.2084
 5229SOL    HW227321   2.428   4.542  13.794 -0.6974  0.1868 -0.1740
 5230SOL     OW27322   3.988   4.110   8.672  0.0990 -0.6534 -0.2605
 5230SOL    HW127323   4.030   4.052   8.609  3.2107  2.7295 -1.2654
 5230SOL    HW227324   3.972   4.046   8.742 -0.5975  0.2849  0.4308
 5231SOL     OW27325   3.222   4.130   0.480 -0.0314 -0.2283 -0.1207
 5231SOL    HW127326   3.209   4.091   0.394 -1.7929  0.5591 -0.2274
 5231SOL    HW227327   3.228   4.222   0.454 -0.7055 -0.3069 -0.5536
 5232SOL     OW27328   0.441   4.630  11.851  0.2025 -0.0326 -0.0055
 5232SOL    HW127329   0.458   4.565  11.919 -1.9871 -1.7439 -1.1013
 5232SOL    HW227330   0.527   4.651  11.815  1.1226  1.3918  2.9782
 5233SOL     OW27331   3.512   1.176   8.227 -0.3934  0.5133  0.0339
 5233SOL    HW127332   3.558   1.148   8.307  0.8925  1.0871 -0.5139
 5233SOL    HW227333   3.524   1.093   8.180  2.0615  0.5615  0.5614
 5234SOL     OW27334   2.681   1.178  13.151 -0.1980  0.5600 -0.2811
 5234SOL    HW127335   2.659   1.110  13.086  4.9964  0.8778 -2.3528
 5234SOL    HW227336   2.734   1.234  13.095 -0.1030 -0.3228 -1.0791
 5235SOL     OW27337   3.783   3.121   8.217  0.1327  0.1483 -0.1934
 5235SOL    HW127338   3.839   3.160   8.150 -0.9254  0.1154 -1.0978
 5235SOL    HW227339   3.724   3.196   8.226 -1.2729 -0.9917  0.1544
 5236SOL     OW27340   4.503   3.121   8.206  0.6338  0.6646 -0.7697
 5236SOL    HW127341   4.500   3.206   8.162 -0.1047  2.4633  2.7564
 5236SOL    HW227342   4.510   3.064   8.129 -1.0050  1.4120 -1.4750
 5237SOL     OW27343   0.228   3.649  13.805  0.4557 -0.7862  0.7580
 5237SOL    HW127344   0.268   3.728  13.770  2.6979 -0.8756  3.1130
 5237SOL    HW227345   0.290   3.632  13.876  0.8181  0.2280  0.6831
 5238SOL     OW27346   0.528   4.684   1.555 -0.2791 -0.4979 -0.5323
 5238SOL    HW127347   0.469   4.665   1.481  0.8072 -0.7577 -1.3273
 5238SOL    HW227348   0.609   4.669   1.506  0.7933  1.6280  0.6122
 5239SOL     OW27349   0.404   1.383  14.331  0.5988  0.5155  0.3590
 5239SOL    HW127350   0.403   1.294  14.367 -0.3435  1.0356  1.6458
 5239SOL    HW227351   0.493   1.406  14.359  0.4596  1.9931 -0.3952
 5240SOL     OW27352   3.352   3.680   2.810  0.6424 -0.5698  0.5168
 5240SOL    HW127353   3.310   3.625   2.744  0.0570  0.5148 -0.0155
 5240SOL    HW227354   3.293   3.756   2.807  2.1947  0.5682 -1.9163
 5241SOL     OW27355   1.867   2.094   2.087  0.6054 -0.2329  0.1105
 5241SOL    HW127356   1.787   2.139   2.112  0.5864  0.9084 -2.0346
 5241SOL    HW227357   1.886   2.121   1.997 -0.9107  1.5052  0.3264
 5242SOL     OW27358   1.222   2.896  15.978 -0.8593 -0.8888  0.0456
 5242SOL    HW127359   1.182   2.810  15.991  3.2227 -2.8078 -0.0880
 5242SOL    HW227360   1.150   2.951  16.009  0.6423  0.8071  0.4763
 5243SOL     OW27361   1.707   0.925   3.535 -0.0852 -0.3888  0.6499
 5243SOL    HW127362   1.625   0.951   3.575 -0.5945 -2.1109  0.6871
 5243SOL    HW227363   1.742   1.013   3.517  3.5942 -1.6658  1.5172
 5244SOL     OW27364   4.492   0.673   6.885  0.3239 -0.0838  0.1218
 5244SOL    HW127365   4.472   0.593   6.838 -0.3776  0.5714 -0.6864
 5244SOL    HW227366   4.572   0.642   6.928 -1.0668 -1.0665  1.9803
 5245SOL     OW27367   0.780   0.030  15.571 -0.0406 -0.2907  0.0336
 5245SOL    HW127368   0.698   0.027  15.621  1.2682 -1.4776  2.1014
 5245SOL    HW227369   0.772   4.701  15.502 -2.6626  0.6772 -0.6104
 5246SOL     OW27370   1.154   0.636  17.168  0.7209  0.0334 -0.0844
 5246SOL    HW127371   1.207   0.686  17.106  0.2233  1.1176  0.3530
 5246SOL    HW227372   1.066   0.664  17.144  0.9851  1.0693  0.1573
 5247SOL     OW27373   1.506   4.595   9.785  0.2719 -0.3944  0.2355
 5247SOL    HW127374   1.530   4.687   9.777  1.4737 -0.7912 -0.7208
 5247SOL    HW227375   1.455   4.605   9.866 -2.4416  0.7255 -1.6037
 5248SOL     OW27376   0.823   4.656   6.894  0.8091 -0.6019 -0.2685
 5248SOL    HW127377   0.871   4.573   6.898  1.6227 -0.1195  0.1253
 5248SOL    HW227378   0.736   4.624   6.872  0.1157  0.9827  0.1988
 5249SOL     OW27379   3.744   0.884  14.699  0.3030 -0.2887  0.2839
 5249SOL    HW127380   3.708   0.824  14.633 -3.2425  2.0089  0.1388
 5249SOL    HW227381   3.675   0.950  14.708 -0.0421 -0.4819 -0.9505
 5250SOL     OW27382   1.776   3.230   1.327 -0.2822 -1.0360 -0.6450
 5250SOL    HW127383   1.778   3.256   1.419 -0.7801  0.3356 -1.0131
 5250SOL    HW227384   1.693   3.182   1.333 -0.9071 -0.0512 -1.2850
 5251SOL     OW27385   2.614   1.957   3.164  0.0651 -0.2262 -0.4588
 5251SOL    HW127386   2.571   1.977   3.080 -0.4084  0.6522 -0.0094
 5251SOL    HW227387   2.553   1.896   3.204  0.2686  0.8125  1.4115
 5252SOL     OW27388   3.406   1.640  14.653  0.5980  0.2182 -0.4073
 5252SOL    HW127389   3.488   1.680  14.683  0.0978 -0.0425  1.3334
 5252SOL    HW227390   3.369   1.714  14.605  0.1569  0.3570  0.1558
 5253SOL     OW27391   2.966   3.378   4.172 -0.1442  0.1983  0.1303
 5253SOL    HW127392   3.051   3.417   4.149 -0.2087  0.0175 -0.4302
 5253SOL    HW227393   2.990   3.292   4.206  1.6724  1.1874  1.3524
 5254SOL     OW27394   1.108   3.428   9.413 -0.3693  0.0775  0.0764
 5254SOL    HW127395   1.015   3.433   9.394 -0.0956 -3.2935 -2.1186
 5254SOL    HW227396   1.107   3.442   9.508 -3.0476  2.6934 -0.3518
 5255SOL     OW27397   4.547   1.868   7.535 -0.1796 -0.0069 -0.0421
 5255SOL    HW127398   4.590   1.782   7.541 -0.3287 -0.0108  1.0103
 5255SOL    HW227399   4.548   1.893   7.443  1.8850 -0.4806 -0.1502
 5256SOL     OW27400   1.705   1.156  17.213 -0.0518 -0.2608  0.0717
 5256SOL    HW127401   1.762   1.079  17.212  0.2621 -0.0502  1.4987
 5256SOL    HW227402   1.620   1.113  17.226 -1.5098  2.9120  1.1471
 5257SOL     OW27403   3.873   3.651   6.315 -0.1762  0.5872 -0.4891
 5257SOL    HW127404   3.935   3.709   6.359 -0.6205  1.8810 -1.5593
 5257SOL    HW227405   3.858   3.583   6.380  2.2429  0.4674 -0.0670
 5258SOL     OW27406   1.736   0.700   7.595 -0.3489 -0.2763 -0.3496
 5258SOL    HW127407   1.766   0.755   7.522  2.1290 -0.7708  0.2992
 5258SOL    HW227408   1.745   0.621   7.542 -0.9400 -0.5544 -0.0322
 5259SOL     OW27409   1.437   2.584  16.981 -0.2355 -0.1705  0.4163
 5259SOL    HW127410   1.470   2.603  17.068  2.1365 -1.2736 -0.2360
 5259SOL    HW227411   1.517   2.602  16.932  0.1596  0.1567  1.1902
 5260SOL     OW27412   3.025   1.036   7.385 -0.5435 -0.3636 -0.2999
 5260SOL    HW127413   3.084   1.061   7.314 -0.8378 -1.7187 -1.0238
 5260SOL    HW227414   3.083   1.020   7.460 -0.0803 -0.3213 -0.6433
 5261SOL     OW27415   0.906   4.546   5.055  0.1364  0.1140 -0.2765
 5261SOL    HW127416   0.838   4.603   5.091 -1.3706 -2.1530  0.4812
 5261SOL    HW227417   0.965   4.617   5.031  1.3966 -0.4147  1.2784
 5262SOL     OW27418   0.715   0.828  10.093  0.0985 -0.2029  0.2083
 5262SOL    HW127419   0.735   0.799  10.004  0.7609  0.7230  0.0557
 5262SOL    HW227420   0.632   0.869  10.065  0.4791 -1.1637 -2.3396
 5263SOL     OW27421   1.049   1.839   6.692 -0.1243  0.2296 -0.0937
 5263SOL    HW127422   0.994   1.761   6.704 -1.2101  0.7957 -1.4182
 5263SOL    HW227423   0.986   1.910   6.680  1.0528  0.6981 -3.3465
 5264SOL     OW27424   0.965   2.321   1.487  0.4153 -0.1287  0.3797
 5264SOL    HW127425   0.997   2.231   1.499  0.6599 -0.0063  0.6372
 5264SOL    HW227426   0.874   2.328   1.518 -0.0805  1.5434 -1.4183
 5265SOL     OW27427   0.431   2.223   4.431 -0.2071 -0.1614  0.0480
 5265SOL    HW127428   0.478   2.302   4.405  1.0989 -1.1960 -0.6650
 5265SOL    HW227429   0.338   2.235   4.411 -0.4463  0.7963  1.7174
 5266SOL     OW27430   0.315   3.695   8.389 -0.0099 -0.4435 -0.0004
 5266SOL    HW127431   0.376   3.732   8.453 -1.2552  0.8985  0.3888
 5266SOL    HW227432   0.238   3.695   8.445  0.0484  0.1844  0.0792
 5267SOL     OW27433   3.689   1.687   5.666 -0.0938 -0.4110 -0.3350
 5267SOL    HW127434   3.620   1.621   5.654 -0.3800 -0.0834 -0.5283
 5267SOL    HW227435   3.764   1.628   5.662  1.1240  1.0862  0.2510
 5268SOL     OW27436   3.010   4.703   3.265  0.2932 -0.7592  0.0375
 5268SOL    HW127437   2.954   0.034   3.230 -2.7528 -3.1875  0.2498
 5268SOL    HW227438   2.987   4.706   3.358  0.2518 -0.8630  0.0305
 5269SOL     OW27439   0.618   4.667  12.162 -0.2264  0.3756  0.1519
 5269SOL    HW127440   0.653   0.019  12.159  0.4846  0.0788 -0.3105
 5269SOL    HW227441   0.666   4.633  12.237 -1.0477 -2.6378 -0.6785
 5270SOL     OW27442   2.597   1.603   2.890  0.3437  0.8923  0.4130
 5270SOL    HW127443   2.663   1.662   2.854  0.8903  0.8967  1.4267
 5270SOL    HW227444   2.652   1.527   2.911 -0.4842 -0.1816 -1.2825
 5271SOL     OW27445   2.440   2.800  10.318  0.7670 -0.2672 -0.2850
 5271SOL    HW127446   2.499   2.810  10.392 -0.5186 -0.8316  0.8155
 5271SOL    HW227447   2.501   2.822  10.247 -0.8406  0.1122 -1.5633
 5272SOL     OW27448   2.251   3.314   7.156  0.1202  0.2294  0.2458
 5272SOL    HW127449   2.216   3.225   7.159  2.3792 -0.6467  0.4227
 5272SOL    HW227450   2.181   3.350   7.101 -0.1897  0.5275  0.8474
 5273SOL     OW27451   4.239   3.765   3.462  0.4501 -0.6079  0.5494
 5273SOL    HW127452   4.175   3.712   3.414 -1.0126  0.3638  1.4227
 5273SOL    HW227453   4.295   3.786   3.387  1.0065 -3.0544  0.2831
 5274SOL     OW27454   3.041   1.951  14.676  0.0923 -0.4291  0.0205
 5274SOL    HW127455   2.991   1.879  14.714 -0.0405  0.4252  1.4749
 5274SOL    HW227456   3.120   1.911  14.640  1.1233  0.2682  1.4966
 5275SOL     OW27457   1.837   2.348   8.987  0.4426 -0.2293 -0.1199
 5275SOL    HW127458   1.757   2.374   9.031 -0.8381  0.9051 -3.1694
 5275SOL    HW227459   1.884   2.431   8.995  2.0653 -1.1163 -0.3396
 5276SOL     OW27460   0.144   1.765   8.891 -0.0824 -0.4859 -0.1116
 5276SOL    HW127461   0.054   1.733   8.898 -0.2026 -0.2491 -0.5409
 5276SOL    HW227462   0.142   1.842   8.834 -0.6239  1.1407  2.0870
 5277SOL     OW27463   1.963   0.528  17.302  0.1153  0.4839 -0.0303
 5277SOL    HW127464   1.901   0.544  17.373  0.1338  1.5150 -0.2518
 5277SOL    HW227465   1.926   0.457  17.250  1.3732 -0.4824  0.3735
 5278SOL     OW27466   2.038   1.864  15.234 -0.1393 -0.2453 -0.6439
 5278SOL    HW127467   2.083   1.933  15.283 -1.7686  0.6741 -0.4770
 5278SOL    HW227468   1.946   1.872  15.258  0.6133 -1.0558  2.4998
 5279SOL     OW27469   3.010   0.887   5.072 -0.0004  0.0810 -0.1278
 5279SOL    HW127470   2.932   0.852   5.030 -1.5425 -0.7566  3.4457
 5279SOL    HW227471   2.994   0.881   5.166  0.3493 -1.1049 -0.1511
 5280SOL     OW27472   2.747   0.962   3.330 -0.2150 -0.3260  0.4668
 5280SOL    HW127473   2.805   0.886   3.338 -0.2942 -0.5730 -1.2968
 5280SOL    HW227474   2.758   1.000   3.243 -0.5206  1.2323  1.1139
 5281SOL     OW27475   0.686   2.029   3.241 -0.1260  0.1817  0.6444
 5281SOL    HW127476   0.749   2.100   3.249 -1.8314  1.5632  1.9062
 5281SOL    HW227477   0.746   1.955   3.251 -0.9297 -0.9185 -2.6317
 5282SOL     OW27478   3.490   3.652  13.912  0.0015 -0.3872  0.1266
 5282SOL    HW127479   3.443   3.610  13.985  0.9857  0.8534  1.4665
 5282SOL    HW227480   3.564   3.689  13.960 -0.4147  1.8134 -0.9436
 5283SOL     OW27481   0.202   1.167  10.932  0.5452 -0.1431 -0.1386
 5283SOL    HW127482   0.263   1.106  10.973 -0.1018 -0.8535 -0.2306
 5283SOL    HW227483   0.191   1.236  10.997 -1.7242  0.1055 -0.7744
 5284SOL     OW27484   3.394   0.079  10.596  0.0545 -0.0262 -0.0418
 5284SOL    HW127485   3.425   0.096  10.685  0.7282  1.0653 -0.4807
 5284SOL    HW227486   3.358   0.165  10.576 -0.7828 -0.7306 -1.5197
 5285SOL     OW27487   1.501   1.330  15.520  0.1835 -0.3007 -0.5517
 5285SOL    HW127488   1.531   1.248  15.481 -0.3560 -0.0193 -1.5443
 5285SOL    HW227489   1.526   1.302  15.608 -1.8510 -1.4407 -0.3434
 5286SOL     OW27490   1.503   2.623  12.681 -0.7166 -0.1184  0.1677
 5286SOL    HW127491   1.599   2.622  12.678 -0.7768  0.4004 -2.0807
 5286SOL    HW227492   1.491   2.539  12.725 -0.5458 -0.2878 -0.1149
 5287SOL     OW27493   3.305   0.351   9.522  0.2412  0.0270  0.4263
 5287SOL    HW127494   3.317   0.270   9.572  0.6212  1.3728  2.5378
 5287SOL    HW227495   3.243   0.329   9.453  0.2448 -1.0307  0.7549
 5288SOL     OW27496   0.029   0.285   4.130 -0.5040 -0.0164  0.2030
 5288SOL    HW127497   0.025   0.215   4.195  0.5159 -0.5559 -0.3216
 5288SOL    HW227498   0.122   0.270   4.114 -0.5794 -1.2655  0.9535
 5289SOL     OW27499   0.256   2.638   4.928  0.2255  0.2117  0.0497
 5289SOL    HW127500   0.258   2.698   5.003  1.4866  1.5819 -1.0780
 5289SOL    HW227501   0.194   2.676   4.866  2.3886  4.3018  0.3881
 5290SOL     OW27502   0.921   3.631   9.089 -0.2428 -0.1666  0.5656
 5290SOL    HW127503   0.948   3.716   9.122 -0.5799 -0.1676  0.8488
 5290SOL    HW227504   1.010   3.594   9.086  1.0499  3.1179 -0.8452
 5291SOL     OW27505   1.378   2.033   3.245 -0.0664  0.1561 -0.6505
 5291SOL    HW127506   1.309   2.014   3.309 -0.3829  2.6264 -0.2662
 5291SOL    HW227507   1.377   1.946   3.205  0.8286 -0.1699  0.0478
 5292SOL     OW27508   0.898   4.293   5.126  0.0295  0.0566  0.6778
 5292SOL    HW127509   0.970   4.302   5.189 -0.1403  0.3378  0.8317
 5292SOL    HW227510   0.891   4.388   5.111 -2.4118 -0.7678 -3.2894
 5293SOL     OW27511   1.119   4.725   5.667 -0.3229  0.0351  0.4697
 5293SOL    HW127512   1.206   4.700   5.636  0.6275  2.3075  1.3603
 5293SOL    HW227513   1.079   4.731   5.580  1.0116 -2.3967 -0.3216
 5294SOL     OW27514   1.642   0.900   8.576  0.1308 -0.1992 -0.1851
 5294SOL    HW127515   1.721   0.867   8.535  1.2616 -1.7428  3.2557
 5294SOL    HW227516   1.662   0.905   8.669 -0.4539  2.5177 -0.2103
 5295SOL     OW27517   0.794   4.474  12.296 -0.1085  0.0662  0.0995
 5295SOL    HW127518   0.864   4.500  12.236  1.4804 -2.4381  0.8900
 5295SOL    HW227519   0.849   4.431  12.362 -2.2132 -0.4848  1.4854
 5296SOL     OW27520   3.881   4.470  12.242 -0.1717 -0.1105 -0.5130
 5296SOL    HW127521   3.844   4.513  12.165 -0.2648 -0.3827 -0.6201
 5296SOL    HW227522   3.899   4.390  12.193  3.6970  0.1691  0.4640
 5297SOL     OW27523   2.973   1.225  15.086 -0.0072 -0.3618  0.1581
 5297SOL    HW127524   3.037   1.213  15.016 -1.3195  5.2987 -1.9889
 5297SOL    HW227525   2.901   1.171  15.053 -0.1883  0.8158 -1.3850
 5298SOL     OW27526   2.598   3.929   6.492 -0.0721 -0.3198  0.0443
 5298SOL    HW127527   2.592   3.937   6.397 -2.3036 -2.1960  0.0010
 5298SOL    HW227528   2.690   3.914   6.514  0.1788  3.8896  1.8979
 5299SOL     OW27529   1.787   1.446   5.876  0.5795 -0.2920 -0.2084
 5299SOL    HW127530   1.770   1.537   5.899 -0.4165 -0.7015  0.6350
 5299SOL    HW227531   1.877   1.462   5.846  0.5721 -3.2558 -1.8512
 5300SOL     OW27532   3.289   0.831   5.020 -0.3304 -0.2140  0.3850
 5300SOL    HW127533   3.337   0.910   4.995  0.8129 -0.6232  1.2849
 5300SOL    HW227534   3.200   0.863   5.015 -0.0568  0.5574  0.4453
 5301SOL     OW27535   2.165   3.273   2.277  0.0134  0.5800 -0.4404
 5301SOL    HW127536   2.203   3.220   2.347 -1.1076  0.1674 -0.1424
 5301SOL    HW227537   2.073   3.246   2.275 -0.1479  1.0080  1.4143
 5302SOL     OW27538   1.136   2.405   3.984  0.1157 -0.0507  0.1954
 5302SOL    HW127539   1.186   2.405   3.903 -0.3865 -1.5430 -0.1107
 5302SOL    HW227540   1.196   2.356   4.040 -0.4339 -1.6499 -0.6475
 5303SOL     OW27541   0.922   3.966   5.281  0.3446 -0.1906 -0.1607
 5303SOL    HW127542   0.936   3.879   5.318 -1.1942 -1.2344 -2.0654
 5303SOL    HW227543   0.908   4.015   5.363 -2.7960 -0.8562 -0.3273
 5304SOL     OW27544   3.212   1.940  17.338 -0.5336  0.1905 -0.0188
 5304SOL    HW127545   3.285   2.000  17.355 -1.9950  0.9212  3.5602
 5304SOL    HW227546   3.169   1.938  17.423 -1.1538  0.7556 -0.3137
 5305SOL     OW27547   4.572   3.577   0.770 -0.1850  0.0804 -0.1202
 5305SOL    HW127548   4.544   3.487   0.755 -0.8942  0.2540  0.1635
 5305SOL    HW227549   4.659   3.578   0.729  0.3507 -0.5334  1.0069
 5306SOL     OW27550   3.847   0.040  11.030  0.9026 -0.0939  0.4957
 5306SOL    HW127551   3.797   4.699  11.008 -0.3665  0.6541  0.6669
 5306SOL    HW227552   3.867   0.023  11.122  0.4940 -2.6116  0.1163
 5307SOL     OW27553   2.901   2.682   7.075  0.0100 -0.2632 -0.3416
 5307SOL    HW127554   2.837   2.692   7.004 -1.2134  0.1460  0.8035
 5307SOL    HW227555   2.836   2.675   7.146 -1.2592 -1.2771 -1.6135
 5308SOL     OW27556   4.736   4.017  15.568 -0.0436  0.6212 -0.7426
 5308SOL    HW127557   4.721   4.106  15.537  0.7210  1.3061  0.8800
 5308SOL    HW227558   4.722   3.967  15.487  0.6904 -1.0840  0.1774
 5309SOL     OW27559   1.952   0.137   6.550  0.3090 -0.2199  0.1393
 5309SOL    HW127560   1.863   0.123   6.517 -0.2639  2.0803  0.7897
 5309SOL    HW227561   1.989   0.145   6.462 -0.5323  0.9617 -0.1064
 5310SOL     OW27562   3.853   3.809   2.363 -0.5179 -0.0166  0.2815
 5310SOL    HW127563   3.931   3.760   2.389 -0.9988 -0.8763  0.0873
 5310SOL    HW227564   3.806   3.753   2.302 -1.9675 -1.3127  2.5763
 5311SOL     OW27565   3.827   0.619  14.778  0.3586 -0.1886  0.1375
 5311SOL    HW127566   3.922   0.614  14.782  0.4566  1.3144 -0.1309
 5311SOL    HW227567   3.817   0.687  14.712  3.1730  0.3216  0.2515
 5312SOL     OW27568   3.630   1.738  12.597  0.8829  0.0154  0.1233
 5312SOL    HW127569   3.576   1.814  12.577 -0.0509 -1.1195 -1.6819
 5312SOL    HW227570   3.714   1.762  12.557  1.3655  0.4094  1.3675
 5313SOL     OW27571   2.591   1.676   9.319  0.2634 -0.2416 -0.1350
 5313SOL    HW127572   2.533   1.700   9.391  0.1302  0.1514 -0.3721
 5313SOL    HW227573   2.601   1.755   9.266 -0.4447  0.1055  0.2360
 5314SOL     OW27574   0.919   4.723  13.684  0.1747  1.0804 -0.1942
 5314SOL    HW127575   0.977   0.019  13.753  0.1567  1.8347 -0.5399
 5314SOL    HW227576   0.904   4.636  13.720 -0.4953  1.1520 -0.3098
 5315SOL     OW27577   0.465   4.618  15.870  0.2675  0.0142  0.2801
 5315SOL    HW127578   0.419   4.702  15.880 -0.6177 -0.4131 -0.1209
 5315SOL    HW227579   0.389   4.559  15.872  0.2498 -0.0070 -0.7074
 5316SOL     OW27580   4.236   2.439   7.202 -0.3500  0.0668 -0.2763
 5316SOL    HW127581   4.220   2.434   7.108 -1.8033 -0.9925  0.0306
 5316SOL    HW227582   4.153   2.409   7.237 -1.0571  1.0614 -1.1058
 5317SOL     OW27583   1.701   4.165   7.979  0.1136 -0.3084  0.5235
 5317SOL    HW127584   1.660   4.123   8.054 -3.6416  0.7023 -0.9749
 5317SOL    HW227585   1.791   4.180   8.008  0.5669 -1.5817 -0.2476
 5318SOL     OW27586   1.789   2.044   2.842  0.0569  0.4516  0.7573
 5318SOL    HW127587   1.847   2.007   2.776  0.0414 -0.1578  1.0869
 5318SOL    HW227588   1.703   2.006   2.822  1.1551 -0.6654 -1.8089
 5319SOL     OW27589   4.707   1.309   2.245 -0.0769  0.4382 -0.8072
 5319SOL    HW127590   4.652   1.388   2.246  0.7488  0.9725  1.5936
 5319SOL    HW227591   0.008   1.329   2.160  1.2669  0.7391 -0.1317
 5320SOL     OW27592   3.340   3.758   2.248  0.3348  0.7493  0.2313
 5320SOL    HW127593   3.246   3.777   2.257  0.1814  0.9028 -1.7582
 5320SOL    HW227594   3.343   3.666   2.224  0.5025  0.9922 -0.6883
 5321SOL     OW27595   0.370   2.599   6.915 -0.0729  0.1170  0.2982
 5321SOL    HW127596   0.387   2.506   6.932 -0.1786 -0.1735 -1.1290
 5321SOL    HW227597   0.378   2.606   6.820 -1.4930  1.8084  0.3151
 5322SOL     OW27598   1.169   1.965   6.428  0.1469 -0.2075 -0.0595
 5322SOL    HW127599   1.127   1.898   6.483  2.6627 -0.4446  1.5459
 5322SOL    HW227600   1.243   1.918   6.391 -1.8017 -0.8231 -3.1559
 5323SOL     OW27601   2.719   0.641   9.762  0.6861  0.6709  0.0024
 5323SOL    HW127602   2.722   0.716   9.703  1.2812  1.1673  0.6621
 5323SOL    HW227603   2.716   0.688   9.846 -2.9161 -2.3169  1.5363
 5324SOL     OW27604   2.800   2.125   2.793  0.4807  0.1798  0.5615
 5324SOL    HW127605   2.718   2.092   2.829  1.0156 -1.5462  0.2238
 5324SOL    HW227606   2.776   2.186   2.724  2.2644  2.8296  2.2604
 5325SOL     OW27607   4.548   0.436  16.381 -0.0192 -0.1534  0.0891
 5325SOL    HW127608   4.572   0.462  16.470  1.5486  0.1005 -0.4047
 5325SOL    HW227609   4.592   0.351  16.370  0.7384  0.4233 -1.3781
 5326SOL     OW27610   3.561   1.792   3.808  0.3080 -0.3960 -0.7489
 5326SOL    HW127611   3.509   1.843   3.869  3.4842 -0.8517  2.3636
 5326SOL    HW227612   3.633   1.851   3.785  0.4143 -0.0470  0.5126
 5327SOL     OW27613   4.102   2.008  15.764 -0.2302  0.1025 -0.0463
 5327SOL    HW127614   4.104   2.028  15.858  2.8107 -0.1189 -0.0698
 5327SOL    HW227615   4.032   1.944  15.758  1.5652 -1.8628 -0.1837
 5328SOL     OW27616   1.039   1.804   2.381 -0.2293  0.1845 -0.6205
 5328SOL    HW127617   0.983   1.732   2.353  0.2204 -1.6882  3.2903
 5328SOL    HW227618   1.116   1.755   2.408 -1.0538 -0.0107  1.3944
 5329SOL     OW27619   2.013   2.771   9.599  0.6737  0.2810  0.0769
 5329SOL    HW127620   1.924   2.807   9.593  1.2241  1.7141  0.6213
 5329SOL    HW227621   2.001   2.705   9.667  1.6542  0.2699  0.2417
 5330SOL     OW27622   4.226   0.330   2.718 -0.4941 -0.0847 -0.5505
 5330SOL    HW127623   4.215   0.355   2.626 -1.8024  0.4912 -0.2286
 5330SOL    HW227624   4.238   0.235   2.715 -1.6596 -0.2197 -1.0498
 5331SOL     OW27625   3.134   4.093  16.633  0.0868  0.1872  0.2975
 5331SOL    HW127626   3.167   4.051  16.554  0.7434  0.5093  0.4024
 5331SOL    HW227627   3.206   4.078  16.694  1.1883  1.1517 -0.7638
 5332SOL     OW27628   3.003   0.864   2.423 -0.1605  0.1974  0.2998
 5332SOL    HW127629   3.042   0.777   2.423 -0.3204  0.1157 -2.7027
 5332SOL    HW227630   2.926   0.829   2.378  0.1903  0.2845 -0.3750
 5333SOL     OW27631   1.067   4.634   4.687 -0.1036  0.0120 -0.1834
 5333SOL    HW127632   1.104   4.549   4.711 -1.8875 -1.2965 -2.0232
 5333SOL    HW227633   1.133   4.676   4.630 -0.0757  1.5082  0.9556
 5334SOL     OW27634   3.668   1.798   6.954  0.4249 -0.7335  0.7607
 5334SOL    HW127635   3.604   1.785   6.883  0.8692 -1.6263  0.5273
 5334SOL    HW227636   3.740   1.847   6.915 -0.3184 -1.2619 -1.3032
 5335SOL     OW27637   3.405   4.275   3.475 -0.5261  0.0547  0.2845
 5335SOL    HW127638   3.465   4.278   3.549  1.1597 -0.3800 -1.0714
 5335SOL    HW227639   3.343   4.344   3.500 -0.5333  0.4367 -0.7850
 5336SOL     OW27640   1.836   1.839  17.481 -0.4078 -0.1917 -0.0869
 5336SOL    HW127641   1.881   1.880  17.407 -1.3777  0.6296 -0.2074
 5336SOL    HW227642   1.872   1.878  17.560 -0.0189 -4.1433  1.7217
 5337SOL     OW27643   2.271   0.417   5.543 -0.3601  0.6085  0.3890
 5337SOL    HW127644   2.278   0.381   5.632 -0.1541  1.6816  0.8045
 5337SOL    HW227645   2.339   0.370   5.493 -0.2515  1.5142 -0.3154
 5338SOL     OW27646   0.274   4.669   5.639  0.2903  0.8353  0.2806
 5338SOL    HW127647   0.263   4.729   5.565 -0.4246 -0.1345 -0.3864
 5338SOL    HW227648   0.182   4.669   5.669  0.4279 -1.2583  0.6820
 5339SOL     OW27649   1.881   3.498   8.847 -0.7230 -0.5108  0.3904
 5339SOL    HW127650   1.832   3.570   8.887 -0.7075  0.4948 -1.3951
 5339SOL    HW227651   1.881   3.512   8.752  1.4976  1.9823  0.7559
 5340SOL     OW27652   2.095   4.039  14.345  0.4869 -0.1682  0.8139
 5340SOL    HW127653   2.116   3.947  14.333  2.1907  0.4801 -1.0863
 5340SOL    HW227654   2.184   4.073  14.344  0.1725  0.5700 -1.7063
 5341SOL     OW27655   1.954   4.269   9.222 -0.4333  0.5480 -0.2261
 5341SOL    HW127656   1.870   4.315   9.221 -0.4440  0.5373  0.2711
 5341SOL    HW227657   1.931   4.185   9.261 -0.1863  1.0385  0.9626
 5342SOL     OW27658   4.558   2.886  13.880  0.4275 -0.0683  0.4875
 5342SOL    HW127659   4.639   2.836  13.870  2.1042  2.3323  2.1666
 5342SOL    HW227660   4.504   2.807  13.876  0.3541  0.0187 -0.1673
 5343SOL     OW27661   1.428   2.143   6.997 -0.2102 -0.0877 -0.2197
 5343SOL    HW127662   1.402   2.113   6.910 -0.5422 -1.5029  0.3753
 5343SOL    HW227663   1.357   2.101   7.044  0.2243 -0.5170  0.0572
 5344SOL     OW27664   2.542   2.620   3.245 -0.5231  0.1566  0.6497
 5344SOL    HW127665   2.635   2.604   3.229 -0.8011 -0.9855  0.1370
 5344SOL    HW227666   2.512   2.688   3.185  0.3002  0.4059  0.5260
 5345SOL     OW27667   4.372   4.702  16.259  0.2348  0.1772  0.2874
 5345SOL    HW127668   4.307   0.030  16.286 -0.2482 -0.7405  1.3928
 5345SOL    HW227669   4.394   4.730  16.170  0.1343 -1.2530 -0.1953
 5346SOL     OW27670   3.956   4.531  12.913 -0.5578 -0.1341 -0.1477
 5346SOL    HW127671   4.002   4.457  12.952  0.9180  0.4312 -0.8153
 5346SOL    HW227672   3.994   4.596  12.972  0.2239 -1.7438  1.1072
 5347SOL     OW27673   3.945   3.897   8.868  0.6589  0.4912 -0.4727
 5347SOL    HW127674   4.000   3.845   8.808 -0.2503  1.6029 -2.2450
 5347SOL    HW227675   4.005   3.903   8.942 -1.4185  0.1210  1.2124
 5348SOL     OW27676   0.967   4.117   4.208  0.0520 -0.1402  0.1576
 5348SOL    HW127677   0.925   4.051   4.152 -0.2950 -0.1532  0.4303
 5348SOL    HW227678   1.032   4.073   4.262  0.7747 -0.1520 -0.7251
 5349SOL     OW27679   0.320   2.043   7.421 -0.0958 -0.0182  0.1404
 5349SOL    HW127680   0.341   2.129   7.457  2.4734  0.1806 -1.8245
 5349SOL    HW227681   0.250   2.063   7.358 -1.5174  1.1411  2.0803
 5350SOL     OW27682   4.615   3.926   5.545 -0.7284  0.1058  0.1272
 5350SOL    HW127683   4.629   3.873   5.623 -1.1206  0.7165  0.6153
 5350SOL    HW227684   4.555   3.871   5.495 -0.3984 -0.9487  0.8830
 5351SOL     OW27685   3.478   3.253   2.170 -0.4506 -0.5311  0.2961
 5351SOL    HW127686   3.481   3.177   2.112  0.5146 -2.4948  2.9274
 5351SOL    HW227687   3.555   3.234   2.223 -1.5375 -0.7373  1.7930
 5352SOL     OW27688   1.234   3.250   3.781  0.3262  0.3452  0.1235
 5352SOL    HW127689   1.214   3.227   3.690  0.9343 -0.4250  0.1784
 5352SOL    HW227690   1.307   3.307   3.758 -0.6384  1.7122  0.4577
 5353SOL     OW27691   2.185   0.898   3.722 -0.1127  0.5103  1.1816
 5353SOL    HW127692   2.096   0.877   3.697  0.5534 -0.7712 -0.1273
 5353SOL    HW227693   2.197   0.829   3.787  2.1126 -0.2947 -0.0759
 5354SOL     OW27694   1.100   1.714  12.275  0.0227 -0.0549  0.1352
 5354SOL    HW127695   1.155   1.745  12.347  1.2008  1.4118 -1.4055
 5354SOL    HW227696   1.131   1.781  12.214 -0.9429 -0.6066 -0.9508
 5355SOL     OW27697   2.225   2.584   2.469 -0.1242 -0.6943 -0.3499
 5355SOL    HW127698   2.186   2.659   2.515  0.9376 -0.5593  0.3242
 5355SOL    HW227699   2.151   2.524   2.460  0.1110 -1.1123  0.4895
 5356SOL     OW27700   1.594   3.692   4.861  0.2827 -0.1014 -0.1748
 5356SOL    HW127701   1.560   3.704   4.950 -2.7839  0.2268 -1.3940
 5356SOL    HW227702   1.614   3.599   4.861  0.1723 -0.1230  0.1795
 5357SOL     OW27703   4.097   2.722   6.796  0.4593 -0.3477 -0.7896
 5357SOL    HW127704   4.118   2.762   6.880  0.1887  1.1958 -1.4413
 5357SOL    HW227705   4.118   2.792   6.734 -0.9201 -0.9429 -1.9354
 5358SOL     OW27706   2.802   4.299   3.700  0.4776  0.4140 -0.5087
 5358SOL    HW127707   2.789   4.252   3.783  0.3553 -2.2910 -2.0708
 5358SOL    HW227708   2.892   4.330   3.702  0.6712 -0.1451 -0.4441
 5359SOL     OW27709   3.899   3.102   7.428  0.1312  0.2869 -0.6691
 5359SOL    HW127710   3.853   3.122   7.346  0.5832  0.8187 -0.7895
 5359SOL    HW227711   3.875   3.010   7.435 -1.6472  0.6918 -1.5000
 5360SOL     OW27712   4.202   2.986  11.105 -0.4145  0.1761  0.6114
 5360SOL    HW127713   4.239   2.913  11.057 -2.8774 -0.0945 -0.8950
 5360SOL    HW227714   4.283   3.036  11.106 -1.4368  1.8273  2.0378
 5361SOL     OW27715   0.518   3.314  14.746  0.3632 -0.3498  0.6876
 5361SOL    HW127716   0.555   3.233  14.782  0.2626 -1.7267 -2.3720
 5361SOL    HW227717   0.517   3.361  14.830 -0.0813  1.3777 -0.2879
 5362SOL     OW27718   2.125   4.313   4.122 -0.4355 -0.3475  0.4105
 5362SOL    HW127719   2.047   4.286   4.074 -2.1358  1.5381  2.1027
 5362SOL    HW227720   2.132   4.405   4.097  0.4058 -0.3783  0.5113
 5363SOL     OW27721   4.080   2.777   4.062 -0.6306 -0.1012 -0.0710
 5363SOL    HW127722   4.137   2.707   4.030 -0.2284 -0.8422  2.2559
 5363SOL    HW227723   4.070   2.838   3.989  1.2385  2.1956  1.5987
 5364SOL     OW27724   2.712   2.472  13.039  0.1517  0.2073 -0.0625
 5364SOL    HW127725   2.752   2.438  12.959  0.8215 -0.0599  0.3807
 5364SOL    HW227726   2.687   2.560  13.012 -2.2867 -0.1824  0.8480
 5365SOL     OW27727   0.362   4.053   3.959  0.5053  0.3455  0.4401
 5365SOL    HW127728   0.374   4.045   4.054  1.5499  0.3299  0.3058
 5365SOL    HW227729   0.302   4.127   3.956  0.9176  0.6872  0.7170
 5366SOL     OW27730   1.990   3.380   5.182  0.2860  0.4261 -0.4412
 5366SOL    HW127731   1.972   3.472   5.164 -0.3983  0.3422 -0.1918
 5366SOL    HW227732   1.910   3.348   5.225 -1.0969 -0.0251 -3.3191
 5367SOL     OW27733   0.027   3.363   6.788 -0.1819 -0.1288  0.0661
 5367SOL    HW127734   0.009   3.312   6.709 -0.8155  0.1943  0.0119
 5367SOL    HW227735   0.104   3.327   6.832  1.0885 -0.0892 -2.1183
 5368SOL     OW27736   2.539   0.329   5.024  0.3266  0.3817 -0.2686
 5368SOL    HW127737   2.512   0.239   5.041  1.5115  0.1655  0.4339
 5368SOL    HW227738   2.624   0.304   4.988  0.6691  0.0834  0.7701
 5369SOL     OW27739   1.412   0.861   8.151 -0.1690  0.6533  0.3425
 5369SOL    HW127740   1.438   0.950   8.126 -0.6197  0.1760 -1.8413
 5369SOL    HW227741   1.471   0.804   8.102  0.4436  0.4471  1.3243
 5370SOL     OW27742   1.402   1.633   6.653 -0.0645  0.3284 -0.1391
 5370SOL    HW127743   1.360   1.666   6.732  0.0396  0.1509 -0.0105
 5370SOL    HW227744   1.465   1.703   6.633  1.0492 -0.2714  1.2737
 5371SOL     OW27745   1.466   4.723  12.070 -0.0685 -0.8563  0.0135
 5371SOL    HW127746   1.382   0.023  12.098 -0.5528 -0.4577 -2.0097
 5371SOL    HW227747   1.508   0.060  12.029  0.0100 -1.3207 -0.7455
 5372SOL     OW27748   2.970   3.115   1.644 -0.2692  0.4158 -0.3773
 5372SOL    HW127749   3.017   3.057   1.584 -1.4830 -1.0819  0.1009
 5372SOL    HW227750   2.972   3.052   1.717 -0.3096  1.2835  0.3731
 5373SOL     OW27751   3.182   0.141  11.347 -0.2743 -0.5683 -0.2562
 5373SOL    HW127752   3.150   0.120  11.435 -2.3594 -1.7599 -1.2962
 5373SOL    HW227753   3.272   0.108  11.346 -0.7271 -1.8207 -0.5564
 5374SOL     OW27754   2.309   1.529  15.645  0.0287  0.2253  0.4289
 5374SOL    HW127755   2.399   1.499  15.658  0.2681  1.5908  2.0698
 5374SOL    HW227756   2.263   1.463  15.595  0.9012 -0.5540  0.6474
 5375SOL     OW27757   2.785   0.242   7.633  0.1590 -0.4349 -0.2116
 5375SOL    HW127758   2.872   0.245   7.594 -0.5424  0.0118 -1.7309
 5375SOL    HW227759   2.786   0.152   7.666  0.0901 -0.1312  0.6226
 5376SOL     OW27760   2.300   3.941   7.357  0.0092  0.1195  0.3774
 5376SOL    HW127761   2.362   4.000   7.315 -2.8700  3.7108  1.1407
 5376SOL    HW227762   2.267   4.004   7.422 -0.4109  1.3866 -1.0517
 5377SOL     OW27763   2.577   3.421   7.552  0.4345 -0.2848 -0.3518
 5377SOL    HW127764   2.555   3.425   7.645  2.1408 -0.0343  0.0426
 5377SOL    HW227765   2.532   3.345   7.514 -2.0889  0.9533  0.1267
 5378SOL     OW27766   0.355   1.515   9.638  0.5704  0.3977  0.3489
 5378SOL    HW127767   0.416   1.458   9.686 -1.4899  0.2101  2.7681
 5378SOL    HW227768   0.396   1.534   9.554  1.7448 -2.0063  0.3688
 5379SOL     OW27769   3.737   4.450   3.369 -0.5102  0.3661 -0.1317
 5379SOL    HW127770   3.675   4.471   3.299 -1.8032 -1.4006  0.4719
 5379SOL    HW227771   3.696   4.489   3.447  0.9680 -1.0326  1.3513
 5380SOL     OW27772   4.133   0.992   4.676 -0.1995 -0.2320  0.5940
 5380SOL    HW127773   4.210   0.950   4.636  0.3958 -1.5207  3.0826
 5380SOL    HW227774   4.064   0.940   4.635 -1.0809  1.8426 -0.5411
 5381SOL     OW27775   0.610   1.742   9.913 -0.1965 -0.6255 -0.1439
 5381SOL    HW127776   0.680   1.699   9.964  1.3061 -1.5513 -3.0049
 5381SOL    HW227777   0.655   1.761   9.831 -1.3374  1.5259 -0.2576
 5382SOL     OW27778   1.488   0.840   5.744  0.0868 -0.0343  0.1259
 5382SOL    HW127779   1.548   0.774   5.709  2.6551  2.8468 -0.8642
 5382SOL    HW227780   1.476   0.809   5.833 -0.0485 -1.7076 -0.4754
 5383SOL     OW27781   4.165   4.001   3.827 -0.5840  0.7250 -0.0698
 5383SOL    HW127782   4.100   3.935   3.802  1.1318 -0.8012 -0.5261
 5383SOL    HW227783   4.241   3.980   3.773  0.2146 -1.5392  1.9508
 5384SOL     OW27784   4.292   3.005   1.635 -0.5975  0.8691  0.0492
 5384SOL    HW127785   4.326   3.050   1.558  1.7518  0.1803  0.6814
 5384SOL    HW227786   4.202   2.988   1.607 -0.8064  0.4446  0.9977
 5385SOL     OW27787   3.366   3.598   3.644 -0.2608  0.0389  0.3898
 5385SOL    HW127788   3.453   3.636   3.632 -0.4955 -0.2289 -2.1780
 5385SOL    HW227789   3.328   3.596   3.556  1.0557 -0.4777 -0.1708
 5386SOL     OW27790   2.827   0.323  13.738 -0.0646  0.2519  0.1234
 5386SOL    HW127791   2.816   0.301  13.645 -0.7680  0.8259  0.0743
 5386SOL    HW227792   2.802   0.414  13.726 -0.9047 -0.4103 -3.0387
 5387SOL     OW27793   3.950   0.907  14.895  0.1096  0.3158  0.2390
 5387SOL    HW127794   3.904   0.923  14.977  0.0111  0.2579  0.1946
 5387SOL    HW227795   3.879   0.919  14.832 -1.3014  0.1386  1.8126
 5388SOL     OW27796   2.956   3.486   6.976 -0.1589 -0.2396  0.3513
 5388SOL    HW127797   2.970   3.516   7.066 -2.0457 -0.0913  0.6047
 5388SOL    HW227798   2.862   3.502   6.982 -0.0824 -0.4056  1.9112
 5389SOL     OW27799   1.213   4.164   6.072  0.0339  0.4269  0.3789
 5389SOL    HW127800   1.245   4.177   6.161  0.4536  0.8954  0.1555
 5389SOL    HW227801   1.194   4.254   6.048 -0.4384 -0.4498 -2.5483
 5390SOL     OW27802   4.590   3.112   2.057  0.4036  0.8432  0.4286
 5390SOL    HW127803   4.632   3.036   2.016 -0.3265 -0.0641  1.3564
 5390SOL    HW227804   4.502   3.108   2.021  1.1892 -2.0273 -1.1810
 5391SOL     OW27805   1.058   4.320   1.944 -0.7580 -0.0357 -0.3729
 5391SOL    HW127806   0.986   4.321   2.006  0.7078  1.3826  1.3019
 5391SOL    HW227807   1.047   4.401   1.893 -1.0813  1.1351  1.5509
 5392SOL     OW27808   1.311   2.887   9.453  0.1376  0.4131 -0.2076
 5392SOL    HW127809   1.305   2.946   9.527  1.6263  2.2442 -1.5507
 5392SOL    HW227810   1.398   2.912   9.420  0.0029 -1.1911 -1.8008
 5393SOL     OW27811   1.993   2.125   1.365  0.2148 -0.5977 -0.9737
 5393SOL    HW127812   2.041   2.127   1.447 -0.0082  1.0448 -0.8847
 5393SOL    HW227813   1.926   2.061   1.386  1.0245 -0.6165  1.5550
 5394SOL     OW27814   1.422   0.075   2.643  0.1538  0.2544  0.3156
 5394SOL    HW127815   1.383   0.079   2.730 -0.8484 -0.0169 -0.1248
 5394SOL    HW227816   1.362   0.137   2.600 -0.2840  0.0319  0.6039
 5395SOL     OW27817   0.780   2.322   5.963  0.1358 -0.0885  0.2876
 5395SOL    HW127818   0.734   2.305   6.045 -2.8334  2.6853 -0.8273
 5395SOL    HW227819   0.805   2.238   5.924  0.3423  0.0989  0.0154
 5396SOL     OW27820   3.392   1.484   8.717 -0.2978 -0.2687 -0.0244
 5396SOL    HW127821   3.416   1.429   8.791 -1.1541 -1.2513 -0.4803
 5396SOL    HW227822   3.418   1.570   8.751  2.9831 -0.5561 -1.8131
 5397SOL     OW27823   2.956   2.014   3.416 -0.0324 -0.0428  0.2467
 5397SOL    HW127824   2.897   2.087   3.400  0.3864 -0.1382 -1.6883
 5397SOL    HW227825   2.931   1.956   3.344 -1.3922 -0.2368  0.8537
 5398SOL     OW27826   2.839   3.647   1.722  0.2042  0.1967 -0.3157
 5398SOL    HW127827   2.780   3.666   1.649 -1.7113  0.5581  1.3290
 5398SOL    HW227828   2.860   3.554   1.710  1.3682  0.6626 -1.9416
 5399SOL     OW27829   2.234   2.169   7.117 -0.5108  0.6484  0.6180
 5399SOL    HW127830   2.329   2.167   7.110 -0.6286  1.1180 -1.1531
 5399SOL    HW227831   2.212   2.160   7.210 -2.1773 -0.5215  0.1137
 5400SOL     OW27832   0.918   1.885   8.086 -0.6314  0.0609 -0.4193
 5400SOL    HW127833   0.956   1.905   8.172 -0.7762 -2.2979  0.2086
 5400SOL    HW227834   0.943   1.967   8.044 -0.7529  0.2522 -0.1185
 5401SOL     OW27835   1.265   3.698  14.860 -0.2329 -0.1044 -0.2882
 5401SOL    HW127836   1.195   3.688  14.925  0.6222 -0.3358  0.5893
 5401SOL    HW227837   1.339   3.701  14.920 -0.7572  1.9218  0.2834
 5402SOL     OW27838   0.832   4.360   2.122  0.4005 -0.1165 -0.1029
 5402SOL    HW127839   0.748   4.399   2.099  0.8791  0.6700 -0.5516
 5402SOL    HW227840   0.817   4.282   2.175  1.8674 -0.7818 -0.6603
 5403SOL     OW27841   3.820   1.123  10.700 -0.8801  0.5019  0.3216
 5403SOL    HW127842   3.845   1.196  10.644  0.4408 -0.3348 -0.1662
 5403SOL    HW227843   3.900   1.108  10.750 -2.0660 -1.9824  1.4617
 5404SOL     OW27844   0.919   0.791  12.716 -0.0737 -0.1928 -0.3474
 5404SOL    HW127845   0.897   0.700  12.692  1.9720 -0.5537 -0.8408
 5404SOL    HW227846   1.012   0.794  12.696 -0.0131 -1.0859 -0.2172
 5405SOL     OW27847   1.160   3.088   4.039  0.2082 -0.0760 -0.0863
 5405SOL    HW127848   1.213   3.160   4.074 -2.1383  0.1413  2.9352
 5405SOL    HW227849   1.146   3.128   3.953  0.3757  1.3943  0.5678
 5406SOL     OW27850   4.040   2.918  16.012 -0.1969 -0.1590 -0.4030
 5406SOL    HW127851   4.021   2.859  15.940 -1.6627 -1.3560  0.9703
 5406SOL    HW227852   4.125   2.958  15.993  0.7172 -1.8311  0.1918
 5407SOL     OW27853   1.633   1.513   8.976 -0.5947  0.0169 -0.3539
 5407SOL    HW127854   1.703   1.483   9.034 -1.7955 -0.7161  0.7042
 5407SOL    HW227855   1.592   1.430   8.953 -0.7981 -0.9099  3.4242
 5408SOL     OW27856   2.091   2.792   1.125 -0.1907  0.7146  0.1985
 5408SOL    HW127857   2.016   2.768   1.179 -1.3134 -0.4953 -1.8896
 5408SOL    HW227858   2.069   2.884   1.110  1.6092  0.7626 -2.1231
 5409SOL     OW27859   3.969   2.511   8.957  0.0189  0.4494 -0.3916
 5409SOL    HW127860   3.974   2.601   8.926  0.1209  0.4404 -0.4015
 5409SOL    HW227861   3.915   2.478   8.885 -1.1634  1.0388  0.2206
 5410SOL     OW27862   4.273   4.006   4.327  0.2520 -0.5344 -0.3073
 5410SOL    HW127863   4.204   3.941   4.340 -1.4337  1.0249 -1.4884
 5410SOL    HW227864   4.264   4.020   4.232 -2.7804 -0.0053  0.0659
 5411SOL     OW27865   0.778   3.294   9.641  0.3307 -0.4092 -0.0597
 5411SOL    HW127866   0.782   3.320   9.733 -1.3191  0.2275 -0.1580
 5411SOL    HW227867   0.736   3.369   9.599  0.4122  1.7795  3.7869
 5412SOL     OW27868   4.453   4.401   7.801 -0.0475  0.0565  0.1300
 5412SOL    HW127869   4.461   4.484   7.847 -0.9718  0.5905 -0.6631
 5412SOL    HW227870   4.484   4.427   7.714  2.5581  0.5007  1.2031
 5413SOL     OW27871   0.987   1.747   5.306  0.1522  0.1157 -0.0473
 5413SOL    HW127872   0.992   1.747   5.402  2.2062 -0.0248 -0.1433
 5413SOL    HW227873   1.077   1.773   5.284  1.1549 -3.1357  0.1401
 5414SOL     OW27874   1.765   2.840   1.527  0.5430 -0.2313  0.2906
 5414SOL    HW127875   1.676   2.873   1.545  1.4299  2.5595 -0.4582
 5414SOL    HW227876   1.781   2.784   1.603  0.9175  0.7504  0.9294
 5415SOL     OW27877   1.031   1.127   6.251  0.0468 -0.0176  0.0099
 5415SOL    HW127878   1.087   1.133   6.173  0.8575 -1.6629  0.4680
 5415SOL    HW227879   1.098   1.144   6.316  0.4605  1.2119 -0.7390
 5416SOL     OW27880   1.557   4.254   4.415 -0.2802  0.3130  0.5532
 5416SOL    HW127881   1.646   4.229   4.441 -0.5692 -0.2576  0.9779
 5416SOL    HW227882   1.582   4.328   4.360 -0.3275  1.2467  1.7811
 5417SOL     OW27883   1.039   0.133   9.245 -0.0090 -0.2890 -0.4225
 5417SOL    HW127884   0.988   0.214   9.239  0.3450 -0.1093 -1.0740
 5417SOL    HW227885   1.113   0.175   9.289  1.2378 -2.1340 -0.7728
 5418SOL     OW27886   0.972   4.010   2.211 -0.1473 -0.1987 -0.5403
 5418SOL    HW127887   1.026   4.088   2.205  0.5199 -0.5092  1.2905
 5418SOL    HW227888   0.973   4.003   2.306  2.3752  1.4597 -0.4605
 5419SOL     OW27889   0.934   2.931   5.746 -0.1347 -0.2448 -0.3217
 5419SOL    HW127890   0.963   3.021   5.735 -0.7621 -0.1201 -0.9398
 5419SOL    HW227891   0.907   2.937   5.838 -0.2556 -0.0518 -0.3703
 5420SOL     OW27892   3.800   1.010   6.819 -0.4324 -0.5124 -0.1555
 5420SOL    HW127893   3.894   1.012   6.835 -0.8304  1.7880  2.0392
 5420SOL    HW227894   3.789   0.952   6.744  0.2995 -0.1714 -0.5197
 5421SOL     OW27895   2.741   1.027   7.290  0.5636 -0.3726 -0.6623
 5421SOL    HW127896   2.712   1.110   7.326 -0.0447 -0.8205 -0.1158
 5421SOL    HW227897   2.835   1.046   7.297  0.3445  0.5336 -0.2435
 5422SOL     OW27898   0.045   3.051  17.671 -0.3509 -0.3700  0.0461
 5422SOL    HW127899   0.041   3.060  17.576 -2.0185  0.0683  0.1557
 5422SOL    HW227900   0.054   3.144  17.691  1.0080 -0.5064  0.0613
 5423SOL     OW27901   0.432   3.782   6.684 -0.1656 -0.6792 -0.3080
 5423SOL    HW127902   0.344   3.806   6.657  0.4579  1.8474 -0.0376
 5423SOL    HW227903   0.442   3.861   6.736  0.0805 -0.6018 -0.4705
 5424SOL     OW27904   1.055   0.374  13.751  0.1698  0.2030 -0.1774
 5424SOL    HW127905   0.985   0.369  13.686  0.3442 -2.0231 -0.1899
 5424SOL    HW227906   1.067   0.282  13.776  1.4662  0.3659 -0.2425
 5425SOL     OW27907   2.010   1.849   4.042 -0.4929 -0.1989  0.1617
 5425SOL    HW127908   1.988   1.846   3.949 -1.9904 -0.3394  0.5245
 5425SOL    HW227909   1.982   1.939   4.061 -0.4061  0.2966 -2.0374
 5426SOL     OW27910   3.969   2.772   0.854  0.5298 -0.0549  0.1988
 5426SOL    HW127911   3.923   2.751   0.773  2.8786 -2.6688 -0.4641
 5426SOL    HW227912   4.015   2.690   0.870 -0.5941 -0.7190  0.0406
 5427SOL     OW27913   2.324   4.455   4.522  0.1303 -0.0999  0.0619
 5427SOL    HW127914   2.406   4.437   4.568  0.2487  0.5542  0.1097
 5427SOL    HW227915   2.257   4.455   4.590  0.0015  0.0905 -0.0658
 5428SOL     OW27916   0.415   4.544  17.325 -0.2500 -0.1406 -0.0375
 5428SOL    HW127917   0.480   4.479  17.352  0.9252  1.7066  1.5319
 5428SOL    HW227918   0.419   4.609  17.394 -0.2505 -0.8040  0.5817
 5429SOL     OW27919   0.798   0.666   8.645 -0.2606  0.6042  0.2297
 5429SOL    HW127920   0.835   0.691   8.561  0.5238 -1.0741  0.0623
 5429SOL    HW227921   0.872   0.626   8.692 -1.8747 -0.5066  1.8563
 5430SOL     OW27922   3.350   2.698   3.090  0.1225  0.8785  0.2639
 5430SOL    HW127923   3.342   2.775   3.146 -0.3469  1.0678 -0.0565
 5430SOL    HW227924   3.436   2.688   3.049 -0.1041  0.3946 -0.1113
 5431SOL     OW27925   0.119   1.898   0.979  0.5566 -0.0164 -0.7156
 5431SOL    HW127926   0.170   1.872   0.902  0.2709  0.4844 -1.0751
 5431SOL    HW227927   0.138   1.992   0.974  0.4107  0.0338 -0.3225
 5432SOL     OW27928   4.726   0.810  13.481 -0.0093 -0.1319 -0.2536
 5432SOL    HW127929   4.654   0.759  13.518  2.3632 -2.8524  0.6194
 5432SOL    HW227930   4.727   0.776  13.392  1.0509 -0.4174 -0.1259
 5433SOL     OW27931   2.394   0.759   8.844  0.3690  0.4596  0.2932
 5433SOL    HW127932   2.444   0.815   8.902  0.0282 -0.7471  1.7538
 5433SOL    HW227933   2.331   0.820   8.805  1.2070  1.0403 -0.1574
 5434SOL     OW27934   1.482   1.781   5.877  0.2637 -0.2426  0.3068
 5434SOL    HW127935   1.425   1.794   5.953  1.4226  1.3073  0.9292
 5434SOL    HW227936   1.517   1.693   5.891  1.9856  0.3902 -0.0379
 5435SOL     OW27937   0.276   4.190   6.293  0.2733  0.0318  0.6661
 5435SOL    HW127938   0.224   4.122   6.251 -0.4048  1.5151 -0.8693
 5435SOL    HW227939   0.242   4.274   6.263  0.1630 -0.2939 -0.1174
 5436SOL     OW27940   2.761   2.490   0.988 -0.4693  0.6224 -0.3060
 5436SOL    HW127941   2.747   2.581   1.016  0.7421  0.0700  2.1541
 5436SOL    HW227942   2.717   2.440   1.057 -0.3225 -1.6830 -1.8973
 5437SOL     OW27943   1.303   1.850   8.234 -0.1110 -0.1054 -0.4164
 5437SOL    HW127944   1.350   1.902   8.299 -1.5013  0.2123  0.3215
 5437SOL    HW227945   1.212   1.855   8.263 -0.1403 -2.7141 -0.0793
 5438SOL     OW27946   2.678   0.538   5.065  0.3683 -0.1686  0.0988
 5438SOL    HW127947   2.753   0.501   5.111 -1.9699 -2.1838  2.3377
 5438SOL    HW227948   2.611   0.470   5.066  1.8077 -1.6300 -2.5893
 5439SOL     OW27949   2.750   4.104  17.641 -0.9683 -0.0167  0.2092
 5439SOL    HW127950   2.829   4.074  17.597 -0.8522  0.1687  0.2958
 5439SOL    HW227951   2.786   4.152  17.715 -0.2425  1.2197 -0.9428
 5440SOL     OW27952   2.699   2.067   6.101  0.5859 -0.7869 -0.1140
 5440SOL    HW127953   2.751   2.033   6.028 -0.0490 -1.8804 -0.0509
 5440SOL    HW227954   2.763   2.067   6.173  0.8430  0.7111 -0.3382
 5441SOL     OW27955   3.192   2.613   8.313  0.2907 -0.6740 -0.3993
 5441SOL    HW127956   3.247   2.540   8.284 -0.5697 -1.7035  0.5541
 5441SOL    HW227957   3.138   2.576   8.383  2.4737 -0.1320  1.5671
 5442SOL     OW27958   0.942   4.236   6.619 -0.2435 -0.3579  0.3262
 5442SOL    HW127959   0.971   4.166   6.560 -1.1787 -0.2157 -0.3048
 5442SOL    HW227960   0.861   4.206   6.660 -0.3254 -1.1982 -0.4521
 5443SOL     OW27961   2.204   3.609   6.532 -0.4396  0.7432 -0.2036
 5443SOL    HW127962   2.249   3.643   6.454 -0.2997 -0.5419 -0.6778
 5443SOL    HW227963   2.272   3.606   6.599 -1.5807 -0.8464  0.8605
 5444SOL     OW27964   3.873   2.754   4.765  0.5928  0.3889 -0.3299
 5444SOL    HW127965   3.940   2.814   4.731  0.4354  0.8076  0.0939
 5444SOL    HW227966   3.819   2.817   4.814  1.2643  0.1320  0.7539
 5445SOL     OW27967   1.994   2.771   7.169 -0.0827 -0.4225 -0.0306
 5445SOL    HW127968   1.921   2.710   7.174 -1.1104  0.7195 -0.9539
 5445SOL    HW227969   2.034   2.755   7.255  1.3493  0.5863 -0.5080
 5446SOL     OW27970   2.384   1.129   8.250 -0.1737 -0.3487  0.1043
 5446SOL    HW127971   2.467   1.085   8.231  0.7048  1.4198 -0.1574
 5446SOL    HW227972   2.409   1.166   8.335 -1.0268  2.8594 -1.0307
 5447SOL     OW27973   1.463   1.934   3.544 -0.3692 -0.0436  0.3820
 5447SOL    HW127974   1.517   1.865   3.582  0.6362  1.1271  1.0589
 5447SOL    HW227975   1.498   1.931   3.455  0.2224  0.3441  0.6046
 5448SOL     OW27976   2.248   2.340  15.291  0.4320  0.5726  0.0346
 5448SOL    HW127977   2.327   2.297  15.258  0.4652 -0.4001  1.3598
 5448SOL    HW227978   2.265   2.433  15.303 -0.6624  0.8922 -0.9406
 5449SOL     OW27979   1.221   0.639   2.729  0.0062  0.1048  0.7099
 5449SOL    HW127980   1.316   0.653   2.728 -0.1812  1.4861  1.8801
 5449SOL    HW227981   1.181   0.702   2.789 -2.8181  0.4941 -1.5993
 5450SOL     OW27982   4.478   0.995  17.158  0.0845  0.1959  0.0444
 5450SOL    HW127983   4.538   0.973  17.087 -0.7117 -2.5123  0.2231
 5450SOL    HW227984   4.434   0.912  17.174 -0.0299  0.2909  0.2255
 5451SOL     OW27985   3.365   2.932   3.254 -0.5502 -0.0094 -0.0951
 5451SOL    HW127986   3.455   2.933   3.220 -1.0742 -1.7039 -1.5526
 5451SOL    HW227987   3.389   2.969   3.339  0.4225  1.3436 -0.9606
 5452SOL     OW27988   3.120   3.153   3.021 -0.1235  0.0964 -0.7485
 5452SOL    HW127989   3.117   3.094   3.096  1.7870  1.6455  0.5669
 5452SOL    HW227990   3.029   3.143   2.994  0.3058 -0.7718 -1.8726
 5453SOL     OW27991   3.240   3.913   4.317  0.5490 -0.1525  0.1775
 5453SOL    HW127992   3.317   3.902   4.372  0.7688  0.7265  0.0507
 5453SOL    HW227993   3.266   3.849   4.251 -1.2265 -0.1424 -0.5260
 5454SOL     OW27994   4.650   1.385   8.250  0.8634 -0.0253  0.2221
 5454SOL    HW127995   4.566   1.429   8.234 -0.7192 -3.1848 -0.1746
 5454SOL    HW227996   4.619   1.311   8.302  0.9009 -0.2687 -0.1060
 5455SOL     OW27997   1.592   3.067   3.495  0.2538  0.4003  0.9703
 5455SOL    HW127998   1.682   3.100   3.495 -0.2324  1.7239 -0.9224
 5455SOL    HW227999   1.608   2.987   3.445 -0.3656  1.4733 -0.9723
 5456SOL     OW28000   3.439   4.691   5.343  0.4955  0.4192 -0.2669
 5456SOL    HW128001   3.382   4.731   5.277  1.2502 -1.1538 -1.8791
 5456SOL    HW228002   3.402   4.717   5.427 -2.9610 -1.7340 -1.1452
 5457SOL     OW28003   2.519   3.101   7.665  0.7522  0.5994  0.3862
 5457SOL    HW128004   2.601   3.052   7.676  0.0098 -0.6655  0.2976
 5457SOL    HW228005   2.529   3.136   7.576  1.7454 -1.8683 -0.4733
 5458SOL     OW28006   0.600   1.739   2.986  0.5222 -0.1395  0.0381
 5458SOL    HW128007   0.547   1.723   3.064 -1.5126  1.0835 -1.1117
 5458SOL    HW228008   0.685   1.742   3.029 -1.4422 -0.6015  3.9102
 5459SOL     OW28009   3.746   0.496   9.988  0.1603  0.7158 -0.1377
 5459SOL    HW128010   3.764   0.441  10.065 -0.2931  0.1424 -0.4433
 5459SOL    HW228011   3.814   0.563   9.998  1.2420 -0.3118 -0.6078
 5460SOL     OW28012   1.324   4.125  14.899 -0.3570 -0.1463 -0.1029
 5460SOL    HW128013   1.317   4.053  14.836 -1.0790  0.7699 -1.0820
 5460SOL    HW228014   1.305   4.087  14.985 -0.7243 -0.1468 -0.1839
 5461SOL     OW28015   1.456   1.024   3.146 -0.4505 -0.8969  0.2533
 5461SOL    HW128016   1.502   0.962   3.089 -0.7293 -1.6105  0.8018
 5461SOL    HW228017   1.369   0.986   3.163 -1.2923  0.9038 -0.0043
 5462SOL     OW28018   0.758   1.892   7.226  0.4412  0.0654 -0.2193
 5462SOL    HW128019   0.676   1.931   7.196 -0.6859 -2.4862 -0.4666
 5462SOL    HW228020   0.735   1.864   7.314  0.1824  0.6769 -0.0927
 5463SOL     OW28021   0.496   1.008   7.258  0.5133  0.2956 -0.0526
 5463SOL    HW128022   0.428   1.025   7.193  1.6885  1.3899 -0.9985
 5463SOL    HW228023   0.458   0.943   7.316 -0.0135  1.3709  0.8086
 5464SOL     OW28024   3.965   3.528  11.237  0.2766  0.3126 -0.5884
 5464SOL    HW128025   4.049   3.511  11.194 -0.9591 -3.2000 -1.6961
 5464SOL    HW228026   3.934   3.440  11.259  0.4456 -0.0211 -1.6947
 5465SOL     OW28027   2.248   1.585  16.933 -0.0423  0.1835  0.6926
 5465SOL    HW128028   2.155   1.562  16.924  0.8399 -3.6102  1.0919
 5465SOL    HW228029   2.289   1.509  16.891  0.2392  0.4429  0.5051
 5466SOL     OW28030   2.865   4.129   4.456 -0.0415 -0.7571 -0.4837
 5466SOL    HW128031   2.934   4.145   4.521  1.0294 -1.5999 -1.4208
 5466SOL    HW228032   2.807   4.200   4.482  0.2710 -0.4677 -0.5825
 5467SOL     OW28033   1.731   4.248   0.169  0.3654 -0.5693  0.3557
 5467SOL    HW128034   1.774   4.163   0.176  0.9000 -0.4550 -1.5686
 5467SOL    HW228035   1.639   4.224   0.169  0.6510 -1.6429 -3.4240
 5468SOL     OW28036   3.145   0.279  14.337 -0.5628 -0.1230  0.1272
 5468SOL    HW128037   3.234   0.251  14.362 -0.7945 -2.2333 -1.3307
 5468SOL    HW228038   3.109   0.275  14.425  0.6735  0.2555  0.6542
 5469SOL     OW28039   1.694   2.754   6.378  0.1282  0.7026 -0.2604
 5469SOL    HW128040   1.643   2.752   6.297  1.4630 -1.6290 -1.0691
 5469SOL    HW228041   1.626   2.735   6.443 -0.0989  1.1370 -0.3768
 5470SOL     OW28042   2.873   4.013  10.844  0.8341 -0.5324  0.2140
 5470SOL    HW128043   2.817   3.937  10.831  0.1542 -0.2948  1.7606
 5470SOL    HW228044   2.848   4.064  10.766  1.3612 -0.7009 -0.0633
 5471SOL     OW28045   0.323   1.127  14.425  0.0911  0.0166 -0.4868
 5471SOL    HW128046   0.255   1.141  14.491 -1.3160 -0.6664 -1.7934
 5471SOL    HW228047   0.355   1.041  14.453 -1.4755 -0.6173 -0.6137
 5472SOL     OW28048   2.039   3.948   5.883 -0.2050 -0.2717 -0.1042
 5472SOL    HW128049   2.121   3.980   5.845 -0.1237 -2.1274 -1.5186
 5472SOL    HW228050   2.031   3.998   5.964  1.8133 -0.2603  0.0713
 5473SOL     OW28051   0.335   0.147  10.491 -0.0997 -0.1838  0.0593
 5473SOL    HW128052   0.388   0.189  10.560  4.1075 -3.4329 -1.2161
 5473SOL    HW228053   0.254   0.199  10.499  0.6557  1.0127 -0.0169
 5474SOL     OW28054   1.257   3.935  16.397 -0.1439 -0.3762  0.2468
 5474SOL    HW128055   1.276   3.983  16.478  0.6092 -0.4083  0.0974
 5474SOL    HW228056   1.346   3.924  16.363 -0.0669  1.9610 -0.3378
 5475SOL     OW28057   3.633   1.125   0.550 -0.6297  0.0900 -0.2433
 5475SOL    HW128058   3.656   1.034   0.530 -0.1690  0.5526 -1.7646
 5475SOL    HW228059   3.717   1.167   0.533  0.0939 -1.2231  0.1060
 5476SOL     OW28060   0.938   4.611  12.597 -0.2029  0.0791  0.4816
 5476SOL    HW128061   0.941   4.617  12.692  2.4315 -2.3167  0.5469
 5476SOL    HW228062   0.910   4.522  12.577 -0.9713  0.1177  1.4207
 5477SOL     OW28063   1.811   1.580   8.555  0.4239 -0.0981  0.2431
 5477SOL    HW128064   1.890   1.593   8.502  0.9093  1.1526  1.2717
 5477SOL    HW228065   1.822   1.654   8.615 -0.4851 -0.9245  1.4129
 5478SOL     OW28066   0.234   3.529   3.472 -0.0426 -0.0714 -0.0127
 5478SOL    HW128067   0.238   3.536   3.377 -1.4333  0.6877 -0.0220
 5478SOL    HW228068   0.145   3.498   3.488 -1.0431  2.3008 -0.9387
 5479SOL     OW28069   4.582   0.097   3.506 -0.0271 -0.3232  0.4860
 5479SOL    HW128070   4.599   0.133   3.419  0.6819 -0.5867  0.5130
 5479SOL    HW228071   4.630   0.155   3.565  1.7733  0.2957 -1.6091
 5480SOL     OW28072   4.055   2.066  16.027 -0.1695  0.5223 -0.2489
 5480SOL    HW128073   4.088   2.045  16.114 -0.3612  0.7064 -0.1294
 5480SOL    HW228074   4.026   2.156  16.043 -0.8067  0.2833 -0.0512
 5481SOL     OW28075   3.466   2.440  11.453 -0.3141  0.0526 -0.4393
 5481SOL    HW128076   3.469   2.512  11.391  1.4509  1.7173  1.5792
 5481SOL    HW228077   3.371   2.430  11.464 -0.1201 -1.9478 -0.4811
 5482SOL     OW28078   1.720   3.239   6.828  0.2697 -0.0715 -0.3253
 5482SOL    HW128079   1.673   3.173   6.879  0.2745 -1.0920 -1.6542
 5482SOL    HW228080   1.779   3.272   6.896 -1.2397  0.1134  0.9115
 5483SOL     OW28081   2.478   2.852   5.942  0.3959  0.4185 -0.5530
 5483SOL    HW128082   2.398   2.889   5.906  0.0338 -1.5330 -1.7282
 5483SOL    HW228083   2.459   2.758   5.940 -0.8542  0.6911 -0.8762
 5484SOL     OW28084   4.487   4.244   7.485  0.1708  0.3210  0.6819
 5484SOL    HW128085   4.512   4.280   7.400 -0.9601 -1.0183 -0.2198
 5484SOL    HW228086   4.440   4.166   7.456  0.1468  0.2655  0.8694
 5485SOL     OW28087   3.235   4.271  11.302 -0.6099 -0.8676  0.3919
 5485SOL    HW128088   3.324   4.238  11.316 -0.9178 -2.0097 -0.3457
 5485SOL    HW228089   3.253   4.364  11.312 -0.7697 -1.0126  2.0164
 5486SOL     OW28090   4.257   0.689   9.375  0.2117 -0.5903  0.1960
 5486SOL    HW128091   4.269   0.594   9.381  0.8737 -0.4291  1.3431
 5486SOL    HW228092   4.167   0.702   9.405  0.6727 -0.2017  1.4020
 5487SOL     OW28093   2.414   1.453   2.754 -0.2755 -0.2324  0.2183
 5487SOL    HW128094   2.468   1.509   2.810 -0.1161  0.6580 -0.8328
 5487SOL    HW228095   2.435   1.369   2.794 -0.8898 -0.4742  0.0402
 5488SOL     OW28096   2.032   2.677   3.489  0.1978 -0.2018 -0.1055
 5488SOL    HW128097   2.109   2.622   3.470  0.3139 -0.4464  1.0935
 5488SOL    HW228098   1.963   2.621   3.524 -0.2133 -0.0338 -0.6491
 5489SOL     OW28099   4.526   0.576   5.329 -0.2131  0.1637 -0.1698
 5489SOL    HW128100   4.455   0.637   5.310  1.2135  1.6000 -0.9934
 5489SOL    HW228101   4.565   0.607   5.411 -0.7642  3.2255 -1.0684
 5490SOL     OW28102   4.666   2.222   5.850 -0.1444  0.1384 -0.1936
 5490SOL    HW128103   4.584   2.270   5.852 -2.0328 -3.0272 -1.9955
 5490SOL    HW228104   0.002   2.284   5.853  0.5835 -0.9258  4.1992
 5491SOL     OW28105   2.727   2.761   8.760  0.0744  0.2304  0.2335
 5491SOL    HW128106   2.819   2.735   8.767 -0.4973 -1.2898  2.3157
 5491SOL    HW228107   2.684   2.682   8.725  2.4471 -1.0900  0.2945
 5492SOL     OW28108   1.725   2.705   3.996 -0.3493  0.0304  1.0921
 5492SOL    HW128109   1.634   2.678   4.007 -0.5263  0.6852  1.2324
 5492SOL    HW228110   1.707   2.798   3.986 -1.1529 -0.5508 -2.8628
 5493SOL     OW28111   2.440   0.711   9.994 -0.0042 -0.4313  0.6511
 5493SOL    HW128112   2.456   0.646   9.926  0.7405  1.5527 -1.0818
 5493SOL    HW228113   2.472   0.653  10.063  1.6763 -0.9537 -0.5658
 5494SOL     OW28114   0.972   3.092   4.829  0.3186 -0.8076 -0.4612
 5494SOL    HW128115   1.045   3.132   4.877 -0.0004 -0.4239 -0.2946
 5494SOL    HW228116   0.998   3.082   4.738  2.1612 -0.0597 -0.0109
 5495SOL     OW28117   2.284   2.031   4.944 -0.3296 -0.6692  0.6876
 5495SOL    HW128118   2.263   1.973   5.018 -0.9101 -0.7686  0.4429
 5495SOL    HW228119   2.359   1.983   4.909  1.1827  1.2113  1.3132
 5496SOL     OW28120   0.183   1.208   6.895  0.4162 -0.1854 -0.3646
 5496SOL    HW128121   0.091   1.194   6.917 -0.2938  0.0526 -3.1706
 5496SOL    HW228122   0.192   1.276   6.828 -3.1602  1.7440  1.1301
 5497SOL     OW28123   2.664   2.207   1.869  0.0646  0.2143  0.2932
 5497SOL    HW128124   2.749   2.166   1.856  0.9269  1.2672  2.6895
 5497SOL    HW228125   2.658   2.235   1.777  1.1471 -0.4425  0.0330
 5498SOL     OW28126   0.088   2.878   9.392 -0.2044 -0.3230 -0.0923
 5498SOL    HW128127   0.039   2.804   9.358 -0.8277  0.7741 -1.6195
 5498SOL    HW228128   0.100   2.846   9.481 -2.0832 -0.0973  0.2377
 5499SOL     OW28129   2.936   2.378   8.783 -0.2857  0.1976  0.2843
 5499SOL    HW128130   2.841   2.364   8.781 -0.5864  2.2553  0.2321
 5499SOL    HW228131   2.959   2.346   8.871  1.6274 -0.9700 -0.6493
 5500SOL     OW28132   3.834   1.394   3.739  0.1903 -0.0527 -0.5645
 5500SOL    HW128133   3.869   1.465   3.793  0.3219 -0.8822  0.4251
 5500SOL    HW228134   3.787   1.452   3.678  0.0422 -0.8593 -1.2190
 5501SOL     OW28135   0.160   1.294   7.874 -0.0936  0.4794 -0.0272
 5501SOL    HW128136   0.232   1.248   7.830 -1.2121 -1.7691  0.5164
 5501SOL    HW228137   0.096   1.293   7.803  1.0348  1.5116 -1.0830
 5502SOL     OW28138   2.809   2.752   2.039 -0.0468  0.5217 -0.1531
 5502SOL    HW128139   2.841   2.727   2.125  0.4985  0.1992 -0.4491
 5502SOL    HW228140   2.861   2.691   1.987  0.3184  1.4989 -0.9495
 5503SOL     OW28141   2.804   0.556  10.026 -0.2902 -0.0558 -0.0952
 5503SOL    HW128142   2.853   0.548  10.108 -1.9657  0.3246  0.9466
 5503SOL    HW228143   2.724   0.506  10.039 -0.8927  0.2664 -2.6338
 5504SOL     OW28144   0.041   2.158   9.125 -0.5328  0.2638 -0.2056
 5504SOL    HW128145   0.119   2.200   9.087 -0.3303 -0.6290 -0.7719
 5504SOL    HW228146   0.066   2.066   9.124 -0.1855  0.3516  1.7148
 5505SOL     OW28147   3.458   0.140   9.960  0.1750 -0.2024  0.2074
 5505SOL    HW128148   3.510   0.191  10.023  1.1873  0.6635 -1.3205
 5505SOL    HW228149   3.464   0.201   9.887 -2.0013 -0.6706 -0.3548
 5506SOL     OW28150   1.713   2.303   2.167 -0.2899 -0.1177  0.3364
 5506SOL    HW128151   1.730   2.381   2.114  1.8597 -0.5745  0.3608
 5506SOL    HW228152   1.618   2.302   2.182 -0.3858  0.4284 -0.2431
 5507SOL     OW28153   0.366   1.467   8.600  0.3382  0.4723 -0.3592
 5507SOL    HW128154   0.421   1.404   8.645 -0.8503 -0.8833 -0.8024
 5507SOL    HW228155   0.394   1.456   8.509 -0.2948 -0.3599 -0.4512
 5508SOL     OW28156   2.999   2.438   8.501 -0.1614  0.0214 -0.3082
 5508SOL    HW128157   2.995   2.444   8.597  0.3040  2.9667 -0.4694
 5508SOL    HW228158   3.055   2.360   8.500  0.5766  0.5418 -0.2281
 5509SOL     OW28159   0.479   4.141   7.748  0.0263  1.0246  0.0043
 5509SOL    HW128160   0.512   4.089   7.821  1.6046  2.5160  0.3363
 5509SOL    HW228161   0.509   4.095   7.669  1.2146  1.0649  0.4441
 5510SOL     OW28162   2.386   1.561   8.066 -0.5610 -0.1880 -0.2110
 5510SOL    HW128163   2.429   1.634   8.110 -0.0340 -1.3255  1.1377
 5510SOL    HW228164   2.313   1.605   8.022 -0.4060 -0.5832 -0.8580
 5511SOL     OW28165   0.931   2.421   6.609  0.4128  1.0759 -0.1968
 5511SOL    HW128166   0.843   2.385   6.604  0.0201  2.1727 -1.0622
 5511SOL    HW228167   0.916   2.505   6.565 -0.8202  0.2086 -1.4233
 5512SOL     OW28168   4.309   4.461  16.125 -0.1407 -0.0111  0.2138
 5512SOL    HW128169   4.328   4.552  16.150  1.1410 -0.1453 -0.2794
 5512SOL    HW228170   4.347   4.412  16.198 -0.4507 -0.2838  0.1919
 5513SOL     OW28171   2.572   1.783   6.755 -0.2031  0.5841  0.1196
 5513SOL    HW128172   2.663   1.755   6.763 -0.3369 -0.0165 -0.4505
 5513SOL    HW228173   2.564   1.794   6.660 -0.3879  2.6115  0.3575
 5514SOL     OW28174   2.922   0.933   3.629  0.1174  0.8485  0.1716
 5514SOL    HW128175   2.842   0.901   3.672 -0.0721  2.2821  0.8618
 5514SOL    HW228176   2.977   0.855   3.634 -1.5744 -0.3909 -0.2768
 5515SOL     OW28177   1.741   0.599   7.028 -0.1619 -0.0468  0.4334
 5515SOL    HW128178   1.787   0.677   6.997  2.0059 -0.6866  1.9794
 5515SOL    HW228179   1.678   0.640   7.087  0.3898  1.3128  0.0817
 5516SOL     OW28180   1.448   0.503   6.328 -0.2214  0.4112  0.0513
 5516SOL    HW128181   1.513   0.447   6.370 -0.9301 -0.7479 -0.4015
 5516SOL    HW228182   1.363   0.460   6.338  1.1732 -2.5431 -0.7056
 5517SOL     OW28183   2.377   2.694   4.580 -0.4464 -0.9766 -0.1865
 5517SOL    HW128184   2.344   2.740   4.502 -1.8615 -0.4021  0.7450
 5517SOL    HW228185   2.310   2.635   4.614 -0.6328 -0.4969  0.2830
 5518SOL     OW28186   1.686   3.493  13.524 -0.1516 -0.4934  0.4626
 5518SOL    HW128187   1.731   3.442  13.457  1.5000  0.9841  0.4664
 5518SOL    HW228188   1.601   3.449  13.526 -0.5326  0.2251  0.1054
 5519SOL     OW28189   4.373   1.392   3.799 -0.1231  0.0116 -0.1098
 5519SOL    HW128190   4.436   1.421   3.865 -1.3635  0.3185  0.9444
 5519SOL    HW228191   4.326   1.325   3.848  0.5123 -1.1379 -1.0814
 5520SOL     OW28192   2.478   0.798   8.159  0.0226  0.6575 -0.5102
 5520SOL    HW128193   2.408   0.796   8.223  1.6665 -0.9650  1.2296
 5520SOL    HW228194   2.505   0.890   8.163  0.2227  0.6447 -1.6419
 5521SOL     OW28195   2.594   4.510   8.755  0.2601  0.6529 -0.2968
 5521SOL    HW128196   2.630   4.582   8.807 -0.7353 -1.3350  3.1149
 5521SOL    HW228197   2.520   4.490   8.812 -1.0628  0.6234 -2.0142
 5522SOL     OW28198   1.038   1.772   9.440 -0.6532  0.1211 -0.2256
 5522SOL    HW128199   0.942   1.779   9.436 -0.5660  1.4784 -0.1918
 5522SOL    HW228200   1.062   1.855   9.398 -0.5728  2.3107  4.2411
 5523SOL     OW28201   2.750   1.870   5.214 -0.0705  0.6143 -0.5127
 5523SOL    HW128202   2.797   1.835   5.290 -1.0553  1.7373  0.6185
 5523SOL    HW228203   2.761   1.964   5.220 -1.1308  0.6223  1.3802
 5524SOL     OW28204   0.573   3.449   0.699 -0.0218  0.0198  0.0022
 5524SOL    HW128205   0.650   3.461   0.754 -1.9984 -0.5263  2.8975
 5524SOL    HW228206   0.589   3.523   0.641  0.6929 -0.5507 -0.5163
 5525SOL     OW28207   0.091   0.580  11.149  0.4848  0.1452 -0.2369
 5525SOL    HW128208   0.097   0.676  11.155 -0.5814  0.1858  0.3053
 5525SOL    HW228209   0.175   0.560  11.188  0.5177 -0.1740 -0.4716
 5526SOL     OW28210   1.998   0.532  13.694 -0.8086 -0.3379 -0.1487
 5526SOL    HW128211   2.069   0.591  13.717 -1.6076  0.1753  1.0064
 5526SOL    HW228212   1.948   0.523  13.776 -0.9938 -0.5212 -0.2812
 5527SOL     OW28213   4.492   4.161   2.467  0.1917 -0.4898  0.3193
 5527SOL    HW128214   4.419   4.116   2.424 -1.2385  2.4068 -0.2622
 5527SOL    HW228215   4.563   4.104   2.437 -0.7324 -0.7904 -1.3154
 5528SOL     OW28216   1.760   3.176   6.564  0.1751  0.1896 -0.0924
 5528SOL    HW128217   1.754   3.208   6.654 -1.1008 -1.3806  0.3910
 5528SOL    HW228218   1.852   3.185   6.538  0.3983  0.1359  0.6899
 5529SOL     OW28219   3.330   1.369   8.350 -0.2739 -0.3193  0.3554
 5529SOL    HW128220   3.387   1.311   8.298 -0.5725  0.9499 -1.3922
 5529SOL    HW228221   3.400   1.422   8.387 -0.2406  1.4007 -2.1675
 5530SOL     OW28222   0.564   3.427  14.503 -0.2475  0.4034  0.0655
 5530SOL    HW128223   0.589   3.340  14.473 -0.7875  0.5998 -0.9687
 5530SOL    HW228224   0.561   3.411  14.597  1.9711  1.4669  0.3035
 5531SOL     OW28225   3.798   0.020   8.983  0.1645 -0.3991 -0.5831
 5531SOL    HW128226   3.754   4.679   9.015  1.0099 -0.3641  0.6574
 5531SOL    HW228227   3.757   0.094   9.028  1.3620 -0.0067 -0.1355
 5532SOL     OW28228   1.612   4.498   8.001  0.0695 -0.7484  0.1212
 5532SOL    HW128229   1.705   4.482   7.984  0.1908 -0.4649  0.5208
 5532SOL    HW228230   1.590   4.419   8.050 -0.4290 -1.1115 -0.6989
 5533SOL     OW28231   3.236   4.579   7.216  0.2231  0.4917  0.3999
 5533SOL    HW128232   3.166   4.548   7.273  0.1389  0.6250  0.3671
 5533SOL    HW228233   3.283   4.642   7.269  0.7681  1.0744 -0.7750
 5534SOL     OW28234   2.531   0.673   7.322  0.8337 -0.1577 -0.0196
 5534SOL    HW128235   2.468   0.629   7.265 -1.2300  0.7476  1.5849
 5534SOL    HW228236   2.551   0.602   7.384  0.7889 -0.0373  0.1321
 5535SOL     OW28237   2.223   1.889  12.098  0.0317  0.1029 -0.4335
 5535SOL    HW128238   2.191   1.959  12.042 -2.1058 -0.1792  0.4357
 5535SOL    HW228239   2.278   1.842  12.035 -0.9043 -2.2104  0.4781
 5536SOL     OW28240   2.171   3.045   7.157  0.0739  0.8819 -0.2550
 5536SOL    HW128241   2.085   3.060   7.197  1.1707  2.6423  1.4498
 5536SOL    HW228242   2.146   2.987   7.085 -0.2552  0.8747 -0.1342
 5537SOL     OW28243   3.833   2.653   4.370 -0.0605  0.0800 -0.4151
 5537SOL    HW128244   3.761   2.660   4.308  0.3944 -1.9746 -1.1636
 5537SOL    HW228245   3.810   2.719   4.436  1.4808  0.0783  0.1403
 5538SOL     OW28246   2.523   4.150   2.116 -0.2799 -0.2397  0.0777
 5538SOL    HW128247   2.493   4.063   2.142 -1.1931  0.4566  1.3201
 5538SOL    HW228248   2.498   4.151   2.024 -3.1440  0.4403  0.8631
 5539SOL     OW28249   4.275   0.849   8.415  0.0200  0.1168 -0.1248
 5539SOL    HW128250   4.214   0.827   8.345 -1.3091  3.0736  0.1094
 5539SOL    HW228251   4.284   0.764   8.458  1.2975 -0.2842 -1.1964
 5540SOL     OW28252   2.097   1.668   3.033  0.2654 -0.4349  0.4113
 5540SOL    HW128253   2.184   1.681   3.071 -1.4798  3.0320  3.2130
 5540SOL    HW228254   2.073   1.755   3.002  2.2937 -0.4004 -1.0770
 5541SOL     OW28255   1.468   0.296  15.559 -0.9143  0.3730 -0.0070
 5541SOL    HW128256   1.411   0.290  15.636  1.2986  0.9954  1.6738
 5541SOL    HW228257   1.470   0.207  15.526  1.0990 -0.1193  1.4352
 5542SOL     OW28258   4.178   0.514  13.071  0.4844 -0.1594  0.1599
 5542SOL    HW128259   4.120   0.472  13.007  0.7942  2.2499 -1.7353
 5542SOL    HW228260   4.261   0.518  13.023 -0.7275 -0.7938 -2.0236
 5543SOL     OW28261   1.769   2.047  12.171  0.1992  0.4454 -0.3153
 5543SOL    HW128262   1.851   2.003  12.196 -0.1967  1.2673  2.4056
 5543SOL    HW228263   1.701   2.010  12.227  1.5746  0.2008  1.2143
 5544SOL     OW28264   0.320   2.882   9.253  0.5122  0.3355 -0.0406
 5544SOL    HW128265   0.252   2.897   9.319  1.0710 -0.3171  0.6838
 5544SOL    HW228266   0.300   2.793   9.224  2.6910  0.4743 -1.9692
 5545SOL     OW28267   4.147   1.603   5.886  0.0970  0.0073 -0.3207
 5545SOL    HW128268   4.112   1.689   5.862  0.1080 -0.2197 -1.1680
 5545SOL    HW228269   4.074   1.541   5.889  0.0359  0.1067  0.1728
 5546SOL     OW28270   1.231   2.427   8.411  0.2811 -0.7596 -0.3784
 5546SOL    HW128271   1.135   2.435   8.409  0.3756  0.4483 -0.0916
 5546SOL    HW228272   1.248   2.349   8.463  1.6495 -0.3669 -0.2502
 5547SOL     OW28273   4.419   3.903   4.923 -0.0218  0.7029 -0.3259
 5547SOL    HW128274   4.467   3.877   5.002  0.3136  2.0978 -0.0636
 5547SOL    HW228275   4.422   3.999   4.928  1.4604  0.6727 -0.5505
 5548SOL     OW28276   2.567   3.210   4.684  0.1982  0.0904 -0.0117
 5548SOL    HW128277   2.520   3.237   4.763 -1.1726 -4.5776  0.7724
 5548SOL    HW228278   2.515   3.142   4.642 -1.5483  0.2416  1.9137
 5549SOL     OW28279   0.937   4.365   4.305 -0.0731 -0.6613  0.5807
 5549SOL    HW128280   1.021   4.409   4.318  0.3364 -1.3325  0.2054
 5549SOL    HW228281   0.963   4.286   4.257 -2.5326  0.4960 -2.6893
 5550SOL     OW28282   1.844   2.969  10.349  0.1979  0.2915 -0.1064
 5550SOL    HW128283   1.851   2.944  10.257 -0.6794  0.4295 -0.2090
 5550SOL    HW228284   1.819   2.883  10.382 -0.4478 -1.0728 -4.2133
 5551SOL     OW28285   3.989   0.788   7.282 -0.4361 -0.1146 -0.0991
 5551SOL    HW128286   3.935   0.720   7.322 -1.3081 -0.5783 -2.0984
 5551SOL    HW228287   3.949   0.788   7.195 -1.6334  1.8282  0.4368
 5552SOL     OW28288   1.841   0.805   8.267 -0.3543  0.1624 -0.6352
 5552SOL    HW128289   1.881   0.742   8.206  1.1245  3.8465 -3.5247
 5552SOL    HW228290   1.914   0.853   8.305  0.1892 -1.2057  0.0439
 5553SOL     OW28291   3.156   3.101  15.508 -0.4786 -0.0310  0.7160
 5553SOL    HW128292   3.220   3.036  15.478 -1.5745 -0.4740 -0.6620
 5553SOL    HW228293   3.174   3.182  15.461  1.3664 -0.2443  1.0462
 5554SOL     OW28294   4.466   2.085   8.537 -0.0650 -0.5349 -0.6200
 5554SOL    HW128295   4.463   1.989   8.535 -1.7671 -0.5510  3.7449
 5554SOL    HW228296   4.415   2.104   8.616  4.6402  0.2268  2.2438
 5555SOL     OW28297   1.873   0.423   5.960 -0.4406 -0.1748  0.4066
 5555SOL    HW128298   1.796   0.367   5.966  0.1761 -1.0838 -0.2242
 5555SOL    HW228299   1.931   0.363   5.913  0.5866  0.8979  0.3145
 5556SOL     OW28300   0.167   2.315   6.684  0.0726 -0.2568 -0.2034
 5556SOL    HW128301   0.080   2.285   6.657 -0.3328  1.2589 -0.5698
 5556SOL    HW228302   0.212   2.261   6.619 -0.4870 -0.3494 -0.5162
 5557SOL     OW28303   1.445   2.095   2.552 -0.3691 -0.2275  0.4283
 5557SOL    HW128304   1.508   2.161   2.525  0.5660 -1.7933 -1.2711
 5557SOL    HW228305   1.469   2.018   2.499  0.8852 -0.2750  1.0556
 5558SOL     OW28306   3.995   1.499   7.327 -0.4351  0.1351  0.2207
 5558SOL    HW128307   3.943   1.527   7.252 -2.7590 -1.9216  1.0511
 5558SOL    HW228308   3.926   1.487   7.393 -1.7709 -0.8893 -1.3460
 5559SOL     OW28309   1.282   3.176  15.223 -0.1734  0.1532  0.2815
 5559SOL    HW128310   1.188   3.161  15.216 -0.2391  0.8155 -0.1774
 5559SOL    HW228311   1.304   3.225  15.144  0.0384 -1.6149 -0.7661
 5560SOL     OW28312   1.551   3.197   1.785 -0.4291 -0.5886 -0.1207
 5560SOL    HW128313   1.532   3.117   1.834  1.9661 -1.4917 -0.6538
 5560SOL    HW228314   1.469   3.215   1.739 -0.0027  0.0910 -0.6120
 5561SOL     OW28315   2.808   2.635   5.371  0.0686 -0.4335 -0.6722
 5561SOL    HW128316   2.789   2.659   5.461  0.0235  2.8503 -1.5660
 5561SOL    HW228317   2.761   2.710   5.334  2.1562  0.9282 -0.5212
 5562SOL     OW28318   3.126   4.456   6.437  0.1586 -0.1442 -0.7489
 5562SOL    HW128319   3.221   4.443   6.444  0.0484 -0.2785  0.5245
 5562SOL    HW228320   3.108   4.391   6.369 -0.8691  0.6563 -1.2408
 5563SOL     OW28321   0.988   0.280  17.247  0.4662  0.0527  0.5815
 5563SOL    HW128322   1.071   0.266  17.201  0.6037  0.9623  0.5480
 5563SOL    HW228323   0.921   0.290  17.179 -1.6086  1.2936  2.8166
 5564SOL     OW28324   1.113   4.309   9.196 -0.6804 -0.4111 -0.2845
 5564SOL    HW128325   1.086   4.302   9.287 -1.3338 -0.9082 -0.5088
 5564SOL    HW228326   1.189   4.250   9.191  0.3301  0.7735  1.2220
 5565SOL     OW28327   0.236   1.269   6.030  0.2427 -0.0048 -0.3282
 5565SOL    HW128328   0.207   1.354   5.998 -1.1598 -0.5189 -0.4300
 5565SOL    HW228329   0.322   1.281   6.070  0.3682  0.9028 -0.8740
 5566SOL     OW28330   2.050   3.463   3.748 -0.0789 -0.1631  0.1695
 5566SOL    HW128331   2.125   3.501   3.702 -0.4674  1.9878  1.2901
 5566SOL    HW228332   2.046   3.519   3.826 -2.5514  3.2626 -2.3930
 5567SOL     OW28333   3.404   3.615  11.674 -0.1629  0.4320  0.2124
 5567SOL    HW128334   3.378   3.565  11.596 -0.2292 -0.2792  0.6927
 5567SOL    HW228335   3.315   3.630  11.707 -1.2573 -1.9984 -1.6275
 5568SOL     OW28336   4.618   2.378   7.210  0.7555  0.2905 -0.2803
 5568SOL    HW128337   4.688   2.441   7.226  0.0055  1.0564 -0.0045
 5568SOL    HW228338   4.570   2.412   7.134  2.9613 -1.2316 -2.3331
 5569SOL     OW28339   4.689   0.288   3.703 -0.1394  0.5656 -0.1500
 5569SOL    HW128340   0.001   0.369   3.691 -0.4634  0.6508 -0.9426
 5569SOL    HW228341   0.019   0.237   3.747  0.0126  2.4529  1.8042
 5570SOL     OW28342   3.178   0.137   3.516 -0.2247 -0.0883  0.5681
 5570SOL    HW128343   3.163   0.197   3.442 -0.9750 -0.9898 -0.0137
 5570SOL    HW228344   3.108   0.170   3.572  1.1141  1.6733  1.2033
 5571SOL     OW28345   3.523   3.303   4.549  0.3118  0.6637 -0.2220
 5571SOL    HW128346   3.482   3.381   4.588  0.9935  0.3868  1.0507
 5571SOL    HW228347   3.482   3.313   4.463 -2.3300  2.2531  1.2041
 5572SOL     OW28348   3.376   1.761   1.885 -0.1960 -0.0180  0.1963
 5572SOL    HW128349   3.381   1.703   1.961 -1.9557 -0.8033 -0.2966
 5572SOL    HW228350   3.458   1.811   1.889 -0.2580  0.0994  0.0069
 5573SOL     OW28351   4.521   3.530  10.513  0.3653 -0.1152 -0.7160
 5573SOL    HW128352   4.576   3.568  10.582 -1.2194  1.6185 -0.4248
 5573SOL    HW228353   4.434   3.567  10.522  1.0266  1.0723  0.6717
 5574SOL     OW28354   2.368   0.622   7.975  0.5019  0.2452  0.2534
 5574SOL    HW128355   2.332   0.686   7.913 -0.0474 -1.0134 -0.7115
 5574SOL    HW228356   2.414   0.679   8.036 -1.6289  1.0294  1.1174
 5575SOL     OW28357   4.208   3.720   3.994  0.1248  0.0129  0.5654
 5575SOL    HW128358   4.301   3.700   3.981  0.2612  0.1167  1.3816
 5575SOL    HW228359   4.173   3.686   3.912 -1.4079  0.7514  0.9169
 5576SOL     OW28360   1.726   4.698  12.975  0.1535  0.7078 -0.2222
 5576SOL    HW128361   1.747   4.699  13.068 -1.2369 -2.2433  0.1203
 5576SOL    HW228362   1.668   0.036  12.985  0.2908  0.8268 -0.3319
 5577SOL     OW28363   1.414   0.465   8.014 -0.3729 -0.1917  0.5422
 5577SOL    HW128364   1.497   0.434   7.977  0.6663 -1.1075  3.6453
 5577SOL    HW228365   1.437   0.549   8.053 -0.7727  0.0346  0.2978
 5578SOL     OW28366   1.487   3.893   2.867 -0.6993  0.2849 -0.0664
 5578SOL    HW128367   1.565   3.839   2.852 -2.1754 -1.5772 -1.0841
 5578SOL    HW228368   1.436   3.843   2.931 -0.7044 -1.7873 -1.6921
 5579SOL     OW28369   2.687   2.798   7.660  0.1318  0.2234  0.2117
 5579SOL    HW128370   2.675   2.804   7.755 -0.4170  4.4589 -0.1249
 5579SOL    HW228371   2.760   2.860   7.654  0.7543 -0.4265  0.9410
 5580SOL     OW28372   2.127   0.114   2.783  0.1892  0.0316 -0.2125
 5580SOL    HW128373   2.033   0.127   2.795 -0.1703  0.0658 -2.8787
 5580SOL    HW228374   2.134   0.070   2.698 -1.5796 -1.1355  0.2470
 5581SOL     OW28375   3.084   0.888   3.886 -0.3953 -0.1071  0.4579
 5581SOL    HW128376   3.173   0.895   3.851 -0.1149  0.7755  1.3331
 5581SOL    HW228377   3.035   0.949   3.831  2.0486 -0.3110 -1.9364
 5582SOL     OW28378   3.487   1.457   2.551 -0.0602 -0.5449 -0.1424
 5582SOL    HW128379   3.555   1.434   2.613 -0.2247  0.4830  0.4221
 5582SOL    HW228380   3.515   1.548   2.545 -2.3766  0.1270 -0.8740
 5583SOL     OW28381   2.777   3.384   6.298 -0.5477  0.4474 -0.6446
 5583SOL    HW128382   2.835   3.338   6.358 -1.0779 -0.4756 -0.8361
 5583SOL    HW228383   2.843   3.420   6.240 -0.2221  0.5959 -0.1848
 5584SOL     OW28384   4.555   1.405  14.298 -1.0202 -0.4023 -0.1299
 5584SOL    HW128385   4.465   1.376  14.279 -0.6329 -1.3837 -0.4373
 5584SOL    HW228386   4.604   1.328  14.270  1.2492  1.4054 -1.0775
 5585SOL     OW28387   2.309   2.029   3.958  0.1490 -0.0776  0.9358
 5585SOL    HW128388   2.329   1.976   4.035  1.3789  0.9805  1.3375
 5585SOL    HW228389   2.222   2.061   3.981  0.0287 -0.5090  1.0853
 5586SOL     OW28390   2.221   3.337  16.747  0.4583 -0.2979 -0.7903
 5586SOL    HW128391   2.300   3.382  16.718  0.6517  0.3142  0.6739
 5586SOL    HW228392   2.199   3.291  16.666  1.1511 -0.1432 -1.0654
 5587SOL     OW28393   2.429   1.934  15.246  0.0595  0.2951 -0.1140
 5587SOL    HW128394   2.383   1.927  15.163  0.6814 -1.3480 -0.3139
 5587SOL    HW228395   2.392   1.855  15.286  1.0537 -0.2907 -0.3342
 5588SOL     OW28396   2.567   0.206   7.402 -0.4420  0.2440 -0.1028
 5588SOL    HW128397   2.652   0.163   7.405 -1.3185 -1.4862 -0.0770
 5588SOL    HW228398   2.515   0.129   7.379  2.7576 -1.2562 -2.2206
 5589SOL     OW28399   2.145   3.331   7.601  0.2795  0.3085  0.4165
 5589SOL    HW128400   2.104   3.357   7.684  0.3041  1.8265 -0.0438
 5589SOL    HW228401   2.112   3.242   7.592  1.1269 -0.1388  1.6602
 5590SOL     OW28402   3.397   1.252  11.551 -0.2076  0.1544 -0.2040
 5590SOL    HW128403   3.407   1.213  11.638 -0.8281  1.0568  0.2734
 5590SOL    HW228404   3.486   1.270  11.519 -0.4559  0.3317 -0.7947
 5591SOL     OW28405   0.702   0.560  17.017  0.6576  0.0809  0.0469
 5591SOL    HW128406   0.686   0.524  16.930 -2.8364 -1.0902  1.1563
 5591SOL    HW228407   0.696   0.479  17.068  2.6067  0.3011  0.6141
 5592SOL     OW28408   3.823   1.368  17.063 -0.3200 -0.4818 -0.0732
 5592SOL    HW128409   3.891   1.436  17.066  0.1607 -0.9993  0.6880
 5592SOL    HW228410   3.800   1.369  16.970 -0.7465 -0.2253  0.0354
 5593SOL     OW28411   0.215   1.875   2.076  0.1249 -0.7148  0.0021
 5593SOL    HW128412   0.236   1.872   2.169  1.6978  0.4581 -0.3226
 5593SOL    HW228413   0.147   1.808   2.067 -0.5277 -0.0921  0.2943
 5594SOL     OW28414   0.573   1.308  14.704 -0.5364 -0.3185  0.1569
 5594SOL    HW128415   0.493   1.352  14.731 -1.6594 -3.1724  1.5013
 5594SOL    HW228416   0.563   1.222  14.745  0.2531  1.0011  3.1207
 5595SOL     OW28417   2.130   3.307   5.862  0.8682 -0.1001  0.2195
 5595SOL    HW128418   2.090   3.224   5.890  1.3821 -0.2251  0.5766
 5595SOL    HW228419   2.054   3.365   5.871 -0.3974 -1.7028 -0.0248
 5596SOL     OW28420   4.639   1.235   4.479 -0.3061  0.0595  0.1787
 5596SOL    HW128421   4.692   1.286   4.540 -1.1999  0.2327  0.8194
 5596SOL    HW228422   4.671   1.148   4.503 -0.4567 -0.1479 -0.3951
 5597SOL     OW28423   4.218   4.323   7.118  0.4156 -0.4669 -0.3623
 5597SOL    HW128424   4.177   4.354   7.037  0.7126  2.7335  0.7342
 5597SOL    HW228425   4.140   4.327   7.173  0.3364  0.7622 -0.5724
 5598SOL     OW28426   1.265   3.176   6.519  0.4764 -0.1666 -1.1076
 5598SOL    HW128427   1.255   3.270   6.528 -1.4469 -0.7613  3.0158
 5598SOL    HW228428   1.332   3.171   6.450  0.6152  2.6410 -1.1476
 5599SOL     OW28429   1.814   0.761   5.514  0.3099  0.2090 -0.1084
 5599SOL    HW128430   1.788   0.681   5.559 -0.5528  0.6227  0.1393
 5599SOL    HW228431   1.730   0.793   5.482 -0.1129 -1.0606 -0.2710
 5600SOL     OW28432   2.378   2.842   8.466 -0.1814  0.2151 -0.2035
 5600SOL    HW128433   2.428   2.760   8.474  0.0307  0.3162 -0.5321
 5600SOL    HW228434   2.419   2.887   8.393 -0.1625 -1.5985 -1.3010
 5601SOL     OW28435   1.727   3.896  11.753  0.3132 -0.2227  0.3042
 5601SOL    HW128436   1.785   3.936  11.688  0.1346 -0.8431 -0.2377
 5601SOL    HW228437   1.753   3.941  11.834 -0.4110  1.6245 -0.4918
 5602SOL     OW28438   1.913   2.204   3.028 -0.3291  0.9256  0.1742
 5602SOL    HW128439   1.866   2.146   2.968  0.5819  0.8334 -0.4540
 5602SOL    HW228440   1.890   2.166   3.113 -1.2607 -0.3682 -0.6516
 5603SOL     OW28441   2.354   3.438  10.561 -0.1081  0.0323 -0.1845
 5603SOL    HW128442   2.272   3.465  10.519 -0.7774 -0.7285  0.6258
 5603SOL    HW228443   2.394   3.525  10.555 -0.2046  0.0611 -0.4138
 5604SOL     OW28444   2.405   2.427   2.676  0.1539 -0.2192 -0.1255
 5604SOL    HW128445   2.394   2.350   2.622 -0.1765  0.8850 -1.6177
 5604SOL    HW228446   2.346   2.491   2.636  0.0627 -0.9326 -1.1018
 5605SOL     OW28447   1.398   3.396   9.025 -0.4046 -0.2986 -0.1997
 5605SOL    HW128448   1.430   3.444   8.948 -0.8874 -0.2191 -0.3544
 5605SOL    HW228449   1.379   3.310   8.986  0.4367 -1.0481  1.0482
 5606SOL     OW28450   3.103   3.593   9.636 -0.1184 -0.1923 -0.1621
 5606SOL    HW128451   3.124   3.653   9.564 -0.6222 -1.7354 -1.5972
 5606SOL    HW228452   3.014   3.621   9.658 -0.5810 -0.7917 -1.2723
 5607SOL     OW28453   2.810   4.690   1.208 -0.4293  0.8548  0.1887
 5607SOL    HW128454   2.848   4.609   1.175 -0.3819  1.0384 -0.2076
 5607SOL    HW228455   2.871   4.699   1.281 -0.0174 -0.3557 -0.0094
 5608SOL     OW28456   3.219   4.442   7.859  0.3421 -0.0068  0.1231
 5608SOL    HW128457   3.138   4.410   7.899 -0.2988  0.7794 -0.5235
 5608SOL    HW228458   3.194   4.534   7.848 -2.1828 -0.6876  0.0713
 5609SOL     OW28459   4.452   3.632   3.933  0.0097  1.0365 -0.2861
 5609SOL    HW128460   4.505   3.567   3.887 -1.0674 -1.4111  1.9936
 5609SOL    HW228461   4.513   3.703   3.956  0.6113  0.6002 -0.5562
 5610SOL     OW28462   2.872   1.398   7.120  0.0594 -0.2101 -0.1061
 5610SOL    HW128463   2.787   1.413   7.077 -0.0954  1.5806  0.8052
 5610SOL    HW228464   2.896   1.319   7.072 -2.0875  0.2264 -1.9334
 5611SOL     OW28465   3.996   3.274   3.097 -0.0439 -0.0864 -0.4250
 5611SOL    HW128466   4.054   3.219   3.150 -0.5200 -0.5984 -0.4276
 5611SOL    HW228467   3.915   3.249   3.142  0.2059 -1.1360 -0.5618
 5612SOL     OW28468   3.648   3.548   4.787  0.1402  0.4962  0.2146
 5612SOL    HW128469   3.558   3.524   4.763  0.6620  0.6458 -1.8588
 5612SOL    HW228470   3.638   3.643   4.793 -0.2646  0.4548  0.2301
 5613SOL     OW28471   3.864   1.720   3.161  0.2651 -0.3279  0.7291
 5613SOL    HW128472   3.935   1.784   3.153  1.0377 -1.3952 -0.8599
 5613SOL    HW228473   3.921   1.644   3.172  1.7021  0.8595  1.4546
 5614SOL     OW28474   3.081   1.847   2.510 -0.0220  0.1925 -0.0748
 5614SOL    HW128475   2.995   1.877   2.481 -0.3333  0.9395  1.6072
 5614SOL    HW228476   3.135   1.925   2.518  0.5047 -0.2785  0.8732
 5615SOL     OW28477   2.214   1.291   7.358  0.3151  0.4117 -0.7219
 5615SOL    HW128478   2.211   1.358   7.427 -1.4673  0.4445 -0.8252
 5615SOL    HW228479   2.148   1.328   7.300 -1.2001  0.6749  1.1653
 5616SOL     OW28480   2.195   4.290  11.688  0.0669  0.7372 -0.0810
 5616SOL    HW128481   2.280   4.334  11.698  1.1202 -0.7930 -2.3128
 5616SOL    HW228482   2.133   4.355  11.722 -0.9638 -0.6200  0.6420
 5617SOL     OW28483   1.258   0.725  14.120 -0.2716 -0.2204  0.2222
 5617SOL    HW128484   1.306   0.736  14.038  0.9088 -4.1055  0.4261
 5617SOL    HW228485   1.213   0.810  14.113  0.0396  0.0279  1.2359
 5618SOL     OW28486   4.239   1.340   6.403  0.1429  0.2293  0.5075
 5618SOL    HW128487   4.300   1.300   6.340  2.4224  1.6658  1.7912
 5618SOL    HW228488   4.159   1.307   6.363  0.4581  2.0057 -1.5443
 5619SOL     OW28489   1.810   4.065   5.202  0.0272  0.2660 -0.2436
 5619SOL    HW128490   1.761   4.122   5.142  0.7690 -0.8126 -1.8819
 5619SOL    HW228491   1.810   3.983   5.153 -0.8542 -0.8568  1.6296
 5620SOL     OW28492   0.141   0.338  10.555  0.0041  0.3510 -0.0067
 5620SOL    HW128493   0.151   0.375  10.467  0.5305 -1.8417 -0.8673
 5620SOL    HW228494   0.141   0.417  10.609 -0.5649 -0.4811  1.1925
 5621SOL     OW28495   1.162   4.324  14.850  0.0746  0.1266 -0.8127
 5621SOL    HW128496   1.235   4.269  14.822  1.5524 -0.3186  3.8950
 5621SOL    HW228497   1.131   4.287  14.933 -0.6382  1.3557 -0.5350
 5622SOL     OW28498   2.564   2.548   6.679  0.1760 -0.2073 -0.0103
 5622SOL    HW128499   2.589   2.617   6.617  1.8493 -0.5278  0.2965
 5622SOL    HW228500   2.543   2.595   6.760  3.1781  0.2057  0.5229
 5623SOL     OW28501   4.684   2.259  12.913 -0.0708 -0.3165 -0.1100
 5623SOL    HW128502   0.034   2.283  12.943 -0.6161  0.4634  0.8827
 5623SOL    HW228503   4.654   2.208  12.988  0.5724  0.5172  0.7139
 5624SOL     OW28504   3.660   2.277   5.829  0.7513 -0.0373  0.1388
 5624SOL    HW128505   3.742   2.247   5.790 -0.8408  1.1891 -4.1616
 5624SOL    HW228506   3.681   2.364   5.863  0.0779  0.2376 -0.1489
 5625SOL     OW28507   0.400   2.440  16.855 -0.0835 -0.1327 -0.2258
 5625SOL    HW128508   0.442   2.526  16.850  1.2395 -0.5878  3.0105
 5625SOL    HW228509   0.312   2.464  16.827  0.5185 -0.9346 -2.8905
 5626SOL     OW28510   2.480   3.449   8.262 -0.2129 -0.1498 -0.1194
 5626SOL    HW128511   2.488   3.393   8.340 -0.3483 -0.6093 -0.4363
 5626SOL    HW228512   2.565   3.494   8.258 -0.1788 -0.1599  0.5029
 5627SOL     OW28513   3.562   4.392   8.322 -0.0223 -0.2540 -0.1479
 5627SOL    HW128514   3.492   4.441   8.277  0.3783 -0.1002 -0.6136
 5627SOL    HW228515   3.624   4.461   8.349 -0.0338  0.3670 -1.6965
 5628SOL     OW28516   3.148   0.342   5.138 -0.2510 -0.4942  0.8565
 5628SOL    HW128517   3.122   0.295   5.058  1.0965  3.1967 -1.7296
 5628SOL    HW228518   3.150   0.429   5.097 -2.4058  0.6632  3.2422
 5629SOL     OW28519   3.616   0.750   6.424  0.4560  0.3741 -0.3729
 5629SOL    HW128520   3.610   0.657   6.404  2.0246 -0.1647  1.6579
 5629SOL    HW228521   3.521   0.761   6.424  0.2779 -1.2497 -0.4353
 5630SOL     OW28522   3.142   3.097   5.163  0.6608 -0.8546 -0.3856
 5630SOL    HW128523   3.075   3.072   5.100  0.7932  0.6650 -1.1364
 5630SOL    HW228524   3.086   3.134   5.232  1.1604 -0.5814 -0.1273
 5631SOL     OW28525   3.488   3.213   4.039  0.3605 -0.3195 -0.5663
 5631SOL    HW128526   3.435   3.248   3.967 -2.2757  0.1363  1.5916
 5631SOL    HW228527   3.576   3.231   4.008 -0.9215  0.0738 -4.0280
 5632SOL     OW28528   2.182   2.153  10.064 -0.2141  0.2235  0.2476
 5632SOL    HW128529   2.245   2.096  10.108  0.9760  0.7452 -0.8019
 5632SOL    HW228530   2.160   2.213  10.136 -2.8442  1.4947 -1.6436
 5633SOL     OW28531   1.606   4.649   2.823  0.7017 -0.6095 -0.4182
 5633SOL    HW128532   1.645   4.678   2.906 -2.6873  0.4377  0.7927
 5633SOL    HW228533   1.521   4.692   2.830  1.3253  0.8664 -1.9665
 5634SOL     OW28534   1.930   4.341   5.663 -0.1484 -0.1498  1.0926
 5634SOL    HW128535   2.012   4.328   5.711  0.4079  3.3073  1.0645
 5634SOL    HW228536   1.900   4.432   5.670  1.1697  0.3772 -0.1133
 5635SOL     OW28537   4.531   0.574   2.820  0.1167 -0.5747  0.4682
 5635SOL    HW128538   4.452   0.532   2.853  1.9282 -2.4869  2.3386
 5635SOL    HW228539   4.588   0.498   2.808 -1.8298 -2.0030  0.2370
 5636SOL     OW28540   3.782   1.510   1.961 -0.0875  0.2031 -0.5734
 5636SOL    HW128541   3.786   1.597   1.920 -1.1339  0.4308 -0.1849
 5636SOL    HW228542   3.825   1.462   1.890 -0.5527  0.5194 -1.0675
 5637SOL     OW28543   0.266   3.385  13.971  0.3158  0.3915 -0.2241
 5637SOL    HW128544   0.174   3.403  13.952  0.2275 -2.2898 -2.2712
 5637SOL    HW228545   0.267   3.298  14.010  0.5530  0.5929  0.2129
 5638SOL     OW28546   3.973   1.554   3.910  0.5677 -0.2443  0.3037
 5638SOL    HW128547   3.986   1.497   3.986 -0.7761  0.2272  0.8906
 5638SOL    HW228548   3.994   1.637   3.951  0.7528  0.9982 -2.2878
 5639SOL     OW28549   0.142   3.269  17.355 -1.1370  0.2088 -0.8088
 5639SOL    HW128550   0.107   3.180  17.361  0.6185 -0.4183  0.0882
 5639SOL    HW228551   0.141   3.296  17.447 -1.2531 -0.5811 -0.5763
 5640SOL     OW28552   3.484   2.278  16.835 -0.2856 -0.3823 -0.4116
 5640SOL    HW128553   3.435   2.213  16.786 -1.3281 -0.2039  0.3914
 5640SOL    HW228554   3.559   2.230  16.871  0.7853  1.5007 -0.0883
 5641SOL     OW28555   0.878   1.620   9.717  0.0575 -0.3277 -0.5921
 5641SOL    HW128556   0.846   1.557   9.782 -0.9267 -1.9591 -2.6606
 5641SOL    HW228557   0.930   1.562   9.661 -0.0367  1.3200 -2.3964
 5642SOL     OW28558   1.395   1.071   9.569  0.0252 -0.6654  0.6688
 5642SOL    HW128559   1.367   1.020   9.645  0.5458 -1.0714  0.5886
 5642SOL    HW228560   1.330   1.033   9.511  0.5435  0.4593 -0.6380
 5643SOL     OW28561   2.304   3.556   7.672  0.5903  0.0178 -0.1894
 5643SOL    HW128562   2.327   3.508   7.752  3.0689  1.7529  0.1443
 5643SOL    HW228563   2.292   3.482   7.613 -0.7154 -2.4474  3.1768
 5644SOL     OW28564   1.329   4.186   5.480 -0.2024  0.3900  0.1265
 5644SOL    HW128565   1.382   4.107   5.482  3.2830  2.7675  0.8937
 5644SOL    HW228566   1.280   4.195   5.563 -2.3250  0.7512 -1.1594
 5645SOL     OW28567   4.510   2.045   4.092 -0.8228 -0.0300 -0.3154
 5645SOL    HW128568   4.530   2.047   3.998  2.8651 -0.7739  0.4706
 5645SOL    HW228569   4.555   1.964   4.117 -2.4149 -0.4853  1.1226
 5646SOL     OW28570   2.901   1.166   5.190  0.8089 -0.4779  0.1938
 5646SOL    HW128571   2.848   1.191   5.265  1.0726 -2.7259  1.1316
 5646SOL    HW228572   2.968   1.233   5.202  0.5667  0.0634 -1.5478
 5647SOL     OW28573   0.945   3.264   7.142  0.4385 -0.6800 -0.9796
 5647SOL    HW128574   1.022   3.229   7.097  1.3518  0.9614 -0.6674
 5647SOL    HW228575   0.980   3.254   7.230  0.8387  0.6192 -0.9947
 5648SOL     OW28576   0.028   4.371  11.840 -0.0549  0.3200  0.5006
 5648SOL    HW128577   4.674   4.364  11.815 -0.4586  0.8876  1.8152
 5648SOL    HW228578   0.051   4.279  11.831 -1.5363  0.2106 -1.9484
 5649SOL     OW28579   1.472   0.540   0.262 -0.2918  0.3203 -0.2872
 5649SOL    HW128580   1.496   0.465   0.318  0.3524  1.9038  1.5763
 5649SOL    HW228581   1.427   0.594   0.327  1.8349  1.6267  0.1121
 5650SOL     OW28582   3.639   1.286  11.763  0.2132 -0.1613  0.0783
 5650SOL    HW128583   3.686   1.254  11.686  3.6610  2.0891  1.2568
 5650SOL    HW228584   3.647   1.381  11.749 -2.6048 -0.1036 -1.1565
 5651SOL     OW28585   0.973   2.255   6.810  0.3441 -0.3094  0.2233
 5651SOL    HW128586   0.957   2.319   6.880 -1.3475 -1.4146  0.8716
 5651SOL    HW228587   0.992   2.318   6.741  0.0337  0.9417  1.2787
 5652SOL     OW28588   3.377   1.736   7.714 -0.5164  0.0153 -0.1161
 5652SOL    HW128589   3.393   1.819   7.670 -1.8108  0.2001 -0.2209
 5652SOL    HW228590   3.313   1.695   7.656  1.5740 -1.7223 -1.2265
 5653SOL     OW28591   4.558   4.008   3.348 -0.0339  0.4545  1.0223
 5653SOL    HW128592   4.494   3.962   3.295  0.2597 -0.4235  1.4317
 5653SOL    HW228593   4.644   4.003   3.306  0.9427  1.5354  2.8588
 5654SOL     OW28594   0.901   2.887   8.722  0.1532  0.3525 -0.2004
 5654SOL    HW128595   0.878   2.888   8.815  0.0768 -2.6510 -0.1749
 5654SOL    HW228596   0.835   2.949   8.691 -0.7724 -2.1039 -3.0775
 5655SOL     OW28597   0.244   2.936   1.824  0.6019 -0.0592  0.0784
 5655SOL    HW128598   0.294   2.868   1.870  0.7350 -0.6876 -0.9825
 5655SOL    HW228599   0.305   3.009   1.833  0.5711 -0.2292  1.5902
 5656SOL     OW28600   4.579   4.355   3.879  0.3999 -0.2923 -0.1361
 5656SOL    HW128601   4.580   4.389   3.789 -1.4591 -1.7941 -0.7084
 5656SOL    HW228602   4.494   4.312   3.887  0.5987 -0.3982  1.3272
 5657SOL     OW28603   1.788   2.598   7.187  0.3862  0.2427  0.0019
 5657SOL    HW128604   1.709   2.545   7.179  0.6917 -0.1807 -0.2263
 5657SOL    HW228605   1.774   2.629   7.276  1.2138 -0.7042  0.4709
 5658SOL     OW28606   0.589   1.656   6.448  0.2328  0.5727  0.2564
 5658SOL    HW128607   0.520   1.718   6.426 -2.0048 -1.6208  1.1131
 5658SOL    HW228608   0.657   1.720   6.465  2.5468 -1.9678  0.5568
 5659SOL     OW28609   1.990   0.457   7.478  0.4848  0.0061  0.4928
 5659SOL    HW128610   1.957   0.498   7.398 -0.5305  0.1526  0.9823
 5659SOL    HW228611   2.062   0.406   7.441 -0.3805 -0.4446 -0.5788
 5660SOL     OW28612   0.274   3.539   7.272 -0.2281 -0.5421 -0.4028
 5660SOL    HW128613   0.318   3.548   7.357 -1.0552 -3.6797  0.3788
 5660SOL    HW228614   0.310   3.616   7.229 -0.1922  0.2139  0.9648
 5661SOL     OW28615   3.872   2.451   2.562 -0.5822 -0.6674  0.2531
 5661SOL    HW128616   3.896   2.361   2.584  2.1575 -0.5808 -2.4543
 5661SOL    HW228617   3.780   2.439   2.537 -1.4291  1.8685  2.0330
 5662SOL     OW28618   1.175   0.787   4.934 -0.0715 -0.0215  0.0168
 5662SOL    HW128619   1.208   0.711   4.886  1.5917 -0.1924  1.4442
 5662SOL    HW228620   1.169   0.757   5.024  1.2405  0.1924  0.1717
 5663SOL     OW28621   4.091   1.180  10.366 -0.1731  0.3047  0.5787
 5663SOL    HW128622   4.179   1.142  10.361 -1.2472 -1.9973 -0.5290
 5663SOL    HW228623   4.036   1.103  10.379 -0.3505  0.5252  1.1353
 5664SOL     OW28624   3.563   0.470   2.823 -0.3837 -0.3963  0.0061
 5664SOL    HW128625   3.586   0.476   2.730 -1.4161 -0.0507 -0.2338
 5664SOL    HW228626   3.635   0.420   2.861 -1.9233 -2.9758 -0.4253
 5665SOL     OW28627   4.568   0.874   2.995  0.2384 -0.0956  0.2343
 5665SOL    HW128628   4.553   0.900   2.904  1.2768  1.7164  0.5668
 5665SOL    HW228629   4.644   0.817   2.987 -0.6015 -1.1482 -0.3416
 5666SOL     OW28630   3.861   3.437   4.021  0.8695  0.4022  0.1196
 5666SOL    HW128631   3.935   3.397   4.068  2.0365 -0.0909 -2.1431
 5666SOL    HW228632   3.808   3.449   4.100 -0.5363 -0.7349 -0.6385
 5667SOL     OW28633   3.107   3.417   5.367 -0.4181  0.1620 -0.1433
 5667SOL    HW128634   3.168   3.469   5.419  0.7271  1.2717 -2.6194
 5667SOL    HW228635   3.102   3.473   5.290  0.3411  0.5479  0.0886
 5668SOL     OW28636   4.026   4.576   2.785 -0.2793 -0.2264  0.0230
 5668SOL    HW128637   4.093   4.555   2.721 -1.5297 -1.5503 -0.8513
 5668SOL    HW228638   4.067   4.543   2.865  0.2010  0.6591  0.1436
 5669SOL     OW28639   3.466   3.361  11.780  0.6824 -0.1275  0.2655
 5669SOL    HW128640   3.557   3.367  11.750  0.9072 -0.5080  0.8737
 5669SOL    HW228641   3.443   3.454  11.777 -1.1656 -0.5578  0.8548
 5670SOL     OW28642   1.371   1.182   4.528  0.2263 -0.2412 -0.2254
 5670SOL    HW128643   1.388   1.108   4.469 -0.9897 -0.7992  0.1121
 5670SOL    HW228644   1.278   1.196   4.508  0.2066  1.5999  1.2551
 5671SOL     OW28645   3.767   2.463   8.783  0.0675 -0.9307 -0.1503
 5671SOL    HW128646   3.675   2.436   8.775 -0.0417 -0.3534 -0.8437
 5671SOL    HW228647   3.781   2.492   8.693  0.6001 -0.7632 -0.0146
 5672SOL     OW28648   2.752   0.919  12.686  0.0827 -0.1492 -0.4821
 5672SOL    HW128649   2.797   0.836  12.701 -0.3802  0.0423  1.8995
 5672SOL    HW228650   2.684   0.882  12.630  1.2823  0.8049 -2.5887
 5673SOL     OW28651   2.119   0.065   3.339 -0.5193 -0.0228  0.0054
 5673SOL    HW128652   2.111   4.724   3.286 -1.8961  1.4575 -2.0035
 5673SOL    HW228653   2.183   0.034   3.402 -1.3054 -1.7498 -0.0448
 5674SOL     OW28654   3.769   0.445   4.821 -0.1461 -0.1817  0.5663
 5674SOL    HW128655   3.721   0.397   4.888 -0.0150 -0.6107  0.3519
 5674SOL    HW228656   3.703   0.440   4.752 -0.5903 -0.3453  1.0026
 5675SOL     OW28657   0.501   2.483   3.927 -0.0965 -0.9210 -0.1542
 5675SOL    HW128658   0.428   2.457   3.983  0.0556 -0.2841  0.3344
 5675SOL    HW228659   0.550   2.401   3.931 -0.3814 -1.1834 -2.1171
 5676SOL     OW28660   0.290   1.107   7.132 -0.1367  0.0357 -0.4835
 5676SOL    HW128661   0.250   1.131   7.048 -2.6908 -0.4666  0.5836
 5676SOL    HW228662   0.265   1.182   7.184  0.6587  1.6910 -2.4826
 5677SOL     OW28663   3.610   3.795   5.665 -1.1994 -0.3178  0.1039
 5677SOL    HW128664   3.534   3.752   5.703 -1.6812  1.9960  1.7193
 5677SOL    HW228665   3.631   3.731   5.596  1.5729 -1.4311  1.9849
 5678SOL     OW28666   4.431   0.499   5.840  0.2825 -0.5870 -0.0863
 5678SOL    HW128667   4.390   0.424   5.884  0.0588  0.9309  2.2705
 5678SOL    HW228668   4.386   0.494   5.756  0.3358 -0.1862 -0.1386
 5679SOL     OW28669   2.009   3.315   4.195  0.5300  0.8233  0.1173
 5679SOL    HW128670   2.070   3.350   4.259 -0.7227  3.6416 -0.2476
 5679SOL    HW228671   1.957   3.393   4.175 -1.8776 -0.5591  1.0192
 5680SOL     OW28672   1.217   1.309   1.674 -0.2454 -0.6627  0.1022
 5680SOL    HW128673   1.196   1.217   1.655 -2.2920 -0.3753  0.9736
 5680SOL    HW228674   1.202   1.314   1.768  2.6904  1.2792  0.4768
 5681SOL     OW28675   3.381   1.200   3.232 -0.1458  0.4378 -0.2367
 5681SOL    HW128676   3.418   1.112   3.245 -1.2751 -0.1701 -1.0839
 5681SOL    HW228677   3.302   1.171   3.187  0.4866 -0.1699 -0.9779
 5682SOL     OW28678   0.874   1.121   1.902  0.2319  0.1629  0.0857
 5682SOL    HW128679   0.880   1.099   1.809  1.4585 -1.0002  0.4423
 5682SOL    HW228680   0.953   1.082   1.939  0.5786  0.8926  0.1004
 5683SOL     OW28681   3.549   0.712   3.862 -0.7599 -0.3167 -0.0208
 5683SOL    HW128682   3.594   0.756   3.790  1.3414  1.1066  2.1736
 5683SOL    HW228683   3.506   0.790   3.896  1.1511  0.7316  0.0032
 5684SOL     OW28684   2.476   1.096   0.690  0.2307 -0.6081 -0.2892
 5684SOL    HW128685   2.431   1.153   0.627  0.9249  0.5318  0.2340
 5684SOL    HW228686   2.553   1.150   0.710 -0.7815  1.3791 -1.7373
 5685SOL     OW28687   2.288   2.634   2.204  0.2316 -0.3420 -0.5730
 5685SOL    HW128688   2.379   2.660   2.186  1.0722 -0.4854  3.4088
 5685SOL    HW228689   2.282   2.618   2.298 -0.4240  1.5923 -0.2893
 5686SOL     OW28690   4.615   1.429   9.502  0.0605  0.3006  0.8491
 5686SOL    HW128691   4.710   1.445   9.501  0.6200 -2.6184  5.5189
 5686SOL    HW228692   4.597   1.390   9.587 -0.2865  1.8070  1.4768
 5687SOL     OW28693   2.631   3.165  10.284 -0.0536  0.4789 -0.1361
 5687SOL    HW128694   2.661   3.199  10.200  4.0480 -0.3510  0.9699
 5687SOL    HW228695   2.561   3.111  10.245  0.6115 -0.1561 -0.4530
 5688SOL     OW28696   2.297   3.155  16.200  0.1161 -0.4375  0.6481
 5688SOL    HW128697   2.263   3.223  16.142 -0.5174  1.6399  3.4742
 5688SOL    HW228698   2.282   3.192  16.287 -3.0298  2.4391 -1.1207
 5689SOL     OW28699   1.880   0.783  13.050 -0.2677 -0.3657 -0.0939
 5689SOL    HW128700   1.845   0.860  13.005 -0.0952 -0.7664 -0.9126
 5689SOL    HW228701   1.912   0.722  12.984  0.5608  2.0646 -1.9382
 5690SOL     OW28702   2.738   0.612   2.971  0.1453 -0.3150  0.5599
 5690SOL    HW128703   2.662   0.560   2.945  0.4518 -0.9686  0.9501
 5690SOL    HW228704   2.725   0.674   2.900  1.3828 -0.1663  0.4595
 5691SOL     OW28705   0.205   4.261   8.956 -0.2873  0.4939 -0.3553
 5691SOL    HW128706   0.131   4.291   9.009 -0.1522  1.6135 -0.7951
 5691SOL    HW228707   0.174   4.258   8.865 -0.7998 -0.4884 -0.1452
 5692SOL     OW28708   4.594   3.523  11.377 -0.3691 -1.1206 -0.3435
 5692SOL    HW128709   4.647   3.447  11.401  1.4160 -0.4653 -2.2182
 5692SOL    HW228710   4.509   3.480  11.367 -0.0574 -1.9244  0.4604
 5693SOL     OW28711   3.034   1.656   1.253  0.0716  0.4004  0.1510
 5693SOL    HW128712   2.979   1.604   1.194 -0.6740  2.5565 -1.0544
 5693SOL    HW228713   3.069   1.590   1.312  1.0969 -0.6115 -1.5844
 5694SOL     OW28714   3.989   0.424  11.671 -0.7965  0.4450  0.1178
 5694SOL    HW128715   3.931   0.496  11.692  0.8592  1.0787  2.5089
 5694SOL    HW228716   4.069   0.470  11.646 -1.3711  1.4499  0.1213
 5695SOL     OW28717   1.158   4.108   4.836 -0.0543  0.7413 -0.3140
 5695SOL    HW128718   1.178   4.095   4.928 -0.8948 -2.0196 -0.5352
 5695SOL    HW228719   1.075   4.152   4.853  0.5621  0.9056  2.1822
 5696SOL     OW28720   3.681   3.122   0.780 -0.1638  0.0581  0.0752
 5696SOL    HW128721   3.679   3.027   0.784  1.6400  0.0363  0.4202
 5696SOL    HW228722   3.719   3.138   0.866  0.2929  1.8367 -0.4520
 5697SOL     OW28723   4.071   2.181  16.567 -0.2362  0.3786  0.2245
 5697SOL    HW128724   4.076   2.252  16.503  0.5287 -0.3338 -0.4908
 5697SOL    HW228725   3.997   2.127  16.539  1.1607 -1.2445 -0.3532
 5698SOL     OW28726   4.210   2.437  14.068 -0.0032 -0.2346  0.4004
 5698SOL    HW128727   4.142   2.476  14.124  1.2605 -0.0226  1.7881
 5698SOL    HW228728   4.277   2.506  14.069  2.0582 -2.2411 -0.1710
 5699SOL     OW28729   0.560   0.450  14.311  0.6475  0.2889 -0.4808
 5699SOL    HW128730   0.528   0.363  14.335 -0.0516  0.4960 -0.6673
 5699SOL    HW228731   0.573   0.440  14.216 -1.4861  0.7342 -0.8083
 5700SOL     OW28732   2.112   4.597   5.489  0.1537  0.1503  0.1541
 5700SOL    HW128733   2.025   4.625   5.516  0.4982  1.6703 -0.3347
 5700SOL    HW228734   2.124   4.647   5.409  1.7399 -1.0066 -0.3271
 5701SOL     OW28735   4.402   1.722   1.696 -0.0540  0.2179  0.3200
 5701SOL    HW128736   4.372   1.646   1.646  0.3863  0.4907 -0.3593
 5701SOL    HW228737   4.429   1.667   1.770 -0.7052 -1.2065 -0.5035
 5702SOL     OW28738   2.326   1.416   1.632  0.3312  0.4298 -0.7757
 5702SOL    HW128739   2.308   1.377   1.547  0.1495 -1.9886  0.3598
 5702SOL    HW228740   2.422   1.419   1.633  0.3406 -0.4221  1.7564
 5703SOL     OW28741   3.110   0.514   6.641 -0.0532 -0.3341 -0.7554
 5703SOL    HW128742   3.047   0.453   6.679 -0.4566  0.9362  0.6480
 5703SOL    HW228743   3.055   0.592   6.650 -0.2670 -0.4884 -0.7083
 5704SOL     OW28744   1.507   1.046   1.430 -0.3010 -0.4089  0.6140
 5704SOL    HW128745   1.450   0.971   1.416  0.5895 -1.1567  0.9702
 5704SOL    HW228746   1.595   1.012   1.450 -1.2012 -2.9711  0.2442
 5705SOL     OW28747   0.244   4.411  16.258  0.0271 -0.2368 -0.3918
 5705SOL    HW128748   0.275   4.418  16.348 -0.5793 -0.5338 -0.1555
 5705SOL    HW228749   0.152   4.384  16.265 -0.4291  0.9270 -1.9577
 5706SOL     OW28750   2.095   1.246   6.525 -0.6367 -0.0033 -0.5630
 5706SOL    HW128751   2.185   1.232   6.552 -1.1037 -0.6476  0.6306
 5706SOL    HW228752   2.099   1.338   6.498  1.3537  0.4819  1.4796
 5707SOL     OW28753   1.668   0.550   4.965 -0.1822  0.0474  0.3910
 5707SOL    HW128754   1.665   0.606   5.042  0.7160  2.3088 -1.2099
 5707SOL    HW228755   1.590   0.582   4.919  0.1714  0.7992  0.3246
 5708SOL     OW28756   2.379   3.685  14.112 -0.1758 -0.0082  0.7732
 5708SOL    HW128757   2.469   3.676  14.082 -0.0838  1.9390  0.5225
 5708SOL    HW228758   2.332   3.672  14.030  0.5978 -1.1193  0.5007
 5709SOL     OW28759   0.603   2.671   9.290 -0.3958  0.6075 -0.5344
 5709SOL    HW128760   0.646   2.589   9.268 -0.9830  0.2841 -0.4949
 5709SOL    HW228761   0.675   2.733   9.282  0.0744 -0.0979 -1.6323
 5710SOL     OW28762   0.212   3.211   4.573 -0.0731  0.0038 -0.4033
 5710SOL    HW128763   0.221   3.142   4.508  1.1506  0.2639 -0.5129
 5710SOL    HW228764   0.299   3.250   4.574  0.1278 -0.4813  0.9342
 5711SOL     OW28765   1.827   0.210   5.342  0.1661 -0.1881 -0.0311
 5711SOL    HW128766   1.734   0.230   5.330  0.2693  2.4843  3.4255
 5711SOL    HW228767   1.850   0.253   5.424  1.6868 -0.1953 -0.4540
 5712SOL     OW28768   4.544   2.019   3.822 -0.2201 -0.2029  0.1663
 5712SOL    HW128769   4.595   2.052   3.748 -1.1014 -2.0309 -1.2401
 5712SOL    HW228770   4.545   1.924   3.809  0.2137 -0.2590  0.6385
 5713SOL     OW28771   3.525   0.295  17.317 -1.0203 -0.2745 -0.4583
 5713SOL    HW128772   3.444   0.321  17.272 -0.2379 -0.7808 -2.1518
 5713SOL    HW228773   3.546   0.211  17.277  2.9839  0.8986 -0.7522
 5714SOL     OW28774   1.550   0.203  10.434  0.3143 -0.2751  0.2461
 5714SOL    HW128775   1.470   0.207  10.487 -0.3388  0.9029 -0.8191
 5714SOL    HW228776   1.621   0.201  10.498 -1.5409  0.4945  2.3510
 5715SOL     OW28777   0.846   0.840   5.190 -0.0917 -0.3620  0.2481
 5715SOL    HW128778   0.898   0.905   5.237  1.5078  0.0743 -2.1555
 5715SOL    HW228779   0.825   0.783   5.265  0.5737 -1.9764 -0.7780
 5716SOL     OW28780   4.399   0.489  14.525 -0.4819 -0.3981  0.1101
 5716SOL    HW128781   4.311   0.525  14.539 -1.1523 -2.0546  0.0793
 5716SOL    HW228782   4.382   0.426  14.455  0.0768 -1.3407  0.8316
 5717SOL     OW28783   4.679   3.718   3.486 -0.4675 -0.4168  0.1010
 5717SOL    HW128784   4.700   3.802   3.526  1.4814 -0.8442 -0.0030
 5717SOL    HW228785   4.635   3.689   3.566 -0.0731 -2.2647 -0.3381
 5718SOL     OW28786   2.002   3.123   5.412 -0.5186  0.6570 -0.2085
 5718SOL    HW128787   2.090   3.120   5.374 -0.2061 -0.5291  0.6080
 5718SOL    HW228788   1.956   3.119   5.328  0.5551  1.7150 -0.8547
 5719SOL     OW28789   0.301   4.433   9.162 -0.5079 -0.2685 -0.0399
 5719SOL    HW128790   0.208   4.448   9.146 -0.2137  1.5435 -0.0274
 5719SOL    HW228791   0.300   4.342   9.194 -3.7207  0.0216  0.7120
 5720SOL     OW28792   2.755   0.363   3.246 -0.3055  0.3055  0.0399
 5720SOL    HW128793   2.744   0.415   3.166  1.5726  0.9178  0.1799
 5720SOL    HW228794   2.792   0.425   3.309 -0.2013  1.0723 -0.7733
 5721SOL     OW28795   0.696   1.432  14.472 -0.2050  1.1543 -0.1604
 5721SOL    HW128796   0.789   1.418  14.458 -0.0822  3.9449 -1.9591
 5721SOL    HW228797   0.671   1.372  14.543  1.2863 -0.9277 -1.4107
 5722SOL     OW28798   0.322   0.617   3.154  0.2059 -0.5974  0.1953
 5722SOL    HW128799   0.404   0.576   3.183 -0.5849 -0.0920  3.1922
 5722SOL    HW228800   0.276   0.546   3.109 -1.4874  1.1957 -0.8958
 5723SOL     OW28801   0.780   0.841  16.908 -0.4936  0.1110  0.1158
 5723SOL    HW128802   0.844   0.821  16.839  0.4187 -2.0089  1.5992
 5723SOL    HW228803   0.830   0.835  16.989 -0.1919 -0.1705 -0.0928
 5724SOL     OW28804   4.373   4.587  11.601 -0.0138  0.0397  0.2799
 5724SOL    HW128805   4.385   4.601  11.695 -1.5427 -0.7120  0.5767
 5724SOL    HW228806   4.453   4.537  11.584  1.1252  1.1553  2.2894
 5725SOL     OW28807   3.308   2.685   1.134 -0.5745  0.0359 -0.3603
 5725SOL    HW128808   3.237   2.649   1.080 -2.1768  0.6700  1.3305
 5725SOL    HW228809   3.359   2.604   1.142 -1.6412 -0.5342  0.9033
 5726SOL     OW28810   3.177   2.225   6.322  0.0683 -0.0543  0.1995
 5726SOL    HW128811   3.221   2.259   6.244 -1.7451 -0.5233 -1.0036
 5726SOL    HW228812   3.241   2.246   6.391  0.5554  1.1730 -0.6384
 5727SOL     OW28813   1.038   0.490   5.780  0.4788 -0.0268 -0.4974
 5727SOL    HW128814   1.017   0.401   5.808  0.6428  0.0052 -0.2798
 5727SOL    HW228815   0.976   0.512   5.710 -0.6153 -1.2180  0.0977
 5728SOL     OW28816   2.932   0.507   7.314 -0.5933  0.6079 -0.2628
 5728SOL    HW128817   2.873   0.494   7.240  0.5895  0.5810 -1.2060
 5728SOL    HW228818   2.970   0.594   7.301 -0.6703  0.8974  1.3582
 5729SOL     OW28819   4.606   2.405  11.870 -0.1573  0.0219  0.1216
 5729SOL    HW128820   4.668   2.385  11.940  0.4684  1.3541 -0.0457
 5729SOL    HW228821   4.579   2.487  11.912  4.1582  1.8669 -0.6959
 5730SOL     OW28822   1.252   1.501   6.159  0.1005  0.1554 -0.4821
 5730SOL    HW128823   1.272   1.497   6.253 -0.7760 -1.1416 -0.3459
 5730SOL    HW228824   1.302   1.580   6.141  3.1259 -1.8977 -1.1857
 5731SOL     OW28825   4.660   4.066  17.565 -0.3079  0.1240 -0.3353
 5731SOL    HW128826   4.700   4.126  17.502 -1.2721 -1.9726 -2.9269
 5731SOL    HW228827   4.600   4.132  17.601  1.2389  0.9024  0.8016
 5732SOL     OW28828   0.497   2.670   6.284 -0.2008 -0.4078 -0.4519
 5732SOL    HW128829   0.511   2.650   6.192  1.2581 -0.0096 -0.3168
 5732SOL    HW228830   0.553   2.747   6.292  3.1477 -2.6632 -2.2358
 5733SOL     OW28831   0.135   1.938   5.439  0.0723 -0.5015  0.5613
 5733SOL    HW128832   0.084   1.963   5.516 -0.1091 -0.6988  0.5043
 5733SOL    HW228833   0.161   2.025   5.408 -2.6410  0.4805  1.1145
 5734SOL     OW28834   0.178   2.759   4.482 -0.4365  0.5497  0.2327
 5734SOL    HW128835   0.235   2.717   4.418 -2.4828 -0.4039 -0.9457
 5734SOL    HW228836   0.119   2.688   4.504  0.0408  0.2264  0.4652
 5735SOL     OW28837   3.272   3.609   2.497 -0.2823  0.4278  0.1995
 5735SOL    HW128838   3.321   3.528   2.496 -2.8264 -1.1521  2.5199
 5735SOL    HW228839   3.230   3.611   2.411 -0.0751 -0.2728  0.0901
 5736SOL     OW28840   2.707   3.754   5.873 -0.1524 -0.4381  0.3795
 5736SOL    HW128841   2.666   3.759   5.959  2.8205 -0.3593  1.8062
 5736SOL    HW228842   2.708   3.659   5.861 -0.6556 -0.3450 -0.4667
 5737SOL     OW28843   3.101   2.739   1.301  0.0672  0.2858  0.4829
 5737SOL    HW128844   3.183   2.724   1.253 -0.0756 -1.5852  0.8089
 5737SOL    HW228845   3.046   2.740   1.223  0.2334 -0.3369  0.3578
 5738SOL     OW28846   3.708   1.992   7.161 -0.2051  0.3084 -0.2197
 5738SOL    HW128847   3.773   2.038   7.108 -2.0860  0.2429 -2.5972
 5738SOL    HW228848   3.697   1.922   7.097  0.9649  0.9213 -1.0844
 5739SOL     OW28849   4.466   1.590   4.156  0.7009 -0.0531  0.4064
 5739SOL    HW128850   4.428   1.529   4.219  0.4576 -1.5407 -1.1742
 5739SOL    HW228851   4.495   1.528   4.089  2.3268 -0.4757  1.4936
 5740SOL     OW28852   0.053   2.533   3.430 -0.4836  0.0631  0.2517
 5740SOL    HW128853   4.717   2.500   3.379  0.3429  0.0979 -0.9395
 5740SOL    HW228854   0.125   2.525   3.369  0.0104  0.7560  0.7446
 5741SOL     OW28855   0.042   1.062   6.218  0.1698 -0.0405  0.0854
 5741SOL    HW128856   0.088   1.103   6.291 -2.0987 -0.2557  1.6093
 5741SOL    HW228857   0.116   1.011   6.183  0.1104  0.9553 -1.4687
 5742SOL     OW28858   1.237   1.343   3.344 -0.3597  0.5608 -0.1385
 5742SOL    HW128859   1.148   1.327   3.312  1.1172 -1.8685 -3.0564
 5742SOL    HW228860   1.220   1.337   3.438  4.0681  0.0449  0.6224
 5743SOL     OW28861   3.693   3.452   7.954 -0.3251  0.3018  0.5928
 5743SOL    HW128862   3.773   3.500   7.934  1.3919 -2.8012 -0.1269
 5743SOL    HW228863   3.640   3.497   8.019 -1.3077 -0.3304  0.2240
 5744SOL     OW28864   4.396   3.775   1.993 -0.1173  0.2401 -0.3159
 5744SOL    HW128865   4.353   3.858   1.976 -2.6295 -1.0569 -0.2506
 5744SOL    HW228866   4.488   3.801   1.993  0.2060 -0.7513  3.1374
 5745SOL     OW28867   2.331   3.878  16.317 -0.5826 -0.3741 -0.1247
 5745SOL    HW128868   2.312   3.824  16.394 -2.5169 -3.2425 -2.5910
 5745SOL    HW228869   2.247   3.895  16.274  0.0639  0.9976 -0.8459
 5746SOL     OW28870   1.726   0.469   2.598 -0.0165 -0.0634  0.6062
 5746SOL    HW128871   1.703   0.376   2.603 -0.2919  0.0163  0.8469
 5746SOL    HW228872   1.635   0.492   2.579  0.3864 -0.3100 -1.6487
 5747SOL     OW28873   3.158   2.083   7.818  0.1502 -0.1692 -0.3427
 5747SOL    HW128874   3.098   2.154   7.795  1.3937  0.2780 -2.1357
 5747SOL    HW228875   3.241   2.127   7.803  0.7928 -0.8626  1.2342
 5748SOL     OW28876   3.569   4.458   3.158 -0.7594 -0.6487  0.3194
 5748SOL    HW128877   3.516   4.380   3.142  1.0755 -2.1099  1.3500
 5748SOL    HW228878   3.498   4.523   3.154 -0.2002 -0.1742 -2.5277
 5749SOL     OW28879   3.849   2.045   7.971  0.4965 -0.7007 -0.1875
 5749SOL    HW128880   3.859   2.134   7.939 -1.1289 -0.8360 -1.1003
 5749SOL    HW228881   3.936   2.016   7.943  1.0903  1.2072 -0.2710
 5750SOL     OW28882   1.902   2.205  13.624  0.3067 -0.3065 -0.0461
 5750SOL    HW128883   1.940   2.138  13.681 -1.6625 -2.1441 -0.8718
 5750SOL    HW228884   1.916   2.168  13.537 -1.9842 -1.1493 -0.0764
 5751SOL     OW28885   4.133   0.412   1.106 -0.5859  0.0894 -0.4239
 5751SOL    HW128886   4.215   0.448   1.071 -1.5155  0.3574 -2.3141
 5751SOL    HW228887   4.150   0.318   1.111 -0.7919  0.1801  2.0599
 5752SOL     OW28888   2.399   2.388  11.471  0.2579  0.4613  0.0825
 5752SOL    HW128889   2.306   2.412  11.477 -0.8483 -3.5552 -1.5050
 5752SOL    HW228890   2.429   2.440  11.545  0.4746  1.1294 -0.4696
 5753SOL     OW28891   1.103   4.586   9.115  0.2985  0.3963  0.9669
 5753SOL    HW128892   1.137   4.500   9.139 -0.7555 -0.5227 -0.7976
 5753SOL    HW228893   1.079   4.616   9.202 -1.6429 -3.6694  1.8376
 5754SOL     OW28894   3.333   2.242   0.445  0.4910  0.9497  0.5333
 5754SOL    HW128895   3.352   2.276   0.533 -2.8316  2.0591  0.8492
 5754SOL    HW228896   3.330   2.322   0.393 -2.1371  1.3490  1.2600
 5755SOL     OW28897   0.568   3.610  12.546 -0.6898  0.1579  0.1586
 5755SOL    HW128898   0.477   3.605  12.517 -0.4862 -0.6474 -0.3531
 5755SOL    HW228899   0.618   3.567  12.476 -1.2822 -1.1705  0.5533
 5756SOL     OW28900   3.501   1.904   5.668  0.4504 -0.3045 -0.3924
 5756SOL    HW128901   3.409   1.878   5.666  0.3394  0.0959 -0.4572
 5756SOL    HW228902   3.547   1.821   5.651 -0.3319 -0.6845 -0.6797
 5757SOL     OW28903   1.697   2.129   8.435 -0.3410 -0.3123  0.0341
 5757SOL    HW128904   1.767   2.064   8.441  0.3263  0.3282 -0.8194
 5757SOL    HW228905   1.744   2.191   8.379 -1.4642  0.5897  0.0980
 5758SOL     OW28906   1.183   4.440   7.679 -0.2084  0.4348  0.3614
 5758SOL    HW128907   1.277   4.423   7.683 -0.2750 -0.1285 -0.6732
 5758SOL    HW228908   1.175   4.523   7.727 -0.1942 -0.0340  1.1674
 5759SOL     OW28909   4.633   4.179   6.430 -0.1287 -0.0703 -0.2649
 5759SOL    HW128910   4.675   4.143   6.352  0.5750  1.2769 -0.5115
 5759SOL    HW228911   4.705   4.236   6.453  0.6027 -0.2901 -1.9752
 5760SOL     OW28912   3.942   1.612  14.034 -0.9556  0.4900  0.4108
 5760SOL    HW128913   3.896   1.587  14.114 -0.4630 -1.0772  0.2086
 5760SOL    HW228914   3.878   1.578  13.971 -1.3958 -0.3679  1.3352
 5761SOL     OW28915   1.722   4.574   5.015 -0.1091  0.3225 -0.5900
 5761SOL    HW128916   1.651   4.509   5.017 -0.9973  1.3246  0.4125
 5761SOL    HW228917   1.714   4.620   4.931 -0.5803  1.1266 -0.1102
 5762SOL     OW28918   1.149   4.396   0.566  0.4815  1.1555 -0.3853
 5762SOL    HW128919   1.085   4.325   0.566  2.6149 -0.7519  1.2951
 5762SOL    HW228920   1.101   4.473   0.598  0.0003  1.0697 -0.9092
 5763SOL     OW28921   4.721   4.086  14.420 -0.7431  0.2017 -0.6532
 5763SOL    HW128922   4.666   4.165  14.423  0.1692  0.7947  0.4301
 5763SOL    HW228923   4.704   4.045  14.505 -1.3452  2.0976  0.1522
 5764SOL     OW28924   4.026   3.686   0.864  0.5056  0.3930  0.0693
 5764SOL    HW128925   3.946   3.725   0.830  0.1287 -0.0335  0.4534
 5764SOL    HW228926   3.992   3.639   0.941 -0.5394  0.7293 -0.1882
 5765SOL     OW28927   2.128   4.138  11.919 -0.3301  0.1807  0.5150
 5765SOL    HW128928   2.135   4.206  11.853 -2.5423 -1.4268 -1.3734
 5765SOL    HW228929   2.215   4.099  11.911 -0.5859 -0.2465 -0.1556
 5766SOL     OW28930   1.709   3.751   2.769  0.2696 -0.3965  0.4017
 5766SOL    HW128931   1.781   3.757   2.706  0.7874  0.1236  1.0400
 5766SOL    HW228932   1.757   3.708   2.840 -0.4508 -1.1207  0.4553
 5767SOL     OW28933   2.949   3.340   1.964  0.1146  0.0918 -0.2136
 5767SOL    HW128934   2.941   3.246   1.984 -1.7562  0.1603 -0.5791
 5767SOL    HW228935   2.995   3.352   1.881  1.0191 -1.7814  0.0183
 5768SOL     OW28936   3.404   3.073   5.717 -0.8239 -0.4640  0.7384
 5768SOL    HW128937   3.438   2.984   5.727  0.3071  0.1995  2.9822
 5768SOL    HW228938   3.350   3.082   5.795 -0.3531 -0.7581  1.1024
 5769SOL     OW28939   0.095   0.972   8.278  0.0970 -0.1295 -0.2731
 5769SOL    HW128940   0.171   0.915   8.266  0.5026  0.3742 -0.1004
 5769SOL    HW228941   0.025   0.909   8.258  1.6877 -1.3283 -2.1337
 5770SOL     OW28942   0.955   2.517   8.400 -0.3233 -0.1050  0.1886
 5770SOL    HW128943   0.873   2.469   8.411 -0.5630  0.5930  1.4439
 5770SOL    HW228944   0.954   2.562   8.484 -0.5447 -0.8780  0.6032
 5771SOL     OW28945   0.515   1.498   7.433  0.0050 -0.5585 -0.4774
 5771SOL    HW128946   0.435   1.492   7.485 -0.2444 -0.8476 -0.8892
 5771SOL    HW228947   0.581   1.512   7.501 -0.5095 -1.1745  0.1450
 5772SOL     OW28948   3.845   1.023   2.816 -0.2411 -0.2131  0.1710
 5772SOL    HW128949   3.776   1.087   2.832 -0.5473 -0.3720 -0.5172
 5772SOL    HW228950   3.914   1.040   2.881 -0.8511  0.6949  0.5725
 5773SOL     OW28951   0.885   4.380   7.019 -0.1571 -0.0798 -0.1942
 5773SOL    HW128952   0.833   4.300   7.023 -1.6544  0.8672 -1.0856
 5773SOL    HW228953   0.904   4.394   7.112  0.2452 -0.6415 -0.1859
 5774SOL     OW28954   1.252   3.715   9.798 -0.3146  0.0819  0.3371
 5774SOL    HW128955   1.167   3.736   9.836 -0.0753 -0.6627  1.2873
 5774SOL    HW228956   1.262   3.627   9.835  0.0554 -0.3594 -0.8101
 5775SOL     OW28957   1.860   0.400  10.805 -0.3208 -0.0382 -0.0645
 5775SOL    HW128958   1.940   0.407  10.753 -0.8956  2.5323 -0.5816
 5775SOL    HW228959   1.860   0.480  10.858  0.4340  0.1195 -0.3048
 5776SOL     OW28960   3.724   1.245   6.895  0.0845 -0.0238  0.4827
 5776SOL    HW128961   3.736   1.248   6.990  1.7351  0.2946  0.2649
 5776SOL    HW228962   3.755   1.156   6.877 -0.3745  0.3091 -1.9597
 5777SOL     OW28963   0.883   4.164  10.841 -0.6245 -0.3354  0.3929
 5777SOL    HW128964   0.972   4.129  10.840 -1.5096 -2.6016  0.1748
 5777SOL    HW228965   0.849   4.153  10.752 -1.3321  2.7126  0.2811
 5778SOL     OW28966   0.303   3.977   8.960 -0.8530 -0.2403  0.3673
 5778SOL    HW128967   0.228   4.037   8.956 -0.2031  0.4615 -1.4044
 5778SOL    HW228968   0.357   4.016   8.891 -2.6546  1.4609 -0.0890
 5779SOL     OW28969   4.705   2.609  11.689 -0.5992 -0.4021 -0.0834
 5779SOL    HW128970   4.664   2.540  11.742 -1.8176 -0.2147 -0.7794
 5779SOL    HW228971   4.726   2.580  11.601  1.3070 -2.3915  1.0369
 5780SOL     OW28972   1.304   4.607  13.868  0.0689 -0.3082  0.0073
 5780SOL    HW128973   1.308   4.542  13.938 -0.2603 -1.1007 -0.7102
 5780SOL    HW228974   1.398   4.626  13.869 -0.1359  0.6936 -0.2433
 5781SOL     OW28975   1.171   3.517   9.124  0.0426 -0.4815  0.1386
 5781SOL    HW128976   1.234   3.457   9.084 -0.7271 -1.0319 -0.2588
 5781SOL    HW228977   1.175   3.483   9.213 -0.4197  0.6176  0.5810
 5782SOL     OW28978   2.508   1.497   7.260  0.2562  0.4767  0.2916
 5782SOL    HW128979   2.418   1.491   7.227  0.0902  1.6458  0.5373
 5782SOL    HW228980   2.547   1.580   7.230  1.7426  0.6306  2.6896
 5783SOL     OW28981   3.680   1.465  12.011  0.1515  0.0172 -0.2685
 5783SOL    HW128982   3.674   1.377  12.047 -2.5549 -0.4172 -1.8409
 5783SOL    HW228983   3.752   1.466  11.948 -0.4047  1.3604 -0.8837
 5784SOL     OW28984   4.377   0.163  10.490  0.1518 -0.5108 -0.0194
 5784SOL    HW128985   4.283   0.160  10.503  0.6235 -1.9935  3.0163
 5784SOL    HW228986   4.400   0.080  10.532 -1.8718 -0.5230  1.0701
 5785SOL     OW28987   4.691   2.653   9.272 -0.3403  0.1903  0.2093
 5785SOL    HW128988   4.728   2.565   9.261 -1.1686 -0.0065 -0.9554
 5785SOL    HW228989   4.632   2.641   9.347 -1.2317  0.2293 -0.4996
 5786SOL     OW28990   0.428   2.141  16.826  0.1908 -0.3942 -0.1083
 5786SOL    HW128991   0.468   2.227  16.813 -2.0013  0.3150 -2.3478
 5786SOL    HW228992   0.503   2.087  16.803  2.4951  2.9522 -0.4689
 5787SOL     OW28993   2.827   0.742   4.949 -0.1152 -0.2518 -0.1404
 5787SOL    HW128994   2.770   0.681   4.996 -1.0155 -2.4632 -4.1009
 5787SOL    HW228995   2.802   0.727   4.858 -0.1655  2.6467 -0.6091
 5788SOL     OW28996   0.565   2.040   0.718 -0.0823  0.2452  0.1550
 5788SOL    HW128997   0.489   2.098   0.728  0.2473  0.6064  0.6068
 5788SOL    HW228998   0.633   2.081   0.772  0.9371  1.6840 -2.2371
 5789SOL     OW28999   3.398   0.878   1.842  0.4826  0.3247 -0.2099
 5789SOL    HW129000   3.359   0.832   1.915  3.2787 -1.2851  0.2785
 5789SOL    HW229001   3.322   0.873   1.785 -0.8530 -1.3551  1.7609
 5790SOL     OW29002   3.183   1.905  17.608  0.0253  0.6022 -0.2585
 5790SOL    HW129003   3.092   1.879  17.592 -0.2046 -0.6073  3.1205
 5790SOL    HW229004   3.230   1.822  17.624 -0.9837 -0.3240 -1.9987
 5791SOL     OW29005   2.911   1.390   3.132 -0.4584 -0.4347  0.0350
 5791SOL    HW129006   2.844   1.413   3.197  1.1551  0.6832  1.3054
 5791SOL    HW229007   2.989   1.412   3.183 -0.0452  0.3611 -0.9461
 5792SOL     OW29008   4.059   0.382   7.637  0.1020  0.2453 -0.5534
 5792SOL    HW129009   4.139   0.399   7.687 -0.6298  1.5227  0.1780
 5792SOL    HW229010   4.092   0.397   7.549 -0.5623 -1.5390 -1.0979
 5793SOL     OW29011   3.358   2.076   4.402  0.0592 -0.3434 -0.1314
 5793SOL    HW129012   3.389   2.081   4.312 -0.7544  0.1728 -0.3823
 5793SOL    HW229013   3.385   2.159   4.441 -1.9402  0.4972 -0.5482
 5794SOL     OW29014   1.816   3.727  16.182  0.0180  1.1563 -0.0346
 5794SOL    HW129015   1.782   3.661  16.243 -2.2736  3.0052  0.6689
 5794SOL    HW229016   1.871   3.673  16.125  0.5133  1.0298  0.5536
 5795SOL     OW29017   0.743   2.257   5.310 -0.3110  0.2959  0.3317
 5795SOL    HW129018   0.742   2.344   5.270  0.3255  0.1540  0.0102
 5795SOL    HW229019   0.770   2.281   5.399  0.1241  1.4879 -0.1341
 5796SOL     OW29020   1.843   2.925   4.852 -0.4281  0.7519 -0.1022
 5796SOL    HW129021   1.920   2.968   4.815 -0.5017 -0.4957 -1.6842
 5796SOL    HW229022   1.872   2.835   4.863 -1.4053  0.5795  1.0850
 5797SOL     OW29023   3.653   3.896   6.070 -0.3917 -0.4512 -0.6942
 5797SOL    HW129024   3.708   3.896   5.992 -0.6726 -0.3877 -0.8939
 5797SOL    HW229025   3.627   3.804   6.074 -1.7359 -0.0923 -1.0629
 5798SOL     OW29026   0.830   2.711  10.382 -0.2152  0.5312 -0.2742
 5798SOL    HW129027   0.843   2.686  10.290  1.1520  2.3963 -0.5980
 5798SOL    HW229028   0.739   2.690  10.402 -0.1342  1.8629  1.5178
 5799SOL     OW29029   2.678   3.044   0.595 -0.0226 -0.0302  0.0523
 5799SOL    HW129030   2.683   3.043   0.499  2.8525  2.1632  0.1627
 5799SOL    HW229031   2.757   3.095   0.612  0.4919  0.1776 -2.9382
 5800SOL     OW29032   2.592   2.488  15.857 -0.0336 -0.0957 -0.2612
 5800SOL    HW129033   2.521   2.490  15.793 -0.0017 -0.4892 -0.3084
 5800SOL    HW229034   2.627   2.577  15.856 -1.4075  0.4377  1.5131
 5801SOL     OW29035   2.355   3.725   6.822  0.2269 -0.3018  0.0984
 5801SOL    HW129036   2.409   3.691   6.750  1.2303  2.1859 -0.3401
 5801SOL    HW229037   2.385   3.677   6.899  0.8366  0.2368  0.1967
 5802SOL     OW29038   1.649   0.370   1.963  0.0778 -0.2659 -0.2023
 5802SOL    HW129039   1.633   0.276   1.969 -1.2965 -0.0408 -0.3558
 5802SOL    HW229040   1.662   0.389   2.056 -1.4216 -1.1055  0.1762
 5803SOL     OW29041   1.855   3.237   7.978  0.1612  0.2937  0.5115
 5803SOL    HW129042   1.908   3.157   7.984  1.3753  0.8510 -2.3886
 5803SOL    HW229043   1.775   3.216   7.929  0.3223 -1.6734  1.0781
 5804SOL     OW29044   4.415   3.248   7.231  0.1686  0.8805 -0.4577
 5804SOL    HW129045   4.414   3.308   7.305 -2.0525 -1.1215  1.1388
 5804SOL    HW229046   4.343   3.273   7.173  0.2254  0.7868 -0.5690
 5805SOL     OW29047   1.614   1.971   7.755  0.3902 -0.6194 -0.6102
 5805SOL    HW129048   1.574   1.980   7.668 -1.2059  0.0734  0.2048
 5805SOL    HW229049   1.648   2.059   7.772  1.0227 -0.9641 -0.1173
 5806SOL     OW29050   4.641   2.203   1.436 -0.2603  0.2490  0.2197
 5806SOL    HW129051   4.599   2.257   1.368 -1.4272  0.1549  0.8639
 5806SOL    HW229052   4.653   2.117   1.396 -3.9407 -0.0329 -0.3200
 5807SOL     OW29053   0.027   1.076   9.872 -0.2150  0.3314  0.0507
 5807SOL    HW129054   0.034   1.015   9.945 -2.3801 -0.7626 -0.6807
 5807SOL    HW229055   4.683   1.044   9.833  0.0982  0.7210 -0.9363
 5808SOL     OW29056   3.478   2.849   5.228 -0.4403 -0.4195  0.2333
 5808SOL    HW129057   3.417   2.861   5.155 -3.0651 -1.4713  2.2423
 5808SOL    HW229058   3.424   2.790   5.281 -2.6318  1.9532  0.6616
 5809SOL     OW29059   3.307   2.952   1.064  0.3170  0.2590  0.2519
 5809SOL    HW129060   3.324   2.858   1.072 -0.4421  0.1059  0.0344
 5809SOL    HW229061   3.347   2.981   1.146  0.3467 -0.0058  0.3331
 5810SOL     OW29062   3.980   3.570   5.419  0.0741 -0.0893 -0.2689
 5810SOL    HW129063   3.936   3.500   5.466 -0.1112  0.1582 -0.0688
 5810SOL    HW229064   4.068   3.535   5.413  0.1683 -0.0607  0.8661
 5811SOL     OW29065   4.245   3.496  13.033  0.3651  0.2812  0.4704
 5811SOL    HW129066   4.306   3.537  13.095  0.0235  1.7648 -0.1941
 5811SOL    HW229067   4.251   3.402  13.054  1.1257  0.4450  0.9956
 5812SOL     OW29068   1.847   1.268   4.739 -0.9369  0.3912  0.2977
 5812SOL    HW129069   1.828   1.188   4.786  3.3807 -0.0493  1.2401
 5812SOL    HW229070   1.766   1.267   4.687 -0.5437  2.6253 -0.3721
 5813SOL     OW29071   1.248   4.196   5.725 -0.3131  0.0360 -0.6297
 5813SOL    HW129072   1.195   4.124   5.760 -1.9596  1.9301  0.7087
 5813SOL    HW229073   1.223   4.265   5.786  3.4994 -0.5240  1.5589
 5814SOL     OW29074   1.354   2.636   8.731 -0.0485  0.3368 -0.0426
 5814SOL    HW129075   1.418   2.699   8.763  1.1680 -1.2824  0.6939
 5814SOL    HW229076   1.332   2.687   8.653 -0.0447 -1.0528 -0.9430
 5815SOL     OW29077   0.147   3.883  14.299  0.3819  0.2757  0.7929
 5815SOL    HW129078   0.167   3.828  14.375 -3.7504  0.1218  1.7877
 5815SOL    HW229079   0.098   3.954  14.342 -3.1678 -0.9221 -1.2929
 5816SOL     OW29080   2.620   3.700   3.338 -0.1263 -0.6483  0.0340
 5816SOL    HW129081   2.646   3.630   3.399  0.8427  2.7508  3.5194
 5816SOL    HW229082   2.551   3.651   3.294 -0.1958 -0.3838 -0.1491
 5817SOL     OW29083   2.944   4.209  17.013 -0.0823  0.3650  0.0794
 5817SOL    HW129084   2.872   4.272  17.012  0.7384  1.3086  0.3674
 5817SOL    HW229085   2.934   4.156  16.934  0.2516 -0.0232  0.2963
 5818SOL     OW29086   0.997   2.579   8.152  0.0376 -0.0550 -0.1837
 5818SOL    HW129087   1.077   2.530   8.137 -0.2448  0.5235 -3.5029
 5818SOL    HW229088   0.958   2.525   8.221  0.9311 -0.3466  0.0910
 5819SOL     OW29089   2.314   1.284   0.552  0.1113 -0.4230  0.0398
 5819SOL    HW129090   2.237   1.231   0.533  0.1307  0.7450 -3.2408
 5819SOL    HW229091   2.280   1.367   0.584 -1.8149 -1.8585  1.6727
 5820SOL     OW29092   4.241   2.710   7.802 -0.4232 -0.3788  0.0000
 5820SOL    HW129093   4.317   2.685   7.855 -0.2438  2.0863  0.8928
 5820SOL    HW229094   4.175   2.669   7.857 -0.4874  1.5896  1.3599
 5821SOL     OW29095   0.874   2.721  14.948 -0.4766 -0.0158  0.2309
 5821SOL    HW129096   0.851   2.630  14.934  0.4903 -0.2126 -0.0661
 5821SOL    HW229097   0.784   2.756  14.946 -0.3715  0.1730 -0.8414
 5822SOL     OW29098   0.868   2.797   9.048 -0.1193 -0.1896  0.2856
 5822SOL    HW129099   0.832   2.884   9.065 -1.0934 -0.6113  0.3461
 5822SOL    HW229100   0.851   2.762   9.136  1.6224  1.7469  1.4136
 5823SOL     OW29101   0.951   4.495   3.001  0.5413 -0.3099 -0.2391
 5823SOL    HW129102   0.964   4.530   2.913 -3.3423 -1.5391 -1.2865
 5823SOL    HW229103   0.863   4.462   2.989 -0.7540  2.2037  2.2598
 5824SOL     OW29104   3.796   4.255   4.368  0.3475  0.6161  0.1642
 5824SOL    HW129105   3.872   4.202   4.345  0.1376  0.1121  0.6139
 5824SOL    HW229106   3.725   4.190   4.370  2.7526 -2.0743 -2.1859
 5825SOL     OW29107   4.059   1.061   3.230  0.1923 -0.5051  0.5725
 5825SOL    HW129108   4.141   1.096   3.265 -0.7656  1.8626  0.4647
 5825SOL    HW229109   4.053   0.969   3.256  1.2830 -1.0046 -0.9058
 5826SOL     OW29110   1.082   2.645   2.700 -0.3024 -0.7457  0.2802
 5826SOL    HW129111   1.144   2.717   2.689 -1.4910 -0.0448 -1.7405
 5826SOL    HW229112   1.095   2.607   2.787 -0.3606  1.3284  1.1967
 5827SOL     OW29113   2.976   0.320   7.868  0.4080 -0.1530 -0.7509
 5827SOL    HW129114   2.880   0.325   7.868  0.4631  0.6424  0.9962
 5827SOL    HW229115   2.987   0.313   7.773 -0.3742  0.4417 -0.8908
 5828SOL     OW29116   4.386   4.280   4.601  0.4689 -0.1706  0.5282
 5828SOL    HW129117   4.416   4.346   4.538 -0.0279  1.6495  2.1582
 5828SOL    HW229118   4.340   4.338   4.662  0.8702  0.9383 -0.2220
 5829SOL     OW29119   1.488   1.078   3.616  0.0563 -0.0233  0.0737
 5829SOL    HW129120   1.410   1.024   3.627 -0.6238  0.5625 -1.8775
 5829SOL    HW229121   1.460   1.126   3.537 -0.7617 -0.1252  0.2966
 5830SOL     OW29122   2.165   3.762  14.315 -0.1497  0.5365 -0.2697
 5830SOL    HW129123   2.126   3.675  14.301  1.7878 -0.2788 -0.5948
 5830SOL    HW229124   2.200   3.774  14.227 -1.5432 -1.4542 -1.1094
 5831SOL     OW29125   0.459   0.041   6.051  0.2419  0.8683 -0.2663
 5831SOL    HW129126   0.479   0.134   6.042 -0.7575  1.3098  2.2409
 5831SOL    HW229127   0.365   0.060   6.048  0.0365 -0.0397  0.3756
 5832SOL     OW29128   1.320   1.552   4.766  0.0599  0.2946  0.6504
 5832SOL    HW129129   1.265   1.534   4.690 -1.0557 -1.3456  1.8479
 5832SOL    HW229130   1.379   1.613   4.720  0.8879 -0.1458  1.1195
 5833SOL     OW29131   0.073   0.929  10.127  0.2692 -0.0181  0.4985
 5833SOL    HW129132   0.066   0.853  10.184 -0.1857 -1.1445 -1.0452
 5833SOL    HW229133   0.053   1.004  10.183  0.8227 -0.4042  1.2043
 5834SOL     OW29134   3.819   0.766   5.413  0.5515 -0.0176  0.3861
 5834SOL    HW129135   3.729   0.794   5.402  0.3897 -0.0882  1.5124
 5834SOL    HW229136   3.824   0.680   5.371 -0.4525  0.7401 -1.2743
 5835SOL     OW29137   2.793   4.249   3.970  0.1118 -0.3714 -0.1299
 5835SOL    HW129138   2.796   4.330   4.019  1.1372  1.3917 -3.1055
 5835SOL    HW229139   2.825   4.180   4.028 -1.5075  0.0765  1.2946
 5836SOL     OW29140   0.233   3.586   6.181 -0.3492 -0.3815  0.3468
 5836SOL    HW129141   0.164   3.520   6.190  0.0445 -0.8272  0.1035
 5836SOL    HW229142   0.232   3.614   6.090 -1.6071 -1.2443  0.0827
 5837SOL     OW29143   0.320   2.078   9.914  0.7468  0.0814 -0.2498
 5837SOL    HW129144   0.412   2.052   9.916  1.1437  1.5692  0.4448
 5837SOL    HW229145   0.285   2.051   9.999 -1.1069 -0.3913 -1.1470
 5838SOL     OW29146   1.284   0.558   8.848  0.6757  0.0503 -0.2082
 5838SOL    HW129147   1.279   0.502   8.771  1.4088 -0.7209  0.2960
 5838SOL    HW229148   1.341   0.507   8.907  1.2451 -1.7740 -2.3463
 5839SOL     OW29149   4.586   0.147   7.162 -0.6133 -0.0675 -0.0621
 5839SOL    HW129150   4.558   0.080   7.224  2.5407 -1.3056  0.0653
 5839SOL    HW229151   4.504   0.195   7.153  0.2913  1.4957  0.0268
 5840SOL     OW29152   2.363   1.278   3.563 -0.9874  0.3991 -0.3767
 5840SOL    HW129153   2.451   1.308   3.585 -0.4070 -2.3285  0.9404
 5840SOL    HW229154   2.338   1.230   3.642 -0.6902  1.3989  0.3278
 5841SOL     OW29155   2.900   0.116  13.901 -0.0289 -0.0436 -0.8130
 5841SOL    HW129156   2.881   0.191  13.845 -0.1520  1.6450  1.4667
 5841SOL    HW229157   2.974   0.142  13.957  0.1838 -0.8784 -0.6999
 5842SOL     OW29158   1.387   0.943  10.364  0.3522 -0.0375 -0.0616
 5842SOL    HW129159   1.344   0.980  10.441 -2.3899 -2.1067 -0.5874
 5842SOL    HW229160   1.447   0.882  10.407  0.0679 -0.3204 -0.0675
 5843SOL     OW29161   2.682   0.998   4.535  0.0323  0.2417  0.1197
 5843SOL    HW129162   2.745   1.016   4.465 -1.9575  3.2146 -0.9207
 5843SOL    HW229163   2.606   1.025   4.484  1.4620  0.1932 -2.0204
 5844SOL     OW29164   1.253   1.200   1.394  0.0426  0.4075 -0.2190
 5844SOL    HW129165   1.346   1.179   1.404 -0.5893 -1.1531  2.3156
 5844SOL    HW229166   1.238   1.244   1.477 -0.7112  0.6279 -0.4669
 5845SOL     OW29167   3.141   4.166   4.258  0.0366  0.0214 -0.5847
 5845SOL    HW129168   3.185   4.172   4.174  1.8607 -1.6145  0.2490
 5845SOL    HW229169   3.136   4.073   4.283  1.8244  0.2303  0.5179
 5846SOL     OW29170   4.367   2.859  10.375  0.3582  0.2329 -0.4929
 5846SOL    HW129171   4.307   2.797  10.418  1.2339 -1.0122 -1.0603
 5846SOL    HW229172   4.308   2.895  10.309 -1.2267  2.6080  2.1914
 5847SOL     OW29173   3.083   0.872   6.147 -0.1712 -0.3593  0.1514
 5847SOL    HW129174   3.011   0.847   6.088 -1.4546  0.2455  1.4632
 5847SOL    HW229175   3.042   0.948   6.188  0.4791 -1.0663  2.1008
 5848SOL     OW29176   4.577   4.660   7.412 -0.2515 -0.1651 -0.0369
 5848SOL    HW129177   4.597   4.616   7.495 -2.6336 -0.7601  0.2080
 5848SOL    HW229178   4.520   4.604   7.360  0.2998  0.7033 -1.5959
 5849SOL     OW29179   0.832   1.523   5.208  0.2855  0.1127  0.7758
 5849SOL    HW129180   0.818   1.499   5.299 -1.8992 -2.1808 -0.1438
 5849SOL    HW229181   0.862   1.613   5.219  0.3598  0.2873 -0.8434
 5850SOL     OW29182   4.715   4.111   8.318  0.1524 -0.3716 -0.3710
 5850SOL    HW129183   0.038   4.123   8.391 -2.3548 -0.7389  1.7833
 5850SOL    HW229184   4.633   4.125   8.365 -0.8448 -0.2752 -2.1305
 5851SOL     OW29185   0.598   0.659   7.079 -0.6253  0.2714 -0.2407
 5851SOL    HW129186   0.511   0.621   7.086 -0.2521 -0.8927 -1.8278
 5851SOL    HW229187   0.652   0.580   7.076  0.1023  0.7616 -0.2529
 5852SOL     OW29188   0.864   0.671   6.305  0.2335 -0.0711 -0.1411
 5852SOL    HW129189   0.845   0.725   6.229 -0.0343 -0.4176 -0.3196
 5852SOL    HW229190   0.895   0.742   6.361  0.5915 -1.1884  1.0868
 5853SOL     OW29191   1.068   3.265   2.929 -0.3925 -0.2339  0.1548
 5853SOL    HW129192   0.983   3.289   2.967 -1.3208 -1.8169 -0.9218
 5853SOL    HW229193   1.066   3.170   2.927 -1.0452 -0.2204 -0.0202
 5854SOL     OW29194   0.614   4.065   2.119 -1.0096 -0.0738 -0.2699
 5854SOL    HW129195   0.650   4.126   2.184  0.8570 -1.7667  0.3085
 5854SOL    HW229196   0.657   4.098   2.040  1.0889 -0.2167  0.8243
 5855SOL     OW29197   0.198   1.035   5.117 -0.7077 -0.1077  0.0611
 5855SOL    HW129198   0.259   1.023   5.190 -0.1583  0.0107 -0.3744
 5855SOL    HW229199   0.189   0.946   5.084 -0.6798  0.3719 -1.2319
 5856SOL     OW29200   2.191   1.146   2.169  0.4768  0.2805  0.1996
 5856SOL    HW129201   2.184   1.173   2.261 -0.8578 -3.6387  1.2376
 5856SOL    HW229202   2.104   1.110   2.151  1.0438 -0.9667 -0.0605
 5857SOL     OW29203   2.820   3.990  16.440 -0.1414 -0.0977 -0.1423
 5857SOL    HW129204   2.731   4.021  16.425 -0.5243 -0.2248  1.9146
 5857SOL    HW229205   2.857   4.047  16.372  0.4446 -1.0108 -0.5969
 5858SOL     OW29206   2.605   1.659   6.434 -1.1264 -0.1885 -0.1544
 5858SOL    HW129207   2.603   1.739   6.382 -2.9136 -0.3818 -0.3855
 5858SOL    HW229208   2.683   1.670   6.489 -0.7711 -0.9977 -0.5073
 5859SOL     OW29209   2.992   1.722  13.921 -0.3392  0.0236  0.9608
 5859SOL    HW129210   2.946   1.806  13.924  2.9087  1.8781 -1.9052
 5859SOL    HW229211   2.945   1.669  13.857  1.2382  0.0761 -0.2624
 5860SOL     OW29212   2.534   1.964   2.170  0.1814  0.8060 -0.1214
 5860SOL    HW129213   2.440   1.970   2.151  0.1378 -0.6037 -0.3197
 5860SOL    HW229214   2.540   2.058   2.188  2.2433  0.1480  2.5239
 5861SOL     OW29215   2.250   3.121  10.368  0.5658 -0.4715 -0.2122
 5861SOL    HW129216   2.215   3.204  10.399  0.1471 -0.7065 -0.0631
 5861SOL    HW229217   2.316   3.137  10.300  0.7257 -1.7742 -0.3722
 5862SOL     OW29218   2.855   0.322   9.478  0.0460  0.4379 -0.0413
 5862SOL    HW129219   2.795   0.248   9.465  1.7339 -1.3273  2.0469
 5862SOL    HW229220   2.823   0.382   9.412 -0.2372 -0.3538 -0.6274
 5863SOL     OW29221   0.450   1.619   3.209 -0.1351  0.7919  0.1650
 5863SOL    HW129222   0.488   1.533   3.193 -0.3518  0.3258  2.1854
 5863SOL    HW229223   0.378   1.624   3.147  2.3741  1.9115 -2.6594
 5864SOL     OW29224   3.973   4.290   6.404 -0.0318 -0.6528 -0.3397
 5864SOL    HW129225   4.052   4.304   6.455  0.1877  0.8343 -1.0879
 5864SOL    HW229226   3.933   4.212   6.443  0.4811  0.2580  2.0145
 5865SOL     OW29227   1.356   4.361   3.851 -0.3741 -0.4115  0.3427
 5865SOL    HW129228   1.292   4.292   3.865 -0.3014  0.0901  3.2033
 5865SOL    HW229229   1.354   4.397   3.762 -2.3249  0.2373  0.6300
 5866SOL     OW29230   2.095   4.281   8.639  0.2424 -0.0081 -0.1826
 5866SOL    HW129231   2.104   4.301   8.545 -1.0887 -0.0512 -0.3164
 5866SOL    HW229232   2.086   4.368   8.679  0.3361  1.4168 -3.2384
 5867SOL     OW29233   2.518   0.313  12.625 -0.3545  0.1674  0.0075
 5867SOL    HW129234   2.449   0.254  12.653  1.4003 -1.4722  0.8498
 5867SOL    HW229235   2.471   0.389  12.590 -0.9505 -0.9331 -1.5517
 5868SOL     OW29236   2.807   3.184   8.882 -0.3339  0.4205 -0.4230
 5868SOL    HW129237   2.754   3.262   8.895  1.3375  1.4764  0.0259
 5868SOL    HW229238   2.893   3.224   8.867 -1.0146  1.2454 -2.1873
 5869SOL     OW29239   1.074   4.726   3.978 -0.0022 -0.0265  0.5467
 5869SOL    HW129240   1.056   4.632   3.968 -4.6660  1.0025 -0.5692
 5869SOL    HW229241   1.022   0.019   3.904  3.1895  0.6394 -1.3998
 5870SOL     OW29242   4.534   4.653   6.123 -0.4946  0.1854  0.3546
 5870SOL    HW129243   4.536   4.572   6.175 -1.1846 -0.0645 -0.0100
 5870SOL    HW229244   4.487   4.701   6.191 -1.5794  0.2888 -0.4755
 5871SOL     OW29245   2.735   3.737   2.069 -0.3662  0.7661 -0.3783
 5871SOL    HW129246   2.689   3.713   2.150  0.0224  1.9195  0.1813
 5871SOL    HW229247   2.765   3.650   2.041  1.6068  1.6400 -0.9370
 5872SOL     OW29248   4.609   0.920   7.013 -0.4821 -0.4465  0.1443
 5872SOL    HW129249   4.648   0.865   6.946  1.4820  0.3631  0.6347
 5872SOL    HW229250   4.518   0.918   6.981 -0.1934  0.9657 -0.7589
 5873SOL     OW29251   1.640   2.716  12.990 -0.3769 -0.5364  0.6273
 5873SOL    HW129252   1.720   2.688  13.033  1.0255  2.9150  0.2603
 5873SOL    HW229253   1.671   2.748  12.906  0.8758  3.6686  2.6819
 5874SOL     OW29254   0.631   0.356   2.513  0.2164  0.3032  0.2490
 5874SOL    HW129255   0.692   0.285   2.535  0.4013  0.2184 -0.5155
 5874SOL    HW229256   0.546   0.315   2.528  0.8133  0.3523  3.7256
 5875SOL     OW29257   0.297   2.019  12.386  0.5093 -0.2966 -0.1363
 5875SOL    HW129258   0.255   1.933  12.383 -1.2879  0.6188 -1.2371
 5875SOL    HW229259   0.355   1.990  12.456 -0.0807  3.1774  1.8199
 5876SOL     OW29260   4.582   4.357   8.610 -0.3465 -0.3750 -0.4017
 5876SOL    HW129261   4.588   4.389   8.520  0.9251 -0.4486 -0.3550
 5876SOL    HW229262   4.525   4.423   8.648  1.4295  1.8945 -1.6686
 5877SOL     OW29263   1.027   4.569  12.188 -0.9601 -0.3462 -0.2780
 5877SOL    HW129264   1.087   4.639  12.162 -0.4101 -0.7043  0.0392
 5877SOL    HW229265   1.069   4.495  12.144  0.9302 -0.8628  2.4366
 5878SOL     OW29266   4.403   4.454   5.324  0.0442 -0.4264 -0.5673
 5878SOL    HW129267   4.319   4.492   5.351  0.3238  0.9176 -1.5400
 5878SOL    HW229268   4.372   4.369   5.295 -0.2651 -0.5108  0.0033
 5879SOL     OW29269   0.858   2.933   2.429  0.3370  0.2465  0.3588
 5879SOL    HW129270   0.814   2.942   2.344  1.0884 -0.6451 -0.1119
 5879SOL    HW229271   0.865   3.026   2.454 -0.0418  0.1497  0.8374
 5880SOL     OW29272   3.017   2.389   8.017  0.4074 -0.2990  0.5520
 5880SOL    HW129273   3.050   2.354   7.934  0.2950 -0.9065  0.7658
 5880SOL    HW229274   3.065   2.338   8.082  1.3191 -0.6266 -0.3861
 5881SOL     OW29275   0.054   1.986   7.588 -0.4520  0.6239  0.0260
 5881SOL    HW129276   0.073   2.046   7.516 -0.2011 -0.7835 -1.0656
 5881SOL    HW229277   4.696   1.980   7.586 -0.3404 -1.2991  0.3382
 5882SOL     OW29278   1.598   1.973   9.411  0.2970  0.0205  0.3451
 5882SOL    HW129279   1.544   1.914   9.463 -0.3810  0.7080  0.4330
 5882SOL    HW229280   1.535   2.009   9.348 -0.2713  0.3960  1.1305
 5883SOL     OW29281   0.850   3.535   3.068  0.4165 -0.2339 -0.2845
 5883SOL    HW129282   0.915   3.596   3.103  0.0442 -0.3172  0.5702
 5883SOL    HW229283   0.841   3.478   3.145 -1.9020  1.8306  0.9626
 5884SOL     OW29284   1.336   1.653   8.686 -0.4948  0.1038 -0.1972
 5884SOL    HW129285   1.416   1.622   8.643 -1.5817 -1.0458 -1.3987
 5884SOL    HW229286   1.276   1.633   8.614  0.7808  0.2480 -1.2888
 5885SOL     OW29287   2.435   0.997  17.053  0.9427  0.3820  0.2260
 5885SOL    HW129288   2.394   0.942  16.986  1.7163 -1.8282  1.5689
 5885SOL    HW229289   2.356   1.024  17.100  1.2404 -0.6192  1.2933
 5886SOL     OW29290   1.170   0.027  15.084  0.3721  0.6012 -0.0382
 5886SOL    HW129291   1.152   0.044  14.992  0.0417  2.4631  0.3706
 5886SOL    HW229292   1.150   4.671  15.087 -1.9776  1.1821  2.2965
 5887SOL     OW29293   2.144   0.690   7.590 -0.1696 -0.3014  0.0350
 5887SOL    HW129294   2.160   0.735   7.507  0.1755  0.6996  0.6436
 5887SOL    HW229295   2.112   0.605   7.560  0.2776 -0.3172 -0.3993
 5888SOL     OW29296   4.273   1.706   3.374  0.0271 -0.2622 -0.2970
 5888SOL    HW129297   4.300   1.615   3.359  0.0862 -0.3407  0.3074
 5888SOL    HW229298   4.328   1.723   3.450  0.5428 -0.8045 -0.5490
 5889SOL     OW29299   2.961   2.731   7.936  0.1964  0.1816  0.2254
 5889SOL    HW129300   2.955   2.652   7.883  0.3107  0.1714  0.2266
 5889SOL    HW229301   3.017   2.788   7.882 -2.0456 -0.3887 -2.6804
 5890SOL     OW29302   3.997   2.375   4.644 -0.3677 -0.1503  0.2649
 5890SOL    HW129303   4.001   2.282   4.622 -1.1848  0.1242 -1.0819
 5890SOL    HW229304   4.019   2.373   4.737 -0.4022 -0.9100  0.2605
 5891SOL     OW29305   0.212   0.534   4.268 -0.1509  0.0198 -0.4358
 5891SOL    HW129306   0.222   0.617   4.222  0.9688  1.4120  2.3542
 5891SOL    HW229307   0.297   0.491   4.260 -0.2747 -0.2626 -0.2217
 5892SOL     OW29308   4.227   3.235  13.099  0.4798  0.3313  0.0948
 5892SOL    HW129309   4.315   3.199  13.086  0.6746 -0.0927  2.6573
 5892SOL    HW229310   4.222   3.223  13.194 -0.7882 -1.4698 -0.1983
 5893SOL     OW29311   2.382   1.254  10.709 -0.2591 -0.0957  0.3998
 5893SOL    HW129312   2.408   1.201  10.785  1.4512 -2.1149 -1.5587
 5893SOL    HW229313   2.304   1.297  10.744 -0.8851 -1.3684  0.5777
 5894SOL     OW29314   3.954   4.681   3.491  0.4625  0.6710 -0.3985
 5894SOL    HW129315   3.881   4.688   3.552  0.6074  3.3308 -0.5108
 5894SOL    HW229316   3.945   0.028   3.448  0.1408  0.7095 -0.2517
 5895SOL     OW29317   0.958   3.965   8.535  0.2216  0.8753 -0.2760
 5895SOL    HW129318   0.866   3.971   8.508 -0.1521  3.2681  1.5111
 5895SOL    HW229319   0.979   4.054   8.564 -0.4640  1.7364 -2.4264
 5896SOL     OW29320   3.027   1.967   5.392 -0.3946  0.3012 -0.8640
 5896SOL    HW129321   3.040   1.899   5.325 -0.2709  0.9615 -1.5042
 5896SOL    HW229322   2.947   1.940   5.437 -0.2361 -1.1259 -1.4238
 5897SOL     OW29323   2.242   2.965   2.160 -0.0403  0.2187  0.2122
 5897SOL    HW129324   2.331   2.939   2.182 -0.0771  1.2694  1.6218
 5897SOL    HW229325   2.204   2.979   2.247 -0.3235  1.1799 -0.0627
 5898SOL     OW29326   0.783   1.807   9.387 -0.2328  0.1639  0.1726
 5898SOL    HW129327   0.778   1.897   9.356 -0.9131  0.5486  1.3702
 5898SOL    HW229328   0.762   1.765   9.304 -0.2660  1.3401 -0.4024
 5899SOL     OW29329   2.342   1.717   0.491 -0.0201 -0.0081 -0.1782
 5899SOL    HW129330   2.337   1.759   0.406 -0.6408  0.4515  0.0823
 5899SOL    HW229331   2.258   1.680   0.521  0.0875  1.3369  1.7931
 5900SOL     OW29332   1.461   2.882   5.356 -0.8101 -0.4307 -0.0292
 5900SOL    HW129333   1.378   2.874   5.403 -0.9300  0.7629 -0.0317
 5900SOL    HW229334   1.430   2.900   5.268 -2.0839  1.2929  0.7766
 5901SOL     OW29335   0.683   4.184  16.740  0.1403 -0.2295  0.0241
 5901SOL    HW129336   0.687   4.246  16.667 -1.5691 -0.4323 -0.2434
 5901SOL    HW229337   0.618   4.229  16.793  0.0860  0.5250 -0.6870
 5902SOL     OW29338   3.442   3.477  12.626  0.9372 -0.3523  0.1294
 5902SOL    HW129339   3.348   3.461  12.613  0.8317 -1.2559  2.0051
 5902SOL    HW229340   3.450   3.570  12.606  1.6786 -0.5299 -0.4035
 5903SOL     OW29341   0.895   3.256   8.276 -0.0048 -0.3357 -0.0408
 5903SOL    HW129342   0.932   3.303   8.350 -1.5169 -2.9692  2.4122
 5903SOL    HW229343   0.828   3.204   8.321 -3.2226  1.3792 -2.8471
 5904SOL     OW29344   2.312   0.527  16.672 -0.4073 -0.0597  0.4183
 5904SOL    HW129345   2.258   0.465  16.624  1.4177 -1.2011 -0.1604
 5904SOL    HW229346   2.352   0.575  16.599 -0.5058  2.1300  1.7998
 5905SOL     OW29347   0.441   3.113   1.880  0.5427  0.7889  0.0214
 5905SOL    HW129348   0.395   3.197   1.880 -1.1908 -0.1697 -1.9492
 5905SOL    HW229349   0.526   3.145   1.849  0.0346  2.8786  0.7927
 5906SOL     OW29350   3.995   4.245  17.683  0.2163  0.0092  0.6007
 5906SOL    HW129351   4.045   4.178  17.635  1.4720  1.4823 -0.1741
 5906SOL    HW229352   4.056   4.317  17.668 -1.0000  1.1848  1.3444
 5907SOL     OW29353   3.930   3.677   1.378  0.3682  0.0166 -0.0911
 5907SOL    HW129354   3.980   3.727   1.442  1.9803 -1.4173 -0.2283
 5907SOL    HW229355   3.886   3.754   1.344 -0.4476 -0.4684 -0.1421
 5908SOL     OW29356   0.391   3.187  10.081 -0.0776  0.0016 -0.0960
 5908SOL    HW129357   0.413   3.266  10.130  0.0163  0.8119 -1.4576
 5908SOL    HW229358   0.402   3.116  10.144 -0.0492 -0.1954 -0.3237
 5909SOL     OW29359   1.648   0.446   7.483  0.3800  0.1529  0.6777
 5909SOL    HW129360   1.670   0.420   7.394 -4.3190  0.0054 -0.4232
 5909SOL    HW229361   1.691   0.382   7.539 -0.4520 -1.3937 -0.4446
 5910SOL     OW29362   1.400   4.631   1.157  0.0145  0.1481  0.4971
 5910SOL    HW129363   1.347   4.606   1.082  1.1138  1.0591 -0.5762
 5910SOL    HW229364   1.372   4.576   1.230 -0.7297 -0.0143  0.0852
 5911SOL     OW29365   1.578   1.083  15.487 -0.0338  0.2916  0.4761
 5911SOL    HW129366   1.545   1.018  15.426 -1.0624  2.0017 -0.7978
 5911SOL    HW229367   1.673   1.082  15.473  0.1793 -0.2073  1.9301
 5912SOL     OW29368   3.186   1.742   0.878  0.4123  0.1068 -0.0551
 5912SOL    HW129369   3.149   1.827   0.854 -2.3667 -1.0929 -0.0075
 5912SOL    HW229370   3.114   1.696   0.922 -0.1113 -0.4354 -1.4736
 5913SOL     OW29371   0.171   4.359   8.046 -0.5800  0.3004 -0.1988
 5913SOL    HW129372   0.195   4.274   8.082  1.2967  0.6882 -0.5192
 5913SOL    HW229373   0.227   4.357   7.968  0.6678 -0.1839  0.7150
 5914SOL     OW29374   2.091   3.331   1.959 -0.6073  0.0243 -0.1954
 5914SOL    HW129375   2.129   3.264   2.016  1.3874  0.0101 -1.5294
 5914SOL    HW229376   2.142   3.411   1.972  1.0077 -1.0230 -0.0635
 5915SOL     OW29377   3.309   0.022   7.768 -0.1569 -0.0262  0.0784
 5915SOL    HW129378   3.242   4.734   7.832 -0.8747  0.8700 -0.3185
 5915SOL    HW229379   3.324   0.113   7.794  2.6554 -0.2617 -0.7337
 5916SOL     OW29380   2.080   3.956  16.257 -0.5184 -0.2482 -0.4273
 5916SOL    HW129381   2.005   3.946  16.197 -1.3879  0.0081  0.6263
 5916SOL    HW229382   2.038   3.987  16.337 -0.2221  0.9389 -0.7386
 5917SOL     OW29383   3.711   3.056   6.390 -0.1330 -0.2092  0.4822
 5917SOL    HW129384   3.676   2.991   6.328  0.5873 -1.0876  0.9985
 5917SOL    HW229385   3.641   3.071   6.453 -2.9838 -3.5372 -1.8995
 5918SOL     OW29386   1.872   3.334  16.377 -0.1299 -0.5180  0.9434
 5918SOL    HW129387   1.884   3.373  16.290  1.5700 -0.2974  1.2811
 5918SOL    HW229388   1.798   3.274  16.376 -0.5571  0.0578 -1.5345
 5919SOL     OW29389   2.718   4.021   8.661 -0.2148  0.2525  0.2646
 5919SOL    HW129390   2.688   4.070   8.738  1.1192  0.8680  0.3957
 5919SOL    HW229391   2.647   4.033   8.598  1.0864 -0.6566 -1.3646
 5920SOL     OW29392   2.541   0.648   3.483 -0.5654  0.0391  0.4372
 5920SOL    HW129393   2.605   0.661   3.552 -0.1774 -1.3596  0.3338
 5920SOL    HW229394   2.482   0.578   3.512  0.9757 -2.1618 -1.6810
 5921SOL     OW29395   3.149   0.306   4.226  0.3988  0.1889 -0.4242
 5921SOL    HW129396   3.228   0.334   4.180  0.7604 -0.8102 -0.4122
 5921SOL    HW229397   3.186   0.298   4.314  0.1194  1.6501 -0.1785
 5922SOL     OW29398   2.097   4.494   5.966  0.1183 -0.5300 -0.0778
 5922SOL    HW129399   2.111   4.416   5.912 -0.4844  0.3912 -1.5832
 5922SOL    HW229400   2.169   4.549   5.938 -0.3156 -0.0453 -0.2336
 5923SOL     OW29401   4.630   4.173   5.171 -0.0632 -0.7373  0.4247
 5923SOL    HW129402   4.643   4.268   5.166 -2.9973 -0.4230 -0.7796
 5923SOL    HW229403   4.537   4.178   5.149  0.0862 -0.8538 -0.2431
 5924SOL     OW29404   2.152   2.927   9.430 -0.0399  0.1560  0.7411
 5924SOL    HW129405   2.113   2.873   9.498 -0.9527 -1.5616 -1.1419
 5924SOL    HW229406   2.077   2.964   9.383  0.6105  0.1642 -0.3050
 5925SOL     OW29407   4.202   4.120   6.799 -0.2106  0.4005  0.4505
 5925SOL    HW129408   4.137   4.098   6.865  0.0429  0.0675  0.5955
 5925SOL    HW229409   4.215   4.029   6.770  0.9290  1.1857 -1.5220
 5926SOL     OW29410   1.760   4.641   4.509 -0.3766 -0.4543 -0.2766
 5926SOL    HW129411   1.839   4.628   4.456 -0.2427 -0.1769 -0.1462
 5926SOL    HW229412   1.706   4.694   4.451 -2.5143 -0.9774  1.2733
 5927SOL     OW29413   4.026   2.990  17.545  0.4722 -0.0531 -0.1134
 5927SOL    HW129414   3.932   2.984  17.527  0.1020 -0.9784  2.1586
 5927SOL    HW229415   4.058   2.918  17.490  0.0194 -1.5052  1.5324
 5928SOL     OW29416   3.607   3.567   9.279  0.1024  0.3459  0.3326
 5928SOL    HW129417   3.702   3.577   9.289  0.2050  0.1644 -0.4763
 5928SOL    HW229418   3.588   3.636   9.343 -1.6872 -0.6439  0.8759
 5929SOL     OW29419   2.515   2.148  15.383 -0.1967 -0.0622 -0.7159
 5929SOL    HW129420   2.600   2.110  15.407 -0.0219  2.0385  1.9285
 5929SOL    HW229421   2.487   2.073  15.329  1.1637 -1.8525  1.0483
 5930SOL     OW29422   2.182   2.682   7.853 -0.0278 -0.9564  0.2348
 5930SOL    HW129423   2.278   2.677   7.855  0.1149  1.6460  0.4740
 5930SOL    HW229424   2.156   2.673   7.761 -2.0457  2.3524  0.4747
 5931SOL     OW29425   3.145   2.163   8.317 -0.0147 -0.6711 -0.5741
 5931SOL    HW129426   3.213   2.099   8.297  0.7748 -0.0054 -0.0108
 5931SOL    HW229427   3.128   2.161   8.411 -1.3221  1.5769 -0.7625
 5932SOL     OW29428   2.397   1.668   5.945  0.0102  0.6120 -0.1895
 5932SOL    HW129429   2.427   1.759   5.944  1.5260  0.1170  1.5875
 5932SOL    HW229430   2.313   1.674   5.899  0.0893  0.4018 -0.3611
 5933SOL     OW29431   0.476   2.444   8.920 -0.2258 -0.3248 -0.1783
 5933SOL    HW129432   0.537   2.371   8.922 -0.1155 -0.1836  2.0389
 5933SOL    HW229433   0.518   2.512   8.868 -2.5840  0.1419 -1.5055
 5934SOL     OW29434   2.133   1.782  16.007  0.4530  0.2026  0.4152
 5934SOL    HW129435   2.161   1.813  16.093 -1.0883  2.6164  0.0597
 5934SOL    HW229436   2.175   1.839  15.942  0.8017  0.7096  1.0873
 5935SOL     OW29437   0.321   1.792   7.526  0.7863  0.0472  0.1812
 5935SOL    HW129438   0.328   1.883   7.495  0.5143 -0.7211 -2.1104
 5935SOL    HW229439   0.264   1.757   7.458  2.5755 -2.1447 -0.1972
 5936SOL     OW29440   0.698   3.441  12.366  0.4074  0.4086 -0.4198
 5936SOL    HW129441   0.790   3.438  12.392  0.8629 -4.0651 -2.6477
 5936SOL    HW229442   0.705   3.440  12.270  0.0089  0.6587 -0.4489
 5937SOL     OW29443   1.525   2.026  11.436  0.3492 -0.0293 -0.1303
 5937SOL    HW129444   1.471   2.005  11.360  0.3677 -0.8763  0.0866
 5937SOL    HW229445   1.542   1.941  11.477  0.1646  0.5712  1.1910
 5938SOL     OW29446   3.881   2.964   2.726 -0.0004 -0.2740 -0.1416
 5938SOL    HW129447   3.947   3.000   2.667 -2.4273  1.7225 -1.6702
 5938SOL    HW229448   3.934   2.893   2.761 -3.6047 -1.9239  1.9592
 5939SOL     OW29449   3.308   3.967   1.148  0.8459  0.5056 -0.2402
 5939SOL    HW129450   3.265   4.034   1.201 -1.1168  0.1795 -1.4594
 5939SOL    HW229451   3.240   3.933   1.090  1.6338  2.3923 -2.2426
 5940SOL     OW29452   3.168   1.040   2.780  0.1285  0.0959  0.1949
 5940SOL    HW129453   3.160   0.946   2.797  0.3719  0.1985  0.8607
 5940SOL    HW229454   3.261   1.045   2.800  0.0521 -0.0998  0.5807
 5941SOL     OW29455   2.738   2.302   4.460 -0.0762  0.3095 -0.5216
 5941SOL    HW129456   2.800   2.270   4.394  0.0020  0.2115 -0.4013
 5941SOL    HW229457   2.658   2.320   4.411 -1.4559  2.2529  2.4493
 5942SOL     OW29458   0.736   2.904  16.020 -0.4256  0.0968 -0.2117
 5942SOL    HW129459   0.674   2.831  16.027  1.1066 -1.2016 -0.1778
 5942SOL    HW229460   0.786   2.881  15.941 -0.0030  0.2519  0.0138
 5943SOL     OW29461   3.100   4.297   3.349 -0.4924 -0.0318  0.3108
 5943SOL    HW129462   3.078   4.243   3.425 -2.0034  0.0852 -0.0492
 5943SOL    HW229463   3.147   4.365   3.399  1.1438 -0.0753 -1.1708
 5944SOL     OW29464   1.918   2.918   2.432  0.5099 -0.4672 -0.1347
 5944SOL    HW129465   1.877   2.925   2.518  1.6796 -0.5691  0.4270
 5944SOL    HW229466   2.008   2.950   2.442  0.6835 -0.5571 -1.3899
 5945SOL     OW29467   2.929   4.431   6.637  0.2165  0.5919  0.6041
 5945SOL    HW129468   2.998   4.443   6.571  0.2403 -0.5403  0.4338
 5945SOL    HW229469   2.901   4.341   6.620  0.0669  1.4043 -3.4525
 5946SOL     OW29470   0.080   4.057   5.352  0.5847  0.5146 -0.4517
 5946SOL    HW129471   0.014   4.095   5.294 -1.6214 -1.4120  0.7969
 5946SOL    HW229472   0.027   4.020   5.423  1.7760 -0.5599 -0.1097
 5947SOL     OW29473   3.059   2.157   4.619 -0.3501 -0.6968 -0.1271
 5947SOL    HW129474   2.970   2.184   4.640 -1.1530 -2.2711 -1.4801
 5947SOL    HW229475   3.091   2.143   4.708  0.6935  0.2166 -0.3672
 5948SOL     OW29476   2.996   1.315   2.361 -0.0569  0.1937  0.5607
 5948SOL    HW129477   3.074   1.309   2.416  1.2709 -0.1015 -1.3314
 5948SOL    HW229478   2.953   1.232   2.380  0.6947  0.2530  2.4502
 5949SOL     OW29479   0.057   0.114   4.324  0.5528  0.1686  0.2650
 5949SOL    HW129480   0.041   0.023   4.349  0.1188 -0.5858 -2.7197
 5949SOL    HW229481   0.152   0.119   4.313  0.2811  1.5822 -1.5100
 5950SOL     OW29482   0.546   0.510   7.861 -0.2495 -0.5209  0.8055
 5950SOL    HW129483   0.559   0.566   7.785  0.1269  0.1007  1.3347
 5950SOL    HW229484   0.609   0.439   7.844  0.4945 -0.1365  2.0003
 5951SOL     OW29485   1.364   2.340  17.042 -0.2717 -0.2114  0.2020
 5951SOL    HW129486   1.384   2.352  17.135  1.2015  1.3908 -0.3163
 5951SOL    HW229487   1.386   2.430  17.016  0.5771 -0.9653 -1.6842
 5952SOL     OW29488   3.496   2.582   6.150  0.5489  0.3929 -0.3644
 5952SOL    HW129489   3.412   2.625   6.167  0.3903  0.0060 -0.1706
 5952SOL    HW229490   3.565   2.628   6.197 -0.3191 -0.0359  1.3043
 5953SOL     OW29491   1.543   0.568   5.224  0.1825 -0.1253 -0.0494
 5953SOL    HW129492   1.482   0.601   5.290 -0.0713  2.1377 -1.4205
 5953SOL    HW229493   1.603   0.516   5.279 -0.9175 -0.6269  0.6732
 5954SOL     OW29494   2.905   3.130   3.851  0.1454  0.4287  0.0292
 5954SOL    HW129495   2.836   3.185   3.887 -0.7713 -1.1912  0.7763
 5954SOL    HW229496   2.864   3.043   3.855  0.1760  0.4565  0.9960
 5955SOL     OW29497   1.676   0.353   9.280 -0.0618  0.1096 -0.7734
 5955SOL    HW129498   1.663   0.448   9.288 -0.2971  0.1165 -1.2030
 5955SOL    HW229499   1.761   0.350   9.235  0.3919  0.3469  0.0564
 5956SOL     OW29500   3.401   2.450   0.007  0.3187  0.1572  0.0119
 5956SOL    HW129501   3.380   2.366   0.046  1.1909 -0.0382  0.0648
 5956SOL    HW229502   3.456   2.426  17.681  1.6844  1.8362  0.4766
 5957SOL     OW29503   1.252   3.979   7.116  0.0408  0.8156  0.0039
 5957SOL    HW129504   1.331   3.924   7.122 -0.0108  0.7790  0.3576
 5957SOL    HW229505   1.194   3.923   7.065  1.1843 -0.4434  0.0936
 5958SOL     OW29506   4.192   4.736   2.206 -0.1785 -0.7891 -0.9161
 5958SOL    HW129507   4.104   4.734   2.242  0.9811  0.7979  1.9939
 5958SOL    HW229508   4.196   0.089   2.174 -0.2918 -0.6224 -0.4606
 5959SOL     OW29509   0.704   1.907   6.411 -0.2604 -0.0424  0.4474
 5959SOL    HW129510   0.627   1.959   6.388 -1.9198 -1.6861  2.2695
 5959SOL    HW229511   0.723   1.944   6.498  0.4407 -0.1171  0.3288
 5960SOL     OW29512   4.254   0.787  13.607  0.7276  0.0852 -0.1535
 5960SOL    HW129513   4.179   0.735  13.636  0.4208  0.5179 -0.1702
 5960SOL    HW229514   4.328   0.732  13.635  0.7446 -0.2162 -0.7788
 5961SOL     OW29515   1.150   3.137  10.226 -0.2548  0.3621 -0.6247
 5961SOL    HW129516   1.111   3.121  10.312  2.3270 -2.4661 -0.0075
 5961SOL    HW229517   1.197   3.218  10.244 -1.7677  0.5466  2.4843
 5962SOL     OW29518   3.886   4.697   6.784  0.1174 -0.1937 -0.3448
 5962SOL    HW129519   3.936   4.711   6.704 -1.3101  0.4359 -1.1265
 5962SOL    HW229520   3.805   4.655   6.755  0.1358 -0.6908  0.3198
 5963SOL     OW29521   2.355   0.949  10.180 -0.5163  0.0986 -0.0636
 5963SOL    HW129522   2.311   0.928  10.098 -1.6552 -0.2575  0.6337
 5963SOL    HW229523   2.340   1.044  10.174 -2.2575 -0.1246  0.8124
 5964SOL     OW29524   1.838   3.255   3.819  0.1471 -0.4741  0.0831
 5964SOL    HW129525   1.865   3.193   3.887 -1.7373 -0.8338  0.4897
 5964SOL    HW229526   1.922   3.294   3.797  0.4283 -0.9609  0.2808
 5965SOL     OW29527   3.292   2.026   2.673  0.0795 -0.2602 -0.5271
 5965SOL    HW129528   3.338   1.965   2.730  0.6690 -1.2411 -2.0291
 5965SOL    HW229529   3.200   2.021   2.699  0.0384  1.3086 -0.3823
 5966SOL     OW29530   4.111   3.651  11.981 -0.6379 -1.5223  0.0128
 5966SOL    HW129531   4.136   3.742  11.989 -2.6007 -0.9689 -0.1418
 5966SOL    HW229532   4.185   3.612  11.934  0.3653  0.1763  0.2132
 5967SOL     OW29533   3.137   3.240  11.073  0.6799  0.7349  0.0995
 5967SOL    HW129534   3.159   3.148  11.058  0.3131  0.6785 -0.1039
 5967SOL    HW229535   3.169   3.279  10.992  1.6792 -1.2074 -0.4379
 5968SOL     OW29536   2.284   3.827  15.031  0.0508 -0.4273  0.3199
 5968SOL    HW129537   2.246   3.858  14.948  2.6921  1.0061 -0.3385
 5968SOL    HW229538   2.345   3.764  14.993  0.5729  0.2401  0.0671
 5969SOL     OW29539   0.121   1.368   2.010  0.2753  0.4610 -0.1902
 5969SOL    HW129540   0.216   1.361   2.024  0.4365  1.5124 -0.7328
 5969SOL    HW229541   0.116   1.376   1.915  2.2865  1.4162 -0.2113
 5970SOL     OW29542   3.156   2.699   2.340  0.4368  0.1017  0.0103
 5970SOL    HW129543   3.223   2.712   2.273 -1.0009 -3.4345 -2.1384
 5970SOL    HW229544   3.180   2.606   2.345  3.6287  0.9549  0.0295
 5971SOL     OW29545   4.054   4.716   1.351 -0.0567  0.0714  0.3143
 5971SOL    HW129546   4.041   4.622   1.334  0.0793  0.1233 -0.0830
 5971SOL    HW229547   3.971   4.732   1.395  1.2051  1.5012  2.1624
 5972SOL     OW29548   2.665   4.532   3.554 -0.6162  0.1877 -0.2971
 5972SOL    HW129549   2.657   4.500   3.465  0.8267 -2.3833  0.4795
 5972SOL    HW229550   2.700   4.455   3.600  1.2063  0.9459 -0.3797
 5973SOL     OW29551   0.141   3.158   0.254  0.4086 -0.6453  0.3763
 5973SOL    HW129552   0.056   3.192   0.282  1.0298  0.3345  1.0790
 5973SOL    HW229553   0.197   3.222   0.300  1.0200 -0.7721 -0.1933
 5974SOL     OW29554   4.029   2.131   7.067 -0.2966  0.2582 -0.1389
 5974SOL    HW129555   4.100   2.102   7.010 -0.5911 -1.6667  0.4734
 5974SOL    HW229556   4.029   2.224   7.047 -0.6448  0.2498 -0.1719
 5975SOL     OW29557   2.997   2.049   5.667  0.4532  0.1077 -0.3551
 5975SOL    HW129558   3.080   2.002   5.663  0.5516  0.7122 -5.4049
 5975SOL    HW229559   3.003   2.081   5.577 -1.0846  0.5600 -0.3060
 5976SOL     OW29560   4.371   0.963  16.043 -0.1007 -0.5587  0.3365
 5976SOL    HW129561   4.394   1.056  16.045 -1.3156 -0.2322 -0.6986
 5976SOL    HW229562   4.379   0.941  15.950  0.4558  1.7423 -0.1579
 5977SOL     OW29563   2.468   2.538   1.032  0.3026  0.2831  0.1711
 5977SOL    HW129564   2.495   2.619   1.075 -0.8285  0.2092  1.0282
 5977SOL    HW229565   2.511   2.544   0.947  1.5130 -2.6104  0.6007
 5978SOL     OW29566   0.075   2.147   2.573  0.1479 -0.3481  0.5047
 5978SOL    HW129567   0.118   2.198   2.504  0.5171 -1.2670  0.0517
 5978SOL    HW229568   0.105   2.201   2.646 -2.7461  2.6933 -0.5404
 5979SOL     OW29569   2.920   4.419  11.202 -0.2633  0.3139  0.1439
 5979SOL    HW129570   2.873   4.353  11.253  1.5233 -0.0843  1.2590
 5979SOL    HW229571   2.982   4.371  11.148 -2.1291 -0.3033 -1.4743
 5980SOL     OW29572   2.596   4.347  16.006  0.0144 -0.1029  0.0620
 5980SOL    HW129573   2.612   4.353  16.100 -0.6912  1.1159  0.1092
 5980SOL    HW229574   2.689   4.359  15.987  0.3401 -1.8718  0.5898
 5981SOL     OW29575   3.117   1.433   4.514 -0.0949  0.0971  0.6445
 5981SOL    HW129576   3.021   1.434   4.519 -0.1898  1.2082 -1.3781
 5981SOL    HW229577   3.131   1.339   4.510  2.2980  0.4821 -0.1552
 5982SOL     OW29578   0.355   0.767  13.690 -0.7521  0.3340  0.2040
 5982SOL    HW129579   0.293   0.830  13.654 -0.3086 -0.9215 -2.7083
 5982SOL    HW229580   0.322   0.683  13.660  0.1454  0.8448 -2.1831
 5983SOL     OW29581   2.168   3.300   4.484 -0.1226 -0.7846  0.2428
 5983SOL    HW129582   2.178   3.219   4.434  0.0868 -0.6650  0.0859
 5983SOL    HW229583   2.254   3.340   4.474 -0.3313  0.1152  2.0170
 5984SOL     OW29584   3.279   0.356   0.132 -0.0031  0.3919  0.4515
 5984SOL    HW129585   3.197   0.366   0.180 -0.1756 -1.8319  0.5966
 5984SOL    HW229586   3.294   0.265   0.156  0.9139  0.2590 -0.6358
 5985SOL     OW29587   0.205   4.300   7.609  0.9708  0.2584  0.0965
 5985SOL    HW129588   0.146   4.301   7.684  0.6257 -0.6111 -0.1684
 5985SOL    HW229589   0.269   4.369   7.628  0.2645  1.3697 -1.5538
 5986SOL     OW29590   4.556   1.635   2.489  0.3587 -0.3277  0.1748
 5986SOL    HW129591   4.597   1.631   2.402 -0.9450  1.1129 -0.4974
 5986SOL    HW229592   4.462   1.620   2.479  0.7054 -1.8721 -0.9628
 5987SOL     OW29593   1.850   4.651   6.048 -0.0937  0.5735  0.2750
 5987SOL    HW129594   1.895   4.627   5.966 -2.7990 -1.4232 -0.6262
 5987SOL    HW229595   1.760   4.674   6.024 -0.6324  0.8754  2.5949
 5988SOL     OW29596   2.377   2.680   0.245 -0.2925 -1.1545  0.0059
 5988SOL    HW129597   2.340   2.767   0.233  0.9284 -0.6806 -0.2568
 5988SOL    HW229598   2.394   2.659   0.153 -0.6976 -0.3374 -0.2487
 5989SOL     OW29599   0.670   2.713   2.482 -0.1793  0.1439 -0.0438
 5989SOL    HW129600   0.737   2.778   2.460  0.3022  0.2971  1.9055
 5989SOL    HW229601   0.595   2.770   2.467 -0.2123  0.2936  0.7037
 5990SOL     OW29602   1.927   1.901   8.218  0.2544 -0.0852  0.1693
 5990SOL    HW129603   1.998   1.854   8.173  0.8111 -1.3087  2.3139
 5990SOL    HW229604   1.863   1.899   8.147 -1.7586 -2.9553  2.0587
 5991SOL     OW29605   4.640   2.064   7.968  0.4340 -0.6263  0.1320
 5991SOL    HW129606   4.630   2.145   8.017 -1.1088 -0.5852 -0.2626
 5991SOL    HW229607   4.617   2.104   7.884 -1.5115 -0.1109  0.9046
 5992SOL     OW29608   2.778   2.737   6.268 -0.8358 -0.5937  0.0569
 5992SOL    HW129609   2.801   2.644   6.261 -0.3962 -0.2732 -3.0160
 5992SOL    HW229610   2.831   2.780   6.200 -0.1772 -2.6217 -0.7180
 5993SOL     OW29611   2.109   1.114   2.425  0.1575  0.3561 -0.1041
 5993SOL    HW129612   2.087   1.024   2.449 -2.1048  0.1502 -3.0043
 5993SOL    HW229613   2.169   1.132   2.498 -0.0334  1.8251 -0.2992
 5994SOL     OW29614   0.128   0.790   5.047  0.7050  0.1577 -0.0040
 5994SOL    HW129615   0.111   0.728   5.118 -2.1677 -2.2150 -2.7942
 5994SOL    HW229616   0.153   0.723   4.984 -0.6705 -0.5746  0.2279
 5995SOL     OW29617   1.050   0.651   5.408 -0.4269  0.2420 -0.4856
 5995SOL    HW129618   0.997   0.731   5.417  0.1489  0.3819  1.6114
 5995SOL    HW229619   0.986   0.596   5.363 -1.0510  1.1220 -0.6919
 5996SOL     OW29620   0.501   3.695   1.456  0.1753 -0.5129 -0.4000
 5996SOL    HW129621   0.448   3.700   1.535 -1.0999  3.9776 -1.5523
 5996SOL    HW229622   0.539   3.783   1.452 -1.7169  0.3050 -0.2448
 5997SOL     OW29623   2.996   1.566  16.756 -0.0154 -0.5809  0.0979
 5997SOL    HW129624   3.006   1.550  16.850 -1.7770 -0.9167  0.2259
 5997SOL    HW229625   2.955   1.653  16.760 -0.1407 -0.6975  1.4252
 5998SOL     OW29626   1.976   0.175   6.105  0.4382  0.1707 -0.1456
 5998SOL    HW129627   1.934   0.092   6.125  0.4756  0.3486  0.6546
 5998SOL    HW229628   1.901   0.216   6.063 -1.8399 -2.6096  1.2251
 5999SOL     OW29629   4.009   2.697  14.512 -0.2364  0.0736 -0.2040
 5999SOL    HW129630   3.939   2.758  14.489 -0.7490 -0.6821 -0.6230
 5999SOL    HW229631   4.060   2.743  14.580 -0.8086 -0.0391  0.2977
 6000SOL     OW29632   1.855   2.743  11.221  0.2239  0.2499  0.3743
 6000SOL    HW129633   1.853   2.651  11.193  1.6961 -0.2062  1.7843
 6000SOL    HW229634   1.947   2.763  11.239  0.5284 -0.9133  0.1466
 6001SOL     OW29635   2.242   4.005   4.559  0.1963  0.0474  0.5379
 6001SOL    HW129636   2.333   3.979   4.547 -0.4193 -1.5692 -0.6812
 6001SOL    HW229637   2.232   4.055   4.478  0.4090  0.0707  0.5255
 6002SOL     OW29638   3.241   0.759  13.737  0.6749  0.4485 -0.0320
 6002SOL    HW129639   3.171   0.695  13.748 -0.4514  1.6048 -0.4876
 6002SOL    HW229640   3.284   0.743  13.653  0.7292  1.4661 -0.2009
 6003SOL     OW29641   4.466   3.290   4.516  0.1330  0.9521  0.5939
 6003SOL    HW129642   4.559   3.309   4.530  0.2622  0.7281  0.0273
 6003SOL    HW229643   4.447   3.361   4.455  0.7573  0.7948  0.2097
 6004SOL     OW29644   0.570   3.430  10.273  0.2106 -0.1762 -0.0527
 6004SOL    HW129645   0.659   3.402  10.252 -0.1824 -0.4530 -1.3762
 6004SOL    HW229646   0.550   3.406  10.363 -3.3145 -0.1024 -0.8009
 6005SOL     OW29647   3.124   0.152   5.846  0.0822  0.5760 -0.0469
 6005SOL    HW129648   3.099   0.236   5.884  0.4454  0.9097 -0.5596
 6005SOL    HW229649   3.216   0.146   5.872  0.8616  0.4640 -2.8425
 6006SOL     OW29650   2.595   2.416  15.249 -0.2282 -0.2878  0.4370
 6006SOL    HW129651   2.579   2.505  15.279 -1.3114  0.0054 -1.0549
 6006SOL    HW229652   2.597   2.362  15.328  2.1834  0.9141  1.2056
 6007SOL     OW29653   4.100   3.596   5.994 -0.6528  0.3070 -0.3397
 6007SOL    HW129654   4.005   3.585   5.992 -0.8384  1.9662 -0.1816
 6007SOL    HW229655   4.102   3.674   6.049  0.1939 -0.1342  0.2542
 6008SOL     OW29656   4.489   1.371   4.866 -0.2610 -0.1719  0.5967
 6008SOL    HW129657   4.573   1.415   4.882 -0.4861  0.0325  1.1959
 6008SOL    HW229658   4.424   1.437   4.891  0.8679  0.0179  3.0082
 6009SOL     OW29659   1.887   2.465   8.116  0.0978 -0.3917  0.1770
 6009SOL    HW129660   1.947   2.401   8.078 -0.1594 -0.5819  0.0934
 6009SOL    HW229661   1.921   2.464   8.205  1.7002  0.7965 -0.4095
 6010SOL     OW29662   0.075   3.134   5.581 -0.3241  0.2195 -0.4749
 6010SOL    HW129663   4.733   3.169   5.622 -0.7201 -0.3510 -0.7564
 6010SOL    HW229664   0.103   3.208   5.528 -1.7335  0.1496 -1.3010
 6011SOL     OW29665   0.808   4.328  11.620  0.5838 -0.0805  0.2649
 6011SOL    HW129666   0.825   4.419  11.599 -0.1246 -0.3957 -1.6919
 6011SOL    HW229667   0.723   4.338  11.662  0.2629 -0.0895 -0.3774
 6012SOL     OW29668   3.495   2.991   4.224  0.0805 -0.0603  0.3021
 6012SOL    HW129669   3.572   3.045   4.242 -0.6691  1.0629  0.1427
 6012SOL    HW229670   3.449   3.044   4.159  3.4982  1.9524 -0.4753
 6013SOL     OW29671   4.126   3.540  15.070 -0.0424  0.4538  0.0361
 6013SOL    HW129672   4.134   3.465  15.011  0.5896 -1.1541  2.1750
 6013SOL    HW229673   4.091   3.606  15.009 -0.5948  1.7049  1.7196
 6014SOL     OW29674   4.634   3.334   4.019 -0.4384 -0.1039 -0.1113
 6014SOL    HW129675   4.686   3.380   4.084  1.4799 -1.3308 -0.7874
 6014SOL    HW229676   4.605   3.260   4.073 -0.1414 -0.7256 -0.7934
 6015SOL     OW29677   2.438   1.537   3.732 -0.2061 -0.4295  0.2652
 6015SOL    HW129678   2.370   1.525   3.665  0.5089  1.8076 -0.8371
 6015SOL    HW229679   2.377   1.545   3.805  0.1839  0.6272  0.4607
 6016SOL     OW29680   3.260   1.733   3.744  1.0560 -0.1690  0.4212
 6016SOL    HW129681   3.209   1.761   3.669 -0.2544 -0.3801  1.2280
 6016SOL    HW229682   3.334   1.792   3.733  1.8980 -1.1459  0.8210
 6017SOL     OW29683   3.423   1.492  12.902  0.2524 -0.2113 -0.0525
 6017SOL    HW129684   3.427   1.514  12.808 -0.5049  1.1764  0.2382
 6017SOL    HW229685   3.352   1.428  12.905 -0.3880  0.5036  0.3054
 6018SOL     OW29686   0.342   3.270  17.180 -0.1542 -0.6734 -0.4117
 6018SOL    HW129687   0.339   3.366  17.170 -0.9400 -0.6298  0.2263
 6018SOL    HW229688   0.289   3.267  17.260 -2.2304 -0.8628 -1.7884
 6019SOL     OW29689   0.784   3.220   3.074 -0.1227  0.9342 -0.8336
 6019SOL    HW129690   0.777   3.253   3.164 -0.8676 -1.5067  0.0160
 6019SOL    HW229691   0.691   3.211   3.052 -0.5764 -0.1620  1.4789
 6020SOL     OW29692   4.118   3.946   8.042  0.5169 -0.4452 -0.2824
 6020SOL    HW129693   4.142   4.011   7.977  1.5884 -0.2887  0.2618
 6020SOL    HW229694   4.032   3.981   8.065  0.0378 -1.8450  0.0894
 6021SOL     OW29695   3.025   0.515   5.419  0.3582 -0.1950 -0.0358
 6021SOL    HW129696   3.018   0.433   5.468 -2.4486 -1.0821 -1.9020
 6021SOL    HW229697   3.100   0.549   5.468 -0.9625  3.1307 -0.3637
 6022SOL     OW29698   0.636   0.073   1.171  0.0836  0.6469 -0.1862
 6022SOL    HW129699   0.626   0.168   1.163  0.5360  0.7059 -0.0316
 6022SOL    HW229700   0.661   0.043   1.084  0.9836 -0.2198  0.3751
 6023SOL     OW29701   1.302   1.549   6.417 -0.0091  0.2662  0.5528
 6023SOL    HW129702   1.322   1.565   6.509  0.5303 -1.1746  0.6796
 6023SOL    HW229703   1.336   1.460   6.412  1.6248  1.0259 -1.8071
 6024SOL     OW29704   1.893   4.381   3.544  0.5411  0.1758  0.5433
 6024SOL    HW129705   1.859   4.313   3.486  1.0467  1.7999 -1.6870
 6024SOL    HW229706   1.967   4.416   3.494  0.7113 -2.1723 -0.8572
 6025SOL     OW29707   0.928   4.715   5.369  0.1851  0.1200 -0.2671
 6025SOL    HW129708   0.867   0.026   5.314 -0.2435  1.2171  1.1891
 6025SOL    HW229709   0.868   4.663   5.423 -0.3550  2.1409  1.0985
 6026SOL     OW29710   2.508   2.263   9.298 -0.5031  0.2037 -0.2905
 6026SOL    HW129711   2.503   2.186   9.355 -2.2740  0.5291 -0.0226
 6026SOL    HW229712   2.417   2.292   9.298 -0.6981 -0.3939 -2.1550
 6027SOL     OW29713   0.988   1.527   4.317  0.6784  0.0685  0.6131
 6027SOL    HW129714   0.918   1.579   4.277 -2.0178 -2.2412  2.2895
 6027SOL    HW229715   0.935   1.492   4.388 -0.0107 -0.3593 -0.1040
 6028SOL     OW29716   2.286   4.018   9.162  0.2535  0.2975  0.3375
 6028SOL    HW129717   2.216   3.958   9.187  1.4547 -1.2007  0.0634
 6028SOL    HW229718   2.361   3.962   9.181  0.2845  0.6233  1.2075
 6029SOL     OW29719   3.500   1.613   6.109 -0.1340  0.0491 -0.0759
 6029SOL    HW129720   3.594   1.623   6.125 -0.5055  2.1979  0.6592
 6029SOL    HW229721   3.489   1.579   6.020 -2.1876  0.8260 -0.1207
 6030SOL     OW29722   0.370   0.131  15.901  0.0431 -0.0094 -0.1521
 6030SOL    HW129723   0.389   0.173  15.817  0.0754  0.3690  0.0459
 6030SOL    HW229724   0.318   0.195  15.949 -0.4308 -0.5183 -0.0039
 6031SOL     OW29725   1.395   3.567   6.489 -0.0214 -0.1042  0.1758
 6031SOL    HW129726   1.304   3.536   6.491 -0.2614  0.7457  3.4063
 6031SOL    HW229727   1.442   3.486   6.471 -1.0535 -0.5993 -0.2823
 6032SOL     OW29728   3.543   3.115  10.910  0.1714  0.4345 -0.7752
 6032SOL    HW129729   3.481   3.052  10.946  1.3771 -0.3393 -0.0810
 6032SOL    HW229730   3.609   3.121  10.979 -1.6086  0.1640  0.9768
 6033SOL     OW29731   3.800   3.805   5.869  0.2695  0.5755  0.3555
 6033SOL    HW129732   3.786   3.714   5.897  2.6646  0.2733  0.5511
 6033SOL    HW229733   3.751   3.802   5.787 -0.6461 -0.9351  0.9429
 6034SOL     OW29734   1.185   2.064   5.687 -0.1971  0.5150 -0.1782
 6034SOL    HW129735   1.092   2.060   5.666 -0.2639 -1.1858  0.5261
 6034SOL    HW229736   1.180   2.074   5.782  2.5876  1.0812 -0.0840
 6035SOL     OW29737   2.237   3.762   4.723 -0.4534 -0.2174 -0.1404
 6035SOL    HW129738   2.244   3.830   4.655 -1.1775 -1.3130 -1.3133
 6035SOL    HW229739   2.170   3.800   4.780 -0.3286 -0.8122  0.3963
 6036SOL     OW29740   2.137   2.372  15.577  0.3710 -0.5688  0.1135
 6036SOL    HW129741   2.175   2.440  15.522  0.8786 -2.1259 -1.4711
 6036SOL    HW229742   2.201   2.302  15.564  0.3561 -0.9495  2.0609
 6037SOL     OW29743   1.135   4.497  17.286  0.0758 -0.4893  0.0342
 6037SOL    HW129744   1.048   4.529  17.311 -0.9730 -1.4546 -2.3963
 6037SOL    HW229745   1.106   4.445  17.211  1.0381  1.1759 -1.5015
 6038SOL     OW29746   3.331   4.518   8.296  0.5405 -0.0512  0.3269
 6038SOL    HW129747   3.242   4.490   8.276  1.3743 -1.0407 -2.0116
 6038SOL    HW229748   3.316   4.558   8.381  0.3048 -0.2634  0.3840
 6039SOL     OW29749   4.631   4.498   7.632 -0.0746 -0.3444  0.5952
 6039SOL    HW129750   4.683   4.528   7.706 -0.1808 -2.1465  1.3969
 6039SOL    HW229751   4.673   4.414   7.615  1.1472  0.5427 -0.7491
 6040SOL     OW29752   0.750   1.683   0.752 -0.3644  0.4581  0.6464
 6040SOL    HW129753   0.726   1.734   0.675 -2.8811 -1.3996  0.1967
 6040SOL    HW229754   0.671   1.700   0.803  0.4514  2.3756  1.2632
 6041SOL     OW29755   1.398   1.260   7.560 -0.2283  0.2310  0.1690
 6041SOL    HW129756   1.351   1.242   7.479  1.0392  0.2416 -0.5620
 6041SOL    HW229757   1.435   1.176   7.586 -2.6208 -0.9518 -0.2822
 6042SOL     OW29758   4.617   0.019  14.908 -0.5485  0.5957 -0.0468
 6042SOL    HW129759   4.548   4.701  14.872  0.4574 -0.0135 -1.0632
 6042SOL    HW229760   4.673   0.013  14.830 -1.0664  2.0705 -0.5299
 6043SOL     OW29761   0.486   2.881  12.181  0.3408  1.3782 -0.3286
 6043SOL    HW129762   0.479   2.845  12.269  0.5981 -0.8225 -1.1979
 6043SOL    HW229763   0.535   2.812  12.137  1.3467  2.1905 -0.4623
 6044SOL     OW29764   3.020   3.695   3.005  0.2585  0.6017 -0.2002
 6044SOL    HW129765   2.994   3.615   2.960  2.1632 -0.3137  0.3115
 6044SOL    HW229766   3.015   3.758   2.933 -1.0060  1.0684  0.3038
 6045SOL     OW29767   0.428   3.664   2.117 -0.1103  0.1368  0.2825
 6045SOL    HW129768   0.478   3.602   2.169 -0.0935 -0.7606 -0.8187
 6045SOL    HW229769   0.463   3.647   2.029 -2.2383 -0.1715 -0.5177
 6046SOL     OW29770   0.548   3.381   2.750  0.0544  0.2919  0.1844
 6046SOL    HW129771   0.634   3.392   2.790  1.3522 -0.4512 -2.3630
 6046SOL    HW229772   0.571   3.312   2.687 -0.7034  1.3038 -1.2018
 6047SOL     OW29773   2.446   0.921   1.328  0.3405  0.4172 -0.1450
 6047SOL    HW129774   2.497   0.841   1.315 -0.4213 -0.3242  1.4592
 6047SOL    HW229775   2.361   0.904   1.287  0.2423 -1.3661  0.7762
 6048SOL     OW29776   3.109   0.391   6.039  0.0905 -0.6838 -0.6095
 6048SOL    HW129777   3.156   0.396   6.122 -1.0238  2.6898 -0.1875
 6048SOL    HW229778   3.016   0.383   6.060  0.3973 -2.0673  0.2402
 6049SOL     OW29779   0.091   2.416   9.224  0.0081 -0.0209  0.0906
 6049SOL    HW129780   0.043   2.336   9.200 -0.4074  0.3009 -0.1476
 6049SOL    HW229781   0.154   2.415   9.152 -1.6466  1.1132 -1.3881
 6050SOL     OW29782   1.217   3.500   6.802 -0.1113  0.3101 -0.1250
 6050SOL    HW129783   1.142   3.465   6.850  0.7031 -1.3349 -0.0480
 6050SOL    HW229784   1.282   3.430   6.806 -1.3109 -0.7177  1.1186
 6051SOL     OW29785   0.199   2.117   3.891 -0.0304  0.5861 -0.1953
 6051SOL    HW129786   0.224   2.119   3.799 -1.6903  2.2157 -0.6198
 6051SOL    HW229787   0.140   2.193   3.898  3.3739  3.2198  0.0197
 6052SOL     OW29788   0.073   4.695   8.629 -0.2653  0.0925  0.3672
 6052SOL    HW129789   0.083   4.600   8.636 -1.5544 -0.2151 -1.7389
 6052SOL    HW229790   0.162   4.725   8.613 -0.0800 -0.3846  0.4888
 6053SOL     OW29791   0.094   0.680  12.237 -0.1494 -0.4773 -0.1311
 6053SOL    HW129792   0.136   0.621  12.300  0.6057  0.5086  0.2828
 6053SOL    HW229793   0.172   0.735  12.231 -0.6767  0.2835  0.0334
 6054SOL     OW29794   3.161   1.004   2.268 -0.7235  0.1616  0.1333
 6054SOL    HW129795   3.082   0.964   2.303 -0.8740  1.6672  1.5275
 6054SOL    HW229796   3.188   1.063   2.339  0.6957  1.9999 -1.9141
 6055SOL     OW29797   0.723   0.897  11.703  0.4869  0.5127 -0.4266
 6055SOL    HW129798   0.744   0.853  11.620 -1.5410  0.1898 -0.7575
 6055SOL    HW229799   0.706   0.986  11.673 -2.2982  0.7467  1.8991
 6056SOL     OW29800   3.305   0.746  10.771 -0.1642  0.0823 -0.5819
 6056SOL    HW129801   3.358   0.799  10.831 -1.3535 -1.5199  1.8724
 6056SOL    HW229802   3.344   0.765  10.686 -0.3971 -1.9476 -1.1191
 6057SOL     OW29803   3.060   4.694  11.119  0.3984 -0.2101 -0.0289
 6057SOL    HW129804   3.101   4.633  11.180  2.6008 -0.4573 -1.7263
 6057SOL    HW229805   3.131   0.020  11.114 -2.1433  2.7196  1.5463
 6058SOL     OW29806   3.300   0.260  15.323 -0.0237 -0.3718 -0.3364
 6058SOL    HW129807   3.308   0.315  15.400  0.0695  0.6160 -1.0513
 6058SOL    HW229808   3.222   0.302  15.286 -0.5639  1.0028  2.4093
 6059SOL     OW29809   4.269   4.148   5.902 -0.6885 -0.3005 -0.0293
 6059SOL    HW129810   4.230   4.062   5.889 -1.5442  0.2300 -0.9322
 6059SOL    HW229811   4.339   4.124   5.963 -0.1025  0.3073 -0.4585
 6060SOL     OW29812   3.294   0.622  10.167 -0.1295 -0.0697  0.3581
 6060SOL    HW129813   3.242   0.542  10.171 -1.7818  0.9757  0.0598
 6060SOL    HW229814   3.343   0.588  10.092  0.2779 -0.5402  0.8440
 6061SOL     OW29815   4.474   2.439   1.642  0.2292  0.0529 -0.1198
 6061SOL    HW129816   4.409   2.494   1.599 -0.1410 -0.4742 -0.2366
 6061SOL    HW229817   4.440   2.355   1.613  2.9663 -1.2691  0.5385
 6062SOL     OW29818   0.663   4.160   5.215  0.0874 -1.0770  0.4216
 6062SOL    HW129819   0.669   4.191   5.305 -2.7396 -2.2652  1.0091
 6062SOL    HW229820   0.756   4.141   5.204  0.4124  0.7096  0.1758
 6063SOL     OW29821   1.928   3.868   6.638  0.7784 -0.2438  0.7826
 6063SOL    HW129822   1.837   3.846   6.660  1.6368 -0.1113  4.5043
 6063SOL    HW229823   1.943   3.940   6.699 -2.0719  0.5465  0.5919
 6064SOL     OW29824   3.959   4.368   0.359 -0.1104 -0.5546  0.0531
 6064SOL    HW129825   3.920   4.284   0.335 -1.1866  0.7694 -2.8233
 6064SOL    HW229826   3.944   4.423   0.282 -2.1539  0.9175  1.5103
 6065SOL     OW29827   1.714   0.050  13.486  0.4367 -0.0295  0.3551
 6065SOL    HW129828   1.724   0.127  13.542 -1.5432 -0.0438  0.7354
 6065SOL    HW229829   1.673   4.734  13.554  1.5374 -1.1468  0.1480
 6066SOL     OW29830   3.281   2.987   4.456  1.0163 -0.1034 -0.5262
 6066SOL    HW129831   3.363   2.977   4.408  0.3456  2.1249 -2.1740
 6066SOL    HW229832   3.305   3.057   4.518  0.8005 -1.4554  1.0768
 6067SOL     OW29833   4.261   4.662   4.936 -0.3049  0.0147 -0.1764
 6067SOL    HW129834   4.254   0.020   4.933 -1.2364 -0.1096 -1.6807
 6067SOL    HW229835   4.280   4.651   5.029  0.0684  0.5750 -0.1849
 6068SOL     OW29836   3.075   1.398   3.712 -0.3328 -0.2011  0.0592
 6068SOL    HW129837   3.117   1.410   3.798  0.0330  1.4649 -0.3571
 6068SOL    HW229838   3.140   1.426   3.648 -0.8457 -0.5992 -0.6397
 6069SOL     OW29839   3.461   1.178  15.704 -0.1066 -0.4254  0.1474
 6069SOL    HW129840   3.384   1.234  15.707  0.0912 -0.1837  0.6713
 6069SOL    HW229841   3.514   1.251  15.672 -1.5727 -0.1368 -1.5971
 6070SOL     OW29842   2.241   1.890   0.989  0.3672 -0.4646 -0.0953
 6070SOL    HW129843   2.260   1.984   0.984 -3.6959  0.5046  2.4816
 6070SOL    HW229844   2.303   1.852   1.052  0.8327  2.9995  1.5460
 6071SOL     OW29845   4.007   3.021  16.441  0.3973  0.1978 -0.3132
 6071SOL    HW129846   4.004   3.117  16.442  1.3658  0.2435 -1.7152
 6071SOL    HW229847   3.917   2.999  16.467  0.8020 -0.5925  0.4467
 6072SOL     OW29848   4.606   3.024   0.885  0.8228  0.6517  0.2995
 6072SOL    HW129849   4.623   2.930   0.892  0.4020  0.5730  0.2713
 6072SOL    HW229850   4.687   3.044   0.838  0.9662  1.9687  1.1074
 6073SOL     OW29851   1.840   2.044   4.774 -0.4930  0.2773  0.1234
 6073SOL    HW129852   1.853   2.067   4.682 -0.8932  2.0100  0.4907
 6073SOL    HW229853   1.758   1.995   4.777  2.0164 -3.8566  0.0609
 6074SOL     OW29854   4.328   0.433  14.957  0.3375 -0.3415 -0.1961
 6074SOL    HW129855   4.281   0.427  15.040  1.2765  0.1178  0.3642
 6074SOL    HW229856   4.303   0.352  14.912  2.5561 -0.7584 -0.6682
 6075SOL     OW29857   1.502   0.142   6.244 -0.1539 -0.0674  0.3573
 6075SOL    HW129858   1.452   0.141   6.325 -0.9042 -0.6242 -0.1079
 6075SOL    HW229859   1.438   0.202   6.205 -0.2417 -1.2113 -1.2725
 6076SOL     OW29860   0.923   3.288   1.937  0.0089 -0.0520  0.2856
 6076SOL    HW129861   1.005   3.248   1.910 -0.3206 -2.2868  2.5331
 6076SOL    HW229862   0.929   3.370   1.889 -0.3580 -0.1648  0.0450
 6077SOL     OW29863   0.524   3.139   0.147 -0.0031 -0.2786 -0.3501
 6077SOL    HW129864   0.613   3.144   0.182  0.3739 -0.4407 -1.2997
 6077SOL    HW229865   0.531   3.081   0.071  0.3262  0.4591 -0.8861
 6078SOL     OW29866   4.178   1.535   8.616  0.4375 -0.1621  0.0302
 6078SOL    HW129867   4.251   1.501   8.565  0.7137 -0.4741  0.6466
 6078SOL    HW229868   4.124   1.458   8.635 -0.6914  0.7388  0.4847
 6079SOL     OW29869   4.146   2.005   3.494  0.4211 -0.3192 -0.0811
 6079SOL    HW129870   4.233   2.030   3.524  0.0732 -0.4950  1.0682
 6079SOL    HW229871   4.158   1.911   3.509  2.3002 -0.3167 -1.5601
 6080SOL     OW29872   0.760   0.460   7.151 -0.2663  0.3037 -0.0293
 6080SOL    HW129873   0.745   0.387   7.091  0.4922  0.5962 -0.5730
 6080SOL    HW229874   0.725   0.423   7.233 -3.1239  0.7471 -1.0363
 6081SOL     OW29875   0.877   3.655  10.535 -0.4151  0.4640 -0.0260
 6081SOL    HW129876   0.816   3.718  10.573 -1.8392  0.3325 -2.0954
 6081SOL    HW229877   0.911   3.607  10.611 -1.4991  1.8698  1.3704
 6082SOL     OW29878   2.831   1.491   3.615 -0.3183 -0.7694  0.5960
 6082SOL    HW129879   2.826   1.428   3.543 -0.5794 -0.9532  0.7760
 6082SOL    HW229880   2.910   1.463   3.662  0.0048 -1.3029 -0.2564
 6083SOL     OW29881   1.522   1.621   4.379  0.3152 -0.0820 -0.0112
 6083SOL    HW129882   1.571   1.678   4.320 -1.2612  0.9183 -0.3340
 6083SOL    HW229883   1.538   1.537   4.336  0.5189  0.6605 -1.3901
 6084SOL     OW29884   1.523   1.579   3.770  0.2953 -0.2272  0.2978
 6084SOL    HW129885   1.506   1.504   3.714  2.0789 -1.1557  1.0078
 6084SOL    HW229886   1.596   1.545   3.821 -0.5043  0.8137  2.1251
 6085SOL     OW29887   0.956   1.034   5.821 -0.3424  0.0800  0.1655
 6085SOL    HW129888   1.046   1.015   5.849 -0.3429  0.3143  0.3215
 6085SOL    HW229889   0.931   1.099   5.886 -0.9034 -0.8447  0.8828
 6086SOL     OW29890   1.439   0.180   6.535  0.5457  0.0800 -0.8745
 6086SOL    HW129891   1.488   0.188   6.617 -1.4665  0.8932  0.2650
 6086SOL    HW229892   1.351   0.197   6.569  0.2080 -2.4319 -0.4505
 6087SOL     OW29893   4.524   1.554   3.096 -0.0479 -0.1683 -0.0540
 6087SOL    HW129894   4.593   1.514   3.149 -0.8004  0.1263  1.1319
 6087SOL    HW229895   4.571   1.624   3.050 -0.8060  0.6980  0.5067
 6088SOL     OW29896   3.343   2.624   5.324 -0.2141 -0.2333  0.0891
 6088SOL    HW129897   3.250   2.633   5.301 -0.3038  0.6191  0.8019
 6088SOL    HW229898   3.330   2.538   5.365 -1.1180  0.9044  2.2161
 6089SOL     OW29899   1.750   1.492   6.232  0.0694  0.5619  0.4132
 6089SOL    HW129900   1.821   1.548   6.199  1.9506 -2.2924 -0.3280
 6089SOL    HW229901   1.774   1.496   6.325 -1.7375 -0.3808  0.9156
 6090SOL     OW29902   3.899   3.228  16.884 -0.0083  0.2834 -0.1814
 6090SOL    HW129903   3.839   3.153  16.887 -0.9143  0.9933 -0.2847
 6090SOL    HW229904   3.876   3.275  16.803  0.5658 -1.3394 -1.2742
 6091SOL     OW29905   1.850   0.168   7.898  0.0439 -0.0027  0.4999
 6091SOL    HW129906   1.833   0.100   7.833  1.4625  0.7618 -0.6566
 6091SOL    HW229907   1.919   0.225   7.864  0.2471 -1.8828 -2.2481
 6092SOL     OW29908   4.161   3.111   3.263  0.0639  0.1239  0.3222
 6092SOL    HW129909   4.138   3.036   3.317  1.1105 -0.5016 -0.0991
 6092SOL    HW229910   4.185   3.180   3.324  0.0187  1.8852 -1.6317
 6093SOL     OW29911   2.372   2.556   5.924 -0.2104 -0.1345  0.1597
 6093SOL    HW129912   2.300   2.598   5.970  1.9304  1.9607  1.6427
 6093SOL    HW229913   2.337   2.556   5.835 -1.0738  1.4353  0.4984
 6094SOL     OW29914   1.756   1.117  16.677 -0.2110  1.0468  0.1735
 6094SOL    HW129915   1.826   1.172  16.714  0.0030  0.0386  1.2595
 6094SOL    HW229916   1.712   1.175  16.615 -0.2208  0.6998 -0.1427
 6095SOL     OW29917   2.735   3.742  11.238 -0.1276 -0.1082  0.2509
 6095SOL    HW129918   2.670   3.674  11.256 -0.5250  0.4139  0.8042
 6095SOL    HW229919   2.747   3.718  11.147  0.0457 -1.3228  0.5984
 6096SOL     OW29920   1.703   1.935   6.393 -0.2568 -0.1927 -0.9641
 6096SOL    HW129921   1.761   1.898   6.327 -2.3706  0.2417 -3.0500
 6096SOL    HW229922   1.670   2.014   6.350  1.6375  1.6672  0.9736
 6097SOL     OW29923   4.353   1.714  14.467 -0.1276  0.3650  0.1000
 6097SOL    HW129924   4.271   1.676  14.500  0.2547 -0.0042  0.6207
 6097SOL    HW229925   4.333   1.727  14.375  2.2040  0.8342 -0.3175
 6098SOL     OW29926   2.856   1.240   1.852  0.2433 -0.4980  0.5664
 6098SOL    HW129927   2.887   1.181   1.920  2.7244 -1.3230 -1.2905
 6098SOL    HW229928   2.812   1.172   1.800  1.4479  1.2103 -2.6740
 6099SOL     OW29929   2.776   3.632   9.444 -0.1587  0.1850 -0.1782
 6099SOL    HW129930   2.783   3.689   9.368  0.4616  1.6164  0.9357
 6099SOL    HW229931   2.807   3.687   9.516  0.1312  0.8193 -0.7880
 6100SOL     OW29932   1.031   4.087   6.340 -0.1684  0.2344  0.1499
 6100SOL    HW129933   1.069   4.165   6.300 -0.8553  0.1159 -0.7130
 6100SOL    HW229934   1.096   4.064   6.407  0.1676  2.6557  0.6370
 6101SOL     OW29935   0.935   0.862   9.648  0.2709  0.1344 -0.1798
 6101SOL    HW129936   1.028   0.848   9.664  0.2015 -0.3742 -0.2365
 6101SOL    HW229937   0.924   0.840   9.555  0.3366  1.4369 -0.4939
 6102SOL     OW29938   0.927   3.563  16.963 -0.2717  0.0937  0.3836
 6102SOL    HW129939   0.942   3.648  17.004 -0.4941  0.1666  0.3149
 6102SOL    HW229940   0.832   3.556  16.978 -0.4438 -0.6271 -1.0889
 6103SOL     OW29941   3.420   3.168   9.691  0.0200  0.5217  0.1601
 6103SOL    HW129942   3.456   3.252   9.720  2.3590 -0.5374  0.3172
 6103SOL    HW229943   3.387   3.127   9.771 -1.6482 -1.3027 -1.4635
 6104SOL     OW29944   1.186   0.334   9.058 -0.1314  0.8333  0.3954
 6104SOL    HW129945   1.252   0.387   9.101 -1.1015  1.8979  0.5651
 6104SOL    HW229946   1.114   0.338   9.121  0.5015  2.8849  0.9682
 6105SOL     OW29947   4.240   2.217   2.617  0.1864  0.0442 -0.7478
 6105SOL    HW129948   4.208   2.304   2.639 -2.7908 -0.8573 -1.4953
 6105SOL    HW229949   4.283   2.192   2.699  0.5373  0.1129 -0.9077
 6106SOL     OW29950   3.274   1.613  15.933 -0.2241  0.2386 -0.3069
 6106SOL    HW129951   3.191   1.566  15.935 -1.8371  3.0528 -1.4468
 6106SOL    HW229952   3.248   1.682  15.993 -1.1841 -0.2289 -0.1914
 6107SOL     OW29953   0.375   0.498   5.761 -0.1873 -0.8262 -0.7671
 6107SOL    HW129954   0.284   0.491   5.789  0.0036  0.4831  0.1593
 6107SOL    HW229955   0.387   0.455   5.676  0.6829  0.8642 -1.5013
 6108SOL     OW29956   1.361   0.369   8.672 -0.2661 -0.1647  0.7903
 6108SOL    HW129957   1.435   0.309   8.682  0.8336  1.2150  0.9537
 6108SOL    HW229958   1.360   0.377   8.577  0.6596 -0.2215  0.7754
 6109SOL     OW29959   1.480   4.418   3.186  0.2307  0.1941 -0.5488
 6109SOL    HW129960   1.411   4.452   3.130 -1.6771 -3.3932 -0.3746
 6109SOL    HW229961   1.426   4.384   3.257 -1.2864  3.8817  0.0402
 6110SOL     OW29962   0.671   1.718   5.748  0.0375  0.2518  0.6994
 6110SOL    HW129963   0.718   1.716   5.831  2.2206  2.4603 -0.4846
 6110SOL    HW229964   0.650   1.625   5.742  0.8559 -0.0104  1.9808
 6111SOL     OW29965   0.968   3.520  10.747 -0.6490 -0.4150  0.2282
 6111SOL    HW129966   0.906   3.449  10.763  0.0746 -1.0129  0.3863
 6111SOL    HW229967   1.003   3.542  10.833 -3.0117  0.0242  1.0623
 6112SOL     OW29968   1.426   3.643  13.754 -0.0922  0.0913 -0.4877
 6112SOL    HW129969   1.466   3.696  13.685 -3.5361  1.3642 -1.5378
 6112SOL    HW229970   1.396   3.705  13.820 -1.0458 -0.4020 -0.4609
 6113SOL     OW29971   1.227   3.974   2.739  0.0531 -0.1196 -0.2978
 6113SOL    HW129972   1.205   3.900   2.683 -0.2865  0.2633 -0.6720
 6113SOL    HW229973   1.305   3.935   2.778 -0.7125  1.7053  3.0731
 6114SOL     OW29974   1.999   0.314   0.837  0.0467  0.0298  1.1091
 6114SOL    HW129975   1.966   0.360   0.914 -0.7972 -2.1862  2.0570
 6114SOL    HW229976   1.971   0.227   0.865  0.5674 -0.7574 -0.8502
 6115SOL     OW29977   1.112   0.933   8.980 -0.4710  0.1583 -0.9627
 6115SOL    HW129978   1.033   0.940   8.926 -1.5673  0.2788  0.6759
 6115SOL    HW229979   1.072   0.961   9.062  0.7424  0.6973 -0.5634
 6116SOL     OW29980   0.127   2.755   2.494 -0.2044  0.0250 -0.2698
 6116SOL    HW129981   0.193   2.708   2.546  2.1909  3.1640 -0.5093
 6116SOL    HW229982   0.064   2.685   2.472 -0.5737 -0.1778  1.4431
 6117SOL     OW29983   1.771   1.798   5.458 -0.1991 -1.2030  0.4671
 6117SOL    HW129984   1.807   1.790   5.546  1.5263 -3.4410 -0.4490
 6117SOL    HW229985   1.756   1.705   5.441 -1.8194 -0.6611 -1.0186
 6118SOL     OW29986   3.391   1.849   1.492 -0.5934 -0.0883  0.1878
 6118SOL    HW129987   3.392   1.763   1.534 -0.0708  0.4461  1.2824
 6118SOL    HW229988   3.332   1.896   1.551  1.1497  1.4944  0.6778
 6119SOL     OW29989   0.357   3.123   5.305 -0.5288  0.2038 -0.3036
 6119SOL    HW129990   0.389   3.042   5.346 -1.0585  0.4848  0.6764
 6119SOL    HW229991   0.440   3.170   5.301 -0.6989  0.3313 -2.2493
 6120SOL     OW29992   0.199   1.785   2.847 -0.9012 -0.3589 -0.0714
 6120SOL    HW129993   0.141   1.802   2.773 -1.0128 -2.6696 -0.5045
 6120SOL    HW229994   0.286   1.797   2.808 -0.5818  0.6140  0.9284
 6121SOL     OW29995   2.490   4.311   3.065  0.1568 -0.1577 -0.0633
 6121SOL    HW129996   2.569   4.364   3.077 -1.5640  1.6482  3.0268
 6121SOL    HW229997   2.462   4.353   2.984 -0.4323 -1.5949 -0.6129
 6122SOL     OW29998   2.127   1.560   7.423 -0.0061  0.0264  0.0600
 6122SOL    HW129999   2.172   1.575   7.340 -1.2161 -2.7121 -1.0925
 6122SOL    HW230000   2.036   1.584   7.404  0.7056  1.6152 -1.3562
 6123SOL     OW30001   2.351   0.831   6.766 -0.0020  0.1544 -0.1981
 6123SOL    HW130002   2.330   0.875   6.848 -0.9047 -2.3973  0.9659
 6123SOL    HW230003   2.283   0.868   6.711  0.0124  1.1361  0.4550
 6124SOL     OW30004   0.331   1.013   6.328  0.1459  0.1210  0.2207
 6124SOL    HW130005   0.311   1.105   6.347 -0.5405  0.2181 -0.9697
 6124SOL    HW230006   0.340   0.982   6.418 -5.3228  1.2291  1.1136
 6125SOL     OW30007   3.828   3.560   5.980  0.3217  0.1527  0.1107
 6125SOL    HW130008   3.748   3.524   6.020  0.3388  1.8444  1.6650
 6125SOL    HW230009   3.827   3.522   5.893  2.8720  0.0587  0.1429
 6126SOL     OW30010   0.995   2.441   3.429  0.2523 -0.0874  0.0834
 6126SOL    HW130011   0.981   2.348   3.411 -0.1885 -0.2930  1.4721
 6126SOL    HW230012   0.955   2.438   3.516  0.8859 -2.1173  0.2992
 6127SOL     OW30013   0.883   1.857   3.257  0.1763  0.4099  0.1403
 6127SOL    HW130014   0.957   1.841   3.315 -1.1158  1.1256  1.9721
 6127SOL    HW230015   0.916   1.814   3.178 -0.5421 -0.0983  0.1203
 6128SOL     OW30016   4.040   1.604   2.372  0.3195 -0.2079 -0.9805
 6128SOL    HW130017   3.988   1.528   2.347  2.3139 -1.9149 -0.0192
 6128SOL    HW230018   4.099   1.555   2.430 -2.1169 -0.5490  1.1987
 6129SOL     OW30019   4.196   3.648   1.832 -0.6522 -0.0000 -0.5615
 6129SOL    HW130020   4.135   3.604   1.891  0.0565  1.1966  1.0951
 6129SOL    HW230021   4.246   3.704   1.892  2.0304 -3.2368  0.2420
 6130SOL     OW30022   3.918   1.784  10.676  0.0027 -0.3265 -0.2792
 6130SOL    HW130023   3.923   1.688  10.674  0.9300 -0.2696 -0.7242
 6130SOL    HW230024   3.825   1.801  10.693 -0.2900 -2.3288  0.1683
 6131SOL     OW30025   1.628   3.844  12.984  0.8817  0.3195 -0.3969
 6131SOL    HW130026   1.582   3.928  12.984 -0.4579 -0.4020 -0.5067
 6131SOL    HW230027   1.568   3.782  12.942 -1.4144 -0.0831  3.4411
 6132SOL     OW30028   2.267   2.852   6.191 -1.0706  0.8233  0.2098
 6132SOL    HW130029   2.189   2.884   6.235 -1.1465 -0.7755  1.2614
 6132SOL    HW230030   2.228   2.818   6.110  2.5153  1.4996 -1.7942
 6133SOL     OW30031   4.709   1.850   5.226 -0.1383 -0.0984  0.3943
 6133SOL    HW130032   0.039   1.846   5.293  0.5500  0.2491 -0.2782
 6133SOL    HW230033   4.718   1.758   5.201  0.8381  0.8138 -2.6150
 6134SOL     OW30034   3.781   4.077   5.393 -0.3840 -0.0592 -0.2490
 6134SOL    HW130035   3.839   4.002   5.378  0.4483  0.2755  1.2739
 6134SOL    HW230036   3.846   4.135   5.432 -0.5647  1.2700 -1.9392
 6135SOL     OW30037   2.942   0.769   5.351  0.1796  0.3558  0.0430
 6135SOL    HW130038   3.004   0.817   5.407 -0.9101  0.6734  0.9936
 6135SOL    HW230039   2.947   0.687   5.399 -0.5225 -0.2844 -0.9886
 6136SOL     OW30040   2.388   1.788   1.182  0.1197  0.3241  0.1648
 6136SOL    HW130041   2.432   1.735   1.249  1.3759 -0.2683 -1.1247
 6136SOL    HW230042   2.341   1.846   1.241  0.6221  0.1425  0.7460
 6137SOL     OW30043   2.302   2.684  11.499  0.3171 -0.5905 -0.5969
 6137SOL    HW130044   2.374   2.693  11.437  1.1409 -1.8574  0.1880
 6137SOL    HW230045   2.342   2.683  11.586  1.3676  1.4001 -1.0334
 6138SOL     OW30046   1.424   4.165  12.421  0.0455  0.2448  0.3805
 6138SOL    HW130047   1.353   4.226  12.441 -0.2201 -0.5999  1.9967
 6138SOL    HW230048   1.385   4.104  12.358  1.9717 -2.3773  1.7253
 6139SOL     OW30049   0.563   0.111   3.423  0.0080  0.7049  0.2160
 6139SOL    HW130050   0.491   0.059   3.458 -0.9947  1.1155 -1.2192
 6139SOL    HW230051   0.576   0.056   3.346  0.8351  2.7038 -1.0656
 6140SOL     OW30052   2.429   4.626   5.249 -0.5295  0.3555  0.3481
 6140SOL    HW130053   2.431   4.690   5.320  1.0462 -0.0491  0.6505
 6140SOL    HW230054   2.489   4.666   5.187  2.5948 -2.8169  1.3487
 6141SOL     OW30055   2.622   4.319   6.063 -0.1109 -0.1854 -0.1028
 6141SOL    HW130056   2.683   4.360   6.002  0.7410 -1.6001 -0.2101
 6141SOL    HW230057   2.575   4.258   6.006 -2.1793  0.1170  1.3145
 6142SOL     OW30058   3.940   3.876   4.570  0.1689 -0.2200  0.0857
 6142SOL    HW130059   3.994   3.941   4.615  0.2210  0.6649 -1.2620
 6142SOL    HW230060   3.975   3.871   4.480 -0.4008 -0.1966 -0.1359
 6143SOL     OW30061   1.292   1.075   0.332 -0.3881 -0.3838  0.2921
 6143SOL    HW130062   1.309   1.168   0.321 -1.9741  0.0778  1.8078
 6143SOL    HW230063   1.326   1.067   0.421  0.1320 -2.3515 -0.0733
 6144SOL     OW30064   3.739   1.591  15.785 -0.1998  0.0986 -0.7149
 6144SOL    HW130065   3.723   1.572  15.693 -1.3811 -0.5252 -0.3747
 6144SOL    HW230066   3.680   1.528  15.826  0.9282 -1.7905 -1.9778
 6145SOL     OW30067   2.305   1.158   2.905 -0.2329 -0.1763 -0.0020
 6145SOL    HW130068   2.395   1.182   2.884 -0.3251 -0.4910 -0.7611
 6145SOL    HW230069   2.325   1.095   2.973 -1.5318  0.8766  1.3594
 6146SOL     OW30070   4.144   0.722   8.632  0.2670  0.2965 -0.1257
 6146SOL    HW130071   4.209   0.772   8.680  0.8685 -1.9077  1.3546
 6146SOL    HW230072   4.111   0.677   8.710  0.5473  1.1224  0.4677
 6147SOL     OW30073   3.290   2.865   5.053  0.2200 -0.0902 -0.1016
 6147SOL    HW130074   3.240   2.927   5.107 -1.0219  0.2561 -1.6506
 6147SOL    HW230075   3.300   2.911   4.970 -0.2908 -0.1057 -0.1720
 6148SOL     OW30076   0.363   0.237   8.812  0.2233  0.1558 -0.1424
 6148SOL    HW130077   0.441   0.248   8.866  1.3709 -1.4526 -1.4667
 6148SOL    HW230078   0.295   0.225   8.877 -0.0107  0.8917 -0.2536
 6149SOL     OW30079   3.540   1.238   2.196  1.0496 -0.3711  0.1806
 6149SOL    HW130080   3.589   1.161   2.226 -0.1337 -1.4127 -0.5718
 6149SOL    HW230081   3.519   1.212   2.106  0.1866 -0.4263  0.4001
 6150SOL     OW30082   0.518   2.554   7.694  0.3011  0.7046  0.2470
 6150SOL    HW130083   0.474   2.621   7.641  1.9998 -0.4166 -2.5957
 6150SOL    HW230084   0.460   2.478   7.698  2.0272 -0.6165  0.2929
 6151SOL     OW30085   1.087   0.392   6.822 -0.3292 -0.7874  0.0621
 6151SOL    HW130086   1.079   0.487   6.820 -0.7456 -0.8787 -2.3439
 6151SOL    HW230087   1.129   0.368   6.904  1.2347 -0.8660 -0.7613
 6152SOL     OW30088   3.365   2.202   0.112 -0.4525 -0.0980  0.3496
 6152SOL    HW130089   3.427   2.140   0.071  0.4475  0.9702  0.0915
 6152SOL    HW230090   3.337   2.146   0.184  0.4372 -1.8104 -0.6204
 6153SOL     OW30091   4.691   3.552   2.195 -0.4031 -0.3142 -0.7714
 6153SOL    HW130092   4.684   3.521   2.105 -0.9405  0.2548 -0.9302
 6153SOL    HW230093   0.026   3.499   2.226 -2.1207 -1.5213  1.1368
 6154SOL     OW30094   3.425   4.437   2.768 -0.4519 -0.0103  0.4625
 6154SOL    HW130095   3.343   4.431   2.819 -1.5983  0.7935 -1.2836
 6154SOL    HW230096   3.489   4.385   2.816  1.7038  0.7955 -1.5864
 6155SOL     OW30097   4.080   4.568   6.551  0.4271 -0.6212 -0.1399
 6155SOL    HW130098   4.156   4.565   6.494 -0.1283 -2.6114 -0.7595
 6155SOL    HW230099   4.105   4.500   6.613  1.4013 -0.2159 -0.0847
 6156SOL     OW30100   3.390   2.215   7.752 -0.2907 -0.5037  0.0522
 6156SOL    HW130101   3.403   2.278   7.682  0.9797  0.4607  1.1480
 6156SOL    HW230102   3.476   2.174   7.749 -1.1991 -2.4148  0.2558
 6157SOL     OW30103   2.322   3.230   3.570 -0.3835 -0.1360  0.0862
 6157SOL    HW130104   2.372   3.311   3.580  0.8266 -0.9392  0.5159
 6157SOL    HW230105   2.392   3.173   3.540 -0.4981 -1.1119  1.6688
 6158SOL     OW30106   0.473   3.405   3.312  0.5120  0.1508  0.0618
 6158SOL    HW130107   0.440   3.346   3.380 -0.7517  0.4782 -0.2707
 6158SOL    HW230108   0.547   3.446   3.356  0.2655 -0.2896  0.8778
 6159SOL     OW30109   4.316   4.476   6.386  0.5433  0.4151 -0.3484
 6159SOL    HW130110   4.299   4.393   6.432 -1.5756  0.7657 -0.5156
 6159SOL    HW230111   4.267   4.468   6.305 -2.0060  1.5286  1.0830
 6160SOL     OW30112   0.258   3.302  14.654  0.2415 -0.2559 -0.2806
 6160SOL    HW130113   0.351   3.308  14.674  0.5403  0.9891 -2.0284
 6160SOL    HW230114   0.247   3.217  14.612  1.5906  0.2058 -1.5815
 6161SOL     OW30115   3.635   0.994   7.248  0.1706  0.0447  0.0381
 6161SOL    HW130116   3.608   0.903   7.246 -2.0870  0.7166 -0.0499
 6161SOL    HW230117   3.607   1.026   7.334  1.9746  0.3731  0.5074
 6162SOL     OW30118   4.028   1.300   7.085  0.7412 -0.1446  0.1735
 6162SOL    HW130119   3.942   1.257   7.093  0.6541  0.2379  1.3038
 6162SOL    HW230120   4.021   1.365   7.155  1.8508  0.6359 -0.4545
 6163SOL     OW30121   1.230   1.977   0.011  0.1567  0.2534 -0.5056
 6163SOL    HW130122   1.284   2.056   0.017  0.5752 -0.1627  1.0692
 6163SOL    HW230123   1.296   1.909  17.748  1.6277  1.9532 -2.1295
 6164SOL     OW30124   1.772   0.346  15.392 -0.1833 -0.2531  0.5264
 6164SOL    HW130125   1.707   0.303  15.449 -0.1433  1.7673  2.0871
 6164SOL    HW230126   1.832   0.283  15.352  0.4435 -0.6230  2.0372
 6165SOL     OW30127   2.411   1.580   6.918 -0.3078 -0.0899 -0.1921
 6165SOL    HW130128   2.336   1.558   6.864 -0.5242 -1.7443  0.7618
 6165SOL    HW230129   2.454   1.644   6.862  0.2617  0.4691  0.8665
 6166SOL     OW30130   0.332   0.586   5.315 -0.9531 -0.2214  0.0730
 6166SOL    HW130131   0.370   0.628   5.391 -1.3785  0.1584  0.0742
 6166SOL    HW230132   0.247   0.626   5.299 -1.4861 -0.8830  1.2760
 6167SOL     OW30133   0.673   4.055  14.227  0.0023  0.8311  0.2894
 6167SOL    HW130134   0.730   3.993  14.180  1.5457  0.9955  1.9584
 6167SOL    HW230135   0.606   3.992  14.253  0.7628 -0.6309 -1.2837
 6168SOL     OW30136   2.313   4.299   2.484  0.0923 -0.2396 -0.3980
 6168SOL    HW130137   2.381   4.284   2.418 -1.0657 -1.1308 -1.3815
 6168SOL    HW230138   2.249   4.240   2.444  1.0223 -0.2104 -1.9439
 6169SOL     OW30139   0.255   1.601   8.346 -0.6904  0.1569 -0.1904
 6169SOL    HW130140   0.247   1.626   8.254 -0.3933  1.9761  0.2799
 6169SOL    HW230141   0.339   1.640   8.371 -1.6693  0.7076  2.1670
 6170SOL     OW30142   1.123   3.772   6.043  0.2690 -0.1440  0.7662
 6170SOL    HW130143   1.044   3.814   6.077 -0.3655  0.9166 -1.9704
 6170SOL    HW230144   1.133   3.704   6.109 -0.5541  1.1452  2.2329
 6171SOL     OW30145   2.825   2.268   4.725  0.4988 -0.2957 -0.1123
 6171SOL    HW130146   2.785   2.294   4.642  2.1361 -1.8937 -1.4137
 6171SOL    HW230147   2.757   2.217   4.770 -0.1081 -0.1214 -0.8204
 6172SOL     OW30148   3.692   3.075  11.701 -0.4454 -0.3518  0.1468
 6172SOL    HW130149   3.729   3.140  11.641 -1.0781  0.1543  0.3066
 6172SOL    HW230150   3.756   3.005  11.689 -0.9924 -0.7467 -0.4929
 6173SOL     OW30151   0.620   3.941   1.512  0.3564 -0.9848 -0.2199
 6173SOL    HW130152   0.579   4.022   1.541 -0.7584 -0.6593 -2.6303
 6173SOL    HW230153   0.671   3.939   1.592  1.3628  0.7100 -0.8347
 6174SOL     OW30154   2.873   1.823  16.734  0.8110  0.7878  0.0208
 6174SOL    HW130155   2.821   1.861  16.663  0.4792 -1.9672 -1.2080
 6174SOL    HW230156   2.845   1.876  16.809 -1.9518  1.5590 -1.5389
 6175SOL     OW30157   2.417   0.962   6.471  0.0308 -0.1652 -1.1254
 6175SOL    HW130158   2.465   1.044   6.464  0.4817 -0.1423  2.7158
 6175SOL    HW230159   2.482   0.893   6.454  0.0561 -0.1190 -1.2176
 6176SOL     OW30160   2.212   3.795   0.875  0.8273 -0.3344 -0.3387
 6176SOL    HW130161   2.187   3.769   0.964  0.5558  1.8946  0.2580
 6176SOL    HW230162   2.194   3.889   0.877  0.6439 -0.3701 -0.3058
 6177SOL     OW30163   4.120   2.673   6.221 -0.1508  0.0559 -0.2616
 6177SOL    HW130164   4.045   2.731   6.237 -0.5969 -0.7493  0.5868
 6177SOL    HW230165   4.171   2.678   6.301  0.9114  2.5034 -1.0859
 6178SOL     OW30166   0.911   2.795   5.326 -0.0304 -0.3772 -0.0658
 6178SOL    HW130167   0.943   2.725   5.382  0.3144 -0.8423 -0.8503
 6178SOL    HW230168   0.880   2.748   5.249 -0.5608  0.9745 -0.6655
 6179SOL     OW30169   3.738   3.119   5.706 -0.2384  0.2943  0.0160
 6179SOL    HW130170   3.698   3.043   5.748  0.0297  0.6267  0.8685
 6179SOL    HW230171   3.665   3.143   5.649 -1.4543 -0.4540  1.2722
 6180SOL     OW30172   1.173   0.430  16.971 -0.2495 -0.2968  0.0297
 6180SOL    HW130173   1.268   0.419  16.980 -0.3673 -0.3746  1.1957
 6180SOL    HW230174   1.151   0.492  17.041  0.6215  0.8550 -0.7405
 6181SOL     OW30175   1.124   3.359  16.968  0.2182 -0.6739  0.0162
 6181SOL    HW130176   1.072   3.439  16.963  0.4663 -0.6520 -2.3211
 6181SOL    HW230177   1.066   3.293  16.932 -0.7411  1.1216 -1.7072
 6182SOL     OW30178   1.605   2.727   2.095  0.3548 -0.2032 -0.4975
 6182SOL    HW130179   1.562   2.720   2.180 -1.9272  0.3826 -1.6165
 6182SOL    HW230180   1.616   2.822   2.092 -0.3501 -0.1513 -1.4373
 6183SOL     OW30181   0.050   4.698   6.315 -0.3947  0.4217  0.1126
 6183SOL    HW130182   0.009   4.624   6.361 -0.2317  2.7161  3.9698
 6183SOL    HW230183   4.712   0.019   6.323 -1.5439 -1.4855  3.2895
 6184SOL     OW30184   3.811   1.961   5.312  0.0009  0.1133  0.3188
 6184SOL    HW130185   3.734   2.015   5.297 -0.6796 -0.5719  1.3242
 6184SOL    HW230186   3.804   1.890   5.248 -1.2020 -0.5103  1.1433
 6185SOL     OW30187   2.352   0.026  15.822 -0.4156  0.0798 -0.3454
 6185SOL    HW130188   2.414   4.692  15.838 -0.0429  0.7327  1.0833
 6185SOL    HW230189   2.272   4.716  15.844  0.5231 -0.6928  1.4558
 6186SOL     OW30190   2.219   4.525   8.297 -0.4468 -0.2714  0.0838
 6186SOL    HW130191   2.167   4.570   8.230 -0.4357  0.7736  0.7786
 6186SOL    HW230192   2.259   4.599   8.341 -1.0925 -0.7137  1.4349
 6187SOL     OW30193   2.909   2.570   1.789  0.8721 -0.3196 -0.6367
 6187SOL    HW130194   2.962   2.491   1.797  1.3729 -0.0119 -0.9153
 6187SOL    HW230195   2.945   2.597   1.705 -0.7691 -1.8936 -1.8327
 6188SOL     OW30196   4.123   3.251   7.403 -0.2166  0.0384 -0.3462
 6188SOL    HW130197   4.046   3.197   7.421  1.2017 -1.7613  0.3625
 6188SOL    HW230198   4.192   3.185   7.410 -1.5185 -1.4672 -1.4918
 6189SOL     OW30199   3.618   1.148   3.877  0.0439 -0.0119 -0.1554
 6189SOL    HW130200   3.584   1.185   3.795  2.0033 -0.5841 -1.2244
 6189SOL    HW230201   3.553   1.185   3.937  0.4558  0.2728  0.1154
 6190SOL     OW30202   3.067   2.924   1.497 -0.0142  0.0277  0.3039
 6190SOL    HW130203   3.071   2.895   1.405 -2.3943 -2.7660  1.0899
 6190SOL    HW230204   3.151   2.895   1.531 -0.1486 -1.6914 -0.8272
 6191SOL     OW30205   2.984   2.552   7.725 -0.2129  0.1574 -0.0128
 6191SOL    HW130206   3.022   2.595   7.650 -0.5159 -1.2411 -0.9763
 6191SOL    HW230207   2.896   2.529   7.695  0.0698 -2.0141  0.8151
 6192SOL     OW30208   2.315   0.142   4.192  0.4700  0.5736 -0.2342
 6192SOL    HW130209   2.280   0.053   4.204 -0.4038  0.8173 -0.9273
 6192SOL    HW230210   2.359   0.127   4.108 -1.4645  3.7420 -1.8232
 6193SOL     OW30211   2.833   3.507   7.456  0.5848 -0.1498  0.2999
 6193SOL    HW130212   2.886   3.519   7.534  1.6657  1.1681 -0.6271
 6193SOL    HW230213   2.745   3.485   7.486  0.4503  1.1193  0.8131
 6194SOL     OW30214   0.178   1.470   8.967 -0.4234 -0.6184  0.0483
 6194SOL    HW130215   0.119   1.487   9.040 -0.1338  0.1924  0.0811
 6194SOL    HW230216   0.121   1.488   8.892 -1.2825  0.5837  0.9983
 6195SOL     OW30217   2.195   2.108   7.396  0.5768 -0.2226 -0.1817
 6195SOL    HW130218   2.101   2.108   7.418  0.3854 -0.5422 -1.0182
 6195SOL    HW230219   2.216   2.038   7.458 -1.1191  2.2060  3.1799
 6196SOL     OW30220   4.031   3.578   6.875  0.2156  0.7139  0.5332
 6196SOL    HW130221   3.965   3.548   6.938 -0.2227  0.8848  0.1594
 6196SOL    HW230222   3.994   3.527   6.803 -0.2738 -0.4978  1.6398
 6197SOL     OW30223   3.254   1.282  15.996 -0.1719 -0.0798  0.2195
 6197SOL    HW130224   3.226   1.201  15.954 -1.4868  0.4327  0.1113
 6197SOL    HW230225   3.185   1.333  15.953  1.3438  0.7377 -1.2319
 6198SOL     OW30226   1.091   2.015  11.196  0.1098  0.1459  0.6362
 6198SOL    HW130227   1.112   2.093  11.144  0.0028 -0.4046 -0.2274
 6198SOL    HW230228   1.113   2.056  11.279  1.1927  0.1147  0.3626
 6199SOL     OW30229   0.067   2.465   2.286 -0.3717 -0.4603 -0.2246
 6199SOL    HW130230   0.083   2.516   2.206  1.6480 -0.7379  0.0168
 6199SOL    HW230231   0.008   2.397   2.254 -1.9663  0.3604  0.9650
 6200SOL     OW30232   2.241   0.305   8.081 -0.2186  0.0302  0.0582
 6200SOL    HW130233   2.331   0.304   8.114 -0.1622  0.9614 -0.0635
 6200SOL    HW230234   2.184   0.298   8.157 -0.0980  0.8885  0.2267
 6201SOL     OW30235   0.458   0.094   4.611 -0.1757  0.1211 -0.2027
 6201SOL    HW130236   0.531   0.102   4.549  0.0197  0.6508  0.0930
 6201SOL    HW230237   0.491   0.145   4.685  0.3057 -0.8052  0.2120
 6202SOL     OW30238   3.391   0.936   3.873  0.4401 -0.2809 -0.1737
 6202SOL    HW130239   3.403   0.962   3.782  2.3169  1.5196  0.5653
 6202SOL    HW230240   3.388   1.026   3.908 -0.2664 -0.5442  0.4298
 6203SOL     OW30241   2.722   2.765   7.306 -0.0109 -0.0160 -0.5091
 6203SOL    HW130242   2.741   2.859   7.309 -0.9377  0.1949 -1.3685
 6203SOL    HW230243   2.629   2.772   7.287  0.5648 -1.6087 -3.9964
 6204SOL     OW30244   1.366   0.244   2.219  0.3290 -0.7744  0.1255
 6204SOL    HW130245   1.344   0.151   2.213 -0.3872 -0.5524 -0.6349
 6204SOL    HW230246   1.283   0.277   2.254 -0.1744 -1.2423 -0.6303
 6205SOL     OW30247   4.550   1.657   6.795 -0.2018  0.0929 -0.2147
 6205SOL    HW130248   4.591   1.621   6.873  2.2784  0.0581 -1.5526
 6205SOL    HW230249   4.622   1.694   6.745 -0.3385  2.7277  1.5153
 6206SOL     OW30250   3.137   1.970  14.096  0.0480  0.2873 -0.2220
 6206SOL    HW130251   3.110   1.879  14.081 -2.2763  0.9852 -0.1790
 6206SOL    HW230252   3.186   1.997  14.018 -0.5663 -0.7078 -0.9628
 6207SOL     OW30253   4.066   2.767  10.932 -0.0307 -0.0457 -0.3866
 6207SOL    HW130254   3.989   2.729  10.891  0.8024 -1.4951 -0.6293
 6207SOL    HW230255   4.131   2.755  10.863  0.7784 -1.3269  0.5813
 6208SOL     OW30256   4.159   3.123   8.487  0.2872 -0.3740  0.1619
 6208SOL    HW130257   4.177   3.207   8.529 -0.3975  0.8231 -1.9938
 6208SOL    HW230258   4.125   3.079   8.566  0.2036  1.2355  1.0199
 6209SOL     OW30259   1.414   2.898   9.035 -0.2328 -0.1000  0.4528
 6209SOL    HW130260   1.487   2.854   8.993 -1.6475 -1.6866 -0.3134
 6209SOL    HW230261   1.400   2.970   8.974  2.5782  1.8390  2.0705
 6210SOL     OW30262   3.565   0.612   6.056 -0.2840 -0.3173 -0.1287
 6210SOL    HW130263   3.657   0.625   6.035 -0.0039  1.7565  2.3983
 6210SOL    HW230264   3.521   0.601   5.972 -0.0686  1.5047 -0.4875
 6211SOL     OW30265   1.121   2.940   9.279  0.3214 -0.1789 -0.3645
 6211SOL    HW130266   1.180   2.901   9.344 -2.1665 -2.7985  0.3483
 6211SOL    HW230267   1.038   2.929   9.326  1.5952 -1.9674  1.4889
 6212SOL     OW30268   4.397   2.212   7.112 -0.3508 -0.2355 -0.0124
 6212SOL    HW130269   4.381   2.262   7.192 -0.4066  1.0189 -0.8020
 6212SOL    HW230270   4.379   2.281   7.048  3.0019  0.9113  0.3031
 6213SOL     OW30271   2.536   2.381   5.565  0.0624 -0.0481 -0.0961
 6213SOL    HW130272   2.546   2.361   5.658 -1.0733  0.8091  0.2055
 6213SOL    HW230273   2.502   2.470   5.573  0.1877  0.2190 -2.5571
 6214SOL     OW30274   3.315   2.270   9.376 -0.3711 -0.1879  0.4428
 6214SOL    HW130275   3.277   2.358   9.374 -1.0616 -0.6014 -4.0417
 6214SOL    HW230276   3.368   2.279   9.296  1.6419  1.2704  1.9113
 6215SOL     OW30277   2.487   3.966   3.474 -0.1926  0.1879 -0.0324
 6215SOL    HW130278   2.537   3.889   3.447  1.3287  2.2880 -3.2410
 6215SOL    HW230279   2.483   4.008   3.388  0.3392  1.6940  0.6831
 6216SOL     OW30280   2.978   0.695  16.112  0.5677  0.0983  0.1286
 6216SOL    HW130281   2.919   0.699  16.036  0.2378 -1.8016  0.2969
 6216SOL    HW230282   3.031   0.774  16.102  0.4648  0.2758  1.0011
 6217SOL     OW30283   3.400   0.881   4.148 -0.0252  0.5788 -0.4326
 6217SOL    HW130284   3.427   0.905   4.059  1.4853 -2.5490 -0.8297
 6217SOL    HW230285   3.352   0.801   4.130  0.1766  0.5301 -0.7603
 6218SOL     OW30286   2.697   1.895  11.708 -0.4311 -0.1282 -0.3795
 6218SOL    HW130287   2.636   1.826  11.733 -0.2851  0.1201  0.6899
 6218SOL    HW230288   2.656   1.977  11.737  0.4454  0.0146  0.4799
 6219SOL     OW30289   3.357   2.910  10.967 -0.0559  1.0669 -0.2814
 6219SOL    HW130290   3.384   2.856  10.893  0.8746 -0.6521  1.3229
 6219SOL    HW230291   3.263   2.913  10.950 -0.1306 -0.9181 -0.2177
 6220SOL     OW30292   0.565   1.392   3.162 -0.0221 -0.0749 -0.1091
 6220SOL    HW130293   0.625   1.317   3.159  0.2284  0.1306 -0.2248
 6220SOL    HW230294   0.511   1.364   3.087 -0.1332  4.4871 -1.7191
 6221SOL     OW30295   0.519   4.175   1.600  0.0912 -0.4627 -1.0770
 6221SOL    HW130296   0.427   4.200   1.596  0.4119  0.5636 -2.1462
 6221SOL    HW230297   0.552   4.262   1.576 -1.8392  0.9879  1.5422
 6222SOL     OW30298   0.466   2.956  10.840 -0.4691  0.4555 -0.3217
 6222SOL    HW130299   0.538   2.974  10.901  1.0492 -1.9001 -1.4204
 6222SOL    HW230300   0.404   2.922  10.904  0.8499  0.1856  0.8264
 6223SOL     OW30301   2.977   0.139   6.172 -0.3818  0.4504  0.2426
 6223SOL    HW130302   2.995   0.142   6.266  3.4076  0.9207 -0.5116
 6223SOL    HW230303   3.057   0.173   6.133  0.3470 -0.2263  1.1523
 6224SOL     OW30304   1.213   1.606  14.866  0.4600 -0.5974  0.6089
 6224SOL    HW130305   1.258   1.630  14.947 -1.1607 -0.4507  1.4633
 6224SOL    HW230306   1.227   1.685  14.813 -1.1207  0.1267  1.2954
 6225SOL     OW30307   1.053   1.079   7.346  0.2976  0.1375  0.2903
 6225SOL    HW130308   0.998   1.154   7.324 -2.3266 -1.8053  0.2352
 6225SOL    HW230309   1.136   1.125   7.331  0.5184  0.0027  1.1154
 6226SOL     OW30310   3.023   4.332   6.214  0.4109  0.0208  0.6639
 6226SOL    HW130311   2.973   4.352   6.135  1.2881 -0.4661 -0.0088
 6226SOL    HW230312   2.949   4.294   6.261 -1.4377  0.0614 -2.2487
 6227SOL     OW30313   0.811   3.576   8.153 -0.3001  0.4372 -0.5585
 6227SOL    HW130314   0.845   3.642   8.213  3.2487 -0.4956 -1.5535
 6227SOL    HW230315   0.886   3.534   8.113  0.8440  0.0504  1.9989
 6228SOL     OW30316   4.563   3.809  15.907 -0.2118 -0.6157  0.1124
 6228SOL    HW130317   4.602   3.791  15.993  1.2139 -1.3923 -0.6888
 6228SOL    HW230318   4.580   3.903  15.902 -0.6915 -0.5131  0.3740
 6229SOL     OW30319   1.876   1.240   2.420  0.2310  0.0401  0.0560
 6229SOL    HW130320   1.899   1.306   2.355  0.3999 -1.9867 -1.9435
 6229SOL    HW230321   1.963   1.209   2.446  0.2634  1.4768  1.6146
 6230SOL     OW30322   1.826   1.772   6.951  0.1326  0.0896 -0.2964
 6230SOL    HW130323   1.852   1.828   7.025  0.9507  1.4694 -1.6168
 6230SOL    HW230324   1.732   1.789   6.941  0.5856  1.0606 -2.9775
 6231SOL     OW30325   3.802   3.845   0.789 -0.0049 -0.0890  0.4007
 6231SOL    HW130326   3.789   3.876   0.699  2.0084  0.5691  0.3316
 6231SOL    HW230327   3.711   3.851   0.820  0.4664 -1.6751  2.0524
 6232SOL     OW30328   1.186   2.491   8.942 -0.0929  0.0013  0.0125
 6232SOL    HW130329   1.157   2.577   8.972 -4.3880 -1.2365 -0.6256
 6232SOL    HW230330   1.204   2.515   8.851  0.3176 -1.9216 -0.4211
 6233SOL     OW30331   0.675   3.253   4.742  0.3770  0.8496  0.3793
 6233SOL    HW130332   0.679   3.164   4.707 -2.2446  0.9278 -0.1153
 6233SOL    HW230333   0.627   3.243   4.824  0.8841  2.0735  0.8174
 6234SOL     OW30334   1.420   3.905  13.899 -0.5564  0.3219 -0.2467
 6234SOL    HW130335   1.478   3.946  13.835  0.1432  0.0347  0.2130
 6234SOL    HW230336   1.473   3.890  13.977 -0.5253  2.5628  0.1722
 6235SOL     OW30337   4.121   0.522  14.581  0.6194 -0.1061  0.2230
 6235SOL    HW130338   4.134   0.563  14.666  2.1375 -0.6659  0.2592
 6235SOL    HW230339   4.079   0.595  14.536  0.5798  0.1998  0.7653
 6236SOL     OW30340   3.806   2.956   2.097 -0.1582  0.3644  0.0090
 6236SOL    HW130341   3.841   2.936   2.184  1.9952  0.3904 -0.8494
 6236SOL    HW230342   3.855   2.902   2.035  1.0638 -0.8195  1.9813
 6237SOL     OW30343   3.203   0.843   2.028 -0.0277 -0.0621  0.0550
 6237SOL    HW130344   3.137   0.780   2.056  1.2659 -1.0880  0.7733
 6237SOL    HW230345   3.175   0.921   2.076 -2.2590 -0.3180 -0.8074
 6238SOL     OW30346   3.829   0.615   7.436  0.0613  0.3017 -0.1175
 6238SOL    HW130347   3.887   0.568   7.497  0.0753  0.3295 -0.1096
 6238SOL    HW230348   3.764   0.651   7.496 -1.1477 -1.5524 -0.3108
 6239SOL     OW30349   0.776   0.398   6.343  0.0329 -0.7509  0.1323
 6239SOL    HW130350   0.683   0.418   6.351  0.3069  0.3028  0.7048
 6239SOL    HW230351   0.823   0.475   6.311  2.2836 -2.4138 -0.5185
 6240SOL     OW30352   0.134   4.533   2.687 -0.2369 -0.0028  0.0358
 6240SOL    HW130353   0.046   4.496   2.690  0.0132 -0.7060 -1.1061
 6240SOL    HW230354   0.174   4.503   2.606  1.9201  1.5212  0.5512
 6241SOL     OW30355   1.341   0.717  10.175  0.0246  0.4275  0.1569
 6241SOL    HW130356   1.320   0.718  10.268 -1.0580 -3.1763 -0.0658
 6241SOL    HW230357   1.420   0.772  10.175 -0.2674  0.8501  0.0392
 6242SOL     OW30358   3.138   4.531  12.012  0.7350 -0.1350 -0.1331
 6242SOL    HW130359   3.142   4.552  11.918 -1.0784 -1.2844 -0.4543
 6242SOL    HW230360   3.044   4.541  12.029  1.0083 -2.5262  2.7190
 6243SOL     OW30361   4.022   4.642  14.312 -0.0824 -0.1868 -0.2802
 6243SOL    HW130362   3.959   4.635  14.383 -0.9667 -0.7933 -1.1248
 6243SOL    HW230363   3.956   4.643  14.243 -1.1638 -0.1315  0.7523
 6244SOL     OW30364   1.565   3.158   5.367 -0.5175 -0.1102  0.3039
 6244SOL    HW130365   1.555   3.067   5.393  1.4849 -0.3820  0.1009
 6244SOL    HW230366   1.484   3.204   5.391 -2.3393 -2.0998 -2.1203
 6245SOL     OW30367   2.972   0.491   3.061 -0.3907 -0.1756 -0.6557
 6245SOL    HW130368   2.898   0.541   3.026 -2.2336 -1.6964  1.0346
 6245SOL    HW230369   2.999   0.436   2.988  1.3434 -0.8578  0.4934
 6246SOL     OW30370   1.135   0.633   8.484  0.0528  0.6131 -0.0177
 6246SOL    HW130371   1.126   0.688   8.562 -2.1180 -1.5047  1.2052
 6246SOL    HW230372   1.050   0.652   8.445  0.5181 -0.6104 -1.6412
 6247SOL     OW30373   2.886   0.493  16.493  0.2139  0.3674 -0.2048
 6247SOL    HW130374   2.967   0.499  16.544  0.1157  0.0724 -0.0118
 6247SOL    HW230375   2.813   0.499  16.555  1.0932  0.2765  0.8284
 6248SOL     OW30376   1.531   4.556  14.357 -0.5450 -0.0994  0.4668
 6248SOL    HW130377   1.443   4.534  14.388 -1.5905  3.5523  0.1677
 6248SOL    HW230378   1.534   4.650  14.374 -0.3573  0.0761 -0.5604
 6249SOL     OW30379   2.588   0.972   3.798 -0.1770  0.2166 -0.3487
 6249SOL    HW130380   2.661   0.976   3.859  0.0403 -0.3339 -0.5779
 6249SOL    HW230381   2.539   1.046   3.836  0.8956  0.3390  0.7867
 6250SOL     OW30382   0.223   3.220   6.904  0.2214  0.3544  0.2770
 6250SOL    HW130383   0.303   3.272   6.898 -0.5495  1.3705 -1.1463
 6250SOL    HW230384   0.239   3.174   6.986  0.9635  4.3987  2.4353
 6251SOL     OW30385   0.722   4.476   4.472  0.1796  0.4576 -0.4019
 6251SOL    HW130386   0.723   4.470   4.568 -1.7516  0.3894 -0.3735
 6251SOL    HW230387   0.806   4.433   4.459  0.8664  0.6594  3.2795
 6252SOL     OW30388   0.534   2.013   7.207  0.2262  0.0297  0.7355
 6252SOL    HW130389   0.449   1.989   7.244  0.1536  0.3563  0.7795
 6252SOL    HW230390   0.509   2.066   7.131  1.7497 -0.7361 -0.2962
 6253SOL     OW30391   4.530   3.978   7.370 -0.3485 -0.1217  0.2826
 6253SOL    HW130392   4.484   3.994   7.288  0.2603 -2.5886 -0.5405
 6253SOL    HW230393   4.619   3.982   7.335 -0.8360  0.7235 -0.8455
 6254SOL     OW30394   0.965   4.249   5.549  0.1651  0.6435  0.3374
 6254SOL    HW130395   0.943   4.297   5.629 -1.4566 -0.6573  0.6566
 6254SOL    HW230396   0.918   4.168   5.570  0.7874 -0.0384 -0.9002
 6255SOL     OW30397   3.151   1.528  11.376  0.3748 -0.7217  0.1876
 6255SOL    HW130398   3.118   1.543  11.465 -1.1369 -2.8679 -0.0003
 6255SOL    HW230399   3.237   1.569  11.377 -0.9681  2.0508 -0.4842
 6256SOL     OW30400   4.662   4.511   9.409  0.0009  0.2560 -0.5125
 6256SOL    HW130401   4.706   4.426   9.412 -0.6574 -0.2068 -3.4047
 6256SOL    HW230402   4.604   4.496   9.334 -1.2987 -0.6167  0.6769
 6257SOL     OW30403   1.512   4.392   5.329  0.2027 -0.5677  0.2654
 6257SOL    HW130404   1.449   4.347   5.386  0.2092 -0.8898  0.0232
 6257SOL    HW230405   1.595   4.366   5.369 -0.1144 -0.6756  0.8499
 6258SOL     OW30406   1.499   0.690   2.733  0.2784 -0.5529  0.3494
 6258SOL    HW130407   1.569   0.745   2.767 -1.3242  1.1726  0.8216
 6258SOL    HW230408   1.512   0.709   2.640  1.5462  0.5615  0.7461
 6259SOL     OW30409   3.750   0.595   4.013  0.0250  0.1819 -0.1959
 6259SOL    HW130410   3.785   0.549   3.936 -1.6181  0.4537 -1.0912
 6259SOL    HW230411   3.667   0.620   3.972 -0.5093 -0.8122  0.2935
 6260SOL     OW30412   4.382   2.947  16.844 -0.1722 -0.1647 -0.4638
 6260SOL    HW130413   4.470   2.982  16.833 -0.7206  1.7343  1.2082
 6260SOL    HW230414   4.314   3.013  16.835 -2.5324 -2.4139  0.9442
 6261SOL     OW30415   2.898   0.846  10.177 -0.0681  0.4268  0.2889
 6261SOL    HW130416   2.802   0.851  10.182 -0.1650 -1.6728  0.5702
 6261SOL    HW230417   2.914   0.840  10.083  1.0584  1.4086  0.4179
 6262SOL     OW30418   3.585   0.194   8.574 -0.4151 -0.0677  0.1338
 6262SOL    HW130419   3.526   0.245   8.629 -1.8483 -0.2485 -1.2317
 6262SOL    HW230420   3.663   0.245   8.593 -0.0088 -0.3166 -0.8884
 6263SOL     OW30421   2.829   4.680   2.512  0.0484 -0.5179  0.1379
 6263SOL    HW130422   2.889   4.648   2.445 -0.3408 -0.0914 -0.4039
 6263SOL    HW230423   2.756   4.623   2.487  0.3985  0.9170 -4.1340
 6264SOL     OW30424   1.011   0.160  15.554  0.5336 -0.1530  0.2208
 6264SOL    HW130425   1.016   0.185  15.462  0.1212 -0.9254 -0.0084
 6264SOL    HW230426   0.926   0.117  15.559  0.6588 -0.1730  2.1027
 6265SOL     OW30427   4.294   3.058   7.513  0.3974  0.6168  0.2925
 6265SOL    HW130428   4.277   2.995   7.584 -1.2786  1.4216  0.5911
 6265SOL    HW230429   4.380   3.090   7.540  0.3620  1.4834 -0.6478
 6266SOL     OW30430   1.272   2.330   5.172 -0.2290  0.2744  0.1429
 6266SOL    HW130431   1.264   2.390   5.247  0.1028  0.9349 -0.3494
 6266SOL    HW230432   1.215   2.366   5.103 -0.1392  0.1943  0.0275
 6267SOL     OW30433   1.811   3.971   9.614  0.4186  0.1687  0.1284
 6267SOL    HW130434   1.741   3.931   9.665  1.0508  2.4309  2.7953
 6267SOL    HW230435   1.799   4.065   9.628  1.3667  0.5890 -1.9026
 6268SOL     OW30436   2.640   4.141  14.310  0.2644  0.4755  0.0181
 6268SOL    HW130437   2.687   4.100  14.382 -1.0363 -1.6154 -0.3267
 6268SOL    HW230438   2.612   4.066  14.257  0.0923 -1.3612  2.7425
 6269SOL     OW30439   4.342   1.214   6.158  0.0290 -0.2345 -0.1040
 6269SOL    HW130440   4.338   1.137   6.102  1.4245 -0.6155  0.3173
 6269SOL    HW230441   4.252   1.247   6.151 -0.1738 -0.0225  3.2942
 6270SOL     OW30442   0.395   1.640  15.143 -0.1291 -0.1957  0.1187
 6270SOL    HW130443   0.343   1.628  15.223 -2.3028  0.5062 -1.1800
 6270SOL    HW230444   0.325   1.655  15.079 -0.9993 -2.9003  0.4512
 6271SOL     OW30445   2.023   2.395   8.535 -0.4547 -0.0183 -0.3345
 6271SOL    HW130446   2.058   2.468   8.586  1.7736 -1.2268 -0.0964
 6271SOL    HW230447   1.965   2.348   8.595  2.4628 -0.0464  2.4855
 6272SOL     OW30448   1.686   3.983  17.623 -0.1082 -0.0484 -0.0772
 6272SOL    HW130449   1.591   3.996  17.629 -0.0863  0.8617 -1.7674
 6272SOL    HW230450   1.700   4.013  17.534 -1.4645  2.6300  0.6084
 6273SOL     OW30451   1.656   3.240   7.663  0.8592 -0.0873 -0.3542
 6273SOL    HW130452   1.630   3.238   7.755  2.9317  1.0273  0.2609
 6273SOL    HW230453   1.671   3.147   7.647 -2.1110 -0.2567 -2.1072
 6274SOL     OW30454   0.683   4.538   5.421  0.3673 -0.2610 -0.2791
 6274SOL    HW130455   0.633   4.456   5.423 -1.1991  0.7532  2.8734
 6274SOL    HW230456   0.636   4.598   5.364  2.2193  1.6558  0.2185
 6275SOL     OW30457   4.517   4.257  10.800  0.0734  0.2467  0.0009
 6275SOL    HW130458   4.543   4.239  10.709 -3.1369 -0.3407 -0.7924
 6275SOL    HW230459   4.435   4.208  10.798 -0.4385  1.0007  2.6595
 6276SOL     OW30460   0.648   4.315   5.743 -0.3410 -0.5092  0.4916
 6276SOL    HW130461   0.589   4.313   5.818 -1.1129  2.0613 -0.0343
 6276SOL    HW230462   0.732   4.291   5.781 -0.3147  1.1899  1.5017
 6277SOL     OW30463   1.079   2.752   7.270 -0.5370 -0.2293 -0.1534
 6277SOL    HW130464   1.129   2.791   7.342  2.6348  0.5312 -2.7581
 6277SOL    HW230465   0.987   2.769   7.286 -0.1534  3.4334 -1.8834
 6278SOL     OW30466   4.345   3.252   1.086 -0.3526 -0.0392 -0.0579
 6278SOL    HW130467   4.251   3.235   1.085 -0.2729 -0.4205 -2.8676
 6278SOL    HW230468   4.358   3.226   0.995 -1.6644  2.3008 -0.9220
 6279SOL     OW30469   2.051   3.849   9.216 -0.4081 -0.1831  0.3780
 6279SOL    HW130470   2.005   3.769   9.239  1.5741 -0.9134  1.8623
 6279SOL    HW230471   2.019   3.913   9.279 -0.1152  0.9735 -0.6477
 6280SOL     OW30472   2.300   3.197   3.855 -0.0816 -0.2595  0.6871
 6280SOL    HW130473   2.208   3.203   3.882 -0.6787 -0.0865 -1.4060
 6280SOL    HW230474   2.286   3.191   3.761 -0.0572 -0.4055  0.6927
 6281SOL     OW30475   2.688   4.110   8.078  0.5517  0.3648  0.2937
 6281SOL    HW130476   2.607   4.133   8.032 -0.4238  1.2069  2.4343
 6281SOL    HW230477   2.648   4.059   8.149  0.1866  2.4813  1.6041
 6282SOL     OW30478   4.234   3.022   4.970  0.3324  0.2541  0.8582
 6282SOL    HW130479   4.299   3.065   4.914  0.3027 -1.5339 -0.5421
 6282SOL    HW230480   4.152   3.052   4.931  0.5599 -0.7515 -0.3879
 6283SOL     OW30481   2.124   4.116   7.822  0.0576  0.1125  0.2395
 6283SOL    HW130482   2.132   4.054   7.894  1.1785 -0.2549 -0.2035
 6283SOL    HW230483   2.054   4.075   7.773 -0.7080  1.4295  0.2434
 6284SOL     OW30484   1.720   1.601   2.028 -0.7473 -0.6124  0.1348
 6284SOL    HW130485   1.739   1.598   1.934  0.4761  2.0514  0.2915
 6284SOL    HW230486   1.732   1.695   2.041  0.5666 -0.5902 -1.2924
 6285SOL     OW30487   0.015   1.402   1.188 -0.5949 -0.2364  0.0051
 6285SOL    HW130488   0.108   1.395   1.166  0.1951  0.6926  3.0244
 6285SOL    HW230489   4.736   1.486   1.147 -0.6458  0.7032  1.9554
 6286SOL     OW30490   4.419   4.451  17.524  0.5071  0.4954  0.1424
 6286SOL    HW130491   4.421   4.474  17.431 -1.0401 -0.1015 -0.0380
 6286SOL    HW230492   4.509   4.458  17.555  0.3548 -2.4250  1.2361
 6287SOL     OW30493   2.334   2.845   4.309  0.0652 -0.4909  0.5549
 6287SOL    HW130494   2.338   2.806   4.222  1.2605  0.5075  0.1652
 6287SOL    HW230495   2.282   2.923   4.292  0.3991 -0.3551  0.1431
 6288SOL     OW30496   3.112   0.485   3.774  0.2085  0.3738 -0.0567
 6288SOL    HW130497   3.203   0.499   3.801  0.2771  1.4220 -0.8156
 6288SOL    HW230498   3.097   0.391   3.775 -1.5198  0.6600  0.1718
 6289SOL     OW30499   0.892   0.976   4.467  0.0542 -0.0561  0.0977
 6289SOL    HW130500   0.815   0.921   4.481  1.4014 -2.3208 -1.4224
 6289SOL    HW230501   0.856   1.064   4.477 -0.2395 -0.3188  1.4144
 6290SOL     OW30502   3.648   2.505   1.338 -0.1089  0.2785 -0.3836
 6290SOL    HW130503   3.555   2.480   1.336  0.5376 -2.3634  2.0437
 6290SOL    HW230504   3.693   2.420   1.339 -2.0368 -0.7622 -0.7912
 6291SOL     OW30505   1.366   3.797   5.433  0.1898 -0.1525  0.1154
 6291SOL    HW130506   1.310   3.834   5.500  1.6173  1.5691  0.3788
 6291SOL    HW230507   1.447   3.846   5.451  1.2086 -1.1375 -1.7093
 6292SOL     OW30508   1.615   1.326   6.605 -0.6319 -0.3644 -0.2429
 6292SOL    HW130509   1.671   1.396   6.571 -2.3025  0.8960 -0.4053
 6292SOL    HW230510   1.678   1.256   6.622 -0.9075 -0.5709 -0.0752
 6293SOL     OW30511   0.770   0.007   3.075 -0.0043 -0.1475 -0.0933
 6293SOL    HW130512   0.828   4.669   3.068  0.4710  0.1869  0.2493
 6293SOL    HW230513   0.778   0.044   2.988  0.5562  0.1949  0.1032
 6294SOL     OW30514   2.505   1.979   6.539  0.2601 -0.1957  0.1773
 6294SOL    HW130515   2.504   2.017   6.452  0.7848 -0.0146  0.2468
 6294SOL    HW230516   2.413   1.962   6.555  0.0163 -3.6638 -5.1429
 6295SOL     OW30517   2.377   3.957   2.504 -0.2040 -0.4994  0.0464
 6295SOL    HW130518   2.360   3.872   2.543 -0.0848 -0.7409 -0.4178
 6295SOL    HW230519   2.473   3.950   2.511  0.0372  0.8385 -1.7896
 6296SOL     OW30520   0.261   2.111   8.041 -0.1125  0.3603 -0.6880
 6296SOL    HW130521   0.254   2.103   7.946 -3.6410 -3.0641 -0.0963
 6296SOL    HW230522   0.181   2.161   8.058 -0.0530  0.7710 -1.6511
 6297SOL     OW30523   1.195   3.355   4.528  0.8547 -0.0163 -0.0883
 6297SOL    HW130524   1.143   3.337   4.450  1.8397 -1.1444 -0.4870
 6297SOL    HW230525   1.249   3.430   4.506  0.5937 -0.0871 -0.9552
 6298SOL     OW30526   0.598   1.294   5.170  0.4782 -0.0712  0.5012
 6298SOL    HW130527   0.689   1.286   5.199  0.9982  2.8955 -0.3641
 6298SOL    HW230528   0.577   1.201   5.161  0.3378  0.1351 -1.3128
 6299SOL     OW30529   0.161   4.649   2.085 -0.2420 -0.0665  0.8728
 6299SOL    HW130530   0.161   0.002   2.115 -1.5258  0.7593 -1.6571
 6299SOL    HW230531   0.071   4.633   2.059 -0.8132  1.7052  1.7370
 6300SOL     OW30532   3.886   1.529  10.757 -0.1318  0.0863 -0.3407
 6300SOL    HW130533   3.804   1.534  10.706 -0.6190 -0.7751  0.3658
 6300SOL    HW230534   3.888   1.436  10.778  0.0448 -0.1542 -1.4142
 6301SOL     OW30535   1.248   1.901   4.743  0.3438 -0.5199  0.4846
 6301SOL    HW130536   1.203   1.851   4.675  0.5342  0.7139 -0.5431
 6301SOL    HW230537   1.240   1.849   4.823 -1.2170 -1.1592 -0.0809
 6302SOL     OW30538   0.323   4.344  12.319 -0.0683 -0.2693  0.2860
 6302SOL    HW130539   0.364   4.368  12.402  1.4896  0.3768 -0.6716
 6302SOL    HW230540   0.238   4.308  12.343  0.7594 -1.4816  1.3722
 6303SOL     OW30541   3.497   2.309   9.185  1.1407  0.1556 -0.0027
 6303SOL    HW130542   3.558   2.382   9.192  0.5294  0.5180  1.6617
 6303SOL    HW230543   3.536   2.261   9.112  1.4190 -0.6897  0.6963
 6304SOL     OW30544   2.663   4.359   5.662  0.1538  0.3513  0.3462
 6304SOL    HW130545   2.649   4.362   5.568 -1.7916  0.6798  0.6569
 6304SOL    HW230546   2.729   4.429   5.667 -0.5763  1.0943 -0.5800
 6305SOL     OW30547   0.975   4.581   1.892  0.0449  0.0935  0.0830
 6305SOL    HW130548   0.996   4.615   1.805  0.6189 -0.3975  0.0362
 6305SOL    HW230549   0.880   4.586   1.880  0.1132 -0.6167 -0.7324
 6306SOL     OW30550   0.436   3.499   1.299  0.3632  0.1585  0.1296
 6306SOL    HW130551   0.444   3.422   1.355 -1.4260  1.0057  1.5366
 6306SOL    HW230552   0.441   3.574   1.359 -3.5510 -0.1442  0.8008
 6307SOL     OW30553   1.713   3.296   0.568 -0.4157 -0.5356  0.2239
 6307SOL    HW130554   1.780   3.265   0.628  0.8181  1.9646  0.1489
 6307SOL    HW230555   1.770   3.350   0.513  0.6684 -1.0891  0.8203
 6308SOL     OW30556   3.209   0.752   2.735  0.1655 -0.3807 -0.0260
 6308SOL    HW130557   3.260   0.723   2.660  0.9939  0.6483  0.1204
 6308SOL    HW230558   3.269   0.734   2.808 -3.3960 -1.6570  2.5409
 6309SOL     OW30559   1.145   2.787   7.962  0.3764  0.1437 -0.1914
 6309SOL    HW130560   1.114   2.714   7.909  1.1954 -1.3307  1.3673
 6309SOL    HW230561   1.143   2.749   8.050  4.2452 -0.1104 -0.2432
 6310SOL     OW30562   4.192   0.137   5.396 -0.2646 -0.1593 -0.0051
 6310SOL    HW130563   4.280   0.173   5.411 -1.0674  0.4102  3.3289
 6310SOL    HW230564   4.145   0.214   5.365  0.0576 -0.8249 -2.0931
 6311SOL     OW30565   3.892   3.145   6.685  0.1338  0.2715  0.1721
 6311SOL    HW130566   3.822   3.099   6.732  1.4060 -0.5783  1.2458
 6311SOL    HW230567   3.960   3.138   6.752  0.3743  2.5264  0.1719
 6312SOL     OW30568   4.396   3.321  11.424 -0.0424  0.3934  0.0134
 6312SOL    HW130569   4.426   3.230  11.430 -1.2086 -0.0939 -1.6671
 6312SOL    HW230570   4.354   3.343  11.506 -1.0520  1.1495 -0.7084
 6313SOL     OW30571   0.984   0.265  11.429 -0.3020 -0.0538 -0.4574
 6313SOL    HW130572   0.993   0.353  11.465 -1.1515  0.1953 -0.8482
 6313SOL    HW230573   0.899   0.273  11.385  0.3705  2.4572 -1.2684
 6314SOL     OW30574   0.091   0.664   5.312 -0.6048  0.1889 -0.1308
 6314SOL    HW130575   0.019   0.610   5.280 -1.2413  1.2576 -0.4985
 6314SOL    HW230576   0.049   0.719   5.377  0.2409  1.1036 -0.3468
 6315SOL     OW30577   3.064   0.310   1.506 -0.5967 -0.8102  0.1424
 6315SOL    HW130578   3.107   0.341   1.426 -0.1547 -2.0393 -0.0916
 6315SOL    HW230579   3.136   0.283   1.562 -0.6914 -1.9345 -0.2768
 6316SOL     OW30580   1.284   3.707   2.683  0.1634  0.2929  0.3448
 6316SOL    HW130581   1.308   3.723   2.774 -2.2403  2.5417  0.5531
 6316SOL    HW230582   1.352   3.645   2.655  0.2072 -0.1845  1.5084
 6317SOL     OW30583   1.552   0.379   5.817 -0.1301  0.4021 -0.3276
 6317SOL    HW130584   1.468   0.390   5.773 -1.3171  0.0110  1.8258
 6317SOL    HW230585   1.537   0.433   5.895 -0.7894 -0.5884  0.2296
 6318SOL     OW30586   2.867   4.151  16.196 -0.3488 -0.2677 -0.0828
 6318SOL    HW130587   2.792   4.209  16.213 -0.3002  0.4738 -2.4405
 6318SOL    HW230588   2.854   4.117  16.108 -1.5285 -2.8177  1.0897
 6319SOL     OW30589   1.216   1.757  11.065 -0.5077 -0.3864 -0.5142
 6319SOL    HW130590   1.158   1.832  11.072  0.4206  0.1330  1.5381
 6319SOL    HW230591   1.151   1.687  11.055  3.0408 -3.5125 -1.8783
 6320SOL     OW30592   4.654   2.010  17.504  0.4596  0.1316  0.2437
 6320SOL    HW130593   4.568   1.982  17.474  1.0797 -1.0325 -0.4665
 6320SOL    HW230594   4.711   1.944  17.465  2.6145  0.5787  2.6562
 6321SOL     OW30595   1.045   2.390   5.984 -0.1838  0.3459  0.7180
 6321SOL    HW130596   0.950   2.379   5.976 -0.2368  1.8032 -0.5556
 6321SOL    HW230597   1.057   2.345   6.068  1.2834 -0.7633 -0.0822
 6322SOL     OW30598   4.185   2.119  16.290  0.6233 -0.2047 -0.1026
 6322SOL    HW130599   4.173   2.046  16.352 -2.5860  1.3041  1.0648
 6322SOL    HW230600   4.240   2.174  16.346  1.3904 -1.3760  0.2992
 6323SOL     OW30601   1.520   0.910   0.948 -0.1712 -0.2339  0.7623
 6323SOL    HW130602   1.608   0.880   0.928 -1.0002 -2.9284  1.1707
 6323SOL    HW230603   1.484   0.835   0.995  0.3893 -1.1686 -0.3242
 6324SOL     OW30604   3.185   3.293   7.128 -0.2075 -0.6936  0.4246
 6324SOL    HW130605   3.094   3.265   7.123  0.0620 -1.2222 -1.4736
 6324SOL    HW230606   3.229   3.212   7.153  0.5274 -0.0690  1.1517
 6325SOL     OW30607   0.247   3.846   3.021 -0.3488  0.5524  0.2262
 6325SOL    HW130608   0.261   3.796   2.940 -0.1605  0.7532  0.1308
 6325SOL    HW230609   0.290   3.788   3.083 -1.3767  0.6291  1.0078
 6326SOL     OW30610   3.334   1.064   3.619  0.0618  0.0944 -0.1027
 6326SOL    HW130611   3.263   1.084   3.558  0.5196  0.4629 -0.5141
 6326SOL    HW230612   3.364   1.154   3.631 -0.2334  0.4331 -1.9046
 6327SOL     OW30613   0.358   0.310   5.543 -0.3493 -0.1948 -0.1116
 6327SOL    HW130614   0.280   0.258   5.528 -0.4771 -0.1604  0.4454
 6327SOL    HW230615   0.385   0.321   5.452 -0.7942  0.4058 -0.1706
 6328SOL     OW30616   2.945   3.757   4.988  0.1090  0.5289  0.6357
 6328SOL    HW130617   2.900   3.804   4.919 -0.3595 -0.7852  0.0494
 6328SOL    HW230618   2.883   3.762   5.061 -0.2149  1.2056  0.3141
 6329SOL     OW30619   4.432   3.422   7.440 -0.2204 -0.7224  0.4414
 6329SOL    HW130620   4.523   3.393   7.450  0.5257  0.5184 -2.9503
 6329SOL    HW230621   4.442   3.510   7.405 -1.0045 -0.7033  0.2746
 6330SOL     OW30622   2.956   2.662  14.872 -0.6273 -0.3747  0.2456
 6330SOL    HW130623   3.000   2.577  14.880 -0.2835 -0.0436  1.8994
 6330SOL    HW230624   3.003   2.720  14.932 -2.5422 -0.9692  2.3198
 6331SOL     OW30625   3.563   1.095  10.663  0.0119  0.6365  0.5395
 6331SOL    HW130626   3.655   1.118  10.675 -0.1947  0.4806  2.5642
 6331SOL    HW230627   3.557   1.013  10.714  1.0178 -0.8035 -1.6546
 6332SOL     OW30628   1.160   2.767   8.978 -0.1186 -0.2216  0.1044
 6332SOL    HW130629   1.094   2.827   9.013  1.2783 -0.0489  2.4819
 6332SOL    HW230630   1.227   2.830   8.951 -0.4146  0.2141  0.4007
 6333SOL     OW30631   3.388   2.073   5.137  0.0715 -0.2911 -0.0313
 6333SOL    HW130632   3.347   2.152   5.102  1.2492 -0.5359 -1.9468
 6333SOL    HW230633   3.468   2.114   5.170  1.5172 -2.3880 -0.9034
 6334SOL     OW30634   3.903   3.404   7.571  0.5120  0.5975  0.5850
 6334SOL    HW130635   3.819   3.441   7.543  0.1660 -1.3105 -0.8331
 6334SOL    HW230636   3.948   3.389   7.489 -1.0672  0.5482 -0.2781
 6335SOL     OW30637   2.206   0.809   4.726 -0.1545 -0.0820 -0.0355
 6335SOL    HW130638   2.253   0.741   4.774 -2.5190 -1.2027  0.7128
 6335SOL    HW230639   2.273   0.822   4.660 -0.7239 -1.2929 -0.8528
 6336SOL     OW30640   3.367   3.319   3.268  0.5134  0.4775 -0.5676
 6336SOL    HW130641   3.370   3.281   3.181  3.4438 -1.1881  0.2619
 6336SOL    HW230642   3.295   3.383   3.262 -1.0940 -1.1583  1.1087
 6337SOL     OW30643   1.457   2.742  17.703  0.1714  0.0733  0.1582
 6337SOL    HW130644   1.529   2.791  17.663  0.9101  0.0316  1.4418
 6337SOL    HW230645   1.442   2.802   0.027  2.2411  1.1145 -0.2599
 6338SOL     OW30646   0.970   4.193   0.537  0.4352  0.3298 -0.3875
 6338SOL    HW130647   0.927   4.110   0.558 -1.6424  1.6095  0.4135
 6338SOL    HW230648   0.930   4.208   0.451 -1.1007 -0.7178  0.1423
 6339SOL     OW30649   4.025   4.009   4.853 -0.0994 -0.7395 -0.0020
 6339SOL    HW130650   4.082   4.045   4.920  0.1584 -1.2243  0.0375
 6339SOL    HW230651   3.999   4.094   4.815 -0.2258 -0.5890  0.4203
 6340SOL     OW30652   1.946   4.028   6.857 -0.0097  0.1341  0.1807
 6340SOL    HW130653   1.988   3.963   6.914  1.0668  0.6268 -0.0499
 6340SOL    HW230654   1.902   4.087   6.918 -1.8377  0.1122 -1.1423
 6341SOL     OW30655   0.455   0.386   4.565  0.1336 -0.2249  0.0406
 6341SOL    HW130656   0.458   0.396   4.470  3.0225 -1.4601  0.0241
 6341SOL    HW230657   0.546   0.391   4.595  0.5872  1.0707 -1.5733
 6342SOL     OW30658   0.685   3.733   7.698  0.0500  0.7309  0.3099
 6342SOL    HW130659   0.652   3.643   7.707  2.3211 -0.4271 -2.8436
 6342SOL    HW230660   0.696   3.755   7.791 -1.3189 -2.3236  1.1883
 6343SOL     OW30661   1.636   0.693  10.196 -0.1020  0.0146 -0.2833
 6343SOL    HW130662   1.687   0.771  10.217 -2.1876  1.1474  0.5691
 6343SOL    HW230663   1.631   0.631  10.269 -2.5637  0.3461 -0.1443
 6344SOL     OW30664   0.692   1.487   6.137 -0.1099  0.2040 -0.3183
 6344SOL    HW130665   0.680   1.563   6.080 -0.8223  0.6947  0.4762
 6344SOL    HW230666   0.766   1.511   6.192 -0.3702 -0.0051  0.1243
 6345SOL     OW30667   2.628   1.037   8.184 -0.1876 -0.1656 -0.5390
 6345SOL    HW130668   2.693   1.079   8.127 -0.3108  0.7799  0.0057
 6345SOL    HW230669   2.684   0.973   8.227  1.0117 -0.2254 -2.1794
 6346SOL     OW30670   1.382   0.739  13.874  0.2558 -0.7943  0.1042
 6346SOL    HW130671   1.462   0.778  13.838  0.4516 -1.1356  0.1700
 6346SOL    HW230672   1.324   0.728  13.798  1.0138 -2.9163 -0.1768
 6347SOL     OW30673   2.462   1.257   1.874 -0.1395  0.2447 -0.3805
 6347SOL    HW130674   2.521   1.332   1.874 -0.4438  0.4818  0.7193
 6347SOL    HW230675   2.520   1.205   1.818  0.6545 -0.3719  1.0189
 6348SOL     OW30676   0.406   3.212   3.498 -0.4190  0.0881 -0.1619
 6348SOL    HW130677   0.352   3.221   3.576  2.0459 -1.4116  1.7494
 6348SOL    HW230678   0.364   3.137   3.456 -0.0348 -0.8363  1.1159
 6349SOL     OW30679   0.223   4.737   2.845 -0.4066 -0.3215 -0.0579
 6349SOL    HW130680   0.202   4.673   2.777 -1.1728 -0.9124  0.7348
 6349SOL    HW230681   0.263   0.058   2.782 -2.1300  1.5332  0.5925
 6350SOL     OW30682   4.188   2.492   6.032  0.7578  0.4285 -0.1522
 6350SOL    HW130683   4.138   2.546   5.971  0.3387  1.1031  0.8022
 6350SOL    HW230684   4.173   2.544   6.110 -0.2077  0.8370 -0.6147
 6351SOL     OW30685   3.248   1.095   5.921 -0.7678  0.0042  0.1246
 6351SOL    HW130686   3.195   1.067   5.995  0.2734 -0.7184  0.5811
 6351SOL    HW230687   3.299   1.015   5.910  0.5212  1.1557 -2.4769
 6352SOL     OW30688   4.610   2.182   9.323  0.3002  0.1654  0.1462
 6352SOL    HW130689   4.549   2.250   9.294  1.5299  1.5106  0.7405
 6352SOL    HW230690   4.660   2.165   9.243 -0.3044 -0.2178 -0.1552
 6353SOL     OW30691   4.210   2.761  15.356 -0.0644 -0.3612  0.2448
 6353SOL    HW130692   4.262   2.841  15.351 -1.8465  0.8668  1.2168
 6353SOL    HW230693   4.272   2.695  15.387  1.9021  0.1495 -2.6377
 6354SOL     OW30694   3.519   2.477  11.933 -0.1846  0.6340 -0.9122
 6354SOL    HW130695   3.444   2.519  11.892  2.0794  4.0488 -1.5635
 6354SOL    HW230696   3.551   2.423  11.861  0.5384  1.0236 -0.8864
 6355SOL     OW30697   1.348   0.822   1.365 -0.2085  0.4883 -0.1772
 6355SOL    HW130698   1.253   0.819   1.354 -0.2523  0.2137  0.3235
 6355SOL    HW230699   1.381   0.807   1.276 -1.3037  2.2891 -0.8880
 6356SOL     OW30700   4.430   3.256   8.888 -0.1942 -0.2409 -0.3587
 6356SOL    HW130701   4.514   3.235   8.930  0.2090 -0.7303 -1.4146
 6356SOL    HW230702   4.419   3.347   8.914  1.0079 -0.1613 -0.1665
 6357SOL     OW30703   1.298   0.150  15.277  0.5138  0.3755  0.1072
 6357SOL    HW130704   1.211   0.187  15.290 -1.1118 -3.0147 -1.0655
 6357SOL    HW230705   1.281   0.095  15.201 -2.3720 -0.0358  1.0557
 6358SOL     OW30706   2.653   2.607  10.911 -0.4494 -0.0522 -0.4169
 6358SOL    HW130707   2.743   2.604  10.878 -0.3793 -2.0788 -0.0695
 6358SOL    HW230708   2.639   2.700  10.925  0.3795 -0.0152  0.1767
 6359SOL     OW30709   1.822   3.812   8.412 -0.3308  0.1424  0.1174
 6359SOL    HW130710   1.853   3.876   8.477 -1.1904  1.7385 -1.0261
 6359SOL    HW230711   1.896   3.814   8.351  0.9238  0.1647  1.6277
 6360SOL     OW30712   4.616   3.177  14.046  0.3931 -0.3102 -0.1653
 6360SOL    HW130713   4.706   3.210  14.048  0.5597 -0.9084  1.5196
 6360SOL    HW230714   4.563   3.256  14.036  2.7753  1.3827  0.5673
 6361SOL     OW30715   2.519   4.633   9.615 -0.5862 -0.5642  0.6594
 6361SOL    HW130716   2.566   4.649   9.697 -1.2972 -1.9880  1.3414
 6361SOL    HW230717   2.466   4.556   9.637 -0.6442 -0.9151 -0.6908
 6362SOL     OW30718   4.447   2.811   2.301 -0.5500  0.3575  0.1078
 6362SOL    HW130719   4.432   2.720   2.274 -0.4949 -0.0820  1.5858
 6362SOL    HW230720   4.405   2.848   2.223  0.6049 -0.8263 -1.0551
 6363SOL     OW30721   0.608   2.383   4.683  0.2315  1.3119 -0.2552
 6363SOL    HW130722   0.521   2.388   4.643 -0.4735  0.3904  1.1546
 6363SOL    HW230723   0.657   2.396   4.602  0.0753 -0.5539 -0.6530
 6364SOL     OW30724   0.593   0.920  14.598  0.0667 -0.0278 -0.0043
 6364SOL    HW130725   0.602   0.835  14.554 -1.0042 -0.6082  0.9042
 6364SOL    HW230726   0.610   0.976  14.522 -0.2374 -1.6208 -1.2544
 6365SOL     OW30727   0.130   0.176   2.101  0.4141  0.1585 -0.2076
 6365SOL    HW130728   0.064   0.227   2.149 -1.6061 -0.6307 -2.2005
 6365SOL    HW230729   0.190   0.247   2.076  0.8838 -0.3212 -0.4472
 6366SOL     OW30730   3.834   1.263   5.391  0.0745 -0.0085 -0.6094
 6366SOL    HW130731   3.909   1.321   5.379  1.4129 -2.1437 -2.5950
 6366SOL    HW230732   3.865   1.188   5.442 -0.3409 -0.4649 -1.0287
 6367SOL     OW30733   0.937   2.314   3.017 -0.4957  0.0638  0.1538
 6367SOL    HW130734   0.963   2.400   3.051  0.3137 -0.6606  1.3392
 6367SOL    HW230735   0.859   2.349   2.973 -1.0757  0.2726  1.3392
 6368SOL     OW30736   1.976   0.191  15.304  0.3780  0.0579  0.1274
 6368SOL    HW130737   1.977   0.138  15.225  0.1856 -1.6064  1.2399
 6368SOL    HW230738   1.978   0.119  15.367 -1.0684  0.7137  0.9385
 6369SOL     OW30739   1.667   0.003  15.689 -0.2578  0.2868 -0.1482
 6369SOL    HW130740   1.718   4.683  15.745 -0.1403  0.6664  0.1326
 6369SOL    HW230741   1.579   0.001  15.727  0.0462 -1.9474  0.4360
 6370SOL     OW30742   2.966   0.027   4.107 -0.0745  0.5492 -0.3289
 6370SOL    HW130743   2.896   0.059   4.050  0.1819  0.6499 -0.5839
 6370SOL    HW230744   2.965   0.095   4.175  0.6295 -0.8964  1.1390
 6371SOL     OW30745   1.082   0.092   6.220 -0.3558 -0.0209  0.4505
 6371SOL    HW130746   1.008   0.139   6.181 -1.4461 -0.7626  1.6707
 6371SOL    HW230747   1.044   0.058   6.300 -0.5833  2.6033  1.4654
 6372SOL     OW30748   1.320   1.078   5.344  0.6127 -0.0704 -0.3572
 6372SOL    HW130749   1.351   1.162   5.308  0.1638  0.1073 -0.3284
 6372SOL    HW230750   1.374   1.016   5.296  0.1673 -0.8025  0.0820
 6373SOL     OW30751   1.013   1.356   2.799 -0.0304  0.8094 -0.0491
 6373SOL    HW130752   0.932   1.350   2.849  1.2851 -2.0924  1.8075
 6373SOL    HW230753   1.082   1.368   2.865 -0.8934  1.2050  0.7779
 6374SOL     OW30754   0.391   2.306   6.887 -0.2404 -0.0021 -0.3654
 6374SOL    HW130755   0.326   2.320   6.818 -0.3807  1.0094 -0.0260
 6374SOL    HW230756   0.378   2.215   6.911  0.7062 -0.3530 -1.1936
 6375SOL     OW30757   0.804   2.376  13.366 -0.6162  0.5160  0.0620
 6375SOL    HW130758   0.888   2.421  13.373 -0.6013  0.3611  0.8215
 6375SOL    HW230759   0.745   2.423  13.425  1.0879 -1.0434  2.9875
 6376SOL     OW30760   4.605   1.933   7.268  0.1143  0.0871  0.6481
 6376SOL    HW130761   4.634   2.020   7.294  1.5347 -0.3799  0.6747
 6376SOL    HW230762   4.648   1.922   7.183 -0.6677 -1.0113  0.4066
 6377SOL     OW30763   1.822   0.841   0.974  0.0067 -0.2630  0.3309
 6377SOL    HW130764   1.802   0.899   1.048  0.9818 -0.5389  0.8191
 6377SOL    HW230765   1.911   0.822   1.002 -0.0712 -0.0374  0.7375
 6378SOL     OW30766   1.641   1.285   9.561 -0.3492 -0.3313  0.0292
 6378SOL    HW130767   1.615   1.218   9.498  0.2357 -1.3084  0.8379
 6378SOL    HW230768   1.678   1.354   9.506 -1.9026  0.9616  0.5664
 6379SOL     OW30769   0.837   3.259   4.103  0.2285  0.0930  0.1480
 6379SOL    HW130770   0.898   3.326   4.072  0.3798 -0.2272 -0.2578
 6379SOL    HW230771   0.824   3.214   4.019 -0.4395  2.6450 -1.1398
 6380SOL     OW30772   2.677   0.778   5.295  0.4510 -0.1090 -0.1829
 6380SOL    HW130773   2.769   0.781   5.323  0.3276 -0.2387  0.2265
 6380SOL    HW230774   2.640   0.691   5.312  0.6185  0.2384  1.9335
 6381SOL     OW30775   4.656   2.401   0.088  0.5365 -0.0602 -0.6665
 6381SOL    HW130776   4.667   2.489   0.051 -0.8026  0.4818  0.1873
 6381SOL    HW230777   4.583   2.366   0.037 -1.9591  2.7364  0.9821
 6382SOL     OW30778   0.851   4.302   8.852 -0.4964  0.6958 -0.1635
 6382SOL    HW130779   0.814   4.277   8.937  1.0008 -0.4524  0.1584
 6382SOL    HW230780   0.809   4.388   8.849 -0.4664  0.7825  1.9880
 6383SOL     OW30781   3.978   3.153   7.698 -0.0125  0.2879 -0.2210
 6383SOL    HW130782   4.036   3.222   7.667 -1.3044  0.9696 -1.1511
 6383SOL    HW230783   3.934   3.151   7.613 -0.0547  1.2146 -0.2243
 6384SOL     OW30784   2.740   4.618  13.872  0.2103 -0.3120  0.0468
 6384SOL    HW130785   2.796   4.690  13.842 -0.0452 -0.1191  0.0314
 6384SOL    HW230786   2.661   4.672  13.862  0.4911  0.3270  1.3214
 6385SOL     OW30787   4.229   2.203   5.458  0.0083  1.0225 -0.0721
 6385SOL    HW130788   4.280   2.276   5.493 -1.5493  1.9755  0.1937
 6385SOL    HW230789   4.145   2.213   5.501  0.1836  0.1491  0.4795
 6386SOL     OW30790   4.728   2.714  17.469  0.7754  0.1317  0.2868
 6386SOL    HW130791   0.025   2.636  17.426  3.7361  0.8899  1.2797
 6386SOL    HW230792   0.067   2.737  17.523  1.1974 -1.0865  0.2156
 6387SOL     OW30793   4.526   1.823   2.065  0.1388  0.4669 -0.0678
 6387SOL    HW130794   4.444   1.852   2.104 -1.2857 -0.5587 -2.3117
 6387SOL    HW230795   4.533   1.889   1.996  0.8318 -0.5585 -0.9691
 6388SOL     OW30796   3.315   0.308   2.867  0.2229 -0.2227 -0.0873
 6388SOL    HW130797   3.266   0.294   2.786 -0.7332 -1.0867  0.6379
 6388SOL    HW230798   3.362   0.387   2.841  0.6330 -0.2977  0.4219
 6389SOL     OW30799   3.889   2.673   3.469 -0.5665  0.2385  0.3492
 6389SOL    HW130800   3.951   2.714   3.529 -0.0168  1.8776 -1.3445
 6389SOL    HW230801   3.868   2.589   3.510  1.0467 -0.4416 -0.2124
 6390SOL     OW30802   1.372   2.949   9.975  0.2295  0.0978 -0.3978
 6390SOL    HW130803   1.317   3.018   9.938 -0.8556  0.5408  1.9984
 6390SOL    HW230804   1.304   2.882   9.984 -0.2555  0.7633  0.9731
 6391SOL     OW30805   0.558   1.218   9.130 -0.0515 -0.2997 -0.5106
 6391SOL    HW130806   0.649   1.191   9.124  0.3067  0.9816 -1.0493
 6391SOL    HW230807   0.552   1.287   9.196 -0.1897 -2.0485  1.2867
 6392SOL     OW30808   2.903   4.226   2.996 -0.4790 -0.9934  0.0443
 6392SOL    HW130809   2.960   4.268   3.060 -1.8552  0.7180  0.1590
 6392SOL    HW230810   2.868   4.161   3.057  0.9006  0.8305  2.7593
 6393SOL     OW30811   3.012   2.582   1.539  0.3838  0.2513 -0.1290
 6393SOL    HW130812   3.048   2.663   1.503  0.2988 -0.9099 -2.8457
 6393SOL    HW230813   2.962   2.548   1.465  0.1273  0.7986 -0.2121
 6394SOL     OW30814   3.132   1.825   3.524 -0.1813  0.1128  0.2238
 6394SOL    HW130815   3.168   1.808   3.437 -2.1306  0.3739 -0.6267
 6394SOL    HW230816   3.074   1.894   3.490  0.4619  1.0609  1.0450
 6395SOL     OW30817   4.055   2.661   8.065  0.2404  0.7353  0.2245
 6395SOL    HW130818   3.990   2.726   8.039  1.2901  1.4110 -0.7465
 6395SOL    HW230819   4.080   2.688   8.153 -1.2377  0.8453  0.6091
 6396SOL     OW30820   0.548   0.990   7.881  0.4140 -0.8684 -0.3151
 6396SOL    HW130821   0.590   1.076   7.886 -0.3313 -0.6197  1.7941
 6396SOL    HW230822   0.531   0.958   7.970  1.5371 -1.1706 -0.2091
 6397SOL     OW30823   4.138   0.680   5.102  0.2159  0.2418  0.1295
 6397SOL    HW130824   4.186   0.754   5.064 -0.6397 -0.1104 -1.6245
 6397SOL    HW230825   4.129   0.722   5.187  0.8331 -0.5824  0.6028
 6398SOL     OW30826   1.721   0.768  17.494 -0.6608  0.2472 -0.1561
 6398SOL    HW130827   1.737   0.796  17.584  0.7662 -0.1136 -0.2895
 6398SOL    HW230828   1.736   0.674  17.501 -0.2754  0.0246 -3.9997
 6399SOL     OW30829   3.306   0.260   1.630  1.1296 -0.4146  0.5159
 6399SOL    HW130830   3.379   0.318   1.609 -2.1298  3.0990 -1.0715
 6399SOL    HW230831   3.274   0.301   1.711  0.2403  0.2425 -0.1635
 6400SOL     OW30832   2.431   3.938  13.883 -0.1780  0.2545  0.2438
 6400SOL    HW130833   2.447   3.856  13.837  3.0275  1.1791 -0.3187
 6400SOL    HW230834   2.521   3.970  13.875  0.0902  0.0642  2.6110
 6401SOL     OW30835   0.361   3.062  17.498  0.2542 -0.1676 -0.3050
 6401SOL    HW130836   0.452   3.091  17.508  0.3801 -1.1866  1.4145
 6401SOL    HW230837   0.321   3.149  17.500  0.0241 -0.2782 -0.1208
 6402SOL     OW30838   0.022   0.234  16.373  0.0179  0.1158 -0.1928
 6402SOL    HW130839   0.115   0.256  16.373  0.7950 -3.1343  0.9701
 6402SOL    HW230840   0.036   0.143  16.346  0.5257 -0.4824  2.0889
 6403SOL     OW30841   4.310   2.734   1.306  0.1195 -0.0572 -0.0160
 6403SOL    HW130842   4.224   2.770   1.284 -0.1867 -3.0553 -3.7340
 6403SOL    HW230843   4.364   2.812   1.294  0.3726 -0.1728  0.3619
 6404SOL     OW30844   3.612   1.119   7.537 -0.2295  0.1235 -0.2315
 6404SOL    HW130845   3.646   1.031   7.520  1.2758  0.7582 -0.5579
 6404SOL    HW230846   3.661   1.154   7.612  0.6214  0.6200 -1.0158
 6405SOL     OW30847   0.842   3.705   2.675  0.5590 -0.0373 -0.1269
 6405SOL    HW130848   0.849   3.766   2.748  1.1897 -1.1016  0.7070
 6405SOL    HW230849   0.918   3.651   2.695 -0.7530 -0.8420  2.6675
 6406SOL     OW30850   1.511   4.606   6.681 -0.0262  0.5628  0.4003
 6406SOL    HW130851   1.486   4.656   6.760  0.8058 -1.1815  1.7581
 6406SOL    HW230852   1.602   4.636   6.677 -0.2126  1.1384  0.3539
 6407SOL     OW30853   4.183   2.080   4.218 -0.0688 -0.6496 -0.2830
 6407SOL    HW130854   4.199   1.999   4.171  1.1968 -1.0703  0.8750
 6407SOL    HW230855   4.237   2.070   4.297 -0.1274 -2.5199 -0.4818
 6408SOL     OW30856   0.911   2.076  12.463  0.2588 -0.5123  0.6359
 6408SOL    HW130857   0.884   2.162  12.431 -0.5206 -1.2689 -0.7132
 6408SOL    HW230858   1.004   2.080  12.485  0.2888 -0.9979  0.5944
 6409SOL     OW30859   2.047   3.391  12.391 -0.1666 -0.2696 -0.0608
 6409SOL    HW130860   2.023   3.478  12.422  0.5879  0.3868 -1.3604
 6409SOL    HW230861   2.038   3.332  12.466 -0.8424  0.1927  0.2254
 6410SOL     OW30862   1.002   1.560  11.045 -0.0726  0.3804 -0.2048
 6410SOL    HW130863   0.925   1.566  10.988 -1.4609 -0.6319  1.5763
 6410SOL    HW230864   0.965   1.541  11.131 -1.2099 -0.9303 -0.9798
 6411SOL     OW30865   0.520   1.344   6.786  0.0232  0.2568 -0.0917
 6411SOL    HW130866   0.553   1.338   6.697  0.4892  2.7080 -0.0853
 6411SOL    HW230867   0.476   1.260   6.791  2.0781 -0.7583  0.6788
 6412SOL     OW30868   1.053   3.972   6.688 -0.4947  0.7804  0.3628
 6412SOL    HW130869   1.054   3.938   6.778 -0.1213  0.2574  0.1555
 6412SOL    HW230870   1.144   4.001   6.692 -0.4862  1.1399 -2.9661
 6413SOL     OW30871   2.392   2.288   8.278  0.1109  0.3615 -0.3817
 6413SOL    HW130872   2.388   2.346   8.203  1.8824  0.8269 -0.0954
 6413SOL    HW230873   2.476   2.244   8.266  1.2634  2.0070  1.7431
 6414SOL     OW30874   3.431   3.295  15.046  0.1386 -0.4882  0.0468
 6414SOL    HW130875   3.519   3.311  15.014  0.2525 -1.1264  0.0399
 6414SOL    HW230876   3.421   3.203  15.019 -2.9565  0.0658 -0.7093
 6415SOL     OW30877   0.037   2.454   2.552 -0.5780  0.0185 -1.2490
 6415SOL    HW130878   4.683   2.433   2.568 -0.3458  1.2714  1.7171
 6415SOL    HW230879   0.046   2.448   2.457  0.0971 -3.3808 -0.9888
 6416SOL     OW30880   3.261   4.379   0.417  0.2576  0.2045  0.3873
 6416SOL    HW130881   3.193   4.444   0.401  0.5018  1.1062  2.9686
 6416SOL    HW230882   3.323   4.439   0.459 -2.0358  3.8892 -1.5143
 6417SOL     OW30883   2.694   0.377   7.984 -0.4058 -0.0379  0.2475
 6417SOL    HW130884   2.638   0.358   7.909 -1.3191 -1.4580  1.2816
 6417SOL    HW230885   2.697   0.472   7.989  0.6536 -0.0438 -0.2745
 6418SOL     OW30886   3.342   0.811   9.398  1.1735  0.4327  0.0372
 6418SOL    HW130887   3.259   0.819   9.446 -0.7739 -1.2574 -3.0724
 6418SOL    HW230888   3.383   0.742   9.449  0.4178 -1.8112 -2.4164
 6419SOL     OW30889   1.188   1.875   2.638 -0.0837  0.2125 -0.0416
 6419SOL    HW130890   1.259   1.816   2.660 -0.4890 -0.5304 -0.7452
 6419SOL    HW230891   1.116   1.812   2.643 -1.3270  1.8833  2.9838
 6420SOL     OW30892   3.043   3.597   9.306  0.8980 -0.1281  0.6112
 6420SOL    HW130893   3.123   3.638   9.341 -0.0680  2.9331 -0.7909
 6420SOL    HW230894   2.990   3.674   9.290  0.6608 -0.4282 -0.0388
 6421SOL     OW30895   4.406   4.691   5.868  0.4875  0.4815  0.6779
 6421SOL    HW130896   4.441   4.716   5.953  0.5614 -0.8589  1.0499
 6421SOL    HW230897   4.400   4.596   5.875  0.5843  0.4609  0.4890
 6422SOL     OW30898   3.220   4.174   8.354  0.5141  0.3599 -0.1632
 6422SOL    HW130899   3.159   4.154   8.425  1.2046 -1.3618 -0.0477
 6422SOL    HW230900   3.174   4.243   8.308 -3.6850 -2.7408 -0.6329
 6423SOL     OW30901   2.396   3.755  14.639 -0.6825  0.3267 -0.1864
 6423SOL    HW130902   2.311   3.790  14.612  0.5328  2.3733 -1.3340
 6423SOL    HW230903   2.379   3.722  14.728  2.3210  0.3256  0.3883
 6424SOL     OW30904   0.376   2.544   8.101  0.1858  0.5394 -0.4263
 6424SOL    HW130905   0.390   2.450   8.112 -0.0440  0.5769  0.1921
 6424SOL    HW230906   0.426   2.585   8.172 -1.5868  0.9726  0.5638
 6425SOL     OW30907   0.949   3.796  13.657  0.4353 -0.5321  0.0250
 6425SOL    HW130908   0.995   3.753  13.584  0.2802 -0.2170 -0.2612
 6425SOL    HW230909   1.022   3.813  13.715 -1.2867  1.1558  1.7091
 6426SOL     OW30910   0.694   3.180   1.800 -0.7947 -0.7458  0.5612
 6426SOL    HW130911   0.758   3.247   1.826 -2.4938  1.4855 -1.0009
 6426SOL    HW230912   0.746   3.099   1.798 -0.3584 -0.4187 -1.2868
 6427SOL     OW30913   0.654   0.220   4.174 -0.2702  0.3153 -0.0082
 6427SOL    HW130914   0.586   0.194   4.237 -1.9218 -0.2723 -2.0080
 6427SOL    HW230915   0.661   0.137   4.127  0.4832 -0.6690  1.8466
 6428SOL     OW30916   1.581   3.264   2.208  0.1639  0.3201 -0.0885
 6428SOL    HW130917   1.638   3.302   2.142 -2.1321 -2.3813 -3.6282
 6428SOL    HW230918   1.631   3.190   2.241 -0.2493  0.1402  0.1432
 6429SOL     OW30919   2.300   4.239   1.657 -0.1862 -0.2557  0.4139
 6429SOL    HW130920   2.210   4.245   1.626 -0.8564 -1.0071  2.1969
 6429SOL    HW230921   2.304   4.144   1.648 -0.8019 -0.0223 -2.1806
 6430SOL     OW30922   3.151   2.097   6.069  0.1690  0.1330  0.3661
 6430SOL    HW130923   3.092   2.130   6.136 -1.6614 -1.7714 -0.3201
 6430SOL    HW230924   3.218   2.164   6.084 -0.6992  0.7933  1.2424
 6431SOL     OW30925   4.518   1.446   8.895  0.5330  0.2487  0.0052
 6431SOL    HW130926   4.453   1.414   8.832  0.8938 -1.2827  0.4160
 6431SOL    HW230927   4.590   1.454   8.832  0.5125 -2.0159 -0.3218
 6432SOL     OW30928   4.674   3.409   6.221  0.3302 -0.1566  0.1447
 6432SOL    HW130929   4.703   3.385   6.309  0.0638  1.8508  0.7668
 6432SOL    HW230930   4.622   3.332   6.198  1.4082 -0.6413 -0.6859
 6433SOL     OW30931   3.202   3.938  13.208 -0.1307 -0.4546 -0.8287
 6433SOL    HW130932   3.284   3.904  13.171  0.5807 -0.4488  0.7374
 6433SOL    HW230933   3.170   3.997  13.140 -0.1037  1.1117  0.5127
 6434SOL     OW30934   3.410   3.088  15.353  0.4832  0.1056  0.8907
 6434SOL    HW130935   3.429   3.118  15.442  0.6559 -0.4282  1.0358
 6434SOL    HW230936   3.498   3.076  15.317  0.0817 -0.1111 -0.0038
 6435SOL     OW30937   1.196   2.604   5.312 -0.5932 -0.2163  0.2543
 6435SOL    HW130938   1.247   2.601   5.393  0.2636  0.8576 -0.2337
 6435SOL    HW230939   1.110   2.591   5.350 -0.9930  1.6666  0.0262
 6436SOL     OW30940   2.142   3.402   8.510  0.3007 -0.5542  0.0632
 6436SOL    HW130941   2.186   3.324   8.475  0.3373  0.0579 -1.2450
 6436SOL    HW230942   2.066   3.355   8.546  0.0323  0.1236  0.3781
 6437SOL     OW30943   1.022   1.640   2.729 -0.3375 -0.0913  0.3141
 6437SOL    HW130944   0.927   1.652   2.720 -0.0932  0.4477 -1.6823
 6437SOL    HW230945   1.019   1.545   2.733 -2.6044 -0.0816 -0.6533
 6438SOL     OW30946   1.422   4.262   1.249  0.0342  0.4845  0.3955
 6438SOL    HW130947   1.511   4.295   1.260  0.7880 -2.1404  2.3311
 6438SOL    HW230948   1.422   4.201   1.323  1.0296 -1.1289 -0.9429
 6439SOL     OW30949   2.383   0.537   9.779  0.3383 -0.6607  0.0914
 6439SOL    HW130950   2.294   0.544   9.813  0.1611 -0.5104 -0.3950
 6439SOL    HW230951   2.387   0.618   9.728  1.0800 -0.8582 -0.1637
 6440SOL     OW30952   2.518   0.384   7.784 -0.3728 -0.7472 -0.0954
 6440SOL    HW130953   2.496   0.422   7.699  0.2068  0.8971  0.4869
 6440SOL    HW230954   2.452   0.431   7.835  1.5570  1.9235 -0.0078
 6441SOL     OW30955   1.175   2.176   8.822  0.0512  0.0987  0.1958
 6441SOL    HW130956   1.131   2.131   8.894 -0.3009 -0.5527 -0.4183
 6441SOL    HW230957   1.223   2.246   8.867  0.7163 -0.1799 -0.0738
 6442SOL     OW30958   3.365   0.415  11.356  0.0426 -0.2283  0.1314
 6442SOL    HW130959   3.305   0.443  11.425  0.3079  0.9782 -0.1231
 6442SOL    HW230960   3.309   0.378  11.288 -1.5882  1.9020  0.3104
 6443SOL     OW30961   0.351   1.795   6.421 -0.1220 -0.3114  0.6519
 6443SOL    HW130962   0.295   1.835   6.354  1.3702  1.8673  0.7062
 6443SOL    HW230963   0.342   1.853   6.497  0.5492  0.7078 -0.0466
 6444SOL     OW30964   2.234   3.714   9.377 -0.3908 -0.2938  0.1977
 6444SOL    HW130965   2.187   3.757   9.305 -0.8585  1.2890  1.4586
 6444SOL    HW230966   2.173   3.672   9.436  0.4178  0.4475  1.5485
 6445SOL     OW30967   2.977   0.578   2.686 -0.5229  0.4987  0.8771
 6445SOL    HW130968   3.036   0.508   2.661 -2.5946 -0.6179 -0.8798
 6445SOL    HW230969   3.033   0.637   2.736  1.7597 -1.6867  0.8690
 6446SOL     OW30970   1.156   3.834   7.518  0.7092  0.1445  0.0601
 6446SOL    HW130971   1.144   3.760   7.458  0.6612 -0.4628  0.8216
 6446SOL    HW230972   1.247   3.855   7.498  0.5623  0.6787 -0.0458
 6447SOL     OW30973   0.309   4.424  15.992  0.2818 -0.0815  0.3699
 6447SOL    HW130974   0.282   4.333  15.986 -1.0822  0.4466 -1.5996
 6447SOL    HW230975   0.287   4.441  16.084  0.3734  1.2060  0.1647
 6448SOL     OW30976   1.121   1.309   4.196  0.0382  0.3304 -0.3150
 6448SOL    HW130977   1.093   1.392   4.233  2.3935  0.2792  1.5663
 6448SOL    HW230978   1.084   1.257   4.268  0.4024  1.3112  0.5870
 6449SOL     OW30979   4.584   0.760  12.119 -0.0289  0.5974  0.8461
 6449SOL    HW130980   4.648   0.689  12.126 -1.6159 -0.8922  0.2297
 6449SOL    HW230981   4.585   0.808  12.202  0.6969  1.9842  0.0344
 6450SOL     OW30982   3.717   3.821   4.110  0.3856  0.5386  0.4689
 6450SOL    HW130983   3.696   3.787   4.023  1.1648  1.0512  0.0765
 6450SOL    HW230984   3.647   3.886   4.108 -0.6437 -0.5078  3.1149
 6451SOL     OW30985   2.804   2.978   2.704 -0.0534  0.7226  0.1062
 6451SOL    HW130986   2.863   2.904   2.689  0.3745  1.4092 -1.5580
 6451SOL    HW230987   2.759   2.953   2.785 -0.8490  0.8020 -0.3107
 6452SOL     OW30988   3.587   4.524   7.121  0.1335 -0.0288  0.1499
 6452SOL    HW130989   3.545   4.498   7.039  1.2105 -0.2381 -0.3361
 6452SOL    HW230990   3.585   4.442   7.171 -0.1279 -0.2607 -0.2457
 6453SOL     OW30991   1.292   3.378   2.779  0.2080 -0.4884 -0.3355
 6453SOL    HW130992   1.207   3.363   2.821 -0.3951  0.1061 -1.3623
 6453SOL    HW230993   1.341   3.299   2.800 -1.0077 -0.7133  1.6245
 6454SOL     OW30994   3.098   4.215   7.984  0.0030 -0.8596 -0.5603
 6454SOL    HW130995   3.062   4.160   8.054 -0.4701  0.2837  0.0795
 6454SOL    HW230996   3.018   4.267   7.986  0.8974  0.4244  1.2099
 6455SOL     OW30997   4.551   2.257  11.629 -0.3472 -0.6749 -0.1713
 6455SOL    HW130998   4.563   2.318  11.702 -3.2752 -1.5584  1.0626
 6455SOL    HW230999   4.634   2.271  11.585 -0.9974  1.4100 -0.7474
 6456SOL     OW31000   1.756   1.456   4.981  0.1585  0.2275 -0.0397
 6456SOL    HW131001   1.744   1.550   4.998  1.6486  0.5707 -0.9164
 6456SOL    HW231002   1.702   1.440   4.903 -0.9321 -0.8296  0.9357
 6457SOL     OW31003   1.664   0.201   6.739 -0.5378 -0.1222  0.2714
 6457SOL    HW131004   1.629   0.135   6.798 -1.4309 -0.0667 -0.1959
 6457SOL    HW231005   1.687   0.267   6.804 -0.7255  1.6276 -1.4458
 6458SOL     OW31006   4.298   0.728   7.062  0.1239  0.0030 -0.5545
 6458SOL    HW131007   4.376   0.712   7.010  0.5648 -0.8755  0.3844
 6458SOL    HW231008   4.298   0.820   7.036 -1.1477 -0.4609 -2.2417
 6459SOL     OW31009   2.270   0.620   1.419  0.0023  0.5599 -0.0838
 6459SOL    HW131010   2.242   0.541   1.374  3.3259 -1.3625  1.2467
 6459SOL    HW231011   2.212   0.623   1.495 -1.2278  0.2397 -1.0088
 6460SOL     OW31012   0.169   0.191   3.393  0.3023  0.4969 -0.3925
 6460SOL    HW131013   0.080   0.202   3.361  0.0704 -0.7589 -0.1939
 6460SOL    HW231014   0.199   0.282   3.398 -0.3996  0.6900  0.3593
 6461SOL     OW31015   0.298   0.316   6.189 -0.0893  0.1076 -0.5907
 6461SOL    HW131016   0.260   0.247   6.135 -1.4673  1.6276 -1.6025
 6461SOL    HW231017   0.222   0.369   6.214  0.6865  0.2965  1.3394
 6462SOL     OW31018   3.993   3.083   5.809  0.7460  0.3668  0.1993
 6462SOL    HW131019   4.015   3.165   5.853 -2.1540  0.8945  0.6768
 6462SOL    HW231020   3.916   3.108   5.757  0.9104 -1.9192 -1.1393
 6463SOL     OW31021   2.789   2.895   4.729 -0.7273 -0.0313  0.1430
 6463SOL    HW131022   2.814   2.984   4.754  0.9225  0.1604 -2.2130
 6463SOL    HW231023   2.698   2.894   4.759 -0.7192  0.8734  0.2034
 6464SOL     OW31024   2.430   0.532   4.154 -0.0349 -0.3053 -0.1548
 6464SOL    HW131025   2.448   0.624   4.134  1.7336 -0.4761  0.6901
 6464SOL    HW231026   2.347   0.540   4.200  0.4243  2.0771  0.2382
 6465SOL     OW31027   1.128   4.490   6.485 -0.0866 -0.0474 -0.0108
 6465SOL    HW131028   1.188   4.479   6.559  0.6550  0.6604 -0.4888
 6465SOL    HW231029   1.065   4.419   6.482  0.7316 -0.7892  0.4237
 6466SOL     OW31030   0.654   3.934   8.256  0.4310  0.0887 -0.1311
 6466SOL    HW131031   0.732   3.987   8.242  1.1020 -1.6696 -2.8477
 6466SOL    HW231032   0.646   3.943   8.351 -1.3572 -3.4355  0.0589
 6467SOL     OW31033   1.383   3.542   7.111  0.4324  0.6768 -0.0743
 6467SOL    HW131034   1.355   3.501   7.029  0.5037  3.8899 -1.6944
 6467SOL    HW231035   1.462   3.491   7.128 -0.7307 -0.7368  1.1505
 6468SOL     OW31036   0.791   2.459   9.229 -0.9491 -0.6947  0.1087
 6468SOL    HW131037   0.831   2.433   9.146  0.5905 -1.2250  1.0190
 6468SOL    HW231038   0.863   2.481   9.288 -1.8924  0.8381  0.6786
 6469SOL     OW31039   2.958   3.370   3.314  0.2457 -0.0467  0.5263
 6469SOL    HW131040   2.893   3.413   3.258 -0.4270 -1.5208  0.1692
 6469SOL    HW231041   2.937   3.276   3.309  2.0359 -0.4757  1.2461
 6470SOL     OW31042   0.086   4.722  14.727  0.7203 -0.1538  0.5683
 6470SOL    HW131043   0.159   0.030  14.770  1.1711 -0.6705  0.3544
 6470SOL    HW231044   0.103   4.645  14.780  0.0453 -0.9658 -0.4054
 6471SOL     OW31045   1.008   3.471   6.967  0.1499 -0.6060  0.1569
 6471SOL    HW131046   0.987   3.384   7.001  1.6366 -0.2123  2.0401
 6471SOL    HW231047   1.006   3.527   7.045  0.8846 -0.3124 -0.0386
 6472SOL     OW31048   2.539   3.176   2.358 -0.3605 -0.3191 -0.1360
 6472SOL    HW131049   2.611   3.141   2.307  1.0461  1.0887  0.8899
 6472SOL    HW231050   2.494   3.099   2.391  0.1464 -0.9716 -0.9829
 6473SOL     OW31051   2.499   2.818   0.626 -0.0381 -0.4835 -0.4259
 6473SOL    HW131052   2.430   2.861   0.678 -0.5845  1.4519 -2.7662
 6473SOL    HW231053   2.540   2.900   0.600  0.5957 -0.5178  0.4681
 6474SOL     OW31054   0.724   0.154   6.490 -0.2584 -0.2559  0.5485
 6474SOL    HW131055   0.735   0.226   6.427 -0.0802  0.5441  1.4872
 6474SOL    HW231056   0.700   0.200   6.571 -0.0917  0.7353  0.0427
 6475SOL     OW31057   1.752   3.474   9.202  0.3035  0.1616  0.1357
 6475SOL    HW131058   1.767   3.540   9.135  2.1878 -2.3390 -1.9156
 6475SOL    HW231059   1.666   3.500   9.235  0.5005  0.5363  0.3465
 6476SOL     OW31060   4.305   2.912   2.687  0.3357 -0.0717  0.3370
 6476SOL    HW131061   4.288   2.963   2.608  1.1727 -0.7761 -0.3027
 6476SOL    HW231062   4.349   2.976   2.743  1.0612  0.4761 -0.8484
 6477SOL     OW31063   3.862   4.214   2.942  0.3628 -0.1150 -0.7460
 6477SOL    HW131064   3.911   4.134   2.921 -0.5559 -0.9175  0.2022
 6477SOL    HW231065   3.833   4.223   2.851 -1.3367  4.5558  0.2464
 6478SOL     OW31066   3.509   3.545  17.394  0.2127 -0.0766  0.4688
 6478SOL    HW131067   3.529   3.468  17.448  0.8172  0.0899  0.4834
 6478SOL    HW231068   3.462   3.513  17.317 -1.3023 -0.4731  1.5643
 6479SOL     OW31069   2.611   0.393   6.035 -0.7154  0.3408  0.1933
 6479SOL    HW131070   2.558   0.332   5.984  3.3143 -2.1609 -1.0229
 6479SOL    HW231071   2.549   0.422   6.101 -0.9335 -0.5549  0.3885
 6480SOL     OW31072   2.511   3.949   2.958  0.3168 -0.1855 -0.8963
 6480SOL    HW131073   2.429   3.942   2.909  1.0987  0.1943 -2.2722
 6480SOL    HW231074   2.561   4.008   2.902  1.7453  1.1136  1.7214
 6481SOL     OW31075   4.716   2.920  14.454  0.2758  0.8410 -0.1221
 6481SOL    HW131076   0.040   2.965  14.396  0.2287  1.1786  0.0942
 6481SOL    HW231077   4.707   2.975  14.531 -0.3142 -0.8675  1.0246
 6482SOL     OW31078   2.486   2.002   9.415  0.0199  0.3440 -0.2733
 6482SOL    HW131079   2.549   1.956   9.470 -0.9613  0.5685  1.0451
 6482SOL    HW231080   2.426   2.042   9.478 -0.1274 -0.9365  0.3864
 6483SOL     OW31081   3.630   3.326   8.798  0.4044  0.1050 -0.1841
 6483SOL    HW131082   3.584   3.301   8.717 -0.3285 -0.0619  0.2802
 6483SOL    HW231083   3.636   3.421   8.790  2.9824 -0.3815 -4.0822
 6484SOL     OW31084   3.302   2.149  17.572  0.0717  0.2654 -0.3351
 6484SOL    HW131085   3.356   2.186  17.642 -0.2931  2.4785 -1.2045
 6484SOL    HW231086   3.287   2.062  17.609  2.2045  0.5249  1.1099
 6485SOL     OW31087   1.335   0.546   3.021  0.2330 -0.0502  0.0807
 6485SOL    HW131088   1.362   0.488   3.092  1.2175 -0.6088 -0.7601
 6485SOL    HW231089   1.249   0.560   3.060  1.0515 -0.3246  1.9981
 6486SOL     OW31090   3.733   2.866   1.514 -0.4775 -0.4787 -0.6429
 6486SOL    HW131091   3.652   2.823   1.485  0.6529 -1.9967 -1.4956
 6486SOL    HW231092   3.697   2.919   1.586 -0.3971 -0.2380 -0.7793
 6487SOL     OW31093   3.836   3.323   9.098 -0.2644  0.3099  0.4239
 6487SOL    HW131094   3.847   3.282   9.012  0.4551  0.3827  0.4793
 6487SOL    HW231095   3.742   3.336   9.097 -0.2030  0.7302  0.2132
 6488SOL     OW31096   4.321   3.785   7.102  0.4847 -0.0172 -0.2352
 6488SOL    HW131097   4.278   3.814   7.022  0.1102  0.1281  0.0222
 6488SOL    HW231098   4.328   3.876   7.130 -1.6200 -0.4056  1.5265
 6489SOL     OW31099   1.242   2.413  11.802  0.4700 -0.1623 -0.3202
 6489SOL    HW131100   1.268   2.503  11.822  0.3766 -0.1147 -0.4134
 6489SOL    HW231101   1.309   2.362  11.846 -0.2230 -0.5889  0.2280
 6490SOL     OW31102   4.621   1.242   6.088 -0.1175 -0.1689 -0.6029
 6490SOL    HW131103   4.677   1.176   6.128  1.6598  0.9393 -1.2963
 6490SOL    HW231104   4.541   1.250   6.140 -1.0017 -0.9690 -1.8234
 6491SOL     OW31105   2.204   3.191   1.119  0.0156 -0.0726  0.0424
 6491SOL    HW131106   2.212   3.159   1.208 -0.0296 -0.5582 -0.1319
 6491SOL    HW231107   2.279   3.148   1.080 -0.3118 -0.0025 -0.6777
 6492SOL     OW31108   1.199   2.303   0.577  0.4731 -0.4582 -0.1434
 6492SOL    HW131109   1.216   2.216   0.540 -0.8280 -0.6951 -0.1667
 6492SOL    HW231110   1.117   2.329   0.535 -0.3057 -1.6630  0.6229
 6493SOL     OW31111   3.807   4.591   6.487  0.2595  0.1800  0.3400
 6493SOL    HW131112   3.767   4.510   6.455  0.0093  0.6872 -0.6405
 6493SOL    HW231113   3.902   4.576   6.493  0.3284  0.5841  0.2550
 6494SOL     OW31114   4.609   2.440   4.771 -0.2960 -0.0401 -0.0239
 6494SOL    HW131115   4.524   2.409   4.740 -0.6929  1.2692 -0.2699
 6494SOL    HW231116   4.575   2.488   4.847 -2.4380  0.7656 -1.4930
 6495SOL     OW31117   2.150   4.315  14.438  0.1626 -0.3478 -0.1452
 6495SOL    HW131118   2.113   4.227  14.442 -0.4085 -0.1089 -0.0720
 6495SOL    HW231119   2.239   4.288  14.459  0.5276 -1.4106 -3.1519
 6496SOL     OW31120   2.848   2.346   9.366 -0.1369 -0.0099  0.0337
 6496SOL    HW131121   2.771   2.399   9.346  0.0281  0.2088 -0.0170
 6496SOL    HW231122   2.920   2.406   9.348 -0.1549 -0.0366 -0.1329
 6497SOL     OW31123   3.645   0.221   9.156  0.0828  0.0115 -0.1216
 6497SOL    HW131124   3.666   0.311   9.179 -0.2371  0.2118 -0.6158
 6497SOL    HW231125   3.621   0.238   9.065 -0.7293  2.4054  0.5420
 6498SOL     OW31126   0.397   2.618   6.649 -0.4490 -0.1968  0.5385
 6498SOL    HW131127   0.346   2.655   6.577  1.6087  0.7068 -0.4495
 6498SOL    HW231128   0.454   2.557   6.603 -0.7682  0.6326 -0.9548
 6499SOL     OW31129   2.426   2.727   8.197  0.3125  0.0878 -0.5038
 6499SOL    HW131130   2.436   2.675   8.277  0.2903  0.5112 -0.2249
 6499SOL    HW231131   2.514   2.758   8.177  0.6514 -1.0282 -0.6900
 6500SOL     OW31132   3.055   0.912   8.030 -0.0014 -0.1563  0.4956
 6500SOL    HW131133   3.140   0.909   8.075  0.7172  0.0426 -0.8380
 6500SOL    HW231134   3.050   0.818   8.016 -1.3840 -0.3618  2.3896
 6501SOL     OW31135   0.831   4.422   4.739 -0.0735 -0.6286  0.1493
 6501SOL    HW131136   0.875   4.349   4.785  0.4138 -1.3246 -1.4198
 6501SOL    HW231137   0.907   4.479   4.753 -3.1562  3.8742 -1.5344
 6502SOL     OW31138   1.652   1.574   7.386  0.1119  0.2227  0.3778
 6502SOL    HW131139   1.588   1.547   7.320  1.6605 -2.0090 -0.2087
 6502SOL    HW231140   1.606   1.559   7.468  0.3436  2.4397  0.9177
 6503SOL     OW31141   3.664   2.986   2.581  0.1117  0.1258 -0.2135
 6503SOL    HW131142   3.667   2.908   2.526 -1.8036  1.3550 -2.0322
 6503SOL    HW231143   3.733   2.967   2.645  0.6592  0.5374 -0.6845
 6504SOL     OW31144   2.339   0.587   7.115 -0.1063 -0.4586  0.0534
 6504SOL    HW131145   2.263   0.529   7.110 -0.8943  0.7139 -2.0159
 6504SOL    HW231146   2.366   0.598   7.023  2.0753  0.6357  0.8217
 6505SOL     OW31147   4.717   0.394   2.737 -0.0927  0.0199  0.3720
 6505SOL    HW131148   4.700   0.300   2.748  0.7244  0.0824  2.1885
 6505SOL    HW231149   0.044   0.387   2.666  0.3406  0.2769  0.7417
 6506SOL     OW31150   0.220   2.167   5.049  0.4653 -0.3013  0.3951
 6506SOL    HW131151   0.135   2.157   5.092  0.6657 -1.3879  0.5286
 6506SOL    HW231152   0.208   2.255   5.014  1.1243 -0.5366 -0.4458
 6507SOL     OW31153   0.724   3.750   6.332 -0.3763 -0.0717 -0.6300
 6507SOL    HW131154   0.774   3.791   6.403  1.5106 -0.5894 -1.6490
 6507SOL    HW231155   0.756   3.806   6.261  0.7688  1.1550  0.8514
 6508SOL     OW31156   1.800   2.855   3.117  0.0694 -0.1492 -0.1010
 6508SOL    HW131157   1.764   2.806   3.043  1.6038 -1.6273  0.1335
 6508SOL    HW231158   1.743   2.832   3.190 -0.5836  0.0913 -0.5287
 6509SOL     OW31159   2.742   0.521   2.235  0.1430  0.0073  0.8134
 6509SOL    HW131160   2.724   0.547   2.145  0.3751  1.0528  1.0750
 6509SOL    HW231161   2.764   0.608   2.269 -2.1297  0.7525  0.3340
 6510SOL     OW31162   0.882   3.610  15.944 -0.0485  0.1376 -0.2762
 6510SOL    HW131163   0.802   3.652  15.915 -0.9832 -0.6891  1.0798
 6510SOL    HW231164   0.934   3.626  15.865  0.6578 -1.9941 -0.2457
 6511SOL     OW31165   0.508   2.502   8.549 -0.0430  0.4064  0.1790
 6511SOL    HW131166   0.430   2.455   8.520  1.3991 -1.3939 -0.8243
 6511SOL    HW231167   0.572   2.449   8.501 -0.0795 -1.0053  1.6766
 6512SOL     OW31168   4.413   3.071   5.978 -0.5036 -0.5539  0.8911
 6512SOL    HW131169   4.449   3.135   5.916 -3.0418 -0.6673 -0.7157
 6512SOL    HW231170   4.401   2.995   5.922  1.3983  0.0556 -0.3425
 6513SOL     OW31171   1.999   0.448   5.454  0.1608 -0.2280 -0.1985
 6513SOL    HW131172   2.060   0.437   5.527 -1.2652 -0.5425  0.9553
 6513SOL    HW231173   2.062   0.434   5.383 -1.5768  1.7973 -2.1405
 6514SOL     OW31174   4.386   0.485   4.053 -0.1621 -0.4385 -0.2725
 6514SOL    HW131175   4.389   0.543   3.977  0.5447  1.8510  1.4631
 6514SOL    HW231176   4.431   0.406   4.024  0.1339 -0.5374  0.4593
 6515SOL     OW31177   3.911   3.427   6.693 -0.2568  0.0249  0.0209
 6515SOL    HW131178   3.896   3.334   6.673 -1.5195  0.1094  0.5925
 6515SOL    HW231179   3.946   3.436   6.604 -1.6554 -0.8871 -0.6250
 6516SOL     OW31180   1.311   2.284   4.704 -0.0305 -0.1940  0.0172
 6516SOL    HW131181   1.317   2.378   4.687  0.2450  0.2436  2.5478
 6516SOL    HW231182   1.237   2.257   4.649  1.3996  0.3213 -2.1710
 6517SOL     OW31183   3.495   1.969  11.049  0.0645  0.6493  0.4332
 6517SOL    HW131184   3.439   2.025  10.995 -0.4512  0.5303  0.8428
 6517SOL    HW231185   3.579   2.015  11.048  1.6389 -2.2278  1.7857
 6518SOL     OW31186   2.995   3.073   9.712 -0.6002  0.1154 -0.1780
 6518SOL    HW131187   2.918   3.105   9.664 -0.5180 -0.2364 -0.5429
 6518SOL    HW231188   3.033   3.160   9.724 -2.5465  0.6008  2.5524
 6519SOL     OW31189   4.126   4.668   7.910  0.1779 -0.0359 -0.3637
 6519SOL    HW131190   4.089   4.588   7.873 -0.0288  0.1182 -0.4890
 6519SOL    HW231191   4.135   4.635   7.999  2.5441  0.6525 -0.3548
 6520SOL     OW31192   4.094   3.787   4.224 -0.1404  0.2704  0.6148
 6520SOL    HW131193   4.148   3.779   4.145  1.0099 -0.6440  1.4968
 6520SOL    HW231194   4.038   3.709   4.221  2.1116 -1.2770 -1.0465
 6521SOL     OW31195   3.524   4.698  13.702 -0.5805  0.2185 -0.0032
 6521SOL    HW131196   3.559   4.620  13.659 -0.8776 -1.6404  3.1201
 6521SOL    HW231197   3.586   4.709  13.774 -1.5197  2.3457  0.4728
 6522SOL     OW31198   0.389   2.883  14.351 -0.0035  0.3721  0.3081
 6522SOL    HW131199   0.376   2.790  14.367 -1.1014  0.8510  2.1660
 6522SOL    HW231200   0.393   2.894  14.256 -1.8464  0.1972  0.2214
 6523SOL     OW31201   3.830   4.116  12.318 -0.1239 -0.0076  0.4605
 6523SOL    HW131202   3.865   4.175  12.385  0.1662  2.3721 -1.7895
 6523SOL    HW231203   3.774   4.183  12.278 -0.4506 -1.7425 -1.9222
 6524SOL     OW31204   0.894   0.950   4.927 -0.5112  0.0485  0.1744
 6524SOL    HW131205   0.859   0.896   4.998  1.1487 -0.0281  0.9478
 6524SOL    HW231206   0.980   0.977   4.961 -0.4162 -0.9302  0.7282
 6525SOL     OW31207   2.290   3.543   0.671 -0.3170  0.9785 -0.4691
 6525SOL    HW131208   2.248   3.611   0.724  0.2321  0.2672  0.8600
 6525SOL    HW231209   2.315   3.600   0.598  2.6074  1.4224  0.8807
 6526SOL     OW31210   4.364   4.088   1.429  0.2889 -0.3616  0.8911
 6526SOL    HW131211   4.316   4.028   1.485  0.6908 -1.5514 -0.0435
 6526SOL    HW231212   4.302   4.105   1.358 -1.2351  0.4402  2.4210
 6527SOL     OW31213   1.489   0.723  10.491 -0.1737 -0.1243  0.1615
 6527SOL    HW131214   1.535   0.639  10.494  1.1064  0.6102  0.7849
 6527SOL    HW231215   1.466   0.738  10.582 -1.1480  0.5239 -0.1982
 6528SOL     OW31216   0.931   0.716   7.395  0.2240  0.1934 -0.2350
 6528SOL    HW131217   0.836   0.711   7.406  0.3574  0.8698  1.1379
 6528SOL    HW231218   0.954   0.718   7.487  2.8911  1.7883 -0.9430
 6529SOL     OW31219   0.188   3.756  14.523  0.0393 -0.4804 -0.0286
 6529SOL    HW131220   0.253   3.799  14.580 -0.8294 -1.1689  1.4798
 6529SOL    HW231221   0.131   3.710  14.584  0.7260  1.7645  2.3423
 6530SOL     OW31222   1.461   1.770   4.596  0.1365  0.7836 -0.2874
 6530SOL    HW131223   1.388   1.831   4.585 -0.6288  0.2237  1.7893
 6530SOL    HW231224   1.476   1.736   4.508 -0.0990  0.6856 -0.2900
 6531SOL     OW31225   0.282   1.112   3.067 -0.5590  0.7370 -0.3725
 6531SOL    HW131226   0.193   1.100   3.101 -0.3536 -1.9133 -0.7891
 6531SOL    HW231227   0.289   1.027   3.023  1.5180  0.3301  0.7377
 6532SOL     OW31228   4.601   4.542  14.534 -0.3416  0.5656 -0.1980
 6532SOL    HW131229   4.683   4.562  14.490 -0.1850  1.2294  0.4001
 6532SOL    HW231230   4.577   4.460  14.490 -1.7748 -0.0543  1.7333
 6533SOL     OW31231   1.300   3.667   2.993 -0.4159  0.7688  0.3884
 6533SOL    HW131232   1.333   3.586   2.953  0.5646  1.1331  0.4745
 6533SOL    HW231233   1.364   3.674   3.063 -0.1669  0.1901  0.2255
 6534SOL     OW31234   2.436   2.147   8.885  0.2110 -0.0828 -0.0407
 6534SOL    HW131235   2.411   2.123   8.974  1.3937 -2.7551 -0.4395
 6534SOL    HW231236   2.366   2.095   8.844  0.6057 -0.4119 -0.3047
 6535SOL     OW31237   1.408   0.413   6.906  0.4161 -0.4468  0.0369
 6535SOL    HW131238   1.328   0.384   6.950  0.2790  1.5315  1.0954
 6535SOL    HW231239   1.467   0.361   6.961  1.0914  3.3653  2.9394
 6536SOL     OW31240   1.010   3.525  14.398  0.5020  0.4040  0.1590
 6536SOL    HW131241   1.034   3.437  14.370  1.8592  1.4180 -1.9366
 6536SOL    HW231242   1.053   3.540  14.482  1.7153 -3.4503  0.1996
 6537SOL     OW31243   2.998   2.282   7.755 -0.6697 -0.5718 -0.0444
 6537SOL    HW131244   2.978   2.282   7.661 -1.7218 -1.0980  0.1734
 6537SOL    HW231245   3.005   2.375   7.776 -0.0445 -0.2992 -1.4063
 6538SOL     OW31246   2.284   2.150  15.539  0.9884  0.0522 -0.2754
 6538SOL    HW131247   2.354   2.143  15.474 -0.4766 -2.2646 -1.5716
 6538SOL    HW231248   2.210   2.117  15.489  0.9594 -1.4910  0.7927
 6539SOL     OW31249   2.651   2.131   4.882 -0.2609  0.3025  0.0597
 6539SOL    HW131250   2.606   2.050   4.860  2.3500 -1.0113 -0.4402
 6539SOL    HW231251   2.594   2.164   4.952  0.1628  0.6528  0.2424
 6540SOL     OW31252   0.888   3.504   1.774  0.2962  0.0141  0.3704
 6540SOL    HW131253   0.850   3.568   1.834 -0.7657  0.0792 -0.3610
 6540SOL    HW231254   0.855   3.515   1.685  1.4832  3.3247  0.3577
 6541SOL     OW31255   1.492   1.791   7.134 -0.4618  0.3261  0.5659
 6541SOL    HW131256   1.419   1.851   7.120  0.4846  1.5047  0.5960
 6541SOL    HW231257   1.527   1.766   7.048  1.2574 -0.5258  1.5017
 6542SOL     OW31258   3.396   4.631   3.314 -0.5486  0.0876  0.7530
 6542SOL    HW131259   3.415   4.692   3.385  0.5893 -1.5183  1.8191
 6542SOL    HW231260   3.350   4.567   3.367 -1.5111 -0.7076 -1.0512
 6543SOL     OW31261   3.299   2.808   9.326  0.1185 -0.0061  0.0634
 6543SOL    HW131262   3.338   2.867   9.390  1.7401 -1.1821  0.1756
 6543SOL    HW231263   3.212   2.846   9.315  0.4663  0.0712 -2.2625
 6544SOL     OW31264   0.052   3.183   5.916 -0.2695 -0.1456  0.1694
 6544SOL    HW131265   0.033   3.116   5.981  0.6957 -0.5344  0.0579
 6544SOL    HW231266   0.003   3.136   5.849  1.0025  0.5370 -1.2564
 6545SOL     OW31267   3.262   3.708   6.923 -0.1458 -0.0763  0.7360
 6545SOL    HW131268   3.247   3.651   6.999 -0.0837 -0.8298  0.1886
 6545SOL    HW231269   3.226   3.794   6.944 -0.3440 -0.0596  0.3356
 6546SOL     OW31270   4.208   1.919   4.964  0.1694  0.5996 -0.8473
 6546SOL    HW131271   4.175   2.008   4.977  1.8013  0.8128  1.8918
 6546SOL    HW231272   4.298   1.934   4.992  0.2613 -1.6630  0.0598
 6547SOL     OW31273   4.715   4.446   7.061 -0.0869 -0.4442  0.2602
 6547SOL    HW131274   0.014   4.496   6.988 -3.0761  0.6072 -0.5409
 6547SOL    HW231275   4.623   4.470   7.048  0.3307  0.9253 -0.1293
 6548SOL     OW31276   4.248   1.105  16.979  0.0794 -0.4131  0.5086
 6548SOL    HW131277   4.163   1.061  16.970 -0.8815  1.7117 -0.8743
 6548SOL    HW231278   4.292   1.058  17.050  1.1869  2.7235  1.9137
 6549SOL     OW31279   3.831   1.627   3.443  0.1922  0.1949  0.2169
 6549SOL    HW131280   3.886   1.688   3.492  0.0373 -1.1377  2.0691
 6549SOL    HW231281   3.851   1.653   3.354 -0.2441 -0.7017 -0.1453
 6550SOL     OW31282   3.942   1.105  13.750  0.3316  0.1403 -0.1438
 6550SOL    HW131283   3.899   1.059  13.822  1.7724 -0.8644  0.0790
 6550SOL    HW231284   3.930   1.042  13.680  2.5006 -0.9338  0.4223
 6551SOL     OW31285   1.317   3.292   4.155 -0.2804  0.0363  0.1973
 6551SOL    HW131286   1.322   3.378   4.113  0.3531 -0.6271 -1.0740
 6551SOL    HW231287   1.394   3.306   4.211  0.5215 -1.7402 -0.4492
 6552SOL     OW31288   4.512   2.376   3.819  0.1804 -0.2918  0.2360
 6552SOL    HW131289   4.454   2.326   3.877  0.4483 -1.1109 -0.1932
 6552SOL    HW231290   4.480   2.466   3.827 -0.6552 -0.5604 -0.0592
 6553SOL     OW31291   1.480   3.158   8.882 -0.1069 -0.3110  0.2294
 6553SOL    HW131292   1.492   3.110   8.800 -0.4219 -2.4196  1.4209
 6553SOL    HW231293   1.569   3.191   8.895 -0.4984  0.6165  0.5012
 6554SOL     OW31294   1.191   4.179   3.662 -0.2549  0.6225 -0.6451
 6554SOL    HW131295   1.223   4.089   3.651 -0.2165  0.5234  0.2872
 6554SOL    HW231296   1.149   4.160   3.746  2.8582  1.0451  1.0148
 6555SOL     OW31297   0.772   3.609   9.995 -0.3175 -0.0953  0.3792
 6555SOL    HW131298   0.801   3.679   9.937 -3.1830  0.3439 -0.5234
 6555SOL    HW231299   0.815   3.637  10.076 -0.7643  0.7596  0.3208
 6556SOL     OW31300   0.251   2.733   6.033  0.7869 -0.3278 -0.1622
 6556SOL    HW131301   0.328   2.789   6.021 -1.0926  2.2570 -0.3784
 6556SOL    HW231302   0.195   2.753   5.959  0.2601 -0.4502  0.2019
 6557SOL     OW31303   3.125   4.704  10.434 -0.8508 -0.8353  0.2132
 6557SOL    HW131304   3.039   4.726  10.399  0.7120  1.5246 -2.1612
 6557SOL    HW231305   3.188   0.012  10.377 -2.0310 -0.0624 -0.4564
 6558SOL     OW31306   3.834   0.436   8.903  0.3537  0.0496 -0.6697
 6558SOL    HW131307   3.925   0.461   8.917  0.2930 -0.3505  0.4416
 6558SOL    HW231308   3.801   0.471   8.986  2.0053  0.5966 -0.2309
 6559SOL     OW31309   2.255   2.976   7.800 -0.0065 -0.2777  0.0132
 6559SOL    HW131310   2.276   2.892   7.758 -0.1690 -1.6263  2.6254
 6559SOL    HW231311   2.291   3.028   7.729  0.3931 -0.8936 -0.2439
 6560SOL     OW31312   0.699   2.279   6.258 -0.0824  0.1243  0.2600
 6560SOL    HW131313   0.628   2.330   6.297 -0.5521  0.6153 -1.2439
 6560SOL    HW231314   0.660   2.192   6.263 -0.8142  0.5006  1.0058
 6561SOL     OW31315   1.197   1.271  10.711  0.3512 -0.1848  0.2527
 6561SOL    HW131316   1.123   1.219  10.745  0.0294  0.2458  0.2178
 6561SOL    HW231317   1.174   1.358  10.745 -1.8325 -0.4659 -0.4825
 6562SOL     OW31318   3.625   1.453   3.459 -0.8543  0.1194 -0.5077
 6562SOL    HW131319   3.660   1.542   3.460  0.3962 -0.4021  1.4182
 6562SOL    HW231320   3.705   1.403   3.442  0.0583  1.9857 -1.7513
 6563SOL     OW31321   3.073   4.215  11.074 -0.1279  0.3592  0.1463
 6563SOL    HW131322   3.140   4.243  11.136  0.4925  1.5526 -1.0489
 6563SOL    HW231323   3.130   4.179  11.006 -2.3079 -1.6131 -0.6121
 6564SOL     OW31324   1.692   2.482  16.163  0.5158 -0.5053 -0.1705
 6564SOL    HW131325   1.770   2.431  16.142  1.2563  1.3505 -1.9131
 6564SOL    HW231326   1.702   2.552  16.099  0.6681 -0.3028  0.0758
 6565SOL     OW31327   2.895   1.364  12.063  0.2630 -0.3865 -0.0819
 6565SOL    HW131328   2.943   1.315  11.996  2.8031  0.4675  1.1143
 6565SOL    HW231329   2.892   1.300  12.134  0.3925  2.2031  2.2926
 6566SOL     OW31330   0.228   2.771  11.998  0.5353  0.0788  0.0720
 6566SOL    HW131331   0.235   2.740  12.089 -0.9596  1.9598  0.8245
 6566SOL    HW231332   0.234   2.692  11.945  0.8773 -1.0277  1.7614
 6567SOL     OW31333   1.768   3.547   3.253 -0.2235  0.2581 -0.3322
 6567SOL    HW131334   1.792   3.497   3.331  0.0109  0.0499 -0.5359
 6567SOL    HW231335   1.851   3.542   3.205  1.1396 -1.8838  2.2619
 6568SOL     OW31336   1.421   1.446   5.804 -0.0335  0.3118 -0.3381
 6568SOL    HW131337   1.374   1.370   5.768 -0.2031 -0.9503  2.5145
 6568SOL    HW231338   1.469   1.403   5.876  0.4378  2.7121  0.7661
 6569SOL     OW31339   0.480   4.556   3.666 -0.9735  0.0904  0.2074
 6569SOL    HW131340   0.458   4.469   3.698 -0.9135 -0.0019 -0.0005
 6569SOL    HW231341   0.404   4.595   3.623  0.5495  1.7227 -1.0275
 6570SOL     OW31342   2.234   0.640   4.273 -0.5039 -0.1226  0.6275
 6570SOL    HW131343   2.138   0.638   4.274 -0.5431  0.6481 -1.3036
 6570SOL    HW231344   2.266   0.714   4.324 -2.3155  0.4527  0.9386
 6571SOL     OW31345   4.408   3.248   3.015 -0.5133 -0.3248  0.1138
 6571SOL    HW131346   4.486   3.247   2.960 -1.1185 -3.0604 -0.6970
 6571SOL    HW231347   4.383   3.156   3.021  0.7523 -0.6626  0.3026
 6572SOL     OW31348   4.212   0.782   2.818  0.1043  0.0951 -0.2921
 6572SOL    HW131349   4.254   0.747   2.896 -2.0808  0.8568  1.2349
 6572SOL    HW231350   4.170   0.707   2.777  0.0181 -0.3525  0.6108
 6573SOL     OW31351   0.354   3.913   7.879 -0.2940  0.3794 -0.0246
 6573SOL    HW131352   0.327   3.822   7.890 -1.1040  0.8651  2.1981
 6573SOL    HW231353   0.417   3.938   7.947  1.5223 -2.1783 -0.7871
 6574SOL     OW31354   2.242   3.431   5.632  0.1587  0.2262 -0.1075
 6574SOL    HW131355   2.181   3.501   5.608 -0.5051 -0.1033  0.6252
 6574SOL    HW231356   2.192   3.391   5.703 -0.8746  0.7747 -0.5235
 6575SOL     OW31357   2.903   4.722  16.900 -0.1600  0.7294  0.1677
 6575SOL    HW131358   2.930   4.736  16.809 -1.8164 -0.5822 -0.5367
 6575SOL    HW231359   2.986   4.708  16.946 -0.0312  0.0981 -0.2494
 6576SOL     OW31360   2.251   3.543   1.985 -0.6238 -0.0519 -0.1648
 6576SOL    HW131361   2.315   3.511   1.922 -1.3222 -2.1770  0.2038
 6576SOL    HW231362   2.255   3.639   1.978 -0.9702 -0.0390 -0.1925
 6577SOL     OW31363   0.998   4.222  15.092  0.0425 -0.6015 -0.4012
 6577SOL    HW131364   0.989   4.149  15.032  2.5448 -0.5966 -0.7916
 6577SOL    HW231365   1.016   4.172  15.171 -1.6332 -0.0158  0.3583
 6578SOL     OW31366   4.143   2.388  11.641  0.4141  0.6151  0.0527
 6578SOL    HW131367   4.221   2.433  11.607  0.7108  0.6294  0.7403
 6578SOL    HW231368   4.187   2.322  11.694 -2.0750 -1.3618 -0.3396
 6579SOL     OW31369   0.438   1.096   3.941  0.5410  0.2406  0.7921
 6579SOL    HW131370   0.391   1.175   3.969 -1.8478 -0.4088 -1.4831
 6579SOL    HW231371   0.525   1.125   3.969  1.0766 -1.5356  0.9753
 6580SOL     OW31372   0.252   4.055   4.543 -0.3783 -0.2401 -0.2867
 6580SOL    HW131373   0.241   4.128   4.604  2.5187  0.8907 -1.1427
 6580SOL    HW231374   0.313   4.094   4.481 -1.0147  0.1788 -0.6484
 6581SOL     OW31375   1.533   1.920   2.942  0.0564  0.6532  0.6125
 6581SOL    HW131376   1.566   1.851   2.884 -4.3972 -1.1982  0.2846
 6581SOL    HW231377   1.472   1.953   2.876 -0.2914  1.2003  1.2104
 6582SOL     OW31378   2.956   2.795   4.195  0.2150  0.4098  0.3474
 6582SOL    HW131379   3.022   2.786   4.127  2.0022 -1.2300  2.3092
 6582SOL    HW231380   3.010   2.765   4.268 -2.0714 -0.4023  1.7408
 6583SOL     OW31381   1.630   1.315   1.052 -0.2738  0.0868 -0.6051
 6583SOL    HW131382   1.707   1.319   1.110  0.5399  1.8279 -1.8166
 6583SOL    HW231383   1.675   1.325   0.968 -0.7674 -0.2018 -0.9014
 6584SOL     OW31384   4.442   2.354  10.794 -0.1662  0.2126 -0.0200
 6584SOL    HW131385   4.397   2.354  10.878  0.3097 -0.7004  0.2364
 6584SOL    HW231386   4.376   2.403  10.746  2.7059  4.4575  0.3471
 6585SOL     OW31387   2.134   3.543   2.262  0.3830  0.1523  0.5812
 6585SOL    HW131388   2.144   3.448   2.269  0.5775  0.0278 -1.5121
 6585SOL    HW231389   2.183   3.550   2.180  0.0669  1.2899  0.4853
 6586SOL     OW31390   1.654   4.464   6.270  0.0231  0.1697  0.6483
 6586SOL    HW131391   1.587   4.508   6.323 -1.1612  0.1440 -0.8142
 6586SOL    HW231392   1.733   4.463   6.323  0.5873 -0.1496 -0.1969
 6587SOL     OW31393   0.412   0.689   3.592  0.0706  0.9480  0.3433
 6587SOL    HW131394   0.414   0.610   3.539  3.3296  1.9856 -1.0980
 6587SOL    HW231395   0.500   0.676   3.628  0.7975  0.0733 -1.7389
 6588SOL     OW31396   4.681   0.966   4.520  0.0122 -0.2732  0.0420
 6588SOL    HW131397   4.709   0.945   4.609 -2.4485  0.5869  1.0230
 6588SOL    HW231398   4.593   0.929   4.532 -0.1738 -0.2535 -1.2019
 6589SOL     OW31399   2.649   2.464   7.824 -0.3082 -0.0852  0.6536
 6589SOL    HW131400   2.659   2.508   7.739 -0.0159 -2.7382 -0.6673
 6589SOL    HW231401   2.603   2.383   7.804  1.1177 -0.4109 -1.3014
 6590SOL     OW31402   1.115   3.280  10.742  0.0769  0.3087  0.3230
 6590SOL    HW131403   1.062   3.354  10.774 -0.1895  1.0415 -1.7938
 6590SOL    HW231404   1.156   3.254  10.824  1.2884  0.2818 -0.2924
 6591SOL     OW31405   3.657   2.615  17.597 -0.1424 -0.1228 -0.2104
 6591SOL    HW131406   3.629   2.524  17.586  0.7394 -0.7978  3.0164
 6591SOL    HW231407   3.574   2.662  17.592  1.7287  3.1900 -0.3229
 6592SOL     OW31408   3.468   3.113  11.391 -0.8024  0.1709 -0.0009
 6592SOL    HW131409   3.549   3.164  11.391 -1.1798  0.7766 -1.8485
 6592SOL    HW231410   3.439   3.129  11.481  0.5963  1.8262  0.1706
 6593SOL     OW31411   0.556   2.338   5.532 -0.0103  0.3073  0.1106
 6593SOL    HW131412   0.524   2.289   5.608 -0.0553  0.9908  0.5345
 6593SOL    HW231413   0.651   2.340   5.543 -0.1294 -0.1195  1.3285
 6594SOL     OW31414   1.702   4.353   4.791  0.0612 -0.2935 -0.2493
 6594SOL    HW131415   1.759   4.364   4.714 -0.0559  0.2713 -0.2576
 6594SOL    HW231416   1.620   4.386   4.755 -0.4159  0.1501  1.2574
 6595SOL     OW31417   2.787   1.071  14.993 -0.0728 -0.0707  0.3667
 6595SOL    HW131418   2.756   1.001  15.050 -1.3433 -3.0305 -3.8996
 6595SOL    HW231419   2.713   1.067  14.932  0.1504 -1.8299  0.2260
 6596SOL     OW31420   4.495   3.489   7.808  0.7623 -0.1432  0.0581
 6596SOL    HW131421   4.430   3.531   7.752 -1.1106 -1.8716  0.9498
 6596SOL    HW231422   4.571   3.548   7.811  1.6136 -1.2955  1.1029
 6597SOL     OW31423   3.367   0.061   1.991 -0.8286 -0.0982 -0.4518
 6597SOL    HW131424   3.433   0.046   2.059 -0.9809  1.2757  0.0116
 6597SOL    HW231425   3.402   4.724   1.943 -1.2406 -1.3675  1.2414
 6598SOL     OW31426   3.105   3.827  13.442 -0.3068  0.6181 -0.0296
 6598SOL    HW131427   3.165   3.752  13.445 -1.5180 -0.4054 -1.2305
 6598SOL    HW231428   3.109   3.867  13.355  0.2788 -0.9689 -0.7478
 6599SOL     OW31429   4.543   3.167   6.204 -0.0087 -0.2784 -0.1974
 6599SOL    HW131430   4.610   3.099   6.199 -0.4038 -0.7114  0.3394
 6599SOL    HW231431   4.493   3.145   6.126 -1.2042  2.5888 -0.2388
 6600SOL     OW31432   3.324   2.480   6.588 -0.3412  0.2205 -0.9135
 6600SOL    HW131433   3.400   2.501   6.642 -1.5889 -0.4745  1.1259
 6600SOL    HW231434   3.357   2.404   6.539  0.2817  0.2788 -0.5863
 6601SOL     OW31435   3.681   1.629   2.196  0.2930 -0.0244  0.2323
 6601SOL    HW131436   3.610   1.577   2.232 -0.4487  1.3235  0.7177
 6601SOL    HW231437   3.687   1.585   2.111  0.3750  0.4183  0.0031
 6602SOL     OW31438   3.543   0.508   1.250 -0.5107  0.1210  0.0153
 6602SOL    HW131439   3.599   0.437   1.283  0.1743  2.1544  3.1679
 6602SOL    HW231440   3.608   0.568   1.214  0.7979 -2.1924 -1.4929
 6603SOL     OW31441   0.121   3.134   2.169  0.1978  0.2829 -0.2429
 6603SOL    HW131442   0.036   3.102   2.196 -1.0434  2.0140 -2.0259
 6603SOL    HW231443   0.158   3.048   2.152 -1.0358  0.0922 -2.0270
 6604SOL     OW31444   1.288   2.107   6.774 -0.0489  0.0189 -0.2690
 6604SOL    HW131445   1.197   2.132   6.759  0.0973 -0.0259 -1.2430
 6604SOL    HW231446   1.322   2.139   6.691  2.5065 -1.0018  0.3877
 6605SOL     OW31447   4.488   2.693  16.890 -0.1787 -0.6619 -0.2793
 6605SOL    HW131448   4.477   2.695  16.985  1.4754  0.6984 -0.1169
 6605SOL    HW231449   4.441   2.773  16.865  0.7491  0.0381  0.2415
 6606SOL     OW31450   3.223   4.122   5.398 -0.2625  0.3760  0.4738
 6606SOL    HW131451   3.318   4.111   5.402 -0.1662  1.4315  0.8794
 6606SOL    HW231452   3.204   4.108   5.490  1.5519  1.2769  0.9838
 6607SOL     OW31453   2.957   3.859   4.304  0.1122  0.0216 -0.6506
 6607SOL    HW131454   3.045   3.889   4.326 -0.4676  1.8010 -0.7756
 6607SOL    HW231455   2.957   3.774   4.349  0.0942  1.3077  1.7749
 6608SOL     OW31456   1.242   1.952   2.019  0.4320  0.0326  0.1321
 6608SOL    HW131457   1.309   1.894   2.053 -0.3109 -1.8627 -1.6665
 6608SOL    HW231458   1.242   2.018   2.089  2.9681  1.0492 -0.8109
 6609SOL     OW31459   3.314   4.194   7.140 -0.1809  0.4154 -0.1304
 6609SOL    HW131460   3.258   4.208   7.216  1.1669  2.3191  0.5174
 6609SOL    HW231461   3.358   4.116   7.172 -0.6086  1.1775  2.3533
 6610SOL     OW31462   2.202   2.563   0.954 -0.2041 -0.2409  0.9521
 6610SOL    HW131463   2.150   2.623   1.006 -0.0584  1.9976 -1.4806
 6610SOL    HW231464   2.280   2.539   1.004  0.9082  2.7791  0.6573
 6611SOL     OW31465   3.390   2.802   5.602  0.4852  0.4458 -0.1998
 6611SOL    HW131466   3.407   2.736   5.535 -1.2794 -1.3743  1.0980
 6611SOL    HW231467   3.295   2.812   5.590  0.6495  0.2194 -1.6688
 6612SOL     OW31468   2.269   2.028   3.698 -0.4271  0.3496  0.1039
 6612SOL    HW131469   2.297   2.017   3.789 -1.0765 -2.2278 -0.0078
 6612SOL    HW231470   2.331   2.098   3.678 -0.9926  0.0745 -2.6093
 6613SOL     OW31471   3.993   1.869   0.495 -0.5689  0.7260  0.7540
 6613SOL    HW131472   3.979   1.936   0.563 -0.6043  0.0044  1.4550
 6613SOL    HW231473   4.056   1.814   0.542  0.7817  0.7522 -1.0259
 6614SOL     OW31474   0.042   4.610  16.627  0.4884 -0.5887  0.0997
 6614SOL    HW131475   4.692   4.612  16.589  0.1749 -0.3456  0.8333
 6614SOL    HW231476   0.060   4.702  16.606  1.5907 -0.7247  0.4181
 6615SOL     OW31477   4.349   1.408   6.953  0.5018 -0.2531 -0.0919
 6615SOL    HW131478   4.348   1.504   6.960 -0.2605 -0.2749  0.1821
 6615SOL    HW231479   4.353   1.402   6.858 -2.5486 -1.3718 -0.1700
 6616SOL     OW31480   2.391   3.305   4.873  0.1836  0.3201 -0.6067
 6616SOL    HW131481   2.446   3.375   4.909 -1.9419  0.1616  2.9804
 6616SOL    HW231482   2.326   3.352   4.823 -0.0680 -1.2592 -1.7648
 6617SOL     OW31483   3.772   2.949   0.057  1.1915 -0.0521 -0.1023
 6617SOL    HW131484   3.775   2.857   0.085 -2.3477 -0.3765 -0.7004
 6617SOL    HW231485   3.772   2.945  17.710  2.5410  2.0432 -0.1812
 6618SOL     OW31486   0.672   2.330   6.623 -0.4940  0.2165  0.1351
 6618SOL    HW131487   0.634   2.244   6.643 -0.0671  0.3930  1.7010
 6618SOL    HW231488   0.611   2.360   6.556 -0.4298 -1.2016 -0.5761
 6619SOL     OW31489   1.909   1.137   3.788 -0.0339 -0.2745 -0.0256
 6619SOL    HW131490   1.842   1.136   3.720 -0.2128 -2.5677  0.1806
 6619SOL    HW231491   1.881   1.060   3.838  0.9454  1.1279  2.6483
 6620SOL     OW31492   3.383   4.424   9.906  0.0241 -0.1348  0.4877
 6620SOL    HW131493   3.325   4.349   9.890 -1.3781  1.0456  0.0751
 6620SOL    HW231494   3.325   4.499   9.914  0.7796  0.4622  0.4269
 6621SOL     OW31495   4.355   2.720  16.175 -0.1660 -0.0139  0.4970
 6621SOL    HW131496   4.366   2.636  16.221 -1.2879 -0.9032 -0.8850
 6621SOL    HW231497   4.264   2.747  16.190  0.2617  0.3180  2.5745
 6622SOL     OW31498   4.549   0.217   4.416 -0.3143  0.2663 -0.8844
 6622SOL    HW131499   4.637   0.200   4.384 -0.2450 -3.0465  1.0885
 6622SOL    HW231500   4.520   0.131   4.386  1.9415 -0.9000  0.3002
 6623SOL     OW31501   2.474   4.391  15.704 -0.2109 -0.1179  0.2576
 6623SOL    HW131502   2.379   4.398  15.715 -0.1621 -0.6468  1.0384
 6623SOL    HW231503   2.497   4.438  15.785  0.0072 -0.0699  0.1675
 6624SOL     OW31504   0.756   3.423  12.091 -0.3872 -0.0719  0.3264
 6624SOL    HW131505   0.727   3.335  12.067 -1.2903  0.3593 -0.1480
 6624SOL    HW231506   0.849   3.411  12.109 -0.3527 -0.1984  0.0716
 6625SOL     OW31507   1.747   3.277   1.590 -0.4054 -0.5997  0.1473
 6625SOL    HW131508   1.818   3.325   1.632  0.0922  0.1351 -1.5196
 6625SOL    HW231509   1.718   3.230   1.668 -2.2606 -0.4130 -0.4435
 6626SOL     OW31510   4.437   2.676   7.327  0.0487 -0.0542 -0.1953
 6626SOL    HW131511   4.420   2.600   7.270 -0.4702  0.1029 -0.2523
 6626SOL    HW231512   4.369   2.671   7.394  0.1232 -0.7053 -0.1596
 6627SOL     OW31513   1.078   0.135   8.105 -0.1744  0.0619 -0.3247
 6627SOL    HW131514   1.067   0.058   8.050 -0.2321 -1.4712  1.8477
 6627SOL    HW231515   1.172   0.140   8.126  0.0239  0.4245 -1.2850
 6628SOL     OW31516   1.270   2.212   4.108  0.3245  0.2764  0.0299
 6628SOL    HW131517   1.346   2.164   4.141  0.1087  1.7090  2.6926
 6628SOL    HW231518   1.199   2.149   4.103  0.9144 -0.4256  0.5866
 6629SOL     OW31519   1.897   0.502  15.584  0.1840 -0.2423 -0.1700
 6629SOL    HW131520   1.903   0.589  15.544 -0.5064  0.5691  1.4810
 6629SOL    HW231521   1.857   0.449  15.515 -1.2159  0.7956 -0.1541
 6630SOL     OW31522   1.450   1.012  15.030 -0.3318  0.4364 -0.7222
 6630SOL    HW131523   1.466   0.957  15.107  0.9362  2.5218  0.5065
 6630SOL    HW231524   1.451   0.940  14.967  0.0450 -0.4200  0.2757
 6631SOL     OW31525   4.428   0.217   5.177  0.0585 -0.4633  0.3404
 6631SOL    HW131526   4.445   0.256   5.263 -0.5501  1.2672 -0.3304
 6631SOL    HW231527   4.388   0.285   5.123  0.0981 -0.7997 -0.1142
 6632SOL     OW31528   3.528   1.303   3.668 -0.1080  0.7719  0.3538
 6632SOL    HW131529   3.504   1.383   3.714  1.0209  1.4687 -0.2936
 6632SOL    HW231530   3.566   1.341   3.589 -1.1935  1.6146  0.2304
 6633SOL     OW31531   2.238   2.634   6.357  0.0772  0.0922 -0.2554
 6633SOL    HW131532   2.190   2.685   6.422  0.0541  1.2500 -1.1875
 6633SOL    HW231533   2.271   2.703   6.300  0.3551  0.1128 -0.0689
 6634SOL     OW31534   0.377   3.234   3.101 -0.0508 -0.4606 -0.4415
 6634SOL    HW131535   0.358   3.181   3.179  0.6824  1.0642  0.7944
 6634SOL    HW231536   0.410   3.308   3.152  1.3530  0.6131 -2.9279
 6635SOL     OW31537   0.145   1.664  17.626  0.3777 -0.3230  0.0737
 6635SOL    HW131538   0.229   1.629  17.594  0.0116 -0.8597 -0.3043
 6635SOL    HW231539   0.137   1.736  17.563  0.6486  0.8544  1.4046
 6636SOL     OW31540   0.459   0.352   5.285 -0.0483 -0.5809  0.4497
 6636SOL    HW131541   0.533   0.375   5.229 -0.8767  1.3130  0.1245
 6636SOL    HW231542   0.421   0.440   5.295  0.4384 -0.4042  0.7349
 6637SOL     OW31543   1.240   0.504   4.838  0.0495  0.0481 -0.0649
 6637SOL    HW131544   1.260   0.542   4.752  2.7091  0.9838  0.9743
 6637SOL    HW231545   1.318   0.510   4.893 -0.6091 -1.0640  0.9911
 6638SOL     OW31546   0.493   2.073   8.893  0.0471  0.8385 -0.1643
 6638SOL    HW131547   0.521   2.020   8.967  0.8060  1.1026 -0.2564
 6638SOL    HW231548   0.561   2.140   8.895  1.6400 -0.8519  1.8058
 6639SOL     OW31549   2.036   3.412  15.862 -0.4837  0.0101  0.4261
 6639SOL    HW131550   2.035   3.399  15.767  2.2815 -1.4537  0.6149
 6639SOL    HW231551   2.116   3.371  15.895 -0.7856  0.8569  2.2030
 6640SOL     OW31552   4.528   0.955   3.963 -0.4479 -0.2421  0.6678
 6640SOL    HW131553   4.489   0.991   4.043  0.7245  2.3688  0.0681
 6640SOL    HW231554   4.596   0.898   3.999  2.8445  2.2595 -1.5183
 6641SOL     OW31555   4.100   0.523   6.899  0.1523 -0.0339  0.5921
 6641SOL    HW131556   4.013   0.490   6.922  0.4157 -1.4796 -0.4635
 6641SOL    HW231557   4.087   0.618   6.902 -0.0972 -0.0347 -0.7943
 6642SOL     OW31558   3.872   3.548   3.764  0.2111 -0.5258  0.1093
 6642SOL    HW131559   3.844   3.541   3.855 -4.4559 -2.6413 -1.4809
 6642SOL    HW231560   3.880   3.456   3.740 -1.5085 -0.0532 -2.3387
 6643SOL     OW31561   4.338   1.184   1.692 -0.3890 -0.0989 -0.0370
 6643SOL    HW131562   4.394   1.146   1.760  0.0693 -2.5301 -1.7817
 6643SOL    HW231563   4.356   1.124   1.619 -0.1495  0.6618 -0.6143
 6644SOL     OW31564   2.788   1.193   3.490 -0.1664 -0.3716  0.1411
 6644SOL    HW131565   2.749   1.108   3.471 -0.2377  0.0266 -1.4862
 6644SOL    HW231566   2.845   1.209   3.415 -0.3481 -1.1425 -0.1632
 6645SOL     OW31567   4.487   4.314   1.472  0.0500  0.0268  0.2163
 6645SOL    HW131568   4.448   4.227   1.476  0.9505 -0.3845  0.1639
 6645SOL    HW231569   4.409   4.352   1.432  0.1351 -0.2502 -0.2170
 6646SOL     OW31570   3.145   0.770   1.729  0.4619 -0.2121  0.0167
 6646SOL    HW131571   3.061   0.816   1.735 -0.0555 -0.9402 -1.6449
 6646SOL    HW231572   3.136   0.699   1.793 -1.2509 -0.7152 -0.7848
 6647SOL     OW31573   2.957   3.090   4.507 -0.0092 -0.0085  0.8356
 6647SOL    HW131574   2.958   3.004   4.548 -1.3018 -1.1965 -1.6292
 6647SOL    HW231575   2.992   3.155   4.569 -1.6733  2.6070 -0.9526
 6648SOL     OW31576   2.903   1.289   6.677  0.0076 -0.6101  0.4341
 6648SOL    HW131577   2.839   1.272   6.608 -0.5411 -0.2944  0.8688
 6648SOL    HW231578   2.952   1.206   6.681 -0.6820 -1.1814 -2.5053
 6649SOL     OW31579   1.281   2.012   7.988 -0.1957 -0.0505  0.6060
 6649SOL    HW131580   1.323   1.952   7.927  0.0596  0.5046  0.2296
 6649SOL    HW231581   1.272   1.954   8.063 -0.8855 -2.2599 -1.1765
 6650SOL     OW31582   3.222   4.265   6.788  0.5322 -0.1982 -0.1334
 6650SOL    HW131583   3.300   4.209   6.794  0.8762  0.2593 -0.3610
 6650SOL    HW231584   3.252   4.351   6.817  0.4506  0.0238 -0.7012
 6651SOL     OW31585   1.317   1.615   9.878  0.6875  0.3864 -0.0120
 6651SOL    HW131586   1.399   1.566   9.881  0.1424 -0.5135  0.0284
 6651SOL    HW231587   1.301   1.623   9.784 -0.8723 -1.2818  0.1207
 6652SOL     OW31588   0.312   3.820   5.970 -0.1105  0.4156  0.5348
 6652SOL    HW131589   0.299   3.884   6.040  1.7526 -1.1868  2.3757
 6652SOL    HW231590   0.272   3.866   5.896 -1.8826  2.0352  2.4731
 6653SOL     OW31591   1.654   2.206  11.748  0.3515 -0.3388 -0.2631
 6653SOL    HW131592   1.609   2.274  11.798 -0.7432 -1.2307 -0.0463
 6653SOL    HW231593   1.733   2.190  11.801  1.1221  0.6998 -1.1010
 6654SOL     OW31594   3.646   4.184   2.113 -0.1396  0.5917  0.3155
 6654SOL    HW131595   3.725   4.132   2.129 -0.8414 -0.4545  0.4323
 6654SOL    HW231596   3.680   4.239   2.043  1.9444 -0.9984  0.0940
 6655SOL     OW31597   2.540   0.271   3.356  0.6517  0.2509 -0.4331
 6655SOL    HW131598   2.528   0.178   3.340 -0.3694  0.2965  0.1146
 6655SOL    HW231599   2.620   0.294   3.308  1.6601  1.3403  1.7859
 6656SOL     OW31600   1.267   1.319   9.611 -0.1908 -0.2802 -0.4619
 6656SOL    HW131601   1.341   1.259   9.600 -0.8498 -1.1162 -0.2746
 6656SOL    HW231602   1.228   1.282   9.690 -0.9016 -1.7313 -1.4966
 6657SOL     OW31603   2.125   0.602  10.731 -0.0143  0.2832  0.4762
 6657SOL    HW131604   2.060   0.607  10.801 -1.0200 -1.2761 -0.3365
 6657SOL    HW231605   2.196   0.648  10.775  0.9185 -1.7844  1.1292
 6658SOL     OW31606   0.738   1.551   8.935 -0.3957  0.2272  1.3391
 6658SOL    HW131607   0.646   1.524   8.925 -1.0276  2.8961 -0.3344
 6658SOL    HW231608   0.731   1.619   8.868 -2.3915 -2.6816 -1.3954
 6659SOL     OW31609   2.028   3.536  14.270  0.3404 -0.6400  0.3765
 6659SOL    HW131610   1.966   3.554  14.199  0.0637 -1.0431  0.5220
 6659SOL    HW231611   1.987   3.473  14.329 -0.9076 -0.0704  0.1119
 6660SOL     OW31612   1.037   4.516  15.090  0.4609  0.6668 -0.1258
 6660SOL    HW131613   0.975   4.472  15.032  1.4315  0.1860 -0.8048
 6660SOL    HW231614   1.064   4.438  15.138 -0.4601  0.8114  0.6118
 6661SOL     OW31615   2.463   1.347   4.476  0.1524  0.3659  0.0392
 6661SOL    HW131616   2.515   1.312   4.548  0.2476 -1.4057 -0.8898
 6661SOL    HW231617   2.513   1.427   4.457  2.5129 -0.9868  0.6564
 6662SOL     OW31618   1.723   0.191   9.515 -0.0097 -0.3736  0.5221
 6662SOL    HW131619   1.628   0.192   9.508 -0.0455 -2.2348  0.6812
 6662SOL    HW231620   1.755   0.280   9.528  1.7417 -1.1083  1.2306
 6663SOL     OW31621   2.306   4.169   8.407  0.1216  0.3667  0.0911
 6663SOL    HW131622   2.362   4.116   8.465 -0.0117  0.3297  0.1865
 6663SOL    HW231623   2.331   4.253   8.445  0.5088  0.4373 -0.3179
 6664SOL     OW31624   2.650   2.137   8.524  0.1340 -0.1947  0.0905
 6664SOL    HW131625   2.698   2.093   8.595  0.3132 -2.3874 -1.4029
 6664SOL    HW231626   2.726   2.185   8.492 -0.1981 -0.9435 -1.8146
 6665SOL     OW31627   0.602   2.431   3.043  0.0271  0.3040  0.5127
 6665SOL    HW131628   0.560   2.350   3.071  3.0541 -0.8641  1.6771
 6665SOL    HW231629   0.633   2.406   2.956 -1.1939 -0.0480  0.1813
 6666SOL     OW31630   0.986   1.781   3.004  0.3945  0.3800 -0.2351
 6666SOL    HW131631   1.022   1.696   2.980 -1.0962 -0.3538  0.1186
 6666SOL    HW231632   0.953   1.822   2.924  0.2195 -0.8570 -0.7978
 6667SOL     OW31633   0.526   3.386   9.031  0.0932  0.2759  0.0453
 6667SOL    HW131634   0.445   3.348   8.997  0.0169  0.3500  0.1450
 6667SOL    HW231635   0.561   3.321   9.092 -0.1341  0.2871  0.1875
 6668SOL     OW31636   4.577   2.011  11.348 -0.4477 -0.1746 -0.0994
 6668SOL    HW131637   4.594   2.061  11.428  1.4332 -0.1446 -0.5411
 6668SOL    HW231638   4.652   1.953  11.345 -0.9795 -0.7682 -1.6553
 6669SOL     OW31639   0.597   0.630   5.766 -1.1205  0.3903  0.0514
 6669SOL    HW131640   0.512   0.589   5.756 -0.5413 -0.7836 -0.0792
 6669SOL    HW231641   0.608   0.652   5.859  1.2554  0.3885 -0.2107
 6670SOL     OW31642   2.493   1.425  12.622  0.2201  0.3795  0.4538
 6670SOL    HW131643   2.531   1.337  12.627  0.8325  0.6054 -0.2814
 6670SOL    HW231644   2.568   1.464  12.577 -0.5568  1.9640  0.5505
 6671SOL     OW31645   4.313   0.328  16.884  0.0234  0.2235 -0.0987
 6671SOL    HW131646   4.308   0.377  16.966  1.0830 -1.7396  1.1542
 6671SOL    HW231647   4.406   0.338  16.861  0.0093  0.1352 -0.1989
 6672SOL     OW31648   1.114   2.530   2.297 -0.2187  0.0228  0.1394
 6672SOL    HW131649   1.111   2.540   2.202  2.4455  1.7368  0.2612
 6672SOL    HW231650   1.029   2.500   2.331 -1.4081  1.0997 -1.8472
 6673SOL     OW31651   1.989   0.231   5.769  0.5672  0.6870  0.3400
 6673SOL    HW131652   1.961   0.154   5.720  0.7118  1.1425 -0.4493
 6673SOL    HW231653   2.081   0.204   5.779  0.5174  1.0302  1.7009
 6674SOL     OW31654   4.274   2.194   0.638 -0.7892 -0.2666  0.3952
 6674SOL    HW131655   4.233   2.273   0.674 -2.5496 -1.2482  0.5694
 6674SOL    HW231656   4.228   2.193   0.554  0.3770 -3.0269 -0.2067
 6675SOL     OW31657   1.710   3.702   7.160  0.1058 -0.1877  0.3322
 6675SOL    HW131658   1.773   3.653   7.213 -0.2419 -1.6464 -0.6004
 6675SOL    HW231659   1.746   3.672   7.077 -0.6152 -0.2468  0.0383
 6676SOL     OW31660   4.008   1.760   3.652  0.2653  0.4287  0.5954
 6676SOL    HW131661   4.089   1.710   3.653 -0.3257 -0.5332  0.6090
 6676SOL    HW231662   3.977   1.741   3.741  0.7956 -1.2496  0.4205
 6677SOL     OW31663   2.619   3.243   7.142  0.4800 -0.0786 -0.5605
 6677SOL    HW131664   2.554   3.236   7.072  0.5756  1.8808 -0.8460
 6677SOL    HW231665   2.655   3.329   7.120 -2.4789  1.1367 -0.5704
 6678SOL     OW31666   0.846   1.417   9.946  0.1136 -0.0649  0.0094
 6678SOL    HW131667   0.937   1.410   9.975 -0.0294 -1.9009  0.0045
 6678SOL    HW231668   0.823   1.493   9.999  0.0980 -0.3900  0.4611
 6679SOL     OW31669   0.045   1.538  17.083  0.2508  0.2295 -0.1212
 6679SOL    HW131670   0.098   1.617  17.067  2.4471 -0.8757  1.7857
 6679SOL    HW231671   0.055   1.488  17.002  3.3917  0.4909  0.0852
 6680SOL     OW31672   4.201   0.110   6.092  0.5023  0.2917 -0.7738
 6680SOL    HW131673   4.146   0.038   6.062  1.2777 -1.2985  1.5956
 6680SOL    HW231674   4.233   0.087   6.179  1.0879  0.3912 -0.9575
 6681SOL     OW31675   2.100   2.692  16.411 -0.0558 -0.1685 -0.3073
 6681SOL    HW131676   2.082   2.643  16.491 -2.4940 -0.3561 -0.9786
 6681SOL    HW231677   2.195   2.695  16.421 -0.2038  0.9187  0.7901
 6682SOL     OW31678   0.696   0.003  10.532 -0.1484 -0.0533 -0.0818
 6682SOL    HW131679   0.760   0.016  10.601  1.8654 -1.7058 -1.6149
 6682SOL    HW231680   0.620   0.048  10.567  0.1359  1.4627 -1.4326
 6683SOL     OW31681   2.461   2.901   1.003 -0.0252 -0.3162 -0.3707
 6683SOL    HW131682   2.541   2.917   0.953  1.3120  0.7904  2.1545
 6683SOL    HW231683   2.496   2.868   1.086  0.5968 -0.4803 -0.7005
 6684SOL     OW31684   4.266   4.366   2.305 -0.4686  0.5931  0.0752
 6684SOL    HW131685   4.221   4.296   2.352 -2.6715  2.0639  0.1498
 6684SOL    HW231686   4.354   4.371   2.343  0.0148  2.1310 -1.2672
 6685SOL     OW31687   0.497   3.732   8.161 -0.0010 -0.4496  0.1037
 6685SOL    HW131688   0.482   3.671   8.233  1.7671 -0.3236  0.5649
 6685SOL    HW231689   0.541   3.804   8.206 -1.7498  0.4771  0.3422
 6686SOL     OW31690   2.723   2.197   9.136 -0.5619  0.9598 -0.1581
 6686SOL    HW131691   2.788   2.182   9.204 -0.9955 -1.8647 -0.3886
 6686SOL    HW231692   2.657   2.234   9.195  0.1295 -1.7599  2.3022
 6687SOL     OW31693   0.819   1.089   8.371 -0.5395 -0.2328 -0.3387
 6687SOL    HW131694   0.766   1.013   8.349 -0.3403 -0.6924  0.7826
 6687SOL    HW231695   0.877   1.079   8.296 -0.3640  1.3347 -0.4041
 6688SOL     OW31696   3.729   3.856   4.832 -0.3036  0.0857  0.4808
 6688SOL    HW131697   3.819   3.885   4.848 -0.1246 -0.4203  0.3866
 6688SOL    HW231698   3.702   3.834   4.921 -0.4694  0.8063  0.6086
 6689SOL     OW31699   1.440   4.205   8.258  0.3773 -0.3199 -0.6079
 6689SOL    HW131700   1.527   4.223   8.295  0.3625 -2.4405  0.5153
 6689SOL    HW231701   1.430   4.285   8.207  0.5066  0.9026  1.2844
 6690SOL     OW31702   1.549   1.321   6.953 -0.0863  0.0283 -0.2751
 6690SOL    HW131703   1.632   1.369   6.949 -0.5747  0.7186 -1.9725
 6690SOL    HW231704   1.521   1.341   6.864 -4.1193  0.1058  1.0273
 6691SOL     OW31705   0.280   3.514   0.900 -0.7017 -0.2138 -0.5512
 6691SOL    HW131706   0.291   3.431   0.945  1.6249  0.7343  0.6319
 6691SOL    HW231707   0.193   3.534   0.933 -0.9445 -2.3506  0.0840
 6692SOL     OW31708   1.432   3.147  13.373 -0.3526 -0.0125  0.2241
 6692SOL    HW131709   1.348   3.107  13.350 -0.4514  0.6907 -0.6391
 6692SOL    HW231710   1.422   3.195  13.455  1.4179  0.8369 -0.0511
 6693SOL     OW31711   0.605   1.185   3.502 -0.5001  0.1854  0.2083
 6693SOL    HW131712   0.686   1.148   3.468  0.6356  3.4335 -0.6833
 6693SOL    HW231713   0.545   1.148   3.437 -1.1623 -0.4755  1.2130
 6694SOL     OW31714   4.698   4.270   5.806 -0.5963 -0.3417 -0.8555
 6694SOL    HW131715   4.619   4.242   5.760  0.1102 -1.4908 -1.3672
 6694SOL    HW231716   4.696   4.366   5.807  0.5267 -0.3192 -0.6967
 6695SOL     OW31717   2.972   1.663   6.097 -0.4180  0.4195 -0.1638
 6695SOL    HW131718   2.989   1.651   6.004  1.2842 -2.6057  0.5375
 6695SOL    HW231719   3.057   1.685   6.136  0.2924  0.3985 -1.6989
 6696SOL     OW31720   2.764   0.837   2.341  0.2430 -0.1660 -0.0818
 6696SOL    HW131721   2.746   0.914   2.287  0.1554 -0.5287 -0.5663
 6696SOL    HW231722   2.673   0.838   2.371  0.1372  1.1011 -0.4495
 6697SOL     OW31723   1.574   3.846  16.328 -0.0423  0.1713 -0.9094
 6697SOL    HW131724   1.608   3.777  16.385  0.7971  2.4204  1.2938
 6697SOL    HW231725   1.620   3.922  16.363  1.4350 -1.4920  0.7689
 6698SOL     OW31726   3.620   2.327   4.970  0.2323 -0.3701 -0.0574
 6698SOL    HW131727   3.616   2.258   4.903 -1.2687  0.4173 -0.7778
 6698SOL    HW231728   3.698   2.365   4.930 -0.9633  1.5476 -0.5751
 6699SOL     OW31729   3.268   2.015   6.674 -0.2250  0.2020  0.0014
 6699SOL    HW131730   3.283   1.953   6.603  0.9452  0.4616  0.0221
 6699SOL    HW231731   3.360   2.041   6.681  0.0647 -0.8469  0.1040
 6700SOL     OW31732   0.499   0.949  13.509  0.4928 -0.0252  0.2478
 6700SOL    HW131733   0.404   0.939  13.518  0.3701  2.1586  1.2417
 6700SOL    HW231734   0.529   0.950  13.600  0.4240 -0.1083  0.2716
 6701SOL     OW31735   3.127   4.499   4.082  0.3868 -0.3090 -0.1789
 6701SOL    HW131736   3.129   4.410   4.118 -0.6935 -1.1709 -2.2136
 6701SOL    HW231737   3.219   4.526   4.079  0.2337  0.2543  0.3632
 6702SOL     OW31738   0.117   0.963   9.359  0.3136 -0.0559  0.2676
 6702SOL    HW131739   0.109   1.052   9.393 -1.0795 -0.7470  1.7406
 6702SOL    HW231740   0.044   0.945   9.300  1.5787 -0.3527 -1.2044
 6703SOL     OW31741   1.471   2.756   7.509 -0.3056 -0.0332 -0.0995
 6703SOL    HW131742   1.431   2.694   7.569 -1.9515  1.2527  0.1393
 6703SOL    HW231743   1.437   2.839   7.542  2.0661  0.6990  0.4815
 6704SOL     OW31744   2.786   1.468   2.243  0.0413 -0.5077 -0.0945
 6704SOL    HW131745   2.865   1.414   2.247  0.6870  0.4893  0.8052
 6704SOL    HW231746   2.824   1.554   2.264  0.1428 -0.6553  0.3214
 6705SOL     OW31747   2.069   3.638   6.023 -0.2008  0.1188 -0.2093
 6705SOL    HW131748   2.150   3.679   6.053 -0.1702  1.0044 -1.5079
 6705SOL    HW231749   2.043   3.592   6.104 -0.6812  1.8116  0.5938
 6706SOL     OW31750   0.900   4.632  17.352  0.6143  0.0605  0.2372
 6706SOL    HW131751   0.867   4.597  17.435  0.7336 -0.0983  0.2165
 6706SOL    HW231752   0.836   4.604  17.287  0.1421 -0.3997  0.8883
 6707SOL     OW31753   1.174   0.443  11.056 -0.4871 -0.2722 -0.3149
 6707SOL    HW131754   1.150   0.384  11.127  1.6442 -0.4113  0.2918
 6707SOL    HW231755   1.264   0.419  11.033 -0.5507  0.4940 -1.3905
 6708SOL     OW31756   1.946   4.195   8.074 -0.2201 -0.4970  0.5840
 6708SOL    HW131757   2.022   4.170   8.022  1.3904 -0.6173  3.0102
 6708SOL    HW231758   1.968   4.175   8.165 -1.8381  0.0065  1.0990
 6709SOL     OW31759   3.222   2.024   4.148 -0.4509 -0.2434 -0.5962
 6709SOL    HW131760   3.172   1.981   4.218  0.3626 -0.0662  0.0862
 6709SOL    HW231761   3.166   2.100   4.134  1.4943  0.9490 -1.8684
 6710SOL     OW31762   0.377   0.278   5.000  0.4260  0.0831 -0.1933
 6710SOL    HW131763   0.471   0.294   4.995  0.4830 -0.3753 -0.6245
 6710SOL    HW231764   0.360   0.189   4.968  0.0802  0.0442  0.0951
 6711SOL     OW31765   3.624   2.445   2.485  0.2480  0.0219  0.4304
 6711SOL    HW131766   3.611   2.430   2.392  1.5211 -0.9547  0.4166
 6711SOL    HW231767   3.557   2.386   2.521 -0.2736 -0.2719 -1.0452
 6712SOL     OW31768   4.572   4.672  16.442 -0.1602 -0.0082 -0.2159
 6712SOL    HW131769   4.533   4.630  16.366 -1.5506  1.1863 -0.1422
 6712SOL    HW231770   4.529   0.019  16.440 -0.7874 -0.3142  0.2875
 6713SOL     OW31771   3.829   4.708   5.189  0.1213  0.3108 -0.4214
 6713SOL    HW131772   3.738   4.685   5.208 -1.2941  2.6568 -4.3354
 6713SOL    HW231773   3.844   4.654   5.112  0.0264  1.8625 -1.5184
 6714SOL     OW31774   2.905   2.030   1.881  0.1378  0.0322 -0.1158
 6714SOL    HW131775   2.986   1.980   1.889  0.1166  0.0643  0.2855
 6714SOL    HW231776   2.841   1.961   1.860 -0.6172  0.4042  0.9830
 6715SOL     OW31777   3.725   3.601   1.993  0.0875 -0.2940  0.2359
 6715SOL    HW131778   3.718   3.688   1.955  0.2091 -0.3325  0.1212
 6715SOL    HW231779   3.715   3.608   2.088  2.3946 -3.0495  0.6942
 6716SOL     OW31780   0.551   1.859  15.265 -0.0194  0.3228 -0.8066
 6716SOL    HW131781   0.509   1.789  15.215  0.5379  0.6416 -1.7114
 6716SOL    HW231782   0.519   1.835  15.352 -1.0238 -1.4044 -1.6408
 6717SOL     OW31783   0.473   2.587   3.421 -0.2501  0.3187  0.9659
 6717SOL    HW131784   0.553   2.544   3.390 -0.6064  0.0970  0.3503
 6717SOL    HW231785   0.405   2.522   3.407 -1.1644  1.6814 -1.0452
 6718SOL     OW31786   0.578   1.981  10.040 -0.4000  0.1848  0.5478
 6718SOL    HW131787   0.665   2.015  10.059 -1.0230  0.9418  1.9807
 6718SOL    HW231788   0.597   1.893  10.005 -0.2440 -0.8435  3.2309
 6719SOL     OW31789   1.080   0.436  13.251 -0.3072  0.2612 -0.2676
 6719SOL    HW131790   1.031   0.359  13.279  0.1527 -0.8070 -2.4101
 6719SOL    HW231791   1.117   0.395  13.173  1.7479  0.7413  0.4441
 6720SOL     OW31792   0.188   3.994  17.469  0.1869  0.0417 -0.7064
 6720SOL    HW131793   0.108   3.957  17.505  0.4758  0.5097  0.4469
 6720SOL    HW231794   0.180   3.987  17.374  0.6241 -3.6905 -0.4512
 6721SOL     OW31795   0.112   0.121  13.219 -0.1166 -0.0713 -0.0105
 6721SOL    HW131796   0.051   0.121  13.293  0.2229 -1.4578  0.2718
 6721SOL    HW231797   0.105   0.030  13.191  0.1940  0.2036 -0.9838
 6722SOL     OW31798   1.601   3.105  16.178  0.2624  0.3291  0.2959
 6722SOL    HW131799   1.603   3.094  16.273 -2.2557  2.4287  0.5830
 6722SOL    HW231800   1.694   3.089  16.164  0.0631 -1.4274  1.0096
 6723SOL     OW31801   1.539   0.140   7.395  0.8029 -0.6016  0.7233
 6723SOL    HW131802   1.587   0.153   7.476  1.4304  1.1932  0.0565
 6723SOL    HW231803   1.445   0.137   7.415  0.3082 -1.9250 -1.7575
 6724SOL     OW31804   1.507   2.985   9.283  0.1707 -0.3081  0.3949
 6724SOL    HW131805   1.507   3.081   9.282 -2.1876 -0.2880  2.0874
 6724SOL    HW231806   1.480   2.955   9.196 -1.2643  0.5806  0.5294
 6725SOL     OW31807   3.671   2.677   8.055  0.6034 -0.5607 -0.0823
 6725SOL    HW131808   3.688   2.614   8.126  0.8484 -1.8383 -1.2840
 6725SOL    HW231809   3.715   2.758   8.082  0.1748 -0.6696  0.9672
 6726SOL     OW31810   1.258   0.864   7.333 -0.5125  0.3052 -0.4390
 6726SOL    HW131811   1.181   0.916   7.354 -0.2617  0.1441  0.9211
 6726SOL    HW231812   1.247   0.785   7.387  1.5490  0.7842  0.6786
 6727SOL     OW31813   1.631   2.065   1.741  0.1407 -0.8527 -0.1118
 6727SOL    HW131814   1.707   2.124   1.740 -1.5371  1.2611 -0.5268
 6727SOL    HW231815   1.610   2.060   1.834  0.9965  2.6528  0.2626
 6728SOL     OW31816   1.596   4.562   1.556  0.4603 -0.0275  0.0950
 6728SOL    HW131817   1.618   4.643   1.509  0.1054  0.0591  0.0787
 6728SOL    HW231818   1.569   4.585   1.645 -2.0774  2.0224 -1.2230
 6729SOL     OW31819   3.656   2.761  16.759 -0.2228  0.5574  0.3163
 6729SOL    HW131820   3.579   2.787  16.709  0.7079  1.1442 -0.8235
 6729SOL    HW231821   3.659   2.667  16.744  0.0320  0.5667  0.3023
 6730SOL     OW31822   0.297   3.056   4.793  0.1750  0.2304 -0.4086
 6730SOL    HW131823   0.266   3.098   4.713  2.4870  2.3418 -0.2212
 6730SOL    HW231824   0.306   2.968   4.755  0.3609  0.3177 -0.5690
 6731SOL     OW31825   3.513   0.446   1.605 -0.2825  0.2077  0.6119
 6731SOL    HW131826   3.588   0.481   1.557 -0.3432  1.0319  1.1174
 6731SOL    HW231827   3.528   0.496   1.685 -1.1718  0.8796  0.3596
 6732SOL     OW31828   1.253   3.336   6.225  0.1295 -0.0687 -0.1646
 6732SOL    HW131829   1.276   3.243   6.228 -0.7172 -0.3635 -2.7377
 6732SOL    HW231830   1.307   3.374   6.156  0.8097  2.0728  1.5750
 6733SOL     OW31831   3.952   0.878  13.594  0.1583 -0.1970 -0.0810
 6733SOL    HW131832   3.988   0.821  13.662  0.9645 -0.7522 -0.9859
 6733SOL    HW231833   4.025   0.923  13.551 -0.6803  1.4657  0.2088
 6734SOL     OW31834   1.661   4.434   1.343  0.3812 -0.5891 -0.7289
 6734SOL    HW131835   1.629   4.452   1.431  1.8498 -0.0620 -0.3040
 6734SOL    HW231836   1.694   4.520   1.318  0.2225 -0.1624  0.5375
 6735SOL     OW31837   1.866   3.889  17.096  0.2436  0.3256  0.3107
 6735SOL    HW131838   1.799   3.849  17.153  2.0774 -1.0132  1.5490
 6735SOL    HW231839   1.890   3.821  17.032 -0.8967  1.4938 -1.3372
 6736SOL     OW31840   0.537   2.487   2.243  0.5635 -0.7619 -0.1267
 6736SOL    HW131841   0.473   2.436   2.191  0.4449 -0.8940  0.1505
 6736SOL    HW231842   0.478   2.508   2.315  0.4102 -1.0420 -0.1687
 6737SOL     OW31843   0.984   4.664   7.326 -0.3864 -0.0134  0.3202
 6737SOL    HW131844   1.032   4.589   7.290  0.6477  0.2594  1.1326
 6737SOL    HW231845   1.007   4.667   7.419 -0.6829 -0.7564  0.4183
 6738SOL     OW31846   0.217   3.144   8.079 -0.0739  0.3266 -0.2200
 6738SOL    HW131847   0.145   3.112   8.024 -0.6586  1.5612 -0.1717
 6738SOL    HW231848   0.176   3.210   8.135 -2.3363 -2.0770  0.9827
 6739SOL     OW31849   3.774   2.014   1.148  0.0508  0.0543  0.1069
 6739SOL    HW131850   3.848   1.953   1.144 -0.0311  0.0104 -0.7102
 6739SOL    HW231851   3.700   1.959   1.173 -0.4615  1.2278  1.1790
 6740SOL     OW31852   4.315   4.079   2.256  0.1151  0.0768 -0.3011
 6740SOL    HW131853   4.372   4.104   2.183 -0.8536 -1.2275 -1.4985
 6740SOL    HW231854   4.331   3.986   2.271 -0.6109 -0.1481 -0.8816
 6741SOL     OW31855   1.008   2.139   8.057 -0.6251  0.2946  0.3238
 6741SOL    HW131856   1.021   2.233   8.071  0.0911  0.3591 -0.6978
 6741SOL    HW231857   1.088   2.111   8.011  0.9044  1.2536  2.3756
 6742SOL     OW31858   4.406   3.026  15.025  0.1052  0.3996  0.2198
 6742SOL    HW131859   4.366   3.108  14.995  2.5761  1.3550 -0.4899
 6742SOL    HW231860   4.477   3.062  15.078 -0.4603 -0.1130  1.3342
 6743SOL     OW31861   0.843   1.870   0.348 -0.6679 -0.0044 -0.2243
 6743SOL    HW131862   0.760   1.826   0.325 -0.8976  0.2090  0.2129
 6743SOL    HW231863   0.887   1.848   0.266 -0.5354  0.9961 -0.4183
 6744SOL     OW31864   3.778   2.071   3.341 -0.1081 -0.3123 -0.2874
 6744SOL    HW131865   3.767   2.105   3.430  0.9566  0.4424 -0.4435
 6744SOL    HW231866   3.756   2.150   3.291  0.6264 -0.5669 -1.0237
 6745SOL     OW31867   4.211   0.621   6.670 -0.1039 -0.4558 -0.0827
 6745SOL    HW131868   4.290   0.573   6.645 -0.5002 -0.7289 -0.8060
 6745SOL    HW231869   4.165   0.573   6.738 -0.8835 -0.0785 -0.3352
 6746SOL     OW31870   3.344   4.453   6.985 -0.3709 -0.3202 -0.3265
 6746SOL    HW131871   3.311   4.507   7.056 -0.3078  0.6017 -0.9948
 6746SOL    HW231872   3.330   4.369   7.028 -0.1765 -1.3175 -2.2158
 6747SOL     OW31873   0.305   3.689   2.815  0.0544 -0.2544  0.2052
 6747SOL    HW131874   0.282   3.596   2.819 -0.0388 -0.2741 -0.8567
 6747SOL    HW231875   0.283   3.710   2.724 -0.9855 -1.2158  0.2377
 6748SOL     OW31876   1.913   0.655  10.913 -0.0731 -0.3805 -0.3994
 6748SOL    HW131877   1.934   0.748  10.902  0.0709 -0.1025  2.3584
 6748SOL    HW231878   1.838   0.653  10.972 -1.5106 -1.0218 -2.2345
 6749SOL     OW31879   3.042   4.084   4.703 -0.0193  0.2014 -0.0813
 6749SOL    HW131880   2.962   4.068   4.753  0.2733 -0.1593  0.2655
 6749SOL    HW231881   3.096   4.113   4.776 -1.6298  0.3432  1.0455
 6750SOL     OW31882   1.692   4.419   2.984  0.1057 -0.5545 -0.1016
 6750SOL    HW131883   1.660   4.474   2.912  1.1801  0.7632  0.4064
 6750SOL    HW231884   1.621   4.433   3.046 -0.0093 -0.1876 -0.3138
 6751SOL     OW31885   2.382   0.375  10.870  0.8849 -0.3176  0.5134
 6751SOL    HW131886   2.372   0.302  10.809  0.2543  0.6916 -0.5734
 6751SOL    HW231887   2.449   0.425  10.823  0.7295 -0.2226  0.3956
 6752SOL     OW31888   0.539   0.780  17.030 -0.2485 -0.4948  0.0997
 6752SOL    HW131889   0.599   0.706  17.041 -1.1504 -0.6223  4.1821
 6752SOL    HW231890   0.589   0.845  16.980 -0.6065 -2.1812 -2.4290
 6753SOL     OW31891   2.330   2.153   6.797 -0.2125 -0.3633 -0.1831
 6753SOL    HW131892   2.264   2.089   6.820 -0.6253  0.2230  0.2671
 6753SOL    HW231893   2.289   2.236   6.821 -3.3566 -0.8287 -4.0289
 6754SOL     OW31894   0.077   2.328  15.678  0.5553  0.1139  0.4216
 6754SOL    HW131895   0.041   2.240  15.684 -1.8146  1.1457  1.4938
 6754SOL    HW231896   0.076   2.356  15.770 -2.2611  1.6966 -0.0836
 6755SOL     OW31897   0.340   0.097   4.339  0.1005 -0.5299 -0.0901
 6755SOL    HW131898   0.362   0.085   4.432 -1.1643  1.5110  0.4563
 6755SOL    HW231899   0.388   0.020   4.307  0.9632  0.2735 -0.7177
 6756SOL     OW31900   1.929   4.660   1.916 -0.0258  0.6252 -0.9138
 6756SOL    HW131901   2.008   4.673   1.969  0.9510 -0.2027 -2.1479
 6756SOL    HW231902   1.900   4.577   1.954  2.7651 -1.2348 -2.8678
 6757SOL     OW31903   2.485   0.672   1.848  0.5578  0.5427  0.0671
 6757SOL    HW131904   2.465   0.740   1.784 -1.5426 -0.0538  0.0935
 6757SOL    HW231905   2.462   0.602   1.787 -0.2166  0.8450  0.0137
 6758SOL     OW31906   0.491   3.885   3.370  0.3547  0.2416  0.2477
 6758SOL    HW131907   0.414   3.884   3.426  0.6641  3.2730  0.7348
 6758SOL    HW231908   0.496   3.794   3.341 -2.2550  0.3515 -0.5458
 6759SOL     OW31909   2.114   4.466   6.257  0.3691  0.5811  0.1222
 6759SOL    HW131910   2.152   4.554   6.265  0.9864  0.3476 -0.2314
 6759SOL    HW231911   2.115   4.444   6.164 -3.0500  2.5727 -0.3739
 6760SOL     OW31912   2.077   4.638  15.829 -0.0742  0.1268  0.0548
 6760SOL    HW131913   2.055   4.727  15.856  0.1636 -0.0137  0.7251
 6760SOL    HW231914   1.986   4.608  15.824  0.3794 -1.0251 -1.4845
 6761SOL     OW31915   4.057   0.677   1.968  0.2819  0.4434 -0.1723
 6761SOL    HW131916   4.052   0.747   1.903  0.0754 -0.7759 -1.4853
 6761SOL    HW231917   3.976   0.630   1.947  0.6914 -0.1416 -0.4602
 6762SOL     OW31918   2.527   0.705   6.071  0.2900  0.3677  0.0927
 6762SOL    HW131919   2.480   0.661   6.142  2.4754 -0.6773  0.8799
 6762SOL    HW231920   2.475   0.675   5.996  1.0828  1.1582 -0.7584
 6763SOL     OW31921   0.026   2.352   1.606  0.6214 -0.1592 -0.1248
 6763SOL    HW131922   4.687   2.408   1.621 -0.3455 -1.4778 -0.0783
 6763SOL    HW231923   4.732   2.278   1.554 -4.1617  0.2945  2.0818
 6764SOL     OW31924   0.111   3.780  15.691  0.4344  0.0904  0.4967
 6764SOL    HW131925   0.093   3.687  15.678 -2.2930  0.8885 -1.3965
 6764SOL    HW231926   0.031   3.830  15.674  1.1339  0.9082 -0.4353
 6765SOL     OW31927   0.884   4.320  13.553 -0.3238 -0.0687 -0.3232
 6765SOL    HW131928   0.868   4.226  13.546 -0.6098 -0.0607  0.1482
 6765SOL    HW231929   0.954   4.313  13.618  0.3825  0.1270 -1.0641
 6766SOL     OW31930   2.711   2.405   5.061 -0.0661 -0.6397  0.0842
 6766SOL    HW131931   2.679   2.399   5.151 -2.4647  0.8925 -0.6820
 6766SOL    HW231932   2.733   2.315   5.037 -0.3001 -0.9726  1.1146
 6767SOL     OW31933   4.442   0.268  10.233  0.0799 -0.0507  0.1481
 6767SOL    HW131934   4.529   0.233  10.212 -0.5204  0.3970 -3.0647
 6767SOL    HW231935   4.424   0.229  10.319 -0.2005  1.0341  0.5853
 6768SOL     OW31936   2.166   2.487   4.886 -0.0633  0.6448  0.0018
 6768SOL    HW131937   2.254   2.476   4.850  0.0289 -0.0763  0.4412
 6768SOL    HW231938   2.115   2.416   4.848 -1.1907  1.8687 -0.7601
 6769SOL     OW31939   1.817   4.269  12.146 -0.4517  0.1673 -0.5586
 6769SOL    HW131940   1.872   4.293  12.220  0.3262 -2.9609 -0.1150
 6769SOL    HW231941   1.735   4.304  12.180 -1.0440 -1.5906 -0.1500
 6770SOL     OW31942   4.641   2.736   8.294 -0.0691 -0.4701  0.1080
 6770SOL    HW131943   4.694   2.809   8.262 -0.4232  0.1159  0.8346
 6770SOL    HW231944   4.701   2.687   8.349  0.4035  1.2288  1.1242
 6771SOL     OW31945   3.644   1.298   0.273  0.0805 -0.2767  0.4596
 6771SOL    HW131946   3.721   1.282   0.328  0.3970  0.9206  0.3720
 6771SOL    HW231947   3.591   1.333   0.344  0.2865  1.8969 -0.4661
 6772SOL     OW31948   2.557   1.196  16.885 -0.3837 -0.3411 -0.3564
 6772SOL    HW131949   2.532   1.117  16.933  2.1543 -1.1826 -0.3836
 6772SOL    HW231950   2.604   1.250  16.949 -1.1538  1.4426 -1.3099
 6773SOL     OW31951   1.766   1.282   9.113 -0.4648  0.1912 -0.0179
 6773SOL    HW131952   1.713   1.226   9.170 -0.2066  1.3426  1.3518
 6773SOL    HW231953   1.753   1.241   9.028  1.7124  0.5839 -0.5394
 6774SOL     OW31954   0.058   3.976   1.723  0.1015  0.1947 -0.2212
 6774SOL    HW131955   0.076   4.059   1.679  1.8646  1.1527  2.2752
 6774SOL    HW231956   0.075   3.916   1.650 -0.5612  0.1053 -0.3061
 6775SOL     OW31957   2.535   3.082   8.410  0.3741  0.2203  0.3449
 6775SOL    HW131958   2.600   3.100   8.342 -0.1584  0.1317 -0.1850
 6775SOL    HW231959   2.583   3.025   8.470 -0.0829 -1.1420 -0.5878
 6776SOL     OW31960   1.407   0.490   4.146 -0.1144 -0.0904 -0.0485
 6776SOL    HW131961   1.316   0.470   4.167 -0.0880 -2.8379 -2.6640
 6776SOL    HW231962   1.426   0.546   4.221 -2.8234  0.5125  0.1952
 6777SOL     OW31963   0.270   0.810   2.519  0.3893  0.1072 -0.1399
 6777SOL    HW131964   0.331   0.883   2.528  1.3871 -0.6377 -0.8292
 6777SOL    HW231965   0.191   0.863   2.528  0.0873 -0.0140 -2.1504
 6778SOL     OW31966   2.799   0.223   8.405 -0.3069 -0.1605 -0.0171
 6778SOL    HW131967   2.726   0.200   8.347 -1.7005  2.4121  0.7438
 6778SOL    HW231968   2.780   0.156   8.471  1.0996 -0.5071  0.0415
 6779SOL     OW31969   0.585   4.319  17.378  0.1078  0.5421  0.7885
 6779SOL    HW131970   0.670   4.306  17.336 -0.5662  0.8503 -0.6950
 6779SOL    HW231971   0.606   4.340  17.469 -0.6515 -0.7191  1.2365
 6780SOL     OW31972   3.055   3.950   5.292 -0.2448  0.4786 -0.1328
 6780SOL    HW131973   3.116   4.007   5.337  0.6664  1.0931 -2.1265
 6780SOL    HW231974   2.983   3.951   5.355  1.7803  1.0803  2.1487
 6781SOL     OW31975   3.442   3.126  17.549  0.3549 -0.2119 -0.3585
 6781SOL    HW131976   3.441   3.055  17.614  0.5155 -0.7596 -0.9615
 6781SOL    HW231977   3.505   3.186  17.591 -1.0719  0.7895  0.3405
 6782SOL     OW31978   0.598   2.959   8.033  0.1221  0.2091 -0.1295
 6782SOL    HW131979   0.648   2.895   7.982  0.4508 -0.1170  0.5942
 6782SOL    HW231980   0.635   2.938   8.119 -0.4476 -0.5698 -0.0757
 6783SOL     OW31981   2.271   3.209  12.453  0.6749 -0.1531  0.1228
 6783SOL    HW131982   2.190   3.170  12.485  0.8076 -0.6871 -0.1877
 6783SOL    HW231983   2.242   3.265  12.382  2.4190  0.2601 -0.2634
 6784SOL     OW31984   4.295   1.338  17.309 -0.2831  0.0061  0.4519
 6784SOL    HW131985   4.283   1.410  17.247  0.8565  1.0481  1.4516
 6784SOL    HW231986   4.388   1.339  17.331 -0.1344  0.5747 -0.2218
 6785SOL     OW31987   0.714   2.320   2.424  0.2686  0.9452  0.0877
 6785SOL    HW131988   0.710   2.380   2.349 -0.3872  1.8478  0.8443
 6785SOL    HW231989   0.791   2.350   2.472  1.3460  0.7514 -1.5374
 6786SOL     OW31990   0.062   2.509   4.555 -0.2250  0.2961  0.1244
 6786SOL    HW131991   0.055   2.426   4.603 -0.9300 -0.2579 -0.9450
 6786SOL    HW231992   4.731   2.486   4.493  2.6522 -0.6050 -2.7708
 6787SOL     OW31993   2.372   1.191   6.628  0.4081  0.2026 -0.3545
 6787SOL    HW131994   2.461   1.221   6.645  0.1755  0.0289  1.1252
 6787SOL    HW231995   2.381   1.103   6.664 -0.6800  0.4266  0.4448
 6788SOL     OW31996   4.119   1.029   8.546 -0.4805  0.2468 -0.3618
 6788SOL    HW131997   4.058   0.973   8.594 -0.3068  0.0192 -0.4053
 6788SOL    HW231998   4.180   0.960   8.520 -0.7675  0.2236 -0.9697
 6789SOL     OW31999   3.005   4.434   1.755 -0.0408  0.7017 -0.0720
 6789SOL    HW132000   3.028   4.407   1.844 -0.1954 -1.6038 -0.7344
 6789SOL    HW232001   2.975   4.353   1.715  1.5274  1.2148 -2.2924
 6790SOL     OW32002   2.511   1.933   2.556  0.4252  0.9001 -0.3720
 6790SOL    HW132003   2.558   1.868   2.608 -0.2537  0.3471 -0.4539
 6790SOL    HW232004   2.451   1.876   2.508  1.2260 -0.5328  0.3337
 6791SOL     OW32005   1.251   3.330  14.997  0.1432 -0.5464 -0.0680
 6791SOL    HW132006   1.189   3.401  15.014  1.4643  0.6169 -0.0706
 6791SOL    HW232007   1.330   3.376  14.969 -0.0190  0.5971  1.3676
 6792SOL     OW32008   4.212   3.340   3.410  0.1962 -0.6319 -0.4021
 6792SOL    HW132009   4.148   3.386   3.465  0.0335 -1.0358 -0.2605
 6792SOL    HW232010   4.227   3.413   3.349 -1.1069 -0.2371 -0.2467
 6793SOL     OW32011   2.448   2.229  15.106 -0.6381 -0.1995 -0.4077
 6793SOL    HW132012   2.507   2.234  15.181 -1.3124  0.2677  0.0971
 6793SOL    HW232013   2.514   2.211  15.039 -0.3647 -0.8574  0.0448
 6794SOL     OW32014   1.314   4.140   2.504 -0.1540 -0.5054 -0.1936
 6794SOL    HW132015   1.307   4.049   2.532 -0.6560 -0.2511  0.5500
 6794SOL    HW232016   1.265   4.142   2.422  0.4395  3.4970 -0.4481
 6795SOL     OW32017   3.943   0.746  14.505 -0.0585  0.9397  0.4759
 6795SOL    HW132018   3.953   0.832  14.464  1.2996 -0.8772 -3.0902
 6795SOL    HW232019   3.850   0.723  14.501  0.1777  0.0978 -0.1346
 6796SOL     OW32020   1.689   3.412   4.909 -0.1131  0.4551  0.6156
 6796SOL    HW132021   1.694   3.391   5.002 -1.1214 -1.1443  0.3055
 6796SOL    HW232022   1.755   3.349   4.882 -1.6954 -1.2393  0.7536
 6797SOL     OW32023   0.765   2.944   3.893  0.9018  0.4744 -0.0162
 6797SOL    HW132024   0.750   2.946   3.987 -0.1790 -1.1215 -0.1619
 6797SOL    HW232025   0.764   2.849   3.881  3.0911  0.5429 -0.8128
 6798SOL     OW32026   2.847   4.490  10.577 -0.2887 -0.2419  0.2755
 6798SOL    HW132027   2.791   4.414  10.565 -0.3485 -0.4084  1.5915
 6798SOL    HW232028   2.814   4.549  10.509 -2.1642 -0.5643  0.9080
 6799SOL     OW32029   1.792   1.817   8.705  0.1741 -0.3758  0.0589
 6799SOL    HW132030   1.799   1.905   8.669 -1.8451  0.4685  1.7179
 6799SOL    HW232031   1.700   1.807   8.727  0.0256  0.6134 -0.1283
 6800SOL     OW32032   4.685   2.921   7.624 -0.7147  0.2240  0.8010
 6800SOL    HW132033   4.654   2.868   7.551 -0.9894 -0.3152  1.3103
 6800SOL    HW232034   4.617   2.989   7.626  0.4830  1.4017  1.3114
 6801SOL     OW32035   0.801   2.594   5.740  0.3426  0.2501  0.1455
 6801SOL    HW132036   0.779   2.508   5.775  0.0661 -0.4101 -1.6635
 6801SOL    HW232037   0.716   2.630   5.713 -0.3988 -1.0784  0.7343
 6802SOL     OW32038   0.916   0.587  11.778 -0.2236  0.3761  0.2914
 6802SOL    HW132039   0.987   0.649  11.792 -0.2508  0.4993 -0.1057
 6802SOL    HW232040   0.852   0.625  11.838  0.3285  0.4094  0.8505
 6803SOL     OW32041   2.367   0.815   4.508  0.2670  0.4664 -0.3349
 6803SOL    HW132042   2.385   0.722   4.494  0.7725  0.6155 -0.7078
 6803SOL    HW232043   2.437   0.866   4.466 -0.0065  1.2437  0.1622
 6804SOL     OW32044   0.055   3.541  14.725  0.3459 -0.0412  0.4314
 6804SOL    HW132045   0.084   3.564  14.813 -0.4821 -1.1809  1.0165
 6804SOL    HW232046   0.111   3.465  14.710 -1.1017 -1.2159  0.8652
 6805SOL     OW32047   3.209   3.505   4.126  0.1119  0.1134 -0.4032
 6805SOL    HW132048   3.187   3.578   4.067 -0.5669 -1.4304 -2.0406
 6805SOL    HW232049   3.256   3.444   4.070  0.4550 -0.7442  0.8148
 6806SOL     OW32050   1.590   3.342  15.312 -0.0944 -0.4170 -0.2371
 6806SOL    HW132051   1.655   3.275  15.291 -1.4890 -1.9195  0.3156
 6806SOL    HW232052   1.536   3.287  15.368 -0.5115  0.9019  0.6490
 6807SOL     OW32053   1.795   2.859   5.234  0.1770  0.1267 -0.0783
 6807SOL    HW132054   1.784   2.931   5.172 -1.2903 -0.4506 -0.4971
 6807SOL    HW232055   1.705   2.828   5.250  0.1157  0.1248 -0.4218
 6808SOL     OW32056   2.753   0.758   4.671 -0.5653 -0.0091  0.1592
 6808SOL    HW132057   2.758   0.842   4.626  1.1047 -0.4509 -0.4751
 6808SOL    HW232058   2.765   0.698   4.598 -0.0549 -1.5267  1.4792
 6809SOL     OW32059   4.645   4.499  16.059  0.0171 -0.1304  0.0766
 6809SOL    HW132060   4.622   4.407  16.044 -1.1832  0.1431  0.2770
 6809SOL    HW232061   4.565   4.548  16.039 -0.4959 -0.5772  1.0059
 6810SOL     OW32062   4.563   0.664  15.647  0.7476 -0.1386  0.1407
 6810SOL    HW132063   4.553   0.666  15.742 -0.1642 -2.1031  0.0691
 6810SOL    HW232064   4.475   0.687  15.618  0.8392 -1.3598 -1.0809
 6811SOL     OW32065   4.476   3.717   3.003 -0.0556 -0.0881  0.3795
 6811SOL    HW132066   4.564   3.700   2.969  0.2841  1.0491  0.6917
 6811SOL    HW232067   4.439   3.629   2.994  0.1417 -0.1803  0.4597
 6812SOL     OW32068   0.752   2.167   9.547 -0.1329 -0.0150  1.1185
 6812SOL    HW132069   0.781   2.248   9.589 -1.1851  0.6449  0.5722
 6812SOL    HW232070   0.700   2.140   9.623 -2.4595  1.9495  0.2141
 6813SOL     OW32071   0.007   4.043   7.183 -0.6238  0.5076 -0.0027
 6813SOL    HW132072   0.067   4.108   7.145 -0.4702  1.4182  1.8012
 6813SOL    HW232073   0.043   3.961   7.149 -1.2809  0.0474  0.4065
 6814SOL     OW32074   0.860   1.966   8.686  0.3898  0.3025  0.2772
 6814SOL    HW132075   0.788   1.912   8.719  1.3011 -0.4664  0.9959
 6814SOL    HW232076   0.932   1.905   8.676 -0.3130 -0.0753 -2.6032
 6815SOL     OW32077   4.347   3.145   3.691 -0.0090 -0.6101 -0.1090
 6815SOL    HW132078   4.327   3.078   3.756 -1.6672  0.3010  0.3438
 6815SOL    HW232079   4.326   3.225   3.739 -1.5632 -0.4135 -1.1198
 6816SOL     OW32080   1.119   0.140   9.678 -0.5876  0.6045  0.1003
 6816SOL    HW132081   1.086   0.221   9.718 -0.8901  0.6650 -0.2856
 6816SOL    HW232082   1.056   0.143   9.607  0.5251  0.1345 -0.8933
 6817SOL     OW32083   1.937   0.119   4.928  0.6103 -0.1416  0.0826
 6817SOL    HW132084   1.974   0.181   4.991  0.7811 -0.9373  0.7782
 6817SOL    HW232085   1.867   0.176   4.898  0.5941  0.5966  1.5164
 6818SOL     OW32086   1.341   1.682   2.744  0.2344 -0.2097 -0.1441
 6818SOL    HW132087   1.367   1.611   2.686 -1.0163  0.3418 -1.3896
 6818SOL    HW232088   1.274   1.631   2.791 -0.8381  0.1443 -1.2922
 6819SOL     OW32089   4.698   4.125   3.789  0.0541  0.1644 -0.5106
 6819SOL    HW132090   0.044   4.163   3.816  0.7903 -1.6756 -0.1856
 6819SOL    HW232091   4.652   4.204   3.761 -1.9649 -1.8010 -2.6919
 6820SOL     OW32092   1.421   4.087   9.626  0.5346  0.1077  0.2492
 6820SOL    HW132093   1.384   4.158   9.679  1.5059  1.5921 -1.0890
 6820SOL    HW232094   1.370   4.012   9.656  0.0233  0.3225 -0.0957
 6821SOL     OW32095   3.774   3.082   3.464  0.0342 -0.1743  0.8683
 6821SOL    HW132096   3.778   3.132   3.383 -1.0887 -2.2566 -0.4716
 6821SOL    HW232097   3.706   3.016   3.450  0.1034 -0.4250  1.6628
 6822SOL     OW32098   3.799   2.338   7.060  0.4850  0.3788  0.0623
 6822SOL    HW132099   3.728   2.274   7.048  0.5054  0.3310  0.1920
 6822SOL    HW232100   3.778   2.405   6.996  0.3824  0.2725 -0.0138
 6823SOL     OW32101   3.918   2.933  14.395 -0.3100  0.3314 -0.1380
 6823SOL    HW132102   3.958   2.875  14.330 -1.1973 -1.5357  0.9476
 6823SOL    HW232103   3.833   2.948  14.353 -0.9412 -0.7269  0.7408
 6824SOL     OW32104   0.482   3.525   4.827 -0.1944 -0.3879  0.3382
 6824SOL    HW132105   0.523   3.479   4.900  2.8819 -0.3831 -1.3716
 6824SOL    HW232106   0.552   3.545   4.765 -0.4701 -1.2205 -0.2431
 6825SOL     OW32107   0.083   2.805  13.780 -0.4024 -0.1358  0.7546
 6825SOL    HW132108   0.143   2.846  13.718  0.8141  0.9171  2.6307
 6825SOL    HW232109   0.127   2.816  13.865  0.2606 -0.8966  0.5096
 6826SOL     OW32110   3.051   4.710   5.376  0.4197  0.4912  0.1899
 6826SOL    HW132111   3.091   0.025   5.307 -0.3764  1.4335  0.4438
 6826SOL    HW232112   3.100   4.628   5.374  1.2125  0.9614  0.0204
 6827SOL     OW32113   4.348   4.187   5.178 -0.4697  0.2842 -0.0799
 6827SOL    HW132114   4.285   4.160   5.111 -0.8947  1.0168  0.0327
 6827SOL    HW232115   4.334   4.117   5.241  0.6241  0.2248  0.0939
 6828SOL     OW32116   3.455   3.583   7.632  0.0766  0.0182  0.2702
 6828SOL    HW132117   3.455   3.679   7.634  0.4068  0.0016  1.2422
 6828SOL    HW232118   3.394   3.570   7.704 -0.1096 -2.0010 -0.2618
 6829SOL     OW32119   4.396   0.116  17.045 -0.6800 -0.2822  0.4983
 6829SOL    HW132120   4.478   0.092  17.001 -1.5093 -0.6163 -0.8543
 6829SOL    HW232121   4.367   0.176  16.976 -0.9952  0.7111  1.4886
 6830SOL     OW32122   1.888   0.870   9.058 -0.2285 -0.0478 -0.2602
 6830SOL    HW132123   1.816   0.934   9.063 -0.1876 -0.0958  1.1052
 6830SOL    HW232124   1.893   0.850   8.965 -1.6647  0.3082 -0.4182
 6831SOL     OW32125   2.757   0.687   8.471 -0.1554  0.3926 -0.7800
 6831SOL    HW132126   2.773   0.698   8.565 -1.3950  0.0827 -0.5296
 6831SOL    HW232127   2.759   0.780   8.448  0.1884  0.5263 -0.2274
 6832SOL     OW32128   3.882   3.212  12.540  0.0467 -0.7093 -0.0184
 6832SOL    HW132129   3.867   3.286  12.599 -1.1218 -0.3714 -0.7425
 6832SOL    HW232130   3.948   3.251  12.483  0.8463  0.5571  1.7610
 6833SOL     OW32131   1.921   2.570   3.868  0.1870  0.1221 -0.3712
 6833SOL    HW132132   1.886   2.577   3.779 -1.9336  2.0541  0.6106
 6833SOL    HW232133   1.864   2.628   3.919 -1.0410 -1.4032 -0.0149
 6834SOL     OW32134   3.988   0.268   3.972  0.3811 -0.9149 -0.3210
 6834SOL    HW132135   4.042   0.302   4.044  0.6805  1.6444 -1.7724
 6834SOL    HW232136   3.964   0.345   3.921 -1.2432  0.1862  2.1045
 6835SOL     OW32137   0.777   2.376   9.724  0.3065 -0.3479 -0.1941
 6835SOL    HW132138   0.799   2.445   9.787  0.8887 -0.5680 -0.1520
 6835SOL    HW232139   0.684   2.396   9.720  0.0085 -1.5959  0.5656
 6836SOL     OW32140   1.569   3.249   8.452 -0.1288  0.1567  0.0205
 6836SOL    HW132141   1.567   3.205   8.367  3.0324  1.6834 -0.8694
 6836SOL    HW232142   1.619   3.330   8.438  0.5876 -0.0429  1.4997
 6837SOL     OW32143   2.509   1.155   9.869  0.1195 -0.4958 -0.1699
 6837SOL    HW132144   2.595   1.196   9.880  0.0218  0.1091 -1.6558
 6837SOL    HW232145   2.463   1.236   9.844 -0.1657 -0.7628 -0.5065
 6838SOL     OW32146   3.530   1.545   8.366  0.2802 -0.0276 -0.3250
 6838SOL    HW132147   3.587   1.555   8.290  0.7637 -1.2811 -0.1223
 6838SOL    HW232148   3.539   1.625   8.417 -3.7519 -1.1037  2.1261
 6839SOL     OW32149   2.283   0.103   5.571  0.7176  0.1483  0.4251
 6839SOL    HW132150   2.233   0.105   5.490  1.1487  1.0601  0.1822
 6839SOL    HW232151   2.221   0.060   5.631  1.0764 -0.3026  0.4781
 6840SOL     OW32152   4.223   0.050  14.567  0.4402  0.0667  0.3239
 6840SOL    HW132153   4.185   4.709  14.606  1.2553 -0.9701 -1.0060
 6840SOL    HW232154   4.212   0.028  14.475 -1.0089 -0.2664  0.5726
 6841SOL     OW32155   2.760   1.480   8.713  0.4633 -0.3281 -0.0796
 6841SOL    HW132156   2.704   1.429   8.654 -0.3482  0.4758  0.0007
 6841SOL    HW232157   2.846   1.450   8.684  0.5372 -0.2025  0.0105
 6842SOL     OW32158   0.468   2.973   4.253 -0.0629 -0.0581 -0.0478
 6842SOL    HW132159   0.426   2.929   4.178 -0.9542  0.8110 -0.0538
 6842SOL    HW232160   0.558   2.946   4.238 -0.0600 -0.7483  1.2796
 6843SOL     OW32161   0.622   0.525   2.073  0.4287 -0.2169  0.4226
 6843SOL    HW132162   0.550   0.504   2.132  0.3167  1.6857  0.9742
 6843SOL    HW232163   0.681   0.582   2.123  0.6331  0.6111 -0.7581
 6844SOL     OW32164   3.035   0.689   3.617 -0.2417 -0.5826  0.4195
 6844SOL    HW132165   3.115   0.722   3.575  0.1449  1.1260  2.5089
 6844SOL    HW232166   3.068   0.631   3.685  1.5085  0.7495  0.7172
 6845SOL     OW32167   4.407   0.316   5.439  0.1195  0.0669  0.2168
 6845SOL    HW132168   4.357   0.388   5.476  2.8363  2.6058 -1.0536
 6845SOL    HW232169   4.494   0.355   5.443 -0.4524  1.5412 -1.5272
 6846SOL     OW32170   4.068   1.268  16.135 -0.6607  0.0487  0.7497
 6846SOL    HW132171   4.061   1.175  16.117  1.4940 -0.0927  0.5971
 6846SOL    HW232172   4.063   1.254  16.230  0.4789 -1.0751  0.6460
 6847SOL     OW32173   2.098   2.202   4.839 -0.4757 -0.3640  0.3234
 6847SOL    HW132174   2.162   2.142   4.876 -0.3994 -0.6100 -0.2209
 6847SOL    HW232175   2.036   2.143   4.796  1.5209 -1.6125 -0.8133
 6848SOL     OW32176   3.458   0.826  10.576 -0.7297  0.2569 -0.0002
 6848SOL    HW132177   3.504   0.774  10.510  1.1404  3.5697 -1.2857
 6848SOL    HW232178   3.413   0.897  10.531 -0.9917 -0.5030 -0.9360
 6849SOL     OW32179   4.629   3.355   9.162 -0.2818  0.2433  0.1653
 6849SOL    HW132180   4.632   3.269   9.205  0.3446 -0.3433 -1.0306
 6849SOL    HW232181   4.672   3.317   9.085 -1.9369  1.1544 -1.2045
 6850SOL     OW32182   1.507   3.648   8.448 -0.0329  0.5468  0.4015
 6850SOL    HW132183   1.578   3.585   8.436 -0.9987 -0.2223 -1.3794
 6850SOL    HW232184   1.553   3.708   8.506  1.2815  0.8022 -0.8918
 6851SOL     OW32185   0.979   4.533   5.809 -0.5365  0.2095 -0.2521
 6851SOL    HW132186   1.017   4.612   5.771  0.0491  1.1870  2.3922
 6851SOL    HW232187   0.895   4.541   5.764 -0.7384 -0.6795 -0.0419
 6852SOL     OW32188   0.119   1.123  13.108 -0.0224 -0.1997 -0.5347
 6852SOL    HW132189   0.185   1.192  13.094  0.4219  0.1492  3.3635
 6852SOL    HW232190   0.048   1.167  13.062 -0.1043  1.1455  0.9079
 6853SOL     OW32191   1.424   3.359   2.547  0.7475 -0.3488 -0.4672
 6853SOL    HW132192   1.367   3.362   2.624 -0.1485  0.6280 -1.1748
 6853SOL    HW232193   1.466   3.442   2.571 -3.9498  1.1398  2.6179
 6854SOL     OW32194   0.847   3.182  10.097 -0.3012  0.2466  0.3671
 6854SOL    HW132195   0.941   3.172  10.085 -0.3425  2.6156 -1.8946
 6854SOL    HW232196   0.855   3.250  10.163  0.5685 -1.1399  1.6746
 6855SOL     OW32197   4.680   3.742   6.848  0.2661  0.3674  0.3724
 6855SOL    HW132198   4.646   3.680   6.912 -0.8540  2.4487  1.7956
 6855SOL    HW232199   0.036   3.731   6.864  0.4806  1.7178  0.0672
 6856SOL     OW32200   3.749   3.215   3.941 -0.0697  0.6859  0.2901
 6856SOL    HW132201   3.804   3.292   3.958  2.2695 -1.1278  0.9873
 6856SOL    HW232202   3.717   3.235   3.853  1.3354  2.0119  0.0754
 6857SOL     OW32203   2.670   4.246   6.973 -0.5214  0.6076  0.0588
 6857SOL    HW132204   2.596   4.300   7.000 -1.5365 -0.0803 -1.3346
 6857SOL    HW232205   2.625   4.168   6.941  0.4779 -0.3959  1.0855
 6858SOL     OW32206   4.240   4.597  15.356 -1.2007 -0.6713 -0.4500
 6858SOL    HW132207   4.200   4.522  15.399 -0.6494 -1.3573 -1.1233
 6858SOL    HW232208   4.270   4.553  15.276  1.2418 -0.3127  0.2803
 6859SOL     OW32209   2.737   0.592   3.912 -0.3807  0.3302  0.5896
 6859SOL    HW132210   2.694   0.640   3.983  1.2480  2.3488  0.2053
 6859SOL    HW232211   2.831   0.601   3.926 -0.3028 -0.1557  0.3973
 6860SOL     OW32212   1.609   4.264   6.062  0.5513 -0.1953  0.1153
 6860SOL    HW132213   1.586   4.341   6.113  0.5850  0.5539 -1.0098
 6860SOL    HW232214   1.703   4.284   6.060  0.5995 -0.5991 -2.0537
 6861SOL     OW32215   0.132   1.767   7.339  0.0126  0.2251 -0.2003
 6861SOL    HW132216   0.068   1.787   7.407 -0.5935  1.0111 -1.0053
 6861SOL    HW232217   0.066   1.737   7.277 -0.0842  1.1921 -0.5713
 6862SOL     OW32218   3.526   1.511   4.891 -0.0766 -0.0424 -0.2384
 6862SOL    HW132219   3.553   1.578   4.954 -2.4128  1.4246 -0.8101
 6862SOL    HW232220   3.584   1.530   4.818 -2.5584  0.1582 -2.1335
 6863SOL     OW32221   0.968   3.573  17.600 -0.1976  0.1214  0.4763
 6863SOL    HW132222   1.041   3.527  17.558 -1.6386 -2.8540  1.1888
 6863SOL    HW232223   1.005   3.661  17.596  1.7729 -0.6785  1.5146
 6864SOL     OW32224   3.889   3.974   3.283  0.1789  0.0860  0.2229
 6864SOL    HW132225   3.863   4.044   3.344 -1.1251 -0.7549  0.6399
 6864SOL    HW232226   3.975   3.970   3.325  0.3780  1.4253 -0.0372
 6865SOL     OW32227   3.246   1.821  17.089  0.0663 -0.4715  0.3314
 6865SOL    HW132228   3.222   1.889  17.152  2.4252  0.9872 -0.3187
 6865SOL    HW232229   3.282   1.761  17.155 -1.2787  0.2830  1.7426
 6866SOL     OW32230   4.466   2.491   7.604  0.6808  0.3806  0.0887
 6866SOL    HW132231   4.400   2.429   7.636  0.0346  1.2582  0.4367
 6866SOL    HW232232   4.412   2.553   7.555 -0.3930 -1.4850 -1.1369
 6867SOL     OW32233   4.612   4.378   4.440  0.4316  0.1169  0.2206
 6867SOL    HW132234   4.587   4.288   4.459 -2.4297  0.8595 -0.0231
 6867SOL    HW232235   4.561   4.377   4.359 -0.4329  0.8414  0.7401
 6868SOL     OW32236   0.722   1.265  13.498 -0.5033 -0.1106  0.0098
 6868SOL    HW132237   0.652   1.222  13.450 -1.0395  0.9180 -0.1265
 6868SOL    HW232238   0.702   1.234  13.587 -1.8726 -1.7833 -0.8657
 6869SOL     OW32239   2.831   4.660   7.891  0.0772 -0.4508 -0.3191
 6869SOL    HW132240   2.781   4.736   7.923  0.1061 -0.1854 -0.9118
 6869SOL    HW232241   2.799   4.645   7.802  0.7368 -1.4526 -0.3882
 6870SOL     OW32242   2.416   2.887   6.442  0.0587 -0.4089  0.0617
 6870SOL    HW132243   2.448   2.926   6.360 -1.5989  0.9400  0.0443
 6870SOL    HW232244   2.497   2.868   6.489  2.2603 -0.0047 -3.5160
 6871SOL     OW32245   4.312   3.590   8.527 -0.3007 -0.3750  0.1183
 6871SOL    HW132246   4.281   3.540   8.452  3.4724 -0.0896 -1.6208
 6871SOL    HW232247   4.395   3.630   8.504  0.5894 -0.9207  2.3463
 6872SOL     OW32248   2.761   0.734   9.035  0.5146  0.0041  0.1113
 6872SOL    HW132249   2.697   0.725   9.106 -0.7020  2.5661 -0.6349
 6872SOL    HW232250   2.818   0.794   9.083  0.0697  0.6196 -0.1165
 6873SOL     OW32251   0.448   3.594  14.316  0.3550  0.3054 -0.0820
 6873SOL    HW132252   0.362   3.553  14.333  0.2599 -0.7205 -2.8757
 6873SOL    HW232253   0.496   3.545  14.382 -0.0565  0.6423  0.4704
 6874SOL     OW32254   3.313   3.395   7.519 -0.1827 -0.4143 -0.2828
 6874SOL    HW132255   3.277   3.431   7.438 -0.4272 -0.1800 -0.0675
 6874SOL    HW232256   3.372   3.465   7.546 -0.7940  0.0392 -0.1160
 6875SOL     OW32257   1.596   3.428   2.955 -0.9462 -0.1938  0.0759
 6875SOL    HW132258   1.664   3.451   2.891 -1.7159  1.7138 -0.0575
 6875SOL    HW232259   1.635   3.372   3.022 -1.7482  0.1002  0.7862
 6876SOL     OW32260   0.184   1.274  14.657 -0.6795  0.1718  0.3366
 6876SOL    HW132261   0.250   1.333  14.620  1.5145 -1.8247  1.0435
 6876SOL    HW232262   0.107   1.308  14.612 -0.8498 -0.1351  0.3953
 6877SOL     OW32263   4.321   1.299  14.254  0.5328  0.1617 -0.0182
 6877SOL    HW132264   4.270   1.312  14.334  3.3062  0.3834  1.7454
 6877SOL    HW232265   4.264   1.322  14.181  0.7298  0.4258 -0.0901
 6878SOL     OW32266   4.700   3.117  15.548 -0.0324 -0.2119 -0.2834
 6878SOL    HW132267   4.626   3.067  15.583 -1.2385 -0.3033 -2.9382
 6878SOL    HW232268   4.664   3.206  15.545  2.3992  0.7604 -0.4626
 6879SOL     OW32269   3.623   4.489  11.288 -0.1367  0.5374  0.3979
 6879SOL    HW132270   3.624   4.541  11.208 -0.7890  1.8057  1.2037
 6879SOL    HW232271   3.671   4.543  11.350 -0.3511  0.4782  0.6194
 6880SOL     OW32272   0.463   2.798  14.740  0.3504  0.1378 -0.7754
 6880SOL    HW132273   0.481   2.868  14.679  0.3470  0.2827 -0.6105
 6880SOL    HW232274   0.459   2.718  14.688 -1.4563 -0.3781  0.1174
 6881SOL     OW32275   3.225   3.856   8.403 -0.6632  0.0486 -0.2224
 6881SOL    HW132276   3.155   3.844   8.338 -1.3575 -0.2918  0.5885
 6881SOL    HW232277   3.227   3.947   8.430 -0.6823  0.6824 -2.3407
 6882SOL     OW32278   3.491   0.897   6.831  0.0836  0.0001  0.2524
 6882SOL    HW132279   3.449   0.949   6.899 -0.0444 -1.1586  1.0669
 6882SOL    HW232280   3.471   0.940   6.748 -0.6358  0.0663  0.4574
 6883SOL     OW32281   2.667   1.283   7.378 -0.3452 -0.6367  0.5866
 6883SOL    HW132282   2.642   1.356   7.322 -0.0282 -1.8115 -1.1007
 6883SOL    HW232283   2.599   1.294   7.444 -0.6222 -1.6129  0.4665
 6884SOL     OW32284   4.612   0.099   5.413 -0.4717  0.4823  0.2465
 6884SOL    HW132285   4.578   0.073   5.328 -1.2902  0.5241  0.5541
 6884SOL    HW232286   4.534   0.105   5.469 -1.1182 -0.3684 -0.5618
 6885SOL     OW32287   2.411   1.090   6.038  0.0064 -0.2958 -0.1372
 6885SOL    HW132288   2.363   1.152   6.092  1.5206  0.4801  0.3098
 6885SOL    HW232289   2.348   1.072   5.968  0.7253  2.0806 -1.3812
 6886SOL     OW32290   4.273   0.095  17.292  0.0843 -0.1097  0.0423
 6886SOL    HW132291   4.332   0.102  17.217 -0.7710 -2.7582 -0.8865
 6886SOL    HW232292   4.232   0.013  17.264  1.4106 -1.1430  1.1141
 6887SOL     OW32293   0.839   1.946   2.701 -0.2502  0.1985 -0.0259
 6887SOL    HW132294   0.904   1.938   2.632 -1.5005 -0.5716 -1.1079
 6887SOL    HW232295   0.797   1.860   2.703 -2.6411  1.3199 -2.7228
 6888SOL     OW32296   4.079   2.539   4.393 -0.0601  0.1828 -0.9790
 6888SOL    HW132297   4.033   2.482   4.455  1.1958  2.0278  1.6638
 6888SOL    HW232298   4.014   2.610   4.388  0.8650  0.9389 -2.1402
 6889SOL     OW32299   2.749   0.217   9.777 -0.0754 -0.3057 -0.4253
 6889SOL    HW132300   2.677   0.275   9.750  1.9481  1.4690 -2.0202
 6889SOL    HW232301   2.751   0.226   9.872  3.0457  0.6249 -0.5928
 6890SOL     OW32302   3.433   1.438  10.505 -0.6880 -0.2146  0.3757
 6890SOL    HW132303   3.361   1.457  10.565 -0.9153 -0.0703  0.0565
 6890SOL    HW232304   3.402   1.351  10.480 -0.5265 -0.1990  0.1184
 6891SOL     OW32305   0.402   4.489   8.470  0.0448 -0.0824 -0.7532
 6891SOL    HW132306   0.430   4.578   8.451  1.3336 -0.4835 -0.7968
 6891SOL    HW232307   0.399   4.449   8.383  0.5415 -0.7136 -0.4834
 6892SOL     OW32308   3.415   4.460  15.999 -0.0389 -0.0209  0.5717
 6892SOL    HW132309   3.491   4.478  15.944 -0.0392  1.1682  0.9596
 6892SOL    HW232310   3.409   4.368  15.974  0.1411 -0.0372  0.5897
 6893SOL     OW32311   0.206   4.323  17.560  0.5996 -0.0237  0.0361
 6893SOL    HW132312   0.293   4.361  17.570  0.3909  0.1720  1.2025
 6893SOL    HW232313   0.221   4.256  17.494  0.3620  1.2605 -1.3274
 6894SOL     OW32314   1.820   0.299  10.435 -0.5409 -0.4036 -0.5304
 6894SOL    HW132315   1.876   0.339  10.369  1.0060 -0.7664  0.5823
 6894SOL    HW232316   1.888   0.257  10.487 -0.3437 -0.3196 -0.7206
 6895SOL     OW32317   3.646   1.423   1.671  0.5829  0.1959 -0.1839
 6895SOL    HW132318   3.585   1.409   1.743 -2.0761 -1.7019 -2.8219
 6895SOL    HW232319   3.654   1.518   1.672  0.1307  0.1938  2.3635
 6896SOL     OW32320   1.882   2.482  11.438 -0.5329 -0.0721 -0.4089
 6896SOL    HW132321   1.868   2.484  11.343  0.6876  0.8227 -0.5747
 6896SOL    HW232322   1.822   2.413  11.466 -2.1455  1.6561  0.3734
 6897SOL     OW32323   4.415   4.671   7.780  0.1233  0.2526  0.6930
 6897SOL    HW132324   4.421   4.675   7.684  0.6297  0.2966  0.7257
 6897SOL    HW232325   4.324   4.644   7.790  0.4629 -0.6041  1.3878
 6898SOL     OW32326   0.036   0.852   3.365  0.3129 -0.1657 -0.2026
 6898SOL    HW132327   0.102   0.833   3.431 -1.1879 -0.4782  1.1985
 6898SOL    HW232328   0.034   0.781   3.301  1.6528 -0.4978  0.1378
 6899SOL     OW32329   2.340   0.665   2.337  0.4242  0.1200  0.3148
 6899SOL    HW132330   2.353   0.698   2.248 -0.2550 -0.6946 -0.0830
 6899SOL    HW232331   2.357   0.572   2.324  0.2789  0.0477  0.6513
 6900SOL     OW32332   0.899   2.693  11.749 -0.3412  0.0244  0.0257
 6900SOL    HW132333   0.922   2.723  11.661  1.6804  1.4245  1.0250
 6900SOL    HW232334   0.860   2.608  11.728 -2.4563  0.9318  0.2794
 6901SOL     OW32335   3.438   3.062   6.815  0.5927  0.2448  0.1590
 6901SOL    HW132336   3.400   3.147   6.838 -3.7251 -2.0497  1.4585
 6901SOL    HW232337   3.402   3.007   6.885  0.0132 -1.3023 -1.3637
 6902SOL     OW32338   3.500   4.252  11.325  0.1658 -0.0753 -0.3497
 6902SOL    HW132339   3.567   4.186  11.305 -1.1230 -0.8287 -2.1460
 6902SOL    HW232340   3.540   4.331  11.288 -0.4137  1.1406  1.6386
 6903SOL     OW32341   0.655   2.338   6.920  0.0890 -0.6315  0.1234
 6903SOL    HW132342   0.567   2.313   6.891 -0.1427 -0.3528  0.6077
 6903SOL    HW232343   0.695   2.380   6.844  0.5321  0.4059  0.9341
 6904SOL     OW32344   0.004   3.031  17.405  0.1624  0.0497  0.3682
 6904SOL    HW132345   0.043   2.945  17.420  0.7512  0.3734  0.7133
 6904SOL    HW232346   4.671   3.002  17.347  2.0375  1.2633 -2.4990
 6905SOL     OW32347   3.287   1.500  10.209  0.6002 -0.2315 -0.0425
 6905SOL    HW132348   3.219   1.498  10.277  1.1706 -1.2916  0.5006
 6905SOL    HW232349   3.361   1.456  10.251  0.9474  0.0205 -0.3858
 6906SOL     OW32350   4.335   2.834   6.707  0.1485  0.3177  0.2841
 6906SOL    HW132351   4.339   2.928   6.725 -0.2414  0.5913 -1.0463
 6906SOL    HW232352   4.348   2.801   6.796  0.1498  0.7149  0.4297
 6907SOL     OW32353   3.504   2.041   1.748  0.0460 -0.0839 -0.2106
 6907SOL    HW132354   3.554   2.075   1.674 -0.2242 -2.6455 -1.5755
 6907SOL    HW232355   3.420   2.016   1.709 -0.2747  1.8126 -0.7222
 6908SOL     OW32356   4.492   2.795   6.965  0.2838 -1.0760 -0.0987
 6908SOL    HW132357   4.588   2.803   6.964  0.0806  1.4663  3.2446
 6908SOL    HW232358   4.464   2.865   7.023  1.1190  0.8982 -2.0493
 6909SOL     OW32359   3.843   4.651  14.565  0.1393  0.1621  0.3576
 6909SOL    HW132360   3.803   4.737  14.556 -1.3012 -0.5330  0.0335
 6909SOL    HW232361   3.777   4.597  14.609  0.6725 -1.9905 -1.5190
 6910SOL     OW32362   0.687   1.345   1.970 -0.2218 -0.0062  0.0606
 6910SOL    HW132363   0.756   1.411   1.978 -1.5418  1.3045  0.6397
 6910SOL    HW232364   0.741   1.275   1.933  0.3278  0.7754 -0.6308
 6911SOL     OW32365   0.678   2.727   8.572  0.2140  0.3311  0.5255
 6911SOL    HW132366   0.685   2.768   8.659  0.6504 -1.0174  1.1187
 6911SOL    HW232367   0.641   2.643   8.596 -1.2801  1.4616  2.1688
 6912SOL     OW32368   2.438   1.926   4.311  0.2509 -0.0555  0.2241
 6912SOL    HW132369   2.474   1.998   4.261  2.2351 -0.0427  1.6426
 6912SOL    HW232370   2.379   1.899   4.241 -1.2549  2.1768  0.6582
 6913SOL     OW32371   3.273   1.448  13.230  0.6545 -0.2205  0.0087
 6913SOL    HW132372   3.267   1.540  13.204  1.9530  0.3381  1.6947
 6913SOL    HW232373   3.330   1.413  13.162  1.5776  0.3926  0.4731
 6914SOL     OW32374   3.800   0.816   4.158 -0.6130 -0.0612 -0.0974
 6914SOL    HW132375   3.738   0.814   4.231  1.6062 -1.6118  1.7469
 6914SOL    HW232376   3.789   0.732   4.113 -0.9139 -0.2565  0.3409
 6915SOL     OW32377   4.459   3.401  15.668  0.1658 -0.3983  0.1836
 6915SOL    HW132378   4.430   3.466  15.732 -2.8255 -0.2543 -1.3453
 6915SOL    HW232379   4.457   3.328  15.730  0.2258 -0.8825 -0.3831
 6916SOL     OW32380   3.698   1.484   2.705  0.6839  0.1760  0.2617
 6916SOL    HW132381   3.788   1.515   2.706  0.9026 -0.4503 -1.1933
 6916SOL    HW232382   3.673   1.531   2.785  0.5222  1.3892 -0.4945
 6917SOL     OW32383   3.918   0.963   4.406  0.0300 -0.0085  0.2196
 6917SOL    HW132384   3.848   1.026   4.386  1.0986  1.2507  0.4455
 6917SOL    HW232385   3.986   0.982   4.341 -0.5033  0.0631 -0.3274
 6918SOL     OW32386   3.514   2.614   0.212  0.2674  0.5089 -0.5689
 6918SOL    HW132387   3.468   2.693   0.240 -2.7865 -0.7826 -2.0704
 6918SOL    HW232388   3.446   2.576   0.158 -0.6113  1.2378  0.0311
 6919SOL     OW32389   1.703   2.234   6.093 -0.0450 -0.1434 -0.1401
 6919SOL    HW132390   1.637   2.279   6.040 -1.8155 -1.9907  0.5169
 6919SOL    HW232391   1.774   2.231   6.028 -1.2095  0.8870 -1.4597
 6920SOL     OW32392   2.460   0.327   5.362  0.3110 -0.2704  0.3577
 6920SOL    HW132393   2.540   0.301   5.318  0.5413 -0.1682  0.7193
 6920SOL    HW232394   2.397   0.315   5.290 -0.2586 -2.1105  1.1677
 6921SOL     OW32395   0.475   0.081   5.310 -0.3505 -0.0998 -0.4860
 6921SOL    HW132396   0.484   0.176   5.305  0.7090 -0.1699 -0.0106
 6921SOL    HW232397   0.384   0.068   5.337  0.2331 -1.3203  0.8817
 6922SOL     OW32398   0.643   3.471   2.041  0.6270 -0.5868 -0.1984
 6922SOL    HW132399   0.729   3.433   2.058  1.1335  1.6689  2.3714
 6922SOL    HW232400   0.584   3.418   2.094  0.1781  0.5185  0.4118
 6923SOL     OW32401   3.663   1.534  10.600  0.8686  0.3843  0.1188
 6923SOL    HW132402   3.704   1.495  10.523 -0.0831 -0.7810  0.1961
 6923SOL    HW232403   3.574   1.529  10.567  0.7141 -0.0899  0.5964
 6924SOL     OW32404   3.791   2.816   8.705 -0.4128 -0.6396 -0.0559
 6924SOL    HW132405   3.850   2.834   8.778  1.6921 -2.1027 -1.3996
 6924SOL    HW232406   3.709   2.839   8.748 -0.8983 -0.6712 -0.9689
 6925SOL     OW32407   3.926   1.330   7.688 -0.0366  0.3284  0.4785
 6925SOL    HW132408   3.870   1.404   7.662  2.4514  1.3109 -2.0448
 6925SOL    HW232409   4.005   1.384   7.682 -0.8458  1.1589 -2.6406
 6926SOL     OW32410   2.991   1.574   6.714  0.2068 -0.5914 -0.5180
 6926SOL    HW132411   2.927   1.605   6.778  1.3826  2.2653 -0.6983
 6926SOL    HW232412   2.963   1.483   6.718 -0.4807 -0.3148  1.4393
 6927SOL     OW32413   1.668   0.933   9.549  0.0938 -0.0775 -0.0500
 6927SOL    HW132414   1.727   0.989   9.600  2.0550 -1.0734 -1.2384
 6927SOL    HW232415   1.585   0.979   9.563 -0.8754 -1.5115 -1.0611
 6928SOL     OW32416   4.509   2.852   8.730  0.3476  0.1465  0.3974
 6928SOL    HW132417   4.425   2.845   8.685  1.1684 -1.9286 -0.8227
 6928SOL    HW232418   4.525   2.946   8.735  0.0177  0.1214  1.8728
 6929SOL     OW32419   2.203   3.018   2.478 -0.1371  0.3507 -0.1217
 6929SOL    HW132420   2.235   3.044   2.565  1.5256  0.0636 -0.6408
 6929SOL    HW232421   2.261   2.947   2.449 -0.3167  0.5189 -0.8891
 6930SOL     OW32422   3.997   2.042   3.743 -0.2257 -0.9306 -0.6825
 6930SOL    HW132423   3.959   1.975   3.799  0.4528 -2.1003 -1.6191
 6930SOL    HW232424   4.086   2.008   3.736 -0.7778 -2.3744 -0.6975
 6931SOL     OW32425   1.687   3.816   3.261 -0.6673  0.1219  0.6568
 6931SOL    HW132426   1.768   3.859   3.234  0.3093 -2.2938 -0.2239
 6931SOL    HW232427   1.699   3.724   3.237  1.5024  0.5969 -0.0787
 6932SOL     OW32428   2.002   3.837   7.051  0.7665  0.4237  0.2296
 6932SOL    HW132429   2.004   3.776   7.125 -0.4822 -0.2248 -0.2549
 6932SOL    HW232430   2.005   3.768   6.984 -0.1752  1.3790 -0.7938
 6933SOL     OW32431   3.639   0.530   5.619 -0.0325  0.5262 -0.5931
 6933SOL    HW132432   3.634   0.443   5.660  1.8122  0.6954  0.0177
 6933SOL    HW232433   3.551   0.557   5.595  0.5677 -0.1700 -3.6795
 6934SOL     OW32434   1.016   0.284   9.905  0.0549  0.5184  0.0469
 6934SOL    HW132435   0.930   0.289   9.946 -0.6895  0.2398 -1.4928
 6934SOL    HW232436   1.073   0.336   9.961 -0.1060  0.6461  0.0925
 6935SOL     OW32437   0.791   1.215  16.635 -0.0146 -0.0504 -0.1564
 6935SOL    HW132438   0.819   1.165  16.712 -1.4282 -0.4652  0.0986
 6935SOL    HW232439   0.869   1.259  16.602 -0.7336 -0.1220 -1.9200
 6936SOL     OW32440   3.822   2.345   6.169 -0.1381  0.0388 -0.4021
 6936SOL    HW132441   3.902   2.345   6.221 -0.4290 -0.3163  0.0442
 6936SOL    HW232442   3.842   2.268   6.115 -3.1491 -1.2683  0.3520
 6937SOL     OW32443   1.894   0.861  10.047  0.0064 -0.2100  0.3179
 6937SOL    HW132444   1.870   0.952  10.025 -1.6091 -0.4884  0.9465
 6937SOL    HW232445   1.902   0.871  10.142 -0.0409  1.7339  0.1339
 6938SOL     OW32446   2.535   1.998   7.597  0.3353 -0.1271  0.7870
 6938SOL    HW132447   2.583   1.916   7.588  0.1966 -0.3336  1.9123
 6938SOL    HW232448   2.444   1.968   7.603 -0.1223  0.6330 -2.3081
 6939SOL     OW32449   1.040   2.065   1.516  0.4899  0.0791 -0.1864
 6939SOL    HW132450   1.039   1.976   1.551 -0.6214 -0.4886 -1.6601
 6939SOL    HW232451   1.126   2.070   1.474 -0.6672  0.9020 -2.4948
 6940SOL     OW32452   0.866   2.413   3.664  0.0035  0.5761 -0.2797
 6940SOL    HW132453   0.787   2.372   3.630 -0.5284 -1.9097  3.8886
 6940SOL    HW232454   0.834   2.493   3.706  0.3594  0.9245 -0.6734
 6941SOL     OW32455   0.103   0.530   3.639 -0.4445  0.2879 -0.0225
 6941SOL    HW132456   0.195   0.542   3.665 -0.0343  2.0517 -2.3715
 6941SOL    HW232457   0.115   0.515   3.546 -0.7951  2.5587 -0.4417
 6942SOL     OW32458   3.744   2.581   7.543  0.1139  0.4277 -0.2643
 6942SOL    HW132459   3.721   2.517   7.476 -3.5654  2.1249 -0.6542
 6942SOL    HW232460   3.655   2.617   7.539 -0.1825 -0.2359  0.5314
 6943SOL     OW32461   4.700   4.124  14.155  0.4007 -0.0414  0.0901
 6943SOL    HW132462   0.043   4.076  14.133  0.0722 -0.3866 -0.3643
 6943SOL    HW232463   4.689   4.088  14.243  1.4006 -2.0650 -0.6164
 6944SOL     OW32464   1.941   0.802   3.641  0.0753  0.0937  0.6819
 6944SOL    HW132465   1.883   0.850   3.582  1.7385  0.2968 -0.7916
 6944SOL    HW232466   1.999   0.769   3.572  0.6503  0.7282  0.8623
 6945SOL     OW32467   1.770   2.820   4.330 -0.1205  0.0420  0.2749
 6945SOL    HW132468   1.845   2.785   4.378  1.1707  2.6383  0.1772
 6945SOL    HW232469   1.717   2.742   4.319  0.8508 -0.6826  0.7629
 6946SOL     OW32470   1.229   0.449  12.303  0.2930  0.3265 -0.1474
 6946SOL    HW132471   1.278   0.496  12.370 -1.0425 -0.4487  1.4037
 6946SOL    HW232472   1.142   0.476  12.335 -0.3916 -1.9708 -0.0514
 6947SOL     OW32473   2.734   3.788   4.790 -0.0217 -0.1485 -0.5897
 6947SOL    HW132474   2.708   3.776   4.699 -0.2566  1.3697 -0.7193
 6947SOL    HW232475   2.649   3.758   4.822  0.4333 -0.2813  0.4956
 6948SOL     OW32476   4.224   4.271   6.545 -0.5067 -0.7568 -0.4260
 6948SOL    HW132477   4.277   4.192   6.535 -0.4599 -0.5771 -1.6723
 6948SOL    HW232478   4.220   4.268   6.640 -1.0754 -0.1015 -0.4302
 6949SOL     OW32479   1.992   0.310   9.798  0.1175  0.7627  0.2040
 6949SOL    HW132480   1.993   0.250   9.723  1.5110  1.2707 -0.1807
 6949SOL    HW232481   2.083   0.317   9.826  0.0971  1.4196  0.1089
 6950SOL     OW32482   0.252   1.902   2.345 -0.0451 -0.8373  0.5424
 6950SOL    HW132483   0.332   1.907   2.399 -0.0533  1.5520  0.3343
 6950SOL    HW232484   0.242   1.996   2.358  0.4317 -0.6645 -0.3054
 6951SOL     OW32485   0.407   3.633  14.022 -0.1788 -0.0739  0.2693
 6951SOL    HW132486   0.362   3.551  14.041 -0.7508  0.3144  0.5760
 6951SOL    HW232487   0.427   3.639  14.116 -0.6534  1.8807  0.2360
 6952SOL     OW32488   1.807   3.922   0.107 -0.0219 -0.2979  0.1833
 6952SOL    HW132489   1.747   3.940   0.034  0.5408  1.1547  0.0855
 6952SOL    HW232490   1.868   3.856   0.074  1.4576  0.2021  1.9345
 6953SOL     OW32491   2.412   1.515   7.779  0.0105 -0.0271 -0.3550
 6953SOL    HW132492   2.464   1.593   7.757  1.5055 -1.0047 -0.2676
 6953SOL    HW232493   2.439   1.491   7.867  0.0274  1.8664  0.1603
 6954SOL     OW32494   2.009   1.978  12.286 -0.5000 -0.1876 -0.6178
 6954SOL    HW132495   1.987   1.886  12.300  1.1788 -0.4085  0.5850
 6954SOL    HW232496   2.077   1.972  12.218  2.2101 -1.3640  2.1863
 6955SOL     OW32497   2.886   4.514   8.921  0.1128  0.1677  0.2594
 6955SOL    HW132498   2.972   4.519   8.881  0.0167 -3.2810 -0.3024
 6955SOL    HW232499   2.876   4.605   8.952 -1.0925  0.6224 -1.4703
 6956SOL     OW32500   3.450   0.456   8.293  0.5906  0.4703 -0.0003
 6956SOL    HW132501   3.482   0.366   8.296 -2.0927 -0.3821  3.1586
 6956SOL    HW232502   3.370   0.459   8.346 -0.8148 -3.7133 -1.8994
 6957SOL     OW32503   4.074   1.477  17.100 -0.1357 -0.2704  0.5673
 6957SOL    HW132504   4.125   1.465  17.020  0.9784 -2.3380  1.5858
 6957SOL    HW232505   4.078   1.572  17.112 -1.6786  0.0023 -1.0114
 6958SOL     OW32506   0.031   2.316   8.256  0.3186  0.2122 -0.3223
 6958SOL    HW132507   4.724   2.237   8.286  3.2269 -2.3022 -2.6242
 6958SOL    HW232508   0.053   2.372   8.330 -0.7140 -1.0733  0.9369
 6959SOL     OW32509   1.811   2.966  12.996 -0.1059  0.6679  0.0414
 6959SOL    HW132510   1.824   3.060  12.994 -2.2770  0.9683  0.7387
 6959SOL    HW232511   1.744   2.946  13.062  1.0259 -0.1043  0.9623
 6960SOL     OW32512   1.660   2.286  12.385 -0.3997  0.1279  0.9498
 6960SOL    HW132513   1.748   2.258  12.358 -1.4929  0.3909 -2.9034
 6960SOL    HW232514   1.696   2.360  12.434 -0.3242  1.0986 -0.5675
 6961SOL     OW32515   0.364   3.855   1.663  0.0764  0.3460 -0.1100
 6961SOL    HW132516   0.393   3.902   1.584 -0.2634  0.2955 -0.2642
 6961SOL    HW232517   0.292   3.913   1.685  0.7643  0.8599  0.8074
 6962SOL     OW32518   3.925   3.832   7.020  0.4496  0.0881 -0.4136
 6962SOL    HW132519   3.921   3.783   7.103 -0.0697  0.7834 -0.0300
 6962SOL    HW232520   3.946   3.763   6.957  1.1687  0.1619 -0.2519
 6963SOL     OW32521   1.617   2.235   5.194 -0.2315  0.0121  0.2280
 6963SOL    HW132522   1.591   2.270   5.109  1.1624  1.7348  0.5060
 6963SOL    HW232523   1.614   2.141   5.178  1.3969  0.3862 -2.2028
 6964SOL     OW32524   1.896   0.289   2.425 -0.3561 -0.2417  0.1043
 6964SOL    HW132525   1.917   0.197   2.440 -0.3291 -0.5316 -1.8182
 6964SOL    HW232526   1.828   0.306   2.490  0.7915 -0.5543  1.3851
 6965SOL     OW32527   1.479   3.840   4.459 -0.3095  0.1781 -0.0367
 6965SOL    HW132528   1.517   3.861   4.544 -2.2703 -1.9309  1.3859
 6965SOL    HW232529   1.543   3.798   4.402 -1.9192  0.8723 -2.3988
 6966SOL     OW32530   1.448   1.650  10.702  0.5368 -0.0488 -0.2456
 6966SOL    HW132531   1.482   1.561  10.691  0.4784  0.0984 -1.6415
 6966SOL    HW232532   1.434   1.660  10.796  0.6097  0.6497 -0.3150
 6967SOL     OW32533   0.152   2.271   9.813  0.0629  0.0077  0.3131
 6967SOL    HW132534   0.217   2.204   9.836 -1.2229 -0.5650  2.3237
 6967SOL    HW232535   0.122   2.240   9.728  0.9949 -0.1553  0.0424
 6968SOL     OW32536   4.297   0.652  16.863 -0.1846  0.3043 -0.0275
 6968SOL    HW132537   4.220   0.599  16.838 -0.0796 -0.5979  1.6091
 6968SOL    HW232538   4.367   0.617  16.808  0.9580  2.9331 -0.2439
 6969SOL     OW32539   0.399   1.799   6.863 -0.0942 -0.2453 -0.1412
 6969SOL    HW132540   0.420   1.748   6.941 -0.8680  0.3186  0.4362
 6969SOL    HW232541   0.483   1.842   6.846 -0.3337 -1.4444 -4.2848
 6970SOL     OW32542   1.003   0.346  12.014  1.0033  0.0300  0.2438
 6970SOL    HW132543   0.966   0.422  12.058 -1.8754 -0.9907 -0.3908
 6970SOL    HW232544   1.056   0.393  11.950  0.6359 -0.5804 -0.5188
 6971SOL     OW32545   2.336   0.279   7.049 -0.3518 -0.0914  0.2405
 6971SOL    HW132546   2.295   0.296   6.964  0.6396 -1.4916 -0.5331
 6971SOL    HW232547   2.422   0.262   7.010  0.6995 -0.0541  2.5997
 6972SOL     OW32548   2.616   3.775   6.121 -0.6249  0.2530 -0.5300
 6972SOL    HW132549   2.563   3.849   6.150  0.7829  0.3835  1.7034
 6972SOL    HW232550   2.605   3.713   6.193  1.2524 -1.0714 -1.3700
 6973SOL     OW32551   0.850   1.850   5.559  0.6305 -0.4928 -0.5088
 6973SOL    HW132552   0.770   1.808   5.590 -0.7272  1.9558 -0.6237
 6973SOL    HW232553   0.806   1.892   5.485  0.9404 -2.0052 -1.5545
 6974SOL     OW32554   4.594   1.108   2.409 -0.0589 -0.2454  0.1771
 6974SOL    HW132555   4.638   1.175   2.357  0.5765  0.2681  1.3888
 6974SOL    HW232556   4.515   1.157   2.428  1.5867  1.4466  2.6454
 6975SOL     OW32557   3.893   1.943   4.742 -0.1071  0.0228  0.5901
 6975SOL    HW132558   3.801   1.921   4.758 -0.0281  0.3498  1.5089
 6975SOL    HW232559   3.918   2.009   4.806  0.2440 -1.7044  2.2314
 6976SOL     OW32560   0.215   1.756   7.984  0.1850 -0.0535 -0.2143
 6976SOL    HW132561   0.163   1.835   7.967 -1.3786 -0.5002  2.5896
 6976SOL    HW232562   0.144   1.694   7.999 -0.5874  1.1126  0.8773
 6977SOL     OW32563   0.034   3.832  17.022  0.6367  0.1076  0.0192
 6977SOL    HW132564   0.065   3.879  17.099  0.2826  0.4597 -0.0532
 6977SOL    HW232565   0.004   3.910  16.975  0.0504 -0.1879 -0.0886
 6978SOL     OW32566   1.068   4.457  13.136 -0.0768  0.2336  0.0042
 6978SOL    HW132567   1.052   4.481  13.227 -1.9714 -0.4083 -0.1696
 6978SOL    HW232568   1.159   4.487  13.129 -0.8055  1.8360 -2.7609
 6979SOL     OW32569   3.847   0.434   4.514  0.2040 -0.0330 -0.3156
 6979SOL    HW132570   3.881   0.523   4.502  0.9103 -0.1662  0.6812
 6979SOL    HW232571   3.779   0.448   4.448  0.4662 -1.5382 -0.9030
 6980SOL     OW32572   1.324   0.827   8.844  0.0725 -0.2442 -0.5686
 6980SOL    HW132573   1.322   0.731   8.849 -0.5062 -0.2702 -1.4123
 6980SOL    HW232574   1.259   0.845   8.912  0.4648  0.5210 -0.3936
 6981SOL     OW32575   3.347   2.230   7.357 -0.6199  0.0053 -0.4186
 6981SOL    HW132576   3.410   2.273   7.415  0.4543  0.1872 -1.7358
 6981SOL    HW232577   3.390   2.146   7.340 -0.5159  0.3723 -1.9759
 6982SOL     OW32578   0.273   3.371  14.396  0.3225  0.1525  0.5462
 6982SOL    HW132579   0.331   3.299  14.371 -0.0123 -0.8449  2.6878
 6982SOL    HW232580   0.251   3.347  14.486 -0.6950  0.8310  0.4692
 6983SOL     OW32581   3.565   2.267  16.494  0.2337  0.2807  0.1930
 6983SOL    HW132582   3.597   2.178  16.508  0.5289  0.1944 -1.0996
 6983SOL    HW232583   3.473   2.247  16.507  0.3414 -1.1622 -1.3953
 6984SOL     OW32584   1.585   3.928   6.780 -0.5708 -0.1228  0.5073
 6984SOL    HW132585   1.590   3.834   6.763  3.1220  0.4284 -1.4676
 6984SOL    HW232586   1.601   3.967   6.695 -0.4335  0.2855  0.7224
 6985SOL     OW32587   4.443   0.043   5.614  0.9896  0.3744 -0.4641
 6985SOL    HW132588   4.364   0.078   5.656  2.0452  0.6996  1.2604
 6985SOL    HW232589   4.463   4.711   5.676  1.0819 -0.0206 -0.9421
 6986SOL     OW32590   0.035   3.549   8.979 -0.6478 -0.1887  0.0223
 6986SOL    HW132591   0.036   3.613   8.908 -0.0178 -0.3668 -0.1268
 6986SOL    HW232592   4.680   3.539   9.000 -0.7453  1.3819  0.3364
 6987SOL     OW32593   2.216   3.495  15.585 -0.3612  0.2139  0.8228
 6987SOL    HW132594   2.164   3.566  15.624 -1.1133  0.1126 -0.0061
 6987SOL    HW232595   2.211   3.525  15.495  0.4431 -0.6704  0.4794
 6988SOL     OW32596   2.580   0.114   8.281 -0.3692 -0.6323  0.1109
 6988SOL    HW132597   2.513   0.181   8.292  0.5221 -0.1506  2.6937
 6988SOL    HW232598   2.530   0.044   8.325 -0.4298 -0.7121 -0.0849
 6989SOL     OW32599   1.753   3.244  13.037 -0.9024  0.4627  0.8224
 6989SOL    HW132600   1.679   3.305  13.029 -0.8018  0.2560 -1.7794
 6989SOL    HW232601   1.803   3.286  13.107 -0.8544  2.1120 -0.1991
 6990SOL     OW32602   3.390   4.516   7.653  0.0696  0.7245  0.4620
 6990SOL    HW132603   3.380   4.593   7.708  1.0610 -0.0652  1.7553
 6990SOL    HW232604   3.364   4.456   7.723 -0.0475  1.5442  1.1191
 6991SOL     OW32605   0.579   4.327  15.195 -0.4352 -0.3781  0.2436
 6991SOL    HW132606   0.642   4.391  15.228 -0.9777 -0.0538  0.6618
 6991SOL    HW232607   0.511   4.341  15.261  0.4549 -0.7431  1.2260
 6992SOL     OW32608   1.122   4.019   5.877  0.1593  0.2051 -0.0419
 6992SOL    HW132609   1.143   4.063   5.960  0.0252  2.0833 -1.0184
 6992SOL    HW232610   1.081   3.939   5.911 -1.8633  0.5918 -1.5541
 6993SOL     OW32611   1.374   2.557   4.186 -0.0232  0.2823  0.1898
 6993SOL    HW132612   1.417   2.578   4.104 -1.3012  2.3415  0.0486
 6993SOL    HW232613   1.288   2.562   4.144  0.7118  0.2267 -1.3035
 6994SOL     OW32614   2.726   1.244   2.537  0.1287 -0.5371 -0.1447
 6994SOL    HW132615   2.680   1.166   2.568  0.6333 -1.1579 -0.9665
 6994SOL    HW232616   2.815   1.207   2.537  0.1795 -0.4169 -1.4931
 6995SOL     OW32617   2.790   3.444  14.985  0.1564  0.0412  0.0726
 6995SOL    HW132618   2.814   3.361  14.945 -3.2402 -0.9430  0.0856
 6995SOL    HW232619   2.699   3.418  14.991 -0.0416  0.4520 -1.0140
 6996SOL     OW32620   1.027   0.588   1.337 -0.8187  0.4453 -0.2536
 6996SOL    HW132621   0.993   0.667   1.379  0.3916  0.5476  0.5293
 6996SOL    HW232622   1.024   0.522   1.405  0.4958  2.2549  1.5628
 6997SOL     OW32623   1.522   1.447   1.274  0.2641  0.1130 -0.6608
 6997SOL    HW132624   1.568   1.405   1.200  2.0225 -0.4236  0.7413
 6997SOL    HW232625   1.525   1.382   1.344 -0.0948  0.8286  0.0043
 6998SOL     OW32626   3.313   0.426   4.423 -0.0378 -0.0124  0.2439
 6998SOL    HW132627   3.282   0.342   4.457  0.2694  0.1828  1.0167
 6998SOL    HW232628   3.371   0.437   4.499 -1.9936 -2.1774  2.0369
 6999SOL     OW32629   4.181   2.512  12.345 -0.3636  0.1092  0.3384
 6999SOL    HW132630   4.098   2.531  12.303 -0.4076 -2.9405 -0.9784
 6999SOL    HW232631   4.169   2.564  12.424 -3.2772 -1.8278  1.1964
 7000SOL     OW32632   0.148   2.166  14.393  0.0871 -0.6711 -0.0156
 7000SOL    HW132633   0.129   2.082  14.351  0.9008  0.1022 -1.9171
 7000SOL    HW232634   0.190   2.136  14.474  2.8058 -1.4331 -1.6960
 7001SOL     OW32635   0.692   0.676   4.686 -0.0221 -0.2344 -0.2654
 7001SOL    HW132636   0.785   0.698   4.695 -0.5301  1.2095  1.3226
 7001SOL    HW232637   0.682   0.583   4.704 -2.0896 -0.5286 -2.8171
 7002SOL     OW32638   3.686   3.074   8.930  0.3572  0.2839 -0.3010
 7002SOL    HW132639   3.685   3.150   8.872 -1.7980  0.4231 -0.0913
 7002SOL    HW232640   3.598   3.037   8.918  1.2890 -1.2778 -2.2067
 7003SOL     OW32641   0.200   3.820   8.185  0.3034  0.8303  0.1727
 7003SOL    HW132642   0.227   3.767   8.260  0.6229  1.9155  0.8398
 7003SOL    HW232643   0.240   3.769   8.116 -0.0892  0.6705  0.0642
 7004SOL     OW32644   0.894   0.653  10.644  0.2534  0.2487 -0.0507
 7004SOL    HW132645   0.831   0.629  10.712 -0.6223  1.0874 -0.5543
 7004SOL    HW232646   0.842   0.700  10.578 -1.5864  0.2797  1.4159
 7005SOL     OW32647   0.530   2.746   7.074 -0.1018 -0.3754  0.1026
 7005SOL    HW132648   0.523   2.833   7.035  0.2815  0.1083  1.1304
 7005SOL    HW232649   0.462   2.707   7.019 -0.9026  1.2658 -0.0807
 7006SOL     OW32650   4.126   1.873  15.125  0.2120  0.0336  0.4198
 7006SOL    HW132651   4.114   1.920  15.042  1.4990  1.3900  0.9871
 7006SOL    HW232652   4.120   1.782  15.097  0.0048 -0.1805  1.1650
 7007SOL     OW32653   3.856   4.046   2.213  0.0790 -0.1801  0.4016
 7007SOL    HW132654   3.848   3.957   2.246  2.5628 -0.3745  0.5018
 7007SOL    HW232655   3.935   4.033   2.161  1.3689 -1.6048  2.6994
 7008SOL     OW32656   1.849   2.504   2.643 -0.2200 -0.4641  0.0135
 7008SOL    HW132657   1.871   2.498   2.550  0.5326 -1.0464  0.2261
 7008SOL    HW232658   1.760   2.539   2.647 -0.5085 -0.8317 -2.9030
 7009SOL     OW32659   1.701   3.401  11.847  1.1225  0.5392 -0.1996
 7009SOL    HW132660   1.706   3.436  11.936 -0.9697 -0.2296  0.2338
 7009SOL    HW232661   1.738   3.466  11.787  1.6893  0.1919 -0.2221
 7010SOL     OW32662   3.009   2.241   5.328  0.3144 -0.2974  0.2730
 7010SOL    HW132663   3.049   2.154   5.320  1.1767  0.1852 -0.5855
 7010SOL    HW232664   3.072   2.294   5.376  0.2081 -0.1556  0.2565
 7011SOL     OW32665   4.164   1.863  16.427  0.0042  0.1984  0.3972
 7011SOL    HW132666   4.151   1.829  16.515  3.0153 -1.0611  0.3543
 7011SOL    HW232667   4.249   1.830  16.400  0.9739  0.6274  2.9611
 7012SOL     OW32668   4.703   4.529   5.916 -0.6309  0.2121 -0.2292
 7012SOL    HW132669   4.644   4.556   5.986 -1.5805  1.5046 -1.5242
 7012SOL    HW232670   4.667   4.589   5.850  1.1151  1.3710 -0.1383
 7013SOL     OW32671   0.870   1.477   3.474  0.4120  0.2959  0.3651
 7013SOL    HW132672   0.931   1.509   3.408  0.7863 -0.6248  0.2668
 7013SOL    HW232673   0.785   1.511   3.446  0.1280  0.1794  1.0790
 7014SOL     OW32674   4.084   3.624   2.229 -0.4678 -0.1987 -0.1103
 7014SOL    HW132675   4.163   3.577   2.253  0.3936  2.4295  2.2420
 7014SOL    HW232676   4.030   3.605   2.305  3.2422 -1.2966  2.2459
 7015SOL     OW32677   1.803   4.574   5.449  0.0528 -0.0692  0.8179
 7015SOL    HW132678   1.841   4.489   5.431 -1.4037 -0.8373  1.3577
 7015SOL    HW232679   1.839   4.634   5.384 -2.4281  0.1574 -0.3619
 7016SOL     OW32680   4.227   0.703   0.820 -0.0831  0.0818  0.2284
 7016SOL    HW132681   4.200   0.741   0.904  1.7043 -0.3264  0.9759
 7016SOL    HW232682   4.157   0.642   0.799  1.0933 -1.4659  0.8097
 7017SOL     OW32683   1.464   0.175   9.197 -0.0287 -0.1860 -0.5064
 7017SOL    HW132684   1.542   0.229   9.211  1.9886 -3.3864  0.6675
 7017SOL    HW232685   1.499   0.087   9.181 -1.3405 -1.3370  2.8161
 7018SOL     OW32686   3.420   3.580  17.677  0.4218 -0.1728 -0.0331
 7018SOL    HW132687   3.336   3.581  17.632  0.3631 -0.6140  0.0640
 7018SOL    HW232688   3.465   3.660  17.649 -0.0186  0.3206  0.6719
 7019SOL     OW32689   0.687   4.425   1.527 -0.4315  0.3503 -0.2835
 7019SOL    HW132690   0.774   4.445   1.494 -0.2378 -0.0951 -0.0334
 7019SOL    HW232691   0.633   4.413   1.449 -1.4644 -2.2652  0.8351
 7020SOL     OW32692   2.018   3.728   8.229  0.3827  0.4413  0.3667
 7020SOL    HW132693   1.955   3.656   8.216 -0.4931  1.4539 -1.0411
 7020SOL    HW232694   2.102   3.690   8.255  0.0415 -2.3658 -2.5753
 7021SOL     OW32695   0.262   1.587  15.372 -0.2163 -0.0149  0.6540
 7021SOL    HW132696   0.317   1.537  15.433  0.6056  0.5514  0.3701
 7021SOL    HW232697   0.210   1.512  15.341 -1.1710  0.6958  0.5238
 7022SOL     OW32698   4.035   2.037   3.255  0.2903  0.4018  0.3062
 7022SOL    HW132699   4.079   2.014   3.337 -0.9269 -1.6741  0.3776
 7022SOL    HW232700   3.940   2.035   3.269  0.1384  0.9401 -0.5857
 7023SOL     OW32701   1.957   1.322   6.925 -0.4351 -0.2970  0.0921
 7023SOL    HW132702   2.049   1.312   6.901  0.4270 -0.3205  3.3744
 7023SOL    HW232703   1.970   1.360   7.012 -0.7398  1.8141 -0.7679
 7024SOL     OW32704   1.558   2.195  10.112 -0.3231  0.8774  0.0719
 7024SOL    HW132705   1.590   2.110  10.082 -1.3377  0.8431 -0.9073
 7024SOL    HW232706   1.605   2.197  10.196  0.2427 -0.6891 -0.2144
 7025SOL     OW32707   2.399   0.530  15.672 -0.0676  0.5417 -0.1377
 7025SOL    HW132708   2.494   0.526  15.668 -0.0069  1.3455  0.5053
 7025SOL    HW232709   2.389   0.546  15.766  0.6649 -0.3637  0.0895
 7026SOL     OW32710   2.545   0.465   2.856 -0.2853  0.9317  0.4405
 7026SOL    HW132711   2.486   0.437   2.926 -0.6294 -0.4137 -0.3877
 7026SOL    HW232712   2.585   0.385   2.822 -0.2203  1.5688 -1.0169
 7027SOL     OW32713   0.351   0.538   8.071 -0.0508  0.1280 -0.3000
 7027SOL    HW132714   0.406   0.534   7.993  0.0724 -1.2061 -0.1422
 7027SOL    HW232715   0.373   0.455   8.113  0.5270 -0.3942 -1.6478
 7028SOL     OW32716   1.376   1.208   4.816  0.0541 -0.0162 -0.4995
 7028SOL    HW132717   1.309   1.253   4.868 -1.7382 -2.0572 -1.0267
 7028SOL    HW232718   1.381   1.254   4.733 -0.6782  0.1647 -0.4467
 7029SOL     OW32719   1.598   3.315   3.741 -0.1590  0.1185 -0.2571
 7029SOL    HW132720   1.550   3.248   3.789 -0.5138  0.0197 -0.7584
 7029SOL    HW232721   1.688   3.297   3.767 -0.2302  0.7496  0.4320
 7030SOL     OW32722   1.636   0.278   8.779 -0.3765 -0.5366 -0.2232
 7030SOL    HW132723   1.682   0.353   8.742 -1.8193  0.7483  0.6034
 7030SOL    HW232724   1.704   0.213   8.760 -0.4314 -0.7793  0.4124
 7031SOL     OW32725   3.374   2.071  14.413 -0.8094 -0.3723  0.8254
 7031SOL    HW132726   3.287   2.034  14.399 -1.0269 -0.9026  3.4989
 7031SOL    HW232727   3.431   1.995  14.398  0.3251  0.2904  1.7478
 7032SOL     OW32728   0.393   0.025  10.259 -0.1281  0.8265  0.0589
 7032SOL    HW132729   0.482   0.045  10.229 -0.0626 -3.1091 -2.3256
 7032SOL    HW232730   0.396   0.067  10.345  0.8213  0.9476 -0.0318
 7033SOL     OW32731   3.146   4.426   5.269  0.2310 -0.4163  0.1845
 7033SOL    HW132732   3.224   4.386   5.231  1.0470  0.1021  1.3430
 7033SOL    HW232733   3.079   4.419   5.200 -2.1976 -0.8037  2.5866
 7034SOL     OW32734   0.793   1.480   3.022 -0.4001  0.0053 -0.2110
 7034SOL    HW132735   0.711   1.476   3.073 -0.4607 -0.5767 -0.3467
 7034SOL    HW232736   0.769   1.422   2.950 -3.1164  0.7659  0.0897
 7035SOL     OW32737   4.048   1.025   4.936 -0.1764 -0.0528 -0.2964
 7035SOL    HW132738   4.072   1.002   4.847  1.8237 -0.2876  0.3137
 7035SOL    HW232739   3.960   1.061   4.925  0.2820  0.6940 -1.4943
 7036SOL     OW32740   2.212   4.258   0.741 -0.6055  0.3795 -0.3716
 7036SOL    HW132741   2.258   4.341   0.753 -2.8166  1.4496  0.6360
 7036SOL    HW232742   2.289   4.202   0.724 -1.1968 -0.2208 -1.0907
 7037SOL     OW32743   4.110   3.522   7.349  0.2735  0.2088  0.3056
 7037SOL    HW132744   4.197   3.561   7.341  0.8074 -0.8939  0.6808
 7037SOL    HW232745   4.126   3.444   7.402 -0.0462  1.2211  1.8969
 7038SOL     OW32746   3.038   1.406   9.101  0.2130  0.2899  0.0746
 7038SOL    HW132747   3.009   1.470   9.037 -0.5299 -0.7295 -0.6165
 7038SOL    HW232748   3.008   1.454   9.179 -0.0525 -0.2536  0.3100
 7039SOL     OW32749   3.507   0.733  16.573 -0.7113 -0.2213  0.0387
 7039SOL    HW132750   3.502   0.746  16.668  0.9865  3.4803 -0.3535
 7039SOL    HW232751   3.458   0.808  16.541  1.2096  1.0507  0.0327
 7040SOL     OW32752   1.845   2.505   4.189 -0.3360  0.1051 -0.2019
 7040SOL    HW132753   1.810   2.468   4.108  2.1619 -1.6086 -0.4740
 7040SOL    HW232754   1.875   2.589   4.153 -2.1225  0.8686  0.0862
 7041SOL     OW32755   3.561   0.734  15.087  0.3571 -0.2597  0.2347
 7041SOL    HW132756   3.508   0.798  15.135 -0.6146 -0.4472 -0.5898
 7041SOL    HW232757   3.500   0.660  15.087 -0.2211  0.2208  0.4035
 7042SOL     OW32758   0.185   3.313   8.361 -0.1730  0.8982  0.1418
 7042SOL    HW132759   0.178   3.332   8.455  0.9654 -1.1223  0.6263
 7042SOL    HW232760   0.118   3.375   8.330 -2.7587 -1.5196  0.9340
 7043SOL     OW32761   0.471   1.918   2.521 -0.1296  0.4145 -0.2166
 7043SOL    HW132762   0.460   1.869   2.602  2.6275  0.7243  0.3663
 7043SOL    HW232763   0.475   2.007   2.554 -0.4142  0.2699  0.1996
 7044SOL     OW32764   0.622   1.883  11.364  0.3218  0.2096  0.1856
 7044SOL    HW132765   0.676   1.890  11.442  0.0351  1.0765  0.3027
 7044SOL    HW232766   0.685   1.904  11.295  0.1877  2.9092  0.8830
 7045SOL     OW32767   0.536   1.135   4.343  0.1442  0.1780 -0.4478
 7045SOL    HW132768   0.599   1.180   4.399 -0.2550  0.2877 -0.0887
 7045SOL    HW232769   0.493   1.073   4.401  0.6046 -0.5795 -0.9225
 7046SOL     OW32770   0.790   3.391   2.855  0.3588  0.1228  0.3337
 7046SOL    HW132771   0.799   3.471   2.906  0.5621  1.0541 -1.1677
 7046SOL    HW232772   0.798   3.326   2.925  1.2455  0.3040  0.3996
 7047SOL     OW32773   3.113   0.535   1.876  0.1382  0.2748  0.3164
 7047SOL    HW132774   3.173   0.467   1.907 -0.4676  0.0461  0.9912
 7047SOL    HW232775   3.044   0.474   1.848 -0.7214  1.0029  0.8138
 7048SOL     OW32776   0.615   4.698   2.789 -0.1580  0.1903  0.6202
 7048SOL    HW132777   0.665   4.620   2.815 -2.6906 -0.7262  2.8595
 7048SOL    HW232778   0.609   0.003   2.875 -1.7124 -2.3295  1.7667
 7049SOL     OW32779   2.489   0.441   1.680 -0.1019 -0.2731 -0.5450
 7049SOL    HW132780   2.562   0.489   1.640 -0.9115  0.4384 -1.1719
 7049SOL    HW232781   2.463   0.384   1.608  1.0475 -0.3729 -0.8922
 7050SOL     OW32782   2.349   2.567  15.461  0.2850 -0.3269  0.7712
 7050SOL    HW132783   2.349   2.578  15.556 -2.8770 -1.1474  0.8776
 7050SOL    HW232784   2.386   2.648  15.427 -0.1715 -0.1489  0.7062
 7051SOL     OW32785   2.524   4.640   6.258 -0.2215  0.4904 -0.0855
 7051SOL    HW132786   2.481   4.580   6.319 -0.8610  1.2021  0.1491
 7051SOL    HW232787   2.600   4.654   6.315 -0.6705  0.7388  0.4526
 7052SOL     OW32788   2.350   3.750   3.184 -0.7036 -0.1475  0.0066
 7052SOL    HW132789   2.427   3.808   3.191 -2.6107  2.6604 -2.3672
 7052SOL    HW232790   2.279   3.814   3.177  1.9127  2.8612  0.6275
 7053SOL     OW32791   4.290   2.976  11.750 -0.4064  0.3315 -0.1592
 7053SOL    HW132792   4.203   2.979  11.790 -0.9119 -2.8470 -0.9733
 7053SOL    HW232793   4.324   2.889  11.772  1.2132  0.7474 -0.9988
 7054SOL     OW32794   1.156   3.917  10.342  0.0400 -1.1374  0.4719
 7054SOL    HW132795   1.135   3.906  10.435  0.6650 -0.6021  0.6748
 7054SOL    HW232796   1.074   3.948  10.303 -0.3522 -1.3840  1.0971
 7055SOL     OW32797   2.021   1.191   5.729 -0.3260 -0.3965 -0.1629
 7055SOL    HW132798   2.053   1.274   5.694 -1.5908  0.0809 -0.2046
 7055SOL    HW232799   1.982   1.165   5.646  1.4932  1.8335 -1.6934
 7056SOL     OW32800   1.119   2.269   7.679 -0.1110 -0.4696  0.1340
 7056SOL    HW132801   1.041   2.323   7.664  1.7309  2.0120 -0.5833
 7056SOL    HW232802   1.128   2.221   7.597  0.2469 -1.4299  0.7461
 7057SOL     OW32803   0.286   0.167  11.808 -0.8156  0.3518 -0.4923
 7057SOL    HW132804   0.366   0.131  11.768 -1.3769 -1.2378 -0.1944
 7057SOL    HW232805   0.257   0.086  11.850 -1.5727  0.4020 -0.9320
 7058SOL     OW32806   1.180   1.166  10.421  0.4164 -0.1913  0.6077
 7058SOL    HW132807   1.193   1.205  10.507  0.4376  1.1065  0.0129
 7058SOL    HW232808   1.141   1.081  10.440 -0.9848  0.2200 -0.4932
 7059SOL     OW32809   1.069   1.782   8.693  0.3220  0.1151 -0.0980
 7059SOL    HW132810   1.079   1.691   8.721  0.8865 -0.5571 -2.4750
 7059SOL    HW232811   1.128   1.823   8.756  0.9807 -1.7267  0.4919
 7060SOL     OW32812   2.573   0.636   9.204  0.6213  0.5541  0.2524
 7060SOL    HW132813   2.525   0.579   9.143 -0.8404  0.7136  1.2517
 7060SOL    HW232814   2.495   0.682   9.233  0.2052  1.0056 -1.5489
 7061SOL     OW32815   3.219   2.090   2.417  0.1055  0.3031 -0.5953
 7061SOL    HW132816   3.155   2.161   2.417  0.8135  0.9226  1.5110
 7061SOL    HW232817   3.277   2.115   2.489 -0.6507 -1.4710  0.6384
 7062SOL     OW32818   3.001   0.508   4.509 -0.2352  0.3636 -0.0341
 7062SOL    HW132819   3.029   0.426   4.467 -2.3685  0.7351 -2.1742
 7062SOL    HW232820   3.003   0.474   4.599 -0.7608  1.0334  0.2279
 7063SOL     OW32821   1.873   1.053  11.972 -0.0854  0.1614  0.1072
 7063SOL    HW132822   1.798   1.034  12.029  0.2576 -0.7746  0.2508
 7063SOL    HW232823   1.830   1.068  11.888  2.9020  1.6731 -1.1515
 7064SOL     OW32824   1.014   2.263   9.662  0.5798 -0.0915  0.1651
 7064SOL    HW132825   1.059   2.179   9.669 -2.6385 -1.6231  2.4000
 7064SOL    HW232826   0.921   2.247   9.676 -0.3399  2.2504 -3.2901
 7065SOL     OW32827   2.103   0.752   3.033  0.3832  0.3231 -0.3234
 7065SOL    HW132828   2.011   0.725   3.039  0.1216  1.2539 -0.2419
 7065SOL    HW232829   2.137   0.683   3.090  2.4855  0.9668 -0.8081
 7066SOL     OW32830   2.829   1.928   2.480  0.9141  0.3367 -0.1199
 7066SOL    HW132831   2.781   1.895   2.556  2.9713 -0.3236  0.8947
 7066SOL    HW232832   2.763   1.919   2.411  1.0425 -0.9055 -0.0911
 7067SOL     OW32833   0.730   1.507   4.516 -0.7546  0.0866 -0.1410
 7067SOL    HW132834   0.728   1.599   4.542  0.2960 -0.1377  0.7552
 7067SOL    HW232835   0.657   1.515   4.455 -0.2266 -0.6276 -0.8744
 7068SOL     OW32836   3.151   3.175  12.843 -0.1578 -0.3681 -0.0363
 7068SOL    HW132837   3.100   3.251  12.871  0.7904  0.3053 -0.1631
 7068SOL    HW232838   3.098   3.148  12.768  0.4983  0.1449 -0.6806
 7069SOL     OW32839   0.675   1.736  16.647  0.1404 -0.2673  0.4730
 7069SOL    HW132840   0.683   1.644  16.670 -0.0668 -0.2457  0.6311
 7069SOL    HW232841   0.629   1.736  16.563 -1.4381 -1.7040  1.3377
 7070SOL     OW32842   3.635   3.571   5.143 -0.3452  0.0670  0.1803
 7070SOL    HW132843   3.549   3.546   5.176 -1.0162  0.2516 -1.4404
 7070SOL    HW232844   3.678   3.492   5.177 -0.2511  0.5361  1.1656
 7071SOL     OW32845   3.014   0.886   7.683  0.0638  0.1823 -0.5355
 7071SOL    HW132846   2.977   0.975   7.679 -1.1011 -0.2593  0.6836
 7071SOL    HW232847   3.053   0.884   7.770 -0.4058 -0.6190 -0.3411
 7072SOL     OW32848   3.648   3.360   8.278  0.2079 -0.0476  0.0333
 7072SOL    HW132849   3.633   3.353   8.372  0.7949  0.0258  0.1335
 7072SOL    HW232850   3.566   3.394   8.244  0.8179  1.4406  0.0617
 7073SOL     OW32851   3.790   0.761   8.767  0.0048 -0.7758 -0.6971
 7073SOL    HW132852   3.706   0.732   8.730 -0.6614  0.8065 -0.4062
 7073SOL    HW232853   3.765   0.781   8.857 -3.5791 -1.2482 -1.5889
 7074SOL     OW32854   0.100   4.042   0.922 -0.5565  0.1315  0.1867
 7074SOL    HW132855   0.189   4.064   0.896 -0.4261  0.2489  0.7411
 7074SOL    HW232856   0.052   4.076   0.846 -0.4887 -0.2211 -0.0107
 7075SOL     OW32857   3.664   3.010  14.314  0.1961  0.8185  0.4166
 7075SOL    HW132858   3.600   2.946  14.281  2.4980 -0.8205 -0.8609
 7075SOL    HW232859   3.687   3.049  14.230  0.9289  0.5839  0.5121
 7076SOL     OW32860   0.248   1.458   9.969  0.5716 -0.2641  0.4375
 7076SOL    HW132861   0.234   1.551   9.987  0.4190  0.0922 -1.5756
 7076SOL    HW232862   0.320   1.434  10.026 -0.0886 -2.5124  0.3036
 7077SOL     OW32863   1.241   0.380   5.597  0.7092 -0.3619  0.1084
 7077SOL    HW132864   1.174   0.419   5.654  2.2373 -0.4863  2.0127
 7077SOL    HW232865   1.189   0.313   5.553 -0.1107  0.1548  0.2939
 7078SOL     OW32866   3.444   3.421  15.298 -0.2161  0.0309 -0.5120
 7078SOL    HW132867   3.369   3.383  15.344  1.6279 -0.8073  1.7972
 7078SOL    HW232868   3.426   3.373  15.217 -0.1592 -0.1502 -0.4183
 7079SOL     OW32869   2.263   0.667   2.806  0.0481 -0.7970  0.4944
 7079SOL    HW132870   2.249   0.652   2.900  1.3370  0.6646  0.9300
 7079SOL    HW232871   2.259   0.575   2.780 -0.2613 -0.0620 -1.9759
 7080SOL     OW32872   1.670   4.166  12.541 -0.5544 -0.4015  0.0664
 7080SOL    HW132873   1.580   4.167  12.508 -0.2114  2.2099 -0.7868
 7080SOL    HW232874   1.712   4.226  12.480  0.9901 -1.3773  0.1733
 7081SOL     OW32875   3.693   2.247   1.868  0.2576 -0.1716 -0.1303
 7081SOL    HW132876   3.721   2.216   1.782  0.0315 -0.2412 -0.1793
 7081SOL    HW232877   3.777   2.257   1.912  1.0305 -1.4407 -1.3251
 7082SOL     OW32878   0.852   2.134   7.467  0.5297  0.3599 -0.4065
 7082SOL    HW132879   0.785   2.109   7.530  1.2199  1.3230  0.7140
 7082SOL    HW232880   0.798   2.170   7.397 -1.2617 -0.3767  0.5884
 7083SOL     OW32881   1.072   2.409   4.402 -0.3217 -0.3764  0.3790
 7083SOL    HW132882   1.067   2.343   4.333 -1.6643 -1.0833  1.1632
 7083SOL    HW232883   1.050   2.495   4.366  3.8620 -0.4142 -2.2582
 7084SOL     OW32884   3.599   3.780   8.963 -0.1015 -0.6539  0.3285
 7084SOL    HW132885   3.588   3.867   8.925 -0.4808  0.3684  2.7883
 7084SOL    HW232886   3.674   3.784   9.023 -1.2395  1.2297  1.6305
 7085SOL     OW32887   4.007   0.713  16.821 -0.0379 -0.1313 -0.6623
 7085SOL    HW132888   3.922   0.689  16.784 -0.9324  0.9517  0.6843
 7085SOL    HW232889   3.978   0.716  16.912 -0.5488 -1.1811 -0.7900
 7086SOL     OW32890   3.258   4.223   6.135 -0.0109 -0.1079 -0.2538
 7086SOL    HW132891   3.177   4.264   6.163 -0.7552 -0.6367 -1.6441
 7086SOL    HW232892   3.313   4.285   6.183  0.1273  0.2393 -0.8552
 7087SOL     OW32893   1.234   0.454  12.986  0.1375 -0.4577  0.6250
 7087SOL    HW132894   1.326   0.441  13.009 -0.2827 -1.2047  1.9097
 7087SOL    HW232895   1.224   0.549  12.974  0.1355 -0.4440  0.7378
 7088SOL     OW32896   3.195   2.282   3.808 -0.1630 -0.7276  0.0063
 7088SOL    HW132897   3.289   2.290   3.828 -0.7244 -0.4412  2.4583
 7088SOL    HW232898   3.197   2.271   3.713  0.5804  2.0552 -0.2933
 7089SOL     OW32899   1.297   2.025  14.502 -0.1329 -0.3780  0.0754
 7089SOL    HW132900   1.388   2.049  14.517 -0.2601 -0.2769  0.6827
 7089SOL    HW232901   1.300   1.969  14.424 -1.1582  1.7637 -1.4868
 7090SOL     OW32902   1.280   0.164  11.841  0.5239 -0.0497 -0.2250
 7090SOL    HW132903   1.320   0.082  11.868  0.6110  0.4313  1.1289
 7090SOL    HW232904   1.234   0.141  11.760 -2.2836  1.2460  0.9896
 7091SOL     OW32905   4.659   1.672  14.405 -0.4816  0.0730  0.1634
 7091SOL    HW132906   4.574   1.706  14.432  0.1722  1.3164  0.6524
 7091SOL    HW232907   4.644   1.577  14.401 -0.0582  0.0117  0.0174
 7092SOL     OW32908   1.534   4.462   0.627 -0.2559  0.1738  0.1083
 7092SOL    HW132909   1.583   4.399   0.679  0.6072  0.5668 -0.2280
 7092SOL    HW232910   1.491   4.512   0.696  0.2807  1.8475 -0.7727
 7093SOL     OW32911   4.454   0.244   4.689 -0.4108 -0.3055  0.2126
 7093SOL    HW132912   4.511   0.230   4.614  0.3447  0.8314  0.5735
 7093SOL    HW232913   4.373   0.271   4.647  0.8793  1.6174 -1.0477
 7094SOL     OW32914   2.936   1.943   8.472 -0.1072 -0.3738 -0.1251
 7094SOL    HW132915   2.938   1.963   8.566 -2.1507 -1.4243  0.1412
 7094SOL    HW232916   2.964   1.852   8.471  1.0988 -0.0307  1.3846
 7095SOL     OW32917   0.440   1.454  11.163 -0.4055  0.3920  0.3750
 7095SOL    HW132918   0.476   1.520  11.222 -0.7822  1.4194 -0.5476
 7095SOL    HW232919   0.473   1.373  11.201  0.6111  1.1595  1.1077
 7096SOL     OW32920   0.416   4.262   2.462  0.3024  0.6219  0.4911
 7096SOL    HW132921   0.343   4.202   2.448  1.7082 -0.7226 -1.1190
 7096SOL    HW232922   0.383   4.296   2.545 -0.7917  2.0261 -0.5070
 7097SOL     OW32923   0.879   2.297   4.041 -0.6260  0.0646  0.0781
 7097SOL    HW132924   0.966   2.336   4.028  0.4899 -2.6386 -0.7039
 7097SOL    HW232925   0.906   2.214   4.082 -0.7367  0.1108  0.2428
 7098SOL     OW32926   4.090   3.281   1.060  0.2582 -0.1515 -0.7105
 7098SOL    HW132927   4.014   3.303   1.006 -0.7845  1.2654  1.3372
 7098SOL    HW232928   4.038   3.276   1.141  0.8443  0.0528 -0.3206
 7099SOL     OW32929   0.456   3.421   6.012 -0.2022 -0.2131 -0.2245
 7099SOL    HW132930   0.549   3.438   6.002  0.1988 -2.4400 -0.2787
 7099SOL    HW232931   0.422   3.505   6.044 -0.4451 -0.0777 -0.8464
 7100SOL     OW32932   2.695   0.869   9.918 -0.7535  0.1652 -0.1764
 7100SOL    HW132933   2.664   0.812   9.989  1.2693 -1.2706 -0.4308
 7100SOL    HW232934   2.628   0.936   9.930  1.8427  2.8039 -0.3291
 7101SOL     OW32935   4.017   2.498  10.441 -0.0446  0.0171 -0.2325
 7101SOL    HW132936   3.957   2.564  10.477  0.7650  0.6126  0.0373
 7101SOL    HW232937   3.953   2.435  10.409  1.3716 -0.2301 -2.5680
 7102SOL     OW32938   2.283   2.873  16.159  0.2260 -0.3932 -0.3445
 7102SOL    HW132939   2.271   2.965  16.184  0.5405  0.1536 -2.1364
 7102SOL    HW232940   2.324   2.826  16.231 -1.2298 -1.1944 -0.0566
 7103SOL     OW32941   2.354   4.573   3.858  0.9331  0.2016  0.0354
 7103SOL    HW132942   2.263   4.587   3.885  1.5615 -1.3753  2.9786
 7103SOL    HW232943   2.352   4.531   3.772  1.0185 -1.7822  0.9966
 7104SOL     OW32944   3.477   1.436  15.942  0.5568  0.0024  0.5920
 7104SOL    HW132945   3.424   1.515  15.937  2.3859  1.0594 -1.9403
 7104SOL    HW232946   3.404   1.374  15.951  1.1475 -0.5253  1.7665
 7105SOL     OW32947   0.189   2.733   5.190 -0.3206 -0.6104  0.3452
 7105SOL    HW132948   0.159   2.729   5.281  2.3036 -2.3555  1.1145
 7105SOL    HW232949   0.269   2.786   5.193  0.0946 -1.1987 -0.2505
 7106SOL     OW32950   2.111   2.211   9.761  0.5485 -0.2303 -0.1360
 7106SOL    HW132951   2.066   2.205   9.846  1.5862 -2.4203  0.2582
 7106SOL    HW232952   2.114   2.304   9.739 -0.9482 -0.0658  0.3226
 7107SOL     OW32953   0.259   3.751  16.136 -0.1566  0.3284 -0.4129
 7107SOL    HW132954   0.344   3.792  16.122  0.8347 -1.6956 -0.3407
 7107SOL    HW232955   0.276   3.681  16.199  0.4379 -0.7959 -1.8092
 7108SOL     OW32956   4.581   4.393   4.836  0.5684 -0.2805 -0.3345
 7108SOL    HW132957   4.617   4.415   4.750 -1.3257  0.2275 -1.0020
 7108SOL    HW232958   4.556   4.477   4.875 -0.4137  0.3782 -2.3914
 7109SOL     OW32959   3.711   0.494   9.152  0.2906 -0.0374  0.0511
 7109SOL    HW132960   3.631   0.545   9.147  0.0984 -0.3176  0.2659
 7109SOL    HW232961   3.722   0.505   9.247  0.5748  0.5598 -0.0492
 7110SOL     OW32962   0.659   0.583   4.016 -0.3218  0.2468  0.1844
 7110SOL    HW132963   0.626   0.640   3.946 -1.1347 -0.7201 -0.2258
 7110SOL    HW232964   0.631   0.637   4.090 -2.3970  0.4766 -0.7650
 7111SOL     OW32965   1.098   4.629   7.975 -0.1103 -0.0175  0.1000
 7111SOL    HW132966   1.183   4.593   7.949  0.0712  2.0216 -2.2578
 7111SOL    HW232967   1.065   4.571   8.043  0.6607  1.2992  1.6008
 7112SOL     OW32968   1.579   1.279  16.267  0.8554 -0.2689  0.4093
 7112SOL    HW132969   1.491   1.312  16.252  1.6524  1.7578  0.1688
 7112SOL    HW232970   1.559   1.191  16.237 -2.1906  0.1952  1.0259
 7113SOL     OW32971   4.310   3.652   1.047  0.6100 -0.0409 -0.1938
 7113SOL    HW132972   4.315   3.644   1.142  2.7241 -2.7179 -0.5205
 7113SOL    HW232973   4.260   3.579   1.012  0.2819  1.7118 -3.3669
 7114SOL     OW32974   2.817   2.020   7.385 -0.3972 -0.0462 -0.1809
 7114SOL    HW132975   2.805   1.980   7.471 -0.9329 -0.1689 -0.3126
 7114SOL    HW232976   2.881   2.089   7.401 -0.7662  0.7892 -2.3281
 7115SOL     OW32977   4.341   1.239   2.398 -0.0299  0.0886 -0.3941
 7115SOL    HW132978   4.303   1.294   2.329  0.0217 -0.1207 -0.5886
 7115SOL    HW232979   4.265   1.227   2.455  0.5801  0.4275  0.4830
 7116SOL     OW32980   0.670   4.696   2.032 -0.3218 -0.0450 -0.2819
 7116SOL    HW132981   0.683   4.672   1.940  0.4639 -2.5079  0.4647
 7116SOL    HW232982   0.580   4.728   2.033 -0.4575 -0.4764  1.4293
 7117SOL     OW32983   1.791   3.112  12.734  0.2153  0.1315 -0.1470
 7117SOL    HW132984   1.709   3.160  12.722  0.9555  1.0683 -1.4707
 7117SOL    HW232985   1.777   3.079  12.823  2.2029 -0.4118 -0.0299
 7118SOL     OW32986   2.892   4.622   7.014  0.0718 -0.7553  0.1029
 7118SOL    HW132987   2.898   4.534   6.977 -0.8889  0.0044 -1.8893
 7118SOL    HW232988   2.822   4.604   7.076  1.6394 -0.8787  1.8512
 7119SOL     OW32989   1.470   3.389   0.772 -0.4814  0.6544 -0.7223
 7119SOL    HW132990   1.378   3.377   0.794 -0.4831 -1.4104 -1.8720
 7119SOL    HW232991   1.468   3.390   0.676  1.4682 -0.6344 -0.7879
 7120SOL     OW32992   0.019   3.393   4.468  0.2553 -0.4028  0.3674
 7120SOL    HW132993   4.732   3.336   4.395  0.8964 -0.1780 -0.0284
 7120SOL    HW232994   0.097   3.349   4.501 -0.7579 -2.6499 -0.2454
 7121SOL     OW32995   0.764   2.119   0.125  0.1392  0.2661  0.1545
 7121SOL    HW132996   0.815   2.074   0.056  0.9617 -1.4484  1.8880
 7121SOL    HW232997   0.791   2.066   0.200  1.6483  2.0486  0.8671
 7122SOL     OW32998   2.019   2.219  15.013 -0.2583  0.1057 -0.2535
 7122SOL    HW132999   1.938   2.170  15.028  1.4058 -2.5935 -0.2419
 7122SOL    HW233000   2.039   2.186  14.926 -3.2382  0.7501 -1.2046
 7123SOL     OW33001   4.147   2.744   7.249 -0.8793 -0.4342  0.4900
 7123SOL    HW133002   4.164   2.650   7.251  0.7141 -0.1796 -0.9792
 7123SOL    HW233003   4.161   2.765   7.157  1.4224 -1.2053  0.6815
 7124SOL     OW33004   3.697   4.097   1.762  0.2127 -0.4549  0.3528
 7124SOL    HW133005   3.789   4.120   1.769  0.7996 -1.8087 -3.2797
 7124SOL    HW233006   3.696   4.044   1.683 -0.2169 -1.0182  0.7380
 7125SOL     OW33007   1.437   3.686  12.847 -0.7231 -0.0064 -0.4848
 7125SOL    HW133008   1.432   3.645  12.760  1.2052 -1.9368  0.3001
 7125SOL    HW233009   1.348   3.712  12.868 -0.7533 -0.1366 -0.4520
 7126SOL     OW33010   1.638   1.344   2.237  0.4669  0.9398  0.3157
 7126SOL    HW133011   1.614   1.360   2.328  0.4455 -2.1111  0.8372
 7126SOL    HW233012   1.724   1.386   2.237  0.8894  0.0718  0.3597
 7127SOL     OW33013   4.101   2.104   8.751  0.3619  0.0968  0.8302
 7127SOL    HW133014   4.184   2.152   8.753 -0.9600  2.3870  1.3109
 7127SOL    HW233015   4.129   2.024   8.707  0.2449  1.4191 -1.6785
 7128SOL     OW33016   1.298   1.230   7.034 -0.2601 -0.5327 -0.0350
 7128SOL    HW133017   1.237   1.299   7.007 -2.0082 -2.7722 -1.8273
 7128SOL    HW233018   1.371   1.256   6.977 -1.0329  0.9363 -0.3408
 7129SOL     OW33019   3.075   0.880   6.912 -0.5491 -0.7622 -0.3836
 7129SOL    HW133020   3.049   0.794   6.945  3.4924 -1.9441 -0.3176
 7129SOL    HW233021   3.110   0.925   6.989  1.1125 -0.4813 -1.2858
 7130SOL     OW33022   0.896   0.704  17.132  0.5782  0.1738 -0.5549
 7130SOL    HW133023   0.820   0.655  17.098 -1.7118  1.2948  2.9078
 7130SOL    HW233024   0.881   0.712  17.226 -0.7616  1.1722 -0.8427
 7131SOL     OW33025   3.061   2.366  16.581  0.0361  0.8554  0.3705
 7131SOL    HW133026   3.039   2.327  16.666 -1.9062  0.1201 -0.4714
 7131SOL    HW233027   3.046   2.458  16.602 -1.8776  0.4386  0.8358
 7132SOL     OW33028   0.887   0.140   4.624  0.7260 -0.3835  0.1096
 7132SOL    HW133029   0.930   0.058   4.648  0.0265 -0.7545  0.0861
 7132SOL    HW233030   0.962   0.199   4.636  0.3580  0.2032 -0.4701
 7133SOL     OW33031   2.907   0.987   8.452 -1.0688 -0.2516  0.0888
 7133SOL    HW133032   2.904   0.943   8.367 -0.0225  0.9707 -0.5877
 7133SOL    HW233033   2.987   0.949   8.488  1.2075  3.8789 -0.5138
 7134SOL     OW33034   3.405   2.404   1.200  0.2478  0.2076 -0.3573
 7134SOL    HW133035   3.446   2.318   1.190 -2.0064 -0.9815  0.6428
 7134SOL    HW233036   3.317   2.397   1.161  0.1495 -2.3622  0.3281
 7135SOL     OW33037   2.901   0.568   5.835  0.2088  0.5024 -0.1638
 7135SOL    HW133038   2.866   0.635   5.893  0.1044  0.8751 -0.6558
 7135SOL    HW233039   2.960   0.530   5.899  0.3656  1.8319  0.4860
 7136SOL     OW33040   3.619   3.048   5.098  0.4097  0.6614  0.5949
 7136SOL    HW133041   3.581   2.970   5.138  2.6255 -0.8927 -0.3313
 7136SOL    HW233042   3.629   3.025   5.006 -0.4718  0.6070  0.5172
 7137SOL     OW33043   1.758   2.835   7.935  0.3717  0.1628  0.1690
 7137SOL    HW133044   1.733   2.845   8.027  0.3059 -0.4448  0.2194
 7137SOL    HW233045   1.832   2.895   7.939 -0.0283  0.6587  0.0445
 7138SOL     OW33046   4.415   3.327   1.867  0.3265 -0.0344  0.0894
 7138SOL    HW133047   4.484   3.386   1.898  0.0765 -0.4105  1.3584
 7138SOL    HW233048   4.383   3.364   1.785 -1.0096 -1.4175 -0.0230
 7139SOL     OW33049   3.328   1.808   5.422  0.4734  0.4315 -0.6386
 7139SOL    HW133050   3.415   1.769   5.417 -0.4881 -1.5927 -1.6942
 7139SOL    HW233051   3.321   1.852   5.337  0.9333 -1.3290 -1.5816
 7140SOL     OW33052   0.582   2.629   6.028 -0.2291  0.2602  0.6612
 7140SOL    HW133053   0.549   2.647   5.940 -0.6161  0.9603  0.9490
 7140SOL    HW233054   0.544   2.541   6.036 -0.0568  0.0628 -0.7439
 7141SOL     OW33055   3.207   3.840   4.968 -0.6773 -0.1150 -0.0943
 7141SOL    HW133056   3.116   3.812   4.976 -1.3964  2.7275  1.6012
 7141SOL    HW233057   3.192   3.934   4.970 -1.1250 -0.1760 -0.4497
 7142SOL     OW33058   4.156   4.125   0.373 -0.5189  0.1325 -0.8529
 7142SOL    HW133059   4.071   4.110   0.332 -0.3574 -2.4966 -0.2139
 7142SOL    HW233060   4.210   4.067   0.318  1.8268  0.8623  0.6970
 7143SOL     OW33061   4.423   2.566  10.165 -0.0020  0.4503 -0.1461
 7143SOL    HW133062   4.515   2.553  10.188  0.1620  1.8983 -0.0061
 7143SOL    HW233063   4.392   2.475  10.162  1.1336  0.0590  0.1165
 7144SOL     OW33064   1.209   1.933   3.670  0.0291 -0.2442 -0.1430
 7144SOL    HW133065   1.248   1.849   3.695  2.0139  0.4415 -0.9436
 7144SOL    HW233066   1.292   1.981   3.659 -0.0900  0.2127  0.9870
 7145SOL     OW33067   3.450   3.307   1.070 -0.9097  0.0604  0.0491
 7145SOL    HW133068   3.541   3.306   1.099 -0.2564  1.5081 -1.9963
 7145SOL    HW233069   3.413   3.288   1.157  1.8335  0.9369  1.4005
 7146SOL     OW33070   3.824   0.711  15.053 -0.4647 -0.6141  0.6729
 7146SOL    HW133071   3.734   0.718  15.085 -0.4106  1.5617  0.3455
 7146SOL    HW233072   3.803   0.662  14.974 -0.3023 -0.3139  0.4425
 7147SOL     OW33073   2.819   4.095  15.929  0.0194  0.2679 -0.2056
 7147SOL    HW133074   2.888   4.046  15.887  0.0702  1.7027 -1.7886
 7147SOL    HW233075   2.829   4.179  15.885 -1.0838  0.0422 -0.8837
 7148SOL     OW33076   2.752   1.999  15.966  0.5306 -0.4800  0.3912
 7148SOL    HW133077   2.684   1.999  16.032  0.4899  2.9602  0.3516
 7148SOL    HW233078   2.711   2.058  15.902  2.0631  1.9460  1.6356
 7149SOL     OW33079   0.918   1.580  15.942 -0.0282 -0.1748 -0.3622
 7149SOL    HW133080   0.887   1.663  15.907  0.0168 -0.8174 -1.9118
 7149SOL    HW233081   0.850   1.551  16.003  0.9087 -0.9616  0.3273
 7150SOL     OW33082   1.369   3.767   3.901  0.5473  0.1996 -0.0828
 7150SOL    HW133083   1.420   3.846   3.919 -0.6087  1.0944 -0.7015
 7150SOL    HW233084   1.417   3.728   3.829 -1.7361  1.1454 -2.1541
 7151SOL     OW33085   2.009   0.778  13.329 -0.1573 -0.0576 -0.2763
 7151SOL    HW133086   1.966   0.781  13.244 -0.1391  1.8558 -0.2119
 7151SOL    HW233087   1.993   0.685  13.348  1.3332 -0.6959 -2.1370
 7152SOL     OW33088   4.529   3.573   5.138  0.0939  0.3486  0.8395
 7152SOL    HW133089   4.592   3.644   5.151 -0.5207  0.4859  3.0503
 7152SOL    HW233090   4.450   3.626   5.151  0.8544  1.1246  2.4035
 7153SOL     OW33091   1.367   1.001   3.883 -0.2148 -0.1164  0.0372
 7153SOL    HW133092   1.291   1.057   3.897 -0.9077 -0.3957 -2.5261
 7153SOL    HW233093   1.437   1.042   3.934 -1.9864  1.1909  1.4106
 7154SOL     OW33094   0.338   1.370   5.663 -0.7399 -0.8414  0.4957
 7154SOL    HW133095   0.394   1.293   5.662 -1.0915 -1.0777 -1.4404
 7154SOL    HW233096   0.377   1.414   5.587  0.7997 -0.7183  1.3635
 7155SOL     OW33097   3.104   2.995   3.264 -0.2202 -0.0415  0.4703
 7155SOL    HW133098   3.197   3.014   3.276 -0.0378 -1.0320  0.6825
 7155SOL    HW233099   3.107   2.900   3.249 -2.0321 -0.3005  1.6793
 7156SOL     OW33100   2.952   1.013   6.726 -0.4539  0.0084 -0.0689
 7156SOL    HW133101   3.000   0.955   6.786 -1.0799 -0.2140  0.2199
 7156SOL    HW233102   2.991   0.987   6.643 -1.2621 -0.0697 -0.4204
 7157SOL     OW33103   2.231   3.577   8.283 -0.3512  0.7040  0.4071
 7157SOL    HW133104   2.305   3.521   8.261 -0.2606  0.5203  1.1574
 7157SOL    HW233105   2.179   3.520   8.341  1.1403 -0.2602  0.8152
 7158SOL     OW33106   4.617   4.456   5.173  0.1099  0.0922 -0.3512
 7158SOL    HW133107   4.607   4.540   5.127  2.5474  0.0495 -1.0067
 7158SOL    HW233108   4.529   4.455   5.209  0.5372 -2.7388  0.5870
 7159SOL     OW33109   3.051   2.256   3.557  0.3252 -0.0307  0.7871
 7159SOL    HW133110   3.043   2.161   3.566  1.6467 -0.5017 -2.8566
 7159SOL    HW233111   3.123   2.269   3.495 -0.3161  1.4608  0.3645
 7160SOL     OW33112   0.937   4.589   8.590  0.0549 -0.2529 -0.3161
 7160SOL    HW133113   1.021   4.548   8.570  0.5762  0.9875 -0.6399
 7160SOL    HW233114   0.961   4.660   8.650  1.7600 -1.6656  0.6651
 7161SOL     OW33115   4.032   1.886   6.140  0.9394  0.7768 -0.3433
 7161SOL    HW133116   4.010   1.846   6.224 -0.0926 -0.2747 -1.1059
 7161SOL    HW233117   4.038   1.815   6.075 -0.9162 -0.0130  0.3576
 7162SOL     OW33118   0.510   2.091   6.335  0.1115  0.2429 -0.0347
 7162SOL    HW133119   0.436   2.047   6.292 -0.6419  1.3058  0.1707
 7162SOL    HW233120   0.474   2.143   6.407 -0.7531 -0.1597 -0.1799
 7163SOL     OW33121   1.540   1.058   6.616 -0.2908 -0.4730  0.1381
 7163SOL    HW133122   1.632   1.030   6.607  0.6697  1.5566  3.6826
 7163SOL    HW233123   1.525   1.033   6.707 -2.3303  1.0666  0.2005
 7164SOL     OW33124   1.337   4.479   4.202 -0.5913 -0.1771 -0.3577
 7164SOL    HW133125   1.432   4.486   4.213 -0.7045  1.0269 -0.0770
 7164SOL    HW233126   1.322   4.540   4.130  0.2121 -1.9585 -2.0100
 7165SOL     OW33127   1.085   2.001   9.008  0.0926 -0.2244 -0.1522
 7165SOL    HW133128   1.127   1.917   9.023  2.6372  1.5522  2.8282
 7165SOL    HW233129   0.994   1.974   9.018  0.5803 -1.8912 -0.3677
 7166SOL     OW33130   2.973   2.892   1.822  0.3599  0.3644 -0.0854
 7166SOL    HW133131   2.965   2.848   1.737  2.7315 -0.8369  0.3320
 7166SOL    HW233132   3.000   2.824   1.882 -0.6473  1.7493  1.9553
 7167SOL     OW33133   3.866   0.278   2.188  0.2471 -0.6872  0.3471
 7167SOL    HW133134   3.887   0.192   2.224 -1.8389 -0.5782  1.8280
 7167SOL    HW233135   3.780   0.281   2.230  0.4035 -2.5553  0.7663
 7168SOL     OW33136   0.200   2.348  12.951  0.2262  0.7282 -0.0570
 7168SOL    HW133137   0.194   2.441  12.973 -1.0981  0.0626  2.3914
 7168SOL    HW233138   0.295   2.331  12.950  0.4001  1.7529 -1.6159
 7169SOL     OW33139   0.204   2.414  17.101  0.1023  0.1223  0.4505
 7169SOL    HW133140   0.161   2.421  17.186  0.1866 -0.0725  0.5096
 7169SOL    HW233141   0.283   2.464  17.123 -1.4360  1.9920  1.6366
 7170SOL     OW33142   4.447   1.145  14.450  0.1784  0.3091 -0.0920
 7170SOL    HW133143   4.355   1.170  14.453  0.3358  1.0921 -1.7581
 7170SOL    HW233144   4.452   1.106  14.363  1.5133  2.6210 -1.0591
 7171SOL     OW33145   3.402   0.633   9.606 -0.0376  0.1044  0.2628
 7171SOL    HW133146   3.400   0.538   9.610  1.8006  0.0547 -0.1689
 7171SOL    HW233147   3.308   0.652   9.611 -0.1486 -0.3456 -0.0999
 7172SOL     OW33148   3.380   3.479   0.863  0.0908 -0.8579  0.7944
 7172SOL    HW133149   3.411   3.440   0.944 -0.1169 -3.1627 -0.2236
 7172SOL    HW233150   3.300   3.429   0.845  0.6569 -0.4514 -2.9038
 7173SOL     OW33151   0.696   3.220   6.779 -0.2662 -0.4428 -0.1230
 7173SOL    HW133152   0.785   3.200   6.750  0.5096  1.3560  1.0122
 7173SOL    HW233153   0.653   3.252   6.700  1.0200 -1.4601 -1.2351
 7174SOL     OW33154   0.528   3.202  16.991  0.1832  0.6022  0.1066
 7174SOL    HW133155   0.511   3.268  16.924 -0.9098  0.1701 -0.0384
 7174SOL    HW233156   0.459   3.218  17.055  0.3955 -1.2175  0.8073
 7175SOL     OW33157   1.853   1.336   7.619 -0.0366 -0.5450 -0.6776
 7175SOL    HW133158   1.814   1.415   7.658 -0.3196 -0.7370 -0.5708
 7175SOL    HW233159   1.804   1.261   7.651  2.2875 -0.8480  2.1927
 7176SOL     OW33160   4.251   4.241  10.590  0.3428  0.3101 -0.3547
 7176SOL    HW133161   4.165   4.201  10.580  0.2761  0.4458 -0.3241
 7176SOL    HW233162   4.311   4.167  10.576 -0.4797  0.0349 -2.3964
 7177SOL     OW33163   1.412   2.950   0.550  0.7600  0.5904  0.2068
 7177SOL    HW133164   1.317   2.965   0.554  0.2739 -2.1452 -0.7964
 7177SOL    HW233165   1.423   3.009   0.475  2.1244  1.1345  0.8505
 7178SOL     OW33166   4.375   0.933   4.623 -0.2045 -0.2393 -0.1741
 7178SOL    HW133167   4.396   1.006   4.682  0.4512 -2.6374  2.5184
 7178SOL    HW233168   4.409   0.868   4.684 -0.9022 -0.0089  0.4579
 7179SOL     OW33169   0.677   2.859   6.296 -0.4781 -0.3006  0.4834
 7179SOL    HW133170   0.678   2.934   6.236  0.1799 -1.7359 -1.2689
 7179SOL    HW233171   0.757   2.812   6.275 -0.6440 -0.0809 -0.6296
 7180SOL     OW33172   3.705   3.788   3.212 -0.2703 -0.2309 -0.3593
 7180SOL    HW133173   3.766   3.861   3.224 -0.6538 -0.2058  1.4644
 7180SOL    HW233174   3.724   3.766   3.121 -0.1473 -2.3401  0.1900
 7181SOL     OW33175   1.898   3.059   1.815 -0.4196 -0.7176 -0.3606
 7181SOL    HW133176   1.934   2.971   1.830  0.6234 -0.3159 -0.5210
 7181SOL    HW233177   1.836   3.061   1.889  1.2612 -0.8267  1.0477
 7182SOL     OW33178   0.683   3.840   5.396 -0.0924  0.2085 -0.2129
 7182SOL    HW133179   0.761   3.820   5.343 -0.1757  1.0060 -0.6272
 7182SOL    HW233180   0.666   3.764   5.453  1.3051 -0.7892 -1.1069
 7183SOL     OW33181   1.257   2.127   4.911  0.2895 -0.0113 -0.0057
 7183SOL    HW133182   1.258   2.204   4.855  1.1666 -0.9601 -1.3014
 7183SOL    HW233183   1.256   2.056   4.847 -3.3994 -0.9801  1.1011
 7184SOL     OW33184   0.447   3.209   1.376  0.4550 -0.0153 -0.4860
 7184SOL    HW133185   0.351   3.210   1.380  0.5613  0.2335  1.9596
 7184SOL    HW233186   0.458   3.230   1.469  0.7209 -0.0266 -0.5162
 7185SOL     OW33187   3.806   3.299  11.295  1.1076 -0.4886 -0.2536
 7185SOL    HW133188   3.880   3.239  11.303  4.1361  3.3281  0.4742
 7185SOL    HW233189   3.763   3.274  11.213 -2.8426  2.2723  1.0084
 7186SOL     OW33190   2.036   2.787   4.470  0.2863  0.6220 -0.0752
 7186SOL    HW133191   2.042   2.853   4.538 -2.3518  0.2499  0.5323
 7186SOL    HW233192   1.998   2.712   4.515 -1.4009  1.5572  0.0886
 7187SOL     OW33193   1.742   0.090   6.410  0.1217 -0.1300  0.6746
 7187SOL    HW133194   1.653   0.060   6.390  0.3108  0.0663 -0.4422
 7187SOL    HW233195   1.738   0.185   6.406 -0.5084 -0.0538  3.1114
 7188SOL     OW33196   2.479   2.382   3.445 -0.1763  0.3844  0.3437
 7188SOL    HW133197   2.456   2.372   3.352  1.5542 -2.0640  0.2016
 7188SOL    HW233198   2.488   2.476   3.430 -0.3066 -0.0115 -2.1907
 7189SOL     OW33199   4.380   0.294   3.109 -0.5675 -0.1952  0.3385
 7189SOL    HW133200   4.374   0.199   3.123  0.8478 -0.1720  1.1591
 7189SOL    HW233201   4.337   0.308   3.194 -0.7641 -1.9546  0.5368
 7190SOL     OW33202   2.457   3.403  16.605 -0.2315 -0.1376 -0.1590
 7190SOL    HW133203   2.480   3.366  16.519 -2.6918 -1.5144 -0.2198
 7190SOL    HW233204   2.467   3.496  16.587  1.7155 -0.4543 -0.7587
 7191SOL     OW33205   0.514   2.050   9.670 -0.6630 -0.3633 -0.1957
 7191SOL    HW133206   0.432   2.004   9.686 -1.4838  0.3167 -2.4069
 7191SOL    HW233207   0.572   1.977   9.651  0.2565  0.5012 -0.7019
 7192SOL     OW33208   1.070   2.558   7.786  0.4031  0.3857 -0.1425
 7192SOL    HW133209   0.988   2.543   7.739  0.8459 -1.3304 -0.3561
 7192SOL    HW233210   1.110   2.473   7.806  3.1498  2.1524  1.8461
 7193SOL     OW33211   3.220   1.929  13.850 -0.0835  0.0497 -0.1854
 7193SOL    HW133212   3.315   1.921  13.846  0.0324  0.9044  0.6807
 7193SOL    HW233213   3.193   1.853  13.800  0.7833 -0.8435  0.7086
 7194SOL     OW33214   1.378   2.658   5.087 -0.2786 -0.5992 -0.4206
 7194SOL    HW133215   1.324   2.651   5.166 -1.6625  0.1697 -1.2924
 7194SOL    HW233216   1.352   2.743   5.051  1.5282 -0.1410 -0.6654
 7195SOL     OW33217   2.324   3.516   3.037  0.3669 -0.2932 -0.4214
 7195SOL    HW133218   2.250   3.455   3.041  0.1331 -0.0573 -1.2165
 7195SOL    HW233219   2.291   3.578   3.102  1.2344 -1.1848  0.8724
 7196SOL     OW33220   2.892   3.813  13.624  0.4389 -0.3510 -0.2884
 7196SOL    HW133221   2.857   3.738  13.576  1.2196  0.4166 -2.0890
 7196SOL    HW233222   2.972   3.833  13.575  0.6260 -3.2075 -1.1447
 7197SOL     OW33223   3.821   2.640   6.838 -0.7052 -0.5352 -0.4220
 7197SOL    HW133224   3.867   2.653   6.921 -3.1961 -0.4518  0.9510
 7197SOL    HW233225   3.891   2.645   6.773  1.2391  0.8027  1.7627
 7198SOL     OW33226   3.549   2.750   8.441  0.3329  0.0895  0.2153
 7198SOL    HW133227   3.530   2.665   8.482 -1.0343 -1.0201 -2.7185
 7198SOL    HW233228   3.611   2.724   8.373  0.5219  0.1144  0.3775
 7199SOL     OW33229   2.294   2.082   0.163 -0.2120 -0.5716 -0.3284
 7199SOL    HW133230   2.223   2.079   0.228  1.9145 -0.2506  1.9983
 7199SOL    HW233231   2.323   1.991   0.163  1.2766 -0.0738 -3.7420
 7200SOL     OW33232   0.400   2.983  10.276  0.0888 -0.4268  0.3653
 7200SOL    HW133233   0.331   3.014  10.334  3.1725  1.6258  2.9154
 7200SOL    HW233234   0.476   2.972  10.333  1.8868  0.5993 -1.8619
 7201SOL     OW33235   0.663   4.272   4.068 -0.2709  0.6128 -0.3689
 7201SOL    HW133236   0.675   4.179   4.086  2.3585  0.7495 -1.4956
 7201SOL    HW233237   0.604   4.274   3.992 -1.0527 -1.3889  0.1997
 7202SOL     OW33238   0.979   0.145   1.162 -0.5630  0.4030 -0.0299
 7202SOL    HW133239   0.923   0.166   1.088 -1.4353 -1.7418  0.0191
 7202SOL    HW233240   1.025   0.229   1.162  1.0682 -0.4825  0.8705
 7203SOL     OW33241   3.098   3.078   8.351 -0.2224 -0.2791 -0.2567
 7203SOL    HW133242   3.118   3.005   8.292 -0.0191 -0.4749  0.0537
 7203SOL    HW233243   3.034   3.040   8.411 -0.7620  0.2630 -0.4881
 7204SOL     OW33244   0.869   1.632  12.173 -0.6510  0.0704 -0.3059
 7204SOL    HW133245   0.849   1.721  12.145  2.4372  0.6871 -0.5209
 7204SOL    HW233246   0.946   1.657  12.223 -1.5917  2.4401 -0.0551
 7205SOL     OW33247   4.286   0.272   5.869 -0.3578 -0.6426  0.5839
 7205SOL    HW133248   4.261   0.216   5.795 -0.7796  1.1573 -0.6426
 7205SOL    HW233249   4.283   0.214   5.945  2.1203  0.5383  1.5973
 7206SOL     OW33250   3.057   1.035   0.089 -0.2860 -0.4060  0.2360
 7206SOL    HW133251   3.042   0.941   0.080  1.0510 -0.6212  0.2531
 7206SOL    HW233252   3.010   1.053   0.170  2.1574 -0.3381  1.6335
 7207SOL     OW33253   2.685   3.427   1.991  0.0879  0.4162 -0.0021
 7207SOL    HW133254   2.778   3.406   1.981  0.1689 -0.1164  1.9326
 7207SOL    HW233255   2.666   3.415   2.084 -3.2494  0.2719 -0.6916
 7208SOL     OW33256   0.331   1.126   0.173  0.0256  0.2979  0.0569
 7208SOL    HW133257   0.310   1.107   0.082  1.5638  0.1198 -0.2603
 7208SOL    HW233258   0.394   1.056   0.192 -0.3072 -0.0987 -0.3036
 7209SOL     OW33259   1.017   0.091  11.991 -0.0855 -0.1315  0.0495
 7209SOL    HW133260   1.111   0.104  12.002  0.1808 -1.5323 -0.5346
 7209SOL    HW233261   0.994   0.183  11.985 -1.4213 -0.5338 -1.1684
 7210SOL     OW33262   0.368   3.337   0.025 -0.0878  0.3355  0.1694
 7210SOL    HW133263   0.389   3.273   0.092 -0.5215  0.2505  0.2253
 7210SOL    HW233264   0.358   3.420   0.072 -0.8930 -0.2507  1.0337
 7211SOL     OW33265   0.342   2.648   9.101  0.7991  0.3742  1.2647
 7211SOL    HW133266   0.348   2.561   9.140 -1.6149 -0.9250 -1.2759
 7211SOL    HW233267   0.425   2.687   9.131 -0.0375  0.8503  3.0142
 7212SOL     OW33268   1.475   2.462   8.057  0.3001  0.0671  0.1588
 7212SOL    HW133269   1.490   2.427   7.969 -2.8652 -0.1417 -0.2965
 7212SOL    HW233270   1.553   2.517   8.056  1.6251 -1.8038  1.5754
 7213SOL     OW33271   0.403   0.887   0.649  0.0759  0.4502  0.0009
 7213SOL    HW133272   0.448   0.834   0.584 -1.2629 -0.3052 -0.3081
 7213SOL    HW233273   0.341   0.823   0.684  1.7008 -0.3359  1.4399
 7214SOL     OW33274   0.582   0.321   3.167  0.5238 -0.2403 -0.4912
 7214SOL    HW133275   0.578   0.300   3.260  1.5657 -1.4418 -0.7262
 7214SOL    HW233276   0.511   0.263   3.140 -0.2756  0.7842 -0.6299
 7215SOL     OW33277   1.375   4.111   4.690  0.2119  0.4271  0.4283
 7215SOL    HW133278   1.307   4.103   4.757 -0.5057  1.2791 -0.1991
 7215SOL    HW233279   1.340   4.060   4.617 -1.3294  1.2820  0.5580
 7216SOL     OW33280   1.253   3.673   7.323 -0.0598 -0.1723 -0.2012
 7216SOL    HW133281   1.324   3.648   7.264 -1.3694 -1.8893 -1.0545
 7216SOL    HW233282   1.182   3.677   7.259  1.5193 -0.0518 -1.9451
 7217SOL     OW33283   3.677   0.604   2.172  0.3054  0.2818  0.3442
 7217SOL    HW133284   3.589   0.643   2.166  1.0845  1.8073 -1.1306
 7217SOL    HW233285   3.708   0.606   2.082 -1.7479  3.7225 -0.3000
 7218SOL     OW33286   1.248   0.228   9.377  0.3081  0.2976 -0.2308
 7218SOL    HW133287   1.320   0.242   9.314  0.7616  1.8064  0.6150
 7218SOL    HW233288   1.285   0.154   9.423  2.2040  1.6072  0.3641
 7219SOL     OW33289   2.666   2.590   4.840  0.5554 -0.7525  0.2389
 7219SOL    HW133290   2.580   2.629   4.855  0.9316 -1.0125  3.0520
 7219SOL    HW233291   2.666   2.536   4.919  1.1571 -1.4018 -0.2110
 7220SOL     OW33292   1.460   3.363   6.879 -0.2063  0.7412  0.4730
 7220SOL    HW133293   1.480   3.306   6.953  3.5904  1.1132 -0.2725
 7220SOL    HW233294   1.543   3.350   6.834 -1.0366  1.5907 -1.2975
 7221SOL     OW33295   0.147   3.839   7.044 -0.1778 -0.1264  0.1759
 7221SOL    HW133296   0.218   3.835   7.109  2.3110 -0.8817 -2.5416
 7221SOL    HW233297   0.206   3.879   6.979 -0.2977  0.0190  0.1585
 7222SOL     OW33298   4.536   2.724   5.313 -0.3199 -0.0214  0.3845
 7222SOL    HW133299   4.488   2.641   5.308 -0.6253  0.2313 -1.0180
 7222SOL    HW233300   4.511   2.768   5.231  1.6698  1.5640  0.6253
 7223SOL     OW33301   1.251   4.557   8.785 -0.1444  0.8719 -0.3065
 7223SOL    HW133302   1.316   4.607   8.835  0.6323 -1.1406  0.6695
 7223SOL    HW233303   1.172   4.598   8.821 -1.1935  0.1794 -1.8112
 7224SOL     OW33304   3.138   0.110  10.134 -0.7745  0.7590  0.2113
 7224SOL    HW133305   3.122   0.015  10.128  0.6327  0.5492 -0.2922
 7224SOL    HW233306   3.051   0.142  10.154 -0.5962  0.8432  0.8322
 7225SOL     OW33307   2.464   2.110   8.020 -0.4823  0.3322 -0.2077
 7225SOL    HW133308   2.456   2.031   8.074 -0.3842  0.3360 -0.1865
 7225SOL    HW233309   2.535   2.144   8.075 -1.4352 -1.1763  1.9509
 7226SOL     OW33310   4.301   3.493   2.302  0.2011  0.6598  0.1092
 7226SOL    HW133311   4.344   3.429   2.247 -2.1920  0.2630 -1.3106
 7226SOL    HW233312   4.327   3.457   2.387 -2.9376 -0.4071  0.6365
 7227SOL     OW33313   4.607   4.278   7.241 -0.2834  0.3117  0.5852
 7227SOL    HW133314   4.657   4.197   7.239 -1.3390 -0.3195 -0.7742
 7227SOL    HW233315   4.659   4.332   7.181 -1.0078 -1.0161 -1.2333
 7228SOL     OW33316   3.382   4.662  10.111 -0.4199  0.0525 -0.4037
 7228SOL    HW133317   3.408   4.730  10.048  1.0178 -0.6322 -0.5446
 7228SOL    HW233318   3.410   4.700  10.194 -3.3312  3.6135 -1.0166
 7229SOL     OW33319   2.307   2.890  13.945 -0.0413  0.4920 -0.0075
 7229SOL    HW133320   2.362   2.828  13.897  1.2062  0.8825  0.9307
 7229SOL    HW233321   2.328   2.873  14.037  2.1308 -0.8739 -0.7624
 7230SOL     OW33322   2.901   1.298  13.898  0.0498  0.0154 -0.0256
 7230SOL    HW133323   2.865   1.254  13.820 -3.0826 -0.2337  1.5450
 7230SOL    HW233324   2.884   1.387  13.866  3.3096 -0.0083 -1.8199
 7231SOL     OW33325   4.098   1.768   1.716 -0.4158  0.2717 -0.7309
 7231SOL    HW133326   4.030   1.820   1.759 -2.1078 -0.2683 -2.7524
 7231SOL    HW233327   4.172   1.781   1.776  0.6803 -0.5599 -1.9043
 7232SOL     OW33328   4.028   0.787  13.200 -0.2902  0.0016  0.0127
 7232SOL    HW133329   4.056   0.744  13.281  0.7655 -0.7051 -0.7276
 7232SOL    HW233330   4.049   0.876  13.226 -0.5443 -0.4445  1.7503
 7233SOL     OW33331   1.097   1.387   5.380 -0.0075  0.3308  0.2102
 7233SOL    HW133332   1.098   1.449   5.453 -1.4822 -1.0791  1.4469
 7233SOL    HW233333   1.121   1.309   5.430 -1.4696 -0.4144 -0.2521
 7234SOL     OW33334   2.962   3.831   6.213 -0.3675 -0.3283  0.3531
 7234SOL    HW133335   2.931   3.883   6.139 -0.9896 -1.1496  0.0430
 7234SOL    HW233336   2.978   3.907   6.270  4.3189 -0.7317 -0.4349
 7235SOL     OW33337   4.318   0.254  11.054 -0.5167 -0.2810  0.7017
 7235SOL    HW133338   4.301   0.347  11.043  0.0681 -0.5547 -2.5867
 7235SOL    HW233339   4.362   0.229  10.972 -1.8796 -0.0997 -0.0804
 7236SOL     OW33340   2.886   0.394   5.207 -0.1610  0.4753  0.4627
 7236SOL    HW133341   2.930   0.438   5.279 -1.6984 -0.1714  1.8091
 7236SOL    HW233342   2.964   0.362   5.162 -0.7763  0.8960 -0.8995
 7237SOL     OW33343   4.337   3.501   1.662 -0.4658  0.0066  0.2021
 7237SOL    HW133344   4.364   3.565   1.596 -1.6466  0.9846  0.6669
 7237SOL    HW233345   4.283   3.554   1.720  1.3045  2.3010 -0.2391
 7238SOL     OW33346   1.717   4.061  16.452 -0.1158  0.1547 -0.1793
 7238SOL    HW133347   1.727   4.152  16.480 -0.8172  0.2437 -0.2116
 7238SOL    HW233348   1.795   4.021  16.489  0.4470 -0.0360 -1.5943
 7239SOL     OW33349   1.140   0.983   4.575 -0.0323 -0.2635  0.5080
 7239SOL    HW133350   1.134   1.075   4.601 -2.9959 -0.7235  1.4919
 7239SOL    HW233351   1.053   0.975   4.535 -0.1187 -0.6105  0.7616
 7240SOL     OW33352   4.453   4.570   0.557  0.1687 -0.1551 -0.5890
 7240SOL    HW133353   4.394   4.498   0.533 -1.8232  0.8012  1.3427
 7240SOL    HW233354   4.412   4.632   0.497  0.3200  0.1573 -0.3683
 7241SOL     OW33355   4.024   2.407  16.434  0.1598  0.2400 -0.0794
 7241SOL    HW133356   4.022   2.461  16.356 -1.9776  0.0403 -0.1626
 7241SOL    HW233357   3.942   2.443  16.469 -0.0423 -0.9286  0.6869
 7242SOL     OW33358   3.080   0.146   8.479  0.0954  0.3662  0.2245
 7242SOL    HW133359   2.991   0.180   8.488  0.4070  0.9849  0.8998
 7242SOL    HW233360   3.116   0.231   8.453  1.6588 -0.7166 -1.1989
 7243SOL     OW33361   0.382   0.131   2.652 -0.0083  0.1278  0.1207
 7243SOL    HW133362   0.377   0.125   2.557 -1.4894 -1.2733  0.2820
 7243SOL    HW233363   0.449   0.065   2.671 -0.6946 -0.6546 -0.1625
 7244SOL     OW33364   0.460   0.059   2.398  0.1260  0.0311  0.0213
 7244SOL    HW133365   0.551   0.063   2.425 -0.1498 -0.5312  1.0494
 7244SOL    HW233366   0.456   4.704   2.372  1.7848  0.2706 -1.0729
 7245SOL     OW33367   0.869   0.202   2.845  0.4835 -0.2084  0.1586
 7245SOL    HW133368   0.937   0.159   2.793 -0.9117  1.1186 -2.7704
 7245SOL    HW233369   0.928   0.264   2.888  1.4787 -1.1418  0.1412
 7246SOL     OW33370   3.690   3.311   7.720  0.1410  0.0345 -0.2667
 7246SOL    HW133371   3.684   3.370   7.795 -0.3215  1.2282 -1.2338
 7246SOL    HW233372   3.777   3.335   7.690  1.0184 -0.9688  1.4942
 7247SOL     OW33373   1.886   0.791  17.006 -0.1766 -0.4089 -0.1165
 7247SOL    HW133374   1.846   0.818  17.088  0.7359 -0.6513  0.4057
 7247SOL    HW233375   1.960   0.733  17.022  0.4262 -0.1824 -2.0529
 7248SOL     OW33376   0.445   1.971  13.855 -0.2676 -0.8157 -0.1921
 7248SOL    HW133377   0.532   2.003  13.829 -0.8776  0.3489 -0.8289
 7248SOL    HW233378   0.390   2.043  13.825  0.0371 -0.1910  0.7521
 7249SOL     OW33379   0.930   1.087   8.611 -0.0004  0.3815 -0.3296
 7249SOL    HW133380   1.001   1.152   8.619 -0.7656  0.7179  3.9619
 7249SOL    HW233381   0.898   1.105   8.523  1.7072  0.9169 -0.8400
 7250SOL     OW33382   0.387   3.726  16.969  0.0708 -0.4245  0.0985
 7250SOL    HW133383   0.398   3.809  17.015  1.5089 -0.0102 -0.9837
 7250SOL    HW233384   0.322   3.678  17.020 -1.4606  1.7522  0.1701
 7251SOL     OW33385   4.055   3.110   8.730  0.6047 -0.0098 -0.1208
 7251SOL    HW133386   4.071   3.128   8.822 -0.0886  0.5417 -0.1046
 7251SOL    HW233387   4.010   3.194   8.722  0.1828 -0.2458 -0.2331
 7252SOL     OW33388   0.587   2.548   7.240  0.7029  0.2084  0.1904
 7252SOL    HW133389   0.574   2.630   7.191 -0.2544 -0.2617 -0.3391
 7252SOL    HW233390   0.505   2.500   7.227  1.4097 -1.3203  1.4933
 7253SOL     OW33391   0.001   4.158   4.774  0.0311 -0.5497  0.5049
 7253SOL    HW133392   4.697   4.225   4.828  0.2927 -1.2148  1.5489
 7253SOL    HW233393   0.073   4.208   4.736 -1.3209  1.8733  1.1554
 7254SOL     OW33394   3.196   3.327   3.624  0.6237  0.0909 -0.0030
 7254SOL    HW133395   3.125   3.364   3.677  1.2557  0.0917  0.8381
 7254SOL    HW233396   3.212   3.401   3.566  0.4226 -0.8720 -1.2958
 7255SOL     OW33397   0.046   3.471   5.181 -0.3014  0.1570 -0.0182
 7255SOL    HW133398   4.693   3.477   5.152 -0.6357 -4.0824  0.1448
 7255SOL    HW233399   0.066   3.559   5.215  1.1330  0.8161 -2.5431
 7256SOL     OW33400   1.833   0.685   2.988 -0.2123 -0.1026 -0.3005
 7256SOL    HW133401   1.808   0.600   3.024  1.7900  1.1236  4.0367
 7256SOL    HW233402   1.847   0.655   2.899 -0.9858  0.9663 -0.7855
 7257SOL     OW33403   1.369   3.846  13.177 -0.3453  0.3102  0.1151
 7257SOL    HW133404   1.326   3.893  13.249  0.7187 -0.4857  1.2537
 7257SOL    HW233405   1.400   3.928  13.140 -0.4428  0.7816  1.0621
 7258SOL     OW33406   3.754   2.640   5.492 -0.0132 -0.0065  0.6955
 7258SOL    HW133407   3.694   2.651   5.565 -1.6137 -0.7015 -0.5190
 7258SOL    HW233408   3.821   2.587   5.537 -0.5493 -0.5910  0.8032
 7259SOL     OW33409   3.222   4.656   8.768  0.2181 -0.2553 -0.3673
 7259SOL    HW133410   3.180   4.733   8.807  1.2066 -0.6935  1.5737
 7259SOL    HW233411   3.296   4.645   8.828 -0.9630  0.2525  1.1840
 7260SOL     OW33412   0.007   1.762   1.451 -0.2778  0.1172  0.1765
 7260SOL    HW133413   4.682   1.825   1.415  1.0324  0.9375 -0.6712
 7260SOL    HW233414   0.035   1.810   1.529  2.5170 -0.0124 -0.7424
 7261SOL     OW33415   4.554   2.089  15.299 -0.2560  0.1325  0.4514
 7261SOL    HW133416   4.560   2.001  15.260  2.4523  0.0198  1.1579
 7261SOL    HW233417   4.479   2.126  15.253 -1.6442 -3.1650  0.0092
 7262SOL     OW33418   0.888   2.011  10.413  0.1316  0.1106 -0.6575
 7262SOL    HW133419   0.872   2.082  10.351 -0.7735 -0.1589 -0.7329
 7262SOL    HW233420   0.844   2.053  10.487  0.6186  1.2034 -0.9831
 7263SOL     OW33421   4.346   4.388   8.297 -0.1390  0.7159  0.3873
 7263SOL    HW133422   4.384   4.343   8.222  0.8081 -1.3861  2.1126
 7263SOL    HW233423   4.272   4.327   8.301  0.6031 -0.2192  0.0041
 7264SOL     OW33424   1.702   0.420   7.919  0.0303  0.1792 -0.0858
 7264SOL    HW133425   1.786   0.401   7.878 -0.3160  1.1398 -1.2481
 7264SOL    HW233426   1.699   0.365   7.997 -1.1658 -1.2767 -1.1746
 7265SOL     OW33427   1.369   3.591   3.408 -0.1072 -0.2315 -0.3357
 7265SOL    HW133428   1.411   3.515   3.367  2.1912  1.0122 -0.2951
 7265SOL    HW233429   1.389   3.661   3.347 -0.1124 -0.1734 -0.2709
 7266SOL     OW33430   1.188   3.398   8.053  0.0535 -0.0437  0.6407
 7266SOL    HW133431   1.209   3.471   8.110  3.6718 -0.0045 -0.7265
 7266SOL    HW233432   1.204   3.324   8.112 -0.7164 -0.6354  0.1108
 7267SOL     OW33433   3.770   4.301   5.621  0.3894  0.3183 -0.3138
 7267SOL    HW133434   3.756   4.382   5.670  0.6387 -0.1981  0.6113
 7267SOL    HW233435   3.839   4.325   5.559  1.4503 -2.4316 -0.1868
 7268SOL     OW33436   3.514   3.838   8.224  0.0892 -0.1518 -0.2075
 7268SOL    HW133437   3.490   3.877   8.308  0.8170  0.4014 -0.2586
 7268SOL    HW233438   3.571   3.765   8.245 -2.2634 -1.2378  2.4023
 7269SOL     OW33439   0.097   1.133   8.552 -0.0882 -0.2538 -0.2729
 7269SOL    HW133440   0.116   1.223   8.527  2.5914 -0.2851  1.5832
 7269SOL    HW233441   0.085   1.100   8.463  0.5510  1.3785 -0.9543
 7270SOL     OW33442   3.198   2.578   0.757  0.4857 -0.0186  0.1697
 7270SOL    HW133443   3.113   2.610   0.729  0.8468  2.1747  1.6527
 7270SOL    HW233444   3.166   2.498   0.799 -0.8344 -0.8123 -2.3358
 7271SOL     OW33445   3.212   4.120   2.556 -0.3175 -0.5497 -0.6498
 7271SOL    HW133446   3.148   4.146   2.623  1.4597  1.3650  0.3077
 7271SOL    HW233447   3.180   4.176   2.485  1.1591  1.9766  0.6549
 7272SOL     OW33448   2.072   0.511   3.859  0.0320 -0.5188 -0.6463
 7272SOL    HW133449   2.112   0.598   3.858 -0.0262 -0.4698  1.1954
 7272SOL    HW233450   2.124   0.456   3.918 -2.3358  1.1586  3.0216
 7273SOL     OW33451   0.046   0.262  17.648  0.3104 -0.4219 -0.4278
 7273SOL    HW133452   0.066   0.240  17.739 -0.1265 -0.1647 -0.2697
 7273SOL    HW233453   0.027   0.356  17.650 -1.7514 -0.9011  2.8340
 7274SOL     OW33454   0.847   2.051   6.665 -0.4468  0.2002 -0.2158
 7274SOL    HW133455   0.908   2.096   6.606 -1.0566  1.0237 -0.2166
 7274SOL    HW233456   0.855   2.120   6.732  5.8574  0.2458 -1.0460
 7275SOL     OW33457   2.410   2.453   9.617 -0.4430 -0.1599  0.3410
 7275SOL    HW133458   2.376   2.535   9.582 -2.5586 -0.4260  1.7894
 7275SOL    HW233459   2.504   2.467   9.605 -0.8433  0.6014 -1.9077
 7276SOL     OW33460   1.843   0.903  10.314 -0.1181  0.1777 -0.2448
 7276SOL    HW133461   1.787   0.979  10.328  0.2846  0.6717 -1.2521
 7276SOL    HW233462   1.851   0.860  10.399 -1.5395  1.2534  0.4301
 7277SOL     OW33463   4.689   0.845   6.538  0.2199 -0.2348  0.4031
 7277SOL    HW133464   0.003   0.850   6.618 -0.9446 -0.7400  1.1868
 7277SOL    HW233465   4.625   0.913   6.555  0.9581  0.2256  1.2937
 7278SOL     OW33466   1.443   2.358   2.199 -0.6665 -0.7370  0.1729
 7278SOL    HW133467   1.379   2.325   2.136 -0.2916 -1.1650  0.0138
 7278SOL    HW233468   1.401   2.361   2.285 -3.5333  2.9528 -1.3560
 7279SOL     OW33469   0.336   4.138   3.315 -0.0238  0.5780  0.1813
 7279SOL    HW133470   0.292   4.222   3.325 -0.2164  0.7408 -2.0664
 7279SOL    HW233471   0.410   4.169   3.263  0.3866 -0.8847 -0.1121
 7280SOL     OW33472   3.595   3.952   9.302  0.3908 -0.4030  0.5360
 7280SOL    HW133473   3.663   3.951   9.235  1.4079 -0.2417  1.5755
 7280SOL    HW233474   3.593   4.047   9.314  0.7974 -0.1922 -1.0774
 7281SOL     OW33475   1.598   3.060   4.644 -0.3292  0.1268 -0.3409
 7281SOL    HW133476   1.666   3.089   4.704 -1.3214  0.3143  0.6869
 7281SOL    HW233477   1.518   3.111   4.662  0.4841  0.0866  3.2698
 7282SOL     OW33478   2.404   2.479   7.287 -0.2973 -0.0235 -0.2195
 7282SOL    HW133479   2.405   2.467   7.192  1.7933 -0.0863 -0.1844
 7282SOL    HW233480   2.495   2.473   7.313 -0.2074 -0.9287 -0.7626
 7283SOL     OW33481   2.385   2.229   5.108 -0.4677 -0.0185 -0.4129
 7283SOL    HW133482   2.316   2.295   5.112 -0.6870 -0.4131  1.7365
 7283SOL    HW233483   2.341   2.171   5.046 -4.2765  0.9002  1.4791
 7284SOL     OW33484   1.181   2.000  13.135  0.3598  0.0847 -0.6380
 7284SOL    HW133485   1.127   1.944  13.190  0.4987 -0.1727 -0.7604
 7284SOL    HW233486   1.185   2.080  13.187 -1.0834 -0.1439 -0.1829
 7285SOL     OW33487   0.129   3.809   1.196 -0.0532 -0.1257  0.4677
 7285SOL    HW133488   0.101   3.757   1.120 -1.0853  0.0654  0.7175
 7285SOL    HW233489   0.056   3.870   1.207 -0.2371 -0.8280  3.1392
 7286SOL     OW33490   4.360   3.808   2.287  0.0577  0.6129 -0.1286
 7286SOL    HW133491   4.353   3.753   2.209 -0.6197  0.3915  0.0915
 7286SOL    HW233492   4.446   3.779   2.317  0.7937  1.1557 -1.6931
 7287SOL     OW33493   4.058   0.801   3.300  0.2288  0.1973 -0.6819
 7287SOL    HW133494   4.085   0.740   3.368  0.3931  1.3652  0.2834
 7287SOL    HW233495   4.077   0.752   3.220 -1.3851  0.8662 -1.4710
 7288SOL     OW33496   3.107   1.380  14.579  0.3479 -0.0025 -0.0371
 7288SOL    HW133497   3.014   1.374  14.599  0.1474 -0.6700 -1.1689
 7288SOL    HW233498   3.092   1.456  14.522 -0.0439 -1.3513 -1.7241
 7289SOL     OW33499   0.206   4.108   8.162 -0.6100 -0.0799 -0.0962
 7289SOL    HW133500   0.224   4.014   8.157  1.9477  0.3466  1.0778
 7289SOL    HW233501   0.142   4.117   8.232  0.5627 -0.7189  1.0612
 7290SOL     OW33502   0.866   1.250   5.214  0.3770  0.4336  0.0040
 7290SOL    HW133503   0.929   1.310   5.253  0.3797  1.0366 -0.9430
 7290SOL    HW233504   0.926   1.213   5.149 -0.4494 -0.3872 -0.3114
 7291SOL     OW33505   3.230   3.342  10.826  0.2599 -0.3323  0.4040
 7291SOL    HW133506   3.268   3.429  10.816  1.6053 -0.6456  2.6257
 7291SOL    HW233507   3.273   3.297  10.753  0.0782  1.5497 -0.8514
 7292SOL     OW33508   3.688   3.867   7.275 -0.2880  0.4082 -0.6638
 7292SOL    HW133509   3.766   3.920   7.292 -1.9604  2.7138 -0.1764
 7292SOL    HW233510   3.716   3.790   7.227  0.3100 -0.3005  0.8162
 7293SOL     OW33511   3.466   3.732   4.395  0.1072 -0.1306  0.2716
 7293SOL    HW133512   3.520   3.761   4.469  0.0876  1.2776 -0.2519
 7293SOL    HW233513   3.522   3.763   4.323 -1.0420  1.0838 -0.0938
 7294SOL     OW33514   0.377   4.076   5.570  0.6488 -0.4365  0.8458
 7294SOL    HW133515   0.407   4.043   5.485  4.2974 -0.1414  2.0571
 7294SOL    HW233516   0.384   4.169   5.547  0.7585 -0.2388  1.6884
 7295SOL     OW33517   3.581   0.312   5.191  0.3182  0.1110 -0.3111
 7295SOL    HW133518   3.558   0.333   5.100  0.2054 -0.5904 -0.4497
 7295SOL    HW233519   3.662   0.261   5.189  1.2603  1.5207  2.3981
 7296SOL     OW33520   1.206   3.114   2.283 -0.6047 -0.2145 -0.2437
 7296SOL    HW133521   1.211   3.068   2.367 -0.1839  1.8384  0.8637
 7296SOL    HW233522   1.295   3.098   2.254 -0.2750  1.1174  0.0418
 7297SOL     OW33523   4.333   0.030   3.439 -0.7416 -0.3459 -0.0302
 7297SOL    HW133524   4.419   0.064   3.462 -1.4347  0.4517  1.3586
 7297SOL    HW233525   4.280   0.065   3.511  0.1823  3.2938 -1.0912
 7298SOL     OW33526   3.936   2.597   1.844  0.2703  0.6115  0.8802
 7298SOL    HW133527   4.004   2.574   1.781 -0.7463 -0.8422  0.3027
 7298SOL    HW233528   3.866   2.584   1.779  0.3899  0.1416  0.8499
 7299SOL     OW33529   1.218   4.565   0.939  0.1508  0.1891  0.0684
 7299SOL    HW133530   1.147   4.574   1.002 -2.8822 -0.3998 -3.2633
 7299SOL    HW233531   1.209   4.473   0.917  0.7325 -0.2732  1.7566
 7300SOL     OW33532   3.809   1.968  16.135 -0.6599  0.0406 -0.5219
 7300SOL    HW133533   3.879   1.998  16.076 -0.2039 -0.9302 -0.4819
 7300SOL    HW233534   3.847   1.888  16.170 -0.3464  0.0036 -0.9445
 7301SOL     OW33535   1.679   3.078   2.620  0.7355 -0.0697  0.3889
 7301SOL    HW133536   1.720   3.165   2.613  0.2040  0.1361 -0.1570
 7301SOL    HW233537   1.742   3.039   2.680  0.5894  1.1454  1.3336
 7302SOL     OW33538   4.601   4.064  15.801 -0.1757 -0.5731  1.2252
 7302SOL    HW133539   4.632   4.021  15.722 -1.5214  1.0558 -0.1724
 7302SOL    HW233540   4.614   4.155  15.774 -0.1443 -0.9709 -0.0601
 7303SOL     OW33541   1.366   4.564   7.912  0.4615  0.1999 -0.3421
 7303SOL    HW133542   1.457   4.593   7.912  0.2095  0.9831  2.4433
 7303SOL    HW233543   1.354   4.520   7.996 -0.6195 -0.2768 -0.7502
 7304SOL     OW33544   1.186   2.370   8.122  0.0311 -0.0065  0.6522
 7304SOL    HW133545   1.249   2.369   8.050 -0.0125  3.6260  0.5328
 7304SOL    HW233546   1.229   2.339   8.201  1.9502  0.9564 -0.0177
 7305SOL     OW33547   4.294   4.051   9.761 -0.8141  0.0346  0.0271
 7305SOL    HW133548   4.306   4.142   9.787  1.0362 -0.2481  0.1553
 7305SOL    HW233549   4.360   4.037   9.694 -2.2062 -0.6786 -1.1915
 7306SOL     OW33550   0.421   2.716  13.699 -0.2006  0.0597 -0.3110
 7306SOL    HW133551   0.361   2.783  13.665  1.0395  0.8826 -0.8763
 7306SOL    HW233552   0.353   2.671  13.749  1.2303 -0.5398  1.1034
 7307SOL     OW33553   3.048   0.416  12.768  0.3687  0.2033 -0.2809
 7307SOL    HW133554   3.092   0.334  12.746 -1.1066 -0.0945 -2.1225
 7307SOL    HW233555   3.005   0.392  12.850 -1.3962 -1.9707 -1.8212
 7308SOL     OW33556   0.010   0.320   5.516 -0.3685 -0.5985  0.4814
 7308SOL    HW133557   4.690   0.252   5.480 -0.6063 -0.4066  0.4945
 7308SOL    HW233558   0.049   0.352   5.435  1.4145 -0.0085  1.5639
 7309SOL     OW33559   2.458   4.408   8.502 -0.4623  0.5644  0.7657
 7309SOL    HW133560   2.496   4.439   8.584  0.9356  0.9158 -0.0145
 7309SOL    HW233561   2.433   4.490   8.461 -1.5998 -0.1186  0.0773
 7310SOL     OW33562   1.989   0.876   2.596  0.5075  0.1400  0.2470
 7310SOL    HW133563   1.900   0.857   2.626 -0.2601  1.4855 -1.1458
 7310SOL    HW233564   2.033   0.900   2.678  1.6279 -0.0160 -0.3112
 7311SOL     OW33565   1.206   2.594   2.975 -0.3985 -0.2418 -0.4288
 7311SOL    HW133566   1.276   2.658   2.987 -1.3203  0.4245  1.3556
 7311SOL    HW233567   1.255   2.519   2.943 -0.2153  0.0331 -0.7903
 7312SOL     OW33568   0.190   3.219   1.590 -0.4512  0.0168 -0.4310
 7312SOL    HW133569   0.154   3.194   1.675 -0.5980 -0.9086 -0.7593
 7312SOL    HW233570   0.118   3.185   1.536  1.5186 -2.0727 -1.7251
 7313SOL     OW33571   3.058   3.826   8.198  0.0431 -0.0080 -0.3790
 7313SOL    HW133572   2.965   3.806   8.186 -0.0399  1.0554 -1.5490
 7313SOL    HW233573   3.051   3.919   8.176 -0.2925  0.0878  0.1446
 7314SOL     OW33574   2.499   3.978   6.227 -0.3994 -0.7147  0.2063
 7314SOL    HW133575   2.500   4.041   6.154 -1.2852  0.8190  1.5388
 7314SOL    HW233576   2.408   3.976   6.257 -0.0258 -0.4367  1.3202
 7315SOL     OW33577   3.970   3.895   7.526  0.0598 -0.3657  0.8904
 7315SOL    HW133578   4.004   3.927   7.610  0.9019  0.6482  0.1672
 7315SOL    HW233579   4.049   3.847   7.504  0.4502  1.2230 -1.1415
 7316SOL     OW33580   3.146   2.363   4.189 -0.1953  0.7863 -0.0343
 7316SOL    HW133581   3.227   2.415   4.189  0.8625 -0.8535 -1.9309
 7316SOL    HW233582   3.143   2.356   4.284  1.6618  0.8081  0.0420
 7317SOL     OW33583   3.860   3.356   6.982  0.2780  0.0408  1.1150
 7317SOL    HW133584   3.936   3.309   7.016 -0.3026 -1.7706 -0.0890
 7317SOL    HW233585   3.787   3.294   6.973  0.2285  0.1422  0.8043
 7318SOL     OW33586   4.424   3.947   8.090 -0.1545 -0.0670 -0.4245
 7318SOL    HW133587   4.510   3.972   8.057  0.6673 -1.1536  0.9061
 7318SOL    HW233588   4.392   3.885   8.024  1.3302 -2.0472  0.7490
 7319SOL     OW33589   3.704   3.041  16.850  0.3606 -0.6982 -0.1828
 7319SOL    HW133590   3.709   2.946  16.840  0.8349 -0.7004  0.0905
 7319SOL    HW233591   3.646   3.057  16.924  0.1349 -0.6682 -0.3649
 7320SOL     OW33592   3.400   2.119   3.305 -0.2809  0.5270  0.1554
 7320SOL    HW133593   3.443   2.040   3.339 -0.8789  0.3468  0.4904
 7320SOL    HW233594   3.409   2.100   3.212  0.8168 -0.5027  0.4675
 7321SOL     OW33595   1.654   4.072   0.909  0.2547 -0.0344  0.2199
 7321SOL    HW133596   1.633   3.986   0.874  0.3354  0.4390 -1.0190
 7321SOL    HW233597   1.747   4.054   0.899  0.2233 -0.2541  0.3322
 7322SOL     OW33598   2.347   4.552  17.533  0.1697 -0.0598 -0.5806
 7322SOL    HW133599   2.326   4.473  17.583  0.1931 -0.8741 -1.8544
 7322SOL    HW233600   2.260   4.586  17.514 -0.3918 -0.0471  1.9355
 7323SOL     OW33601   1.990   0.416   4.724  0.4280 -0.0296 -0.2214
 7323SOL    HW133602   2.051   0.394   4.654  0.6364 -0.3471  0.0538
 7323SOL    HW233603   2.004   0.510   4.720  0.4666  0.0857  2.6218
 7324SOL     OW33604   2.632   3.607  13.978  0.1393 -0.4256 -0.5947
 7324SOL    HW133605   2.641   3.678  13.914 -0.5641  0.0541 -0.1510
 7324SOL    HW233606   2.723   3.597  14.005 -1.3086 -2.5335  3.4028
 7325SOL     OW33607   4.313   1.398  15.193  0.1771 -0.3315 -0.1441
 7325SOL    HW133608   4.313   1.438  15.280 -0.1818  0.6679 -0.6065
 7325SOL    HW233609   4.299   1.305  15.213  0.9238 -0.1911  1.0162
 7326SOL     OW33610   3.183   3.018   7.285  0.1087  0.5669 -0.0717
 7326SOL    HW133611   3.109   3.024   7.224 -0.3678  0.2404  0.4757
 7326SOL    HW233612   3.197   2.923   7.289 -0.3568  0.4762 -0.5643
 7327SOL     OW33613   3.782   0.022   6.198  0.3376 -0.2784  0.4707
 7327SOL    HW133614   3.741   4.678   6.228  0.2276  0.5906  2.6122
 7327SOL    HW233615   3.775   0.075   6.277 -0.6131 -0.1313  0.2860
 7328SOL     OW33616   0.283   0.235   4.099  0.0340  0.3105 -0.3910
 7328SOL    HW133617   0.346   0.306   4.088 -2.8965  3.0281  0.2463
 7328SOL    HW233618   0.320   0.179   4.167 -0.5590  0.3903  0.0000
 7329SOL     OW33619   0.787   0.219  14.608  0.7417 -0.1759  0.0358
 7329SOL    HW133620   0.751   0.264  14.685  1.7262  0.5770  0.0457
 7329SOL    HW233621   0.713   0.208  14.549  0.9989  1.5413 -0.5927
 7330SOL     OW33622   3.469   1.244   6.066  0.0690  0.4561  0.4323
 7330SOL    HW133623   3.554   1.205   6.043 -0.2622 -0.1819  0.2833
 7330SOL    HW233624   3.413   1.189   6.011  1.9985 -2.4162  1.2928
 7331SOL     OW33625   0.519   3.372  16.754 -0.2980 -0.5657 -0.1441
 7331SOL    HW133626   0.456   3.441  16.733  0.9802  0.5657 -0.2740
 7331SOL    HW233627   0.598   3.423  16.736  0.9040 -2.8693 -1.4653
 7332SOL     OW33628   1.702   4.480   7.725 -0.6239 -0.3144  0.6199
 7332SOL    HW133629   1.695   4.465   7.819 -0.2223 -2.3169  0.3194
 7332SOL    HW233630   1.794   4.463   7.705 -0.1867  0.5388  1.8726
 7333SOL     OW33631   1.417   2.113   6.519  0.3592 -0.7439 -0.8243
 7333SOL    HW133632   1.479   2.150   6.457  0.7405 -1.6539 -0.9845
 7333SOL    HW233633   1.347   2.081   6.462 -1.4373 -0.2797  1.1205
 7334SOL     OW33634   2.835   4.109   3.437  0.4935  0.4684 -0.2608
 7334SOL    HW133635   2.780   4.146   3.506  0.8395 -0.5595  0.5592
 7334SOL    HW233636   2.914   4.086   3.485 -0.0278 -0.5502  0.1322
 7335SOL     OW33637   1.716   3.111  13.366  1.0480 -0.2972  0.2316
 7335SOL    HW133638   1.708   3.050  13.293  0.2281 -1.3349  1.1747
 7335SOL    HW233639   1.630   3.154  13.366  0.4819 -1.4536 -2.0760
 7336SOL     OW33640   3.874   0.123   7.246  0.4685  0.1395  0.7579
 7336SOL    HW133641   3.860   0.126   7.152  0.0164  1.0297  0.8587
 7336SOL    HW233642   3.799   0.070   7.274 -0.8765  0.8327 -1.6209
 7337SOL     OW33643   4.032   2.983   1.474 -0.1480  1.0858 -0.5122
 7337SOL    HW133644   3.945   3.007   1.444  0.4144  1.3018 -1.9641
 7337SOL    HW233645   4.087   3.019   1.405 -0.8908 -0.9672 -2.1522
 7338SOL     OW33646   1.436   3.082   4.943 -0.0289 -0.1820 -1.1404
 7338SOL    HW133647   1.378   3.027   4.996 -0.0291  1.7950  0.8886
 7338SOL    HW233648   1.381   3.148   4.901 -1.4215 -0.1507  0.7063
 7339SOL     OW33649   1.849   1.256   8.273  0.2150  0.2303  0.0641
 7339SOL    HW133650   1.861   1.289   8.184  0.0596  1.2330  0.4246
 7339SOL    HW233651   1.828   1.165   8.250  1.1974 -0.1920  0.8210
 7340SOL     OW33652   4.307   0.506   5.580 -0.2083  0.2333  0.1037
 7340SOL    HW133653   4.212   0.499   5.590 -0.0422  0.2531  1.6817
 7340SOL    HW233654   4.309   0.584   5.524 -0.4451  0.1987  0.0440
 7341SOL     OW33655   0.883   0.786   2.047  0.0494  0.1155 -0.0467
 7341SOL    HW133656   0.941   0.745   2.111 -1.3700 -0.4373  0.8970
 7341SOL    HW233657   0.950   0.808   1.982 -0.9510  1.4165 -0.6332
 7342SOL     OW33658   2.746   3.527   8.241  0.2758  0.4205 -0.1809
 7342SOL    HW133659   2.770   3.497   8.153 -0.9016 -1.3616  0.0978
 7342SOL    HW233660   2.812   3.490   8.299 -0.5252 -0.9769 -0.1706
 7343SOL     OW33661   1.109   0.275   4.726  0.3821  0.0389 -0.1475
 7343SOL    HW133662   1.152   0.257   4.642 -0.4978  0.7728 -0.7554
 7343SOL    HW233663   1.156   0.353   4.757  3.7028 -2.9272  2.2663
 7344SOL     OW33664   2.005   1.714  14.363  0.2816 -0.2080 -0.0623
 7344SOL    HW133665   2.071   1.696  14.296  0.8317 -0.0098  0.4272
 7344SOL    HW233666   1.962   1.792  14.328 -0.2711 -0.4438  0.0898
 7345SOL     OW33667   0.007   0.397   7.202  0.8560 -0.2114 -0.1538
 7345SOL    HW133668   4.723   0.453   7.276  0.3670 -0.4182 -0.1388
 7345SOL    HW233669   4.695   0.316   7.212  1.3539 -0.4397  0.4594
 7346SOL     OW33670   1.069   4.051   9.933  0.1471  0.0765  0.2563
 7346SOL    HW133671   1.147   4.077   9.885 -1.0260  3.9840  0.4747
 7346SOL    HW233672   1.049   4.126   9.990  1.6527 -0.6782  1.7906
 7347SOL     OW33673   4.609   2.209   6.740 -0.0247  0.2781 -0.1808
 7347SOL    HW133674   4.663   2.181   6.814  1.1781  3.2755  0.1065
 7347SOL    HW233675   4.583   2.120   6.717  1.3758  0.3344 -1.9451
 7348SOL     OW33676   4.555   4.349  11.619 -0.1695 -0.2146  0.1158
 7348SOL    HW133677   4.632   4.406  11.619 -0.4712  0.1902 -0.7372
 7348SOL    HW233678   4.581   4.285  11.554  2.5528  0.7356  0.2416
 7349SOL     OW33679   2.032   0.806   1.559 -0.2847 -0.1701  0.0012
 7349SOL    HW133680   2.037   0.888   1.609 -0.9654 -0.1600  0.0590
 7349SOL    HW233681   2.067   0.749   1.628  0.8654  0.4133 -0.1144
 7350SOL     OW33682   2.213   2.079   7.905 -0.1474  0.0025  0.2062
 7350SOL    HW133683   2.273   2.107   7.974  0.8367  0.4767 -0.8437
 7350SOL    HW233684   2.215   2.155   7.847 -2.9018  0.2781  0.4742
 7351SOL     OW33685   3.549   2.122   2.592 -0.0074  0.6716  0.2317
 7351SOL    HW133686   3.580   2.055   2.653 -0.3016  0.0772 -0.2753
 7351SOL    HW233687   3.455   2.102   2.596 -0.2446  1.8095  0.2934
 7352SOL     OW33688   2.444   0.789  11.359  0.3499  0.0525  0.0260
 7352SOL    HW133689   2.514   0.824  11.414 -0.3154  0.9768  0.2812
 7352SOL    HW233690   2.449   0.694  11.353  2.5052  0.1175  0.7943
 7353SOL     OW33691   3.289   1.057   8.646  0.3009 -0.5529 -0.2658
 7353SOL    HW133692   3.229   1.132   8.641 -1.9612 -2.3033  0.8696
 7353SOL    HW233693   3.342   1.078   8.722  0.6835 -1.0635 -0.3903
 7354SOL     OW33694   2.859   1.077   6.032 -0.3194  0.1235 -0.2556
 7354SOL    HW133695   2.775   1.121   6.019  0.1455  1.0438 -0.1909
 7354SOL    HW233696   2.885   1.121   6.114  1.5042  0.9049 -1.2587
 7355SOL     OW33697   3.821   1.381   6.102 -0.2238 -0.2574  0.2924
 7355SOL    HW133698   3.745   1.396   6.158 -0.5681  1.5729 -0.6562
 7355SOL    HW233699   3.797   1.296   6.064  0.3566 -0.1275 -0.3644
 7356SOL     OW33700   2.807   1.165   9.242 -0.3826 -0.3285  0.5368
 7356SOL    HW133701   2.727   1.112   9.245 -1.0211  0.5615 -0.4513
 7356SOL    HW233702   2.766   1.250   9.223  2.4818  0.5900 -1.5951
 7357SOL     OW33703   3.517   3.901   8.549  0.3154 -0.3444  0.5609
 7357SOL    HW133704   3.530   3.991   8.577 -2.0000 -0.0305  0.6247
 7357SOL    HW233705   3.609   3.875   8.546  0.6196  0.7547  0.4744
 7358SOL     OW33706   1.679   0.695   9.697  0.1075  0.0901  0.0747
 7358SOL    HW133707   1.706   0.774   9.649  2.2506 -0.0363  1.0641
 7358SOL    HW233708   1.719   0.702   9.784 -0.8845  0.1043  0.5358
 7359SOL     OW33709   1.707   3.583   0.522  0.5575 -0.3204 -0.2168
 7359SOL    HW133710   1.715   3.566   0.616  2.1466  0.6001 -0.1793
 7359SOL    HW233711   1.624   3.631   0.526  1.5058  1.2857  0.4198
 7360SOL     OW33712   4.730   0.114  13.459  0.5673  0.4596  0.2041
 7360SOL    HW133713   4.694   0.096  13.546 -0.8835  1.0507 -0.2829
 7360SOL    HW233714   0.049   0.189  13.478  3.6090 -2.2912  1.9912
 7361SOL     OW33715   2.491   4.126   1.847 -0.2333  0.0367  0.3247
 7361SOL    HW133716   2.561   4.169   1.798 -1.1765  0.5384 -0.5885
 7361SOL    HW233717   2.435   4.096   1.775 -1.3575  1.4030  0.6312
 7362SOL     OW33718   0.675   1.057   9.491 -0.2826 -0.0513  0.4042
 7362SOL    HW133719   0.624   0.997   9.545  0.8130 -1.0620  0.2969
 7362SOL    HW233720   0.754   1.075   9.541 -0.8778  0.7556  1.0713
 7363SOL     OW33721   3.351   3.463   8.119 -0.5327  0.6802  0.2523
 7363SOL    HW133722   3.297   3.479   8.041 -0.1793 -3.2557 -0.7486
 7363SOL    HW233723   3.323   3.374   8.140 -0.1923  0.7835  1.1449
 7364SOL     OW33724   0.913   0.450   3.332  0.3826 -0.1869 -0.0707
 7364SOL    HW133725   0.926   0.365   3.290  1.3260 -0.3219  0.4902
 7364SOL    HW233726   0.832   0.425   3.376  0.2938  1.3837  0.6384
 7365SOL     OW33727   0.311   4.031   1.210 -0.4336  0.4660 -0.0221
 7365SOL    HW133728   0.311   4.078   1.126  0.3136 -2.4936 -1.6802
 7365SOL    HW233729   0.267   3.948   1.192 -0.7182  0.9246 -1.4496
 7366SOL     OW33730   3.011   3.104  11.703 -0.4166  0.1378  0.2118
 7366SOL    HW133731   2.996   3.019  11.663 -1.8556 -0.1306  1.3286
 7366SOL    HW233732   3.059   3.079  11.782  0.3255  0.5828 -0.0992
 7367SOL     OW33733   1.149   3.519   3.706 -0.2279 -0.2394  0.2201
 7367SOL    HW133734   1.242   3.543   3.708 -0.9671  2.6621 -0.4180
 7367SOL    HW233735   1.142   3.432   3.665  2.9565  0.0337 -0.8964
 7368SOL     OW33736   3.208   1.864   5.695 -0.3413  0.1887 -0.0351
 7368SOL    HW133737   3.207   1.811   5.616  1.4173 -1.8572  1.3229
 7368SOL    HW233738   3.157   1.812   5.758 -1.4893 -1.4124 -2.3007
 7369SOL     OW33739   3.081   3.808   1.500  0.1701  0.1057 -0.2797
 7369SOL    HW133740   3.052   3.768   1.418  1.3081  0.2449 -0.7459
 7369SOL    HW233741   3.174   3.791   1.493 -0.0036  0.3012 -3.1074
 7370SOL     OW33742   1.219   0.144   0.028 -0.2879 -0.4683 -0.0670
 7370SOL    HW133743   1.277   0.083  17.730 -0.7294  1.1658 -2.8275
 7370SOL    HW233744   1.270   0.224   0.014 -2.8455  1.3255  0.9086
 7371SOL     OW33745   2.216   1.617   6.747  0.4493 -0.6405 -0.2865
 7371SOL    HW133746   2.154   1.589   6.680 -0.5959  0.8174  0.0753
 7371SOL    HW233747   2.154   1.627   6.819  0.9193  1.5624 -0.1750
 7372SOL     OW33748   1.013   4.191   9.650  0.9996  0.0313 -0.4595
 7372SOL    HW133749   1.080   4.233   9.704 -1.3366  0.6582  1.9305
 7372SOL    HW233750   1.006   4.257   9.581  3.5081  1.0378  0.2480
 7373SOL     OW33751   2.139   1.730   4.671 -0.1090 -0.1168 -0.5454
 7373SOL    HW133752   2.079   1.669   4.627  1.9773 -1.0636 -2.0810
 7373SOL    HW233753   2.112   1.719   4.762  3.5609 -0.5525  0.4822
 7374SOL     OW33754   0.948   1.813   7.817  0.5415  0.0107 -0.0292
 7374SOL    HW133755   0.948   1.809   7.913  0.9817  1.2583  0.0232
 7374SOL    HW233756   0.884   1.880   7.797 -0.7255 -0.5093  2.2701
 7375SOL     OW33757   4.014   2.440   1.291 -0.0579 -0.6041  0.2774
 7375SOL    HW133758   4.068   2.448   1.212 -2.1160 -2.4097 -1.3003
 7375SOL    HW233759   3.983   2.531   1.296 -0.1778 -0.6830  0.8722
 7376SOL     OW33760   0.882   1.171   2.362  0.3970  0.7054 -0.0137
 7376SOL    HW133761   0.889   1.220   2.279  1.6268  0.7398  0.1022
 7376SOL    HW233762   0.830   1.093   2.345 -0.3006  0.9450  1.0313
 7377SOL     OW33763   2.372   2.743  16.412  0.2092 -0.3042 -0.1358
 7377SOL    HW133764   2.460   2.779  16.406 -0.1226 -0.3157 -4.4738
 7377SOL    HW233765   2.391   2.660  16.367 -0.0728 -1.2589  1.4836
 7378SOL     OW33766   0.658   0.720   7.345 -0.6964  0.2383 -0.1639
 7378SOL    HW133767   0.652   0.721   7.250 -0.0575  0.4900 -0.2029
 7378SOL    HW233768   0.568   0.749   7.361  0.0893  1.9892  1.1379
 7379SOL     OW33769   1.600   1.868   6.876 -0.1638  0.7859  0.4284
 7379SOL    HW133770   1.611   1.962   6.866  0.4218  0.7081  0.3777
 7379SOL    HW233771   1.576   1.839   6.788 -0.3555  0.1650  0.6797
 7380SOL     OW33772   2.013   3.121   8.950  0.0587 -0.6349 -0.2506
 7380SOL    HW133773   2.057   3.190   8.999 -0.1004 -0.8773  0.2351
 7380SOL    HW233774   2.035   3.135   8.858 -0.8842 -0.1828 -0.4070
 7381SOL     OW33775   3.637   0.898   2.031 -0.1924  0.5656 -0.4004
 7381SOL    HW133776   3.699   0.889   1.958  2.0538 -0.9325  1.6706
 7381SOL    HW233777   3.557   0.930   1.989 -1.9792 -1.5535  1.3832
 7382SOL     OW33778   0.400   0.937   5.330 -0.1276 -0.3358  0.3084
 7382SOL    HW133779   0.477   0.967   5.281  0.7758 -0.3360  1.7089
 7382SOL    HW233780   0.426   0.849   5.358 -0.0588  0.1194  1.7070
 7383SOL     OW33781   3.178   3.505   3.416 -0.1946  0.0102  0.1727
 7383SOL    HW133782   3.100   3.462   3.380 -0.7414  1.2986 -0.1765
 7383SOL    HW233783   3.197   3.585   3.367 -1.7037  0.9545  1.1324
 7384SOL     OW33784   1.288   2.287  14.094  0.0365 -0.5258  0.2318
 7384SOL    HW133785   1.316   2.368  14.137 -0.8353 -0.0588 -0.0796
 7384SOL    HW233786   1.193   2.298  14.101 -0.0966 -1.7717  0.4463
 7385SOL     OW33787   4.247   0.797  12.996 -0.3772  0.1737 -0.3430
 7385SOL    HW133788   4.196   0.864  13.040  1.6704  0.0390  2.2269
 7385SOL    HW233789   4.217   0.720  13.044  1.0616  1.3637  2.4269
 7386SOL     OW33790   3.657   2.518  11.641  0.5184  0.3349 -0.0374
 7386SOL    HW133791   3.733   2.465  11.618 -0.2558 -0.2764 -1.1479
 7386SOL    HW233792   3.596   2.487  11.574  2.0176  0.1221 -1.3076
 7387SOL     OW33793   0.120   3.470  13.619  0.2953 -0.3524  0.1546
 7387SOL    HW133794   0.172   3.530  13.672 -0.1551  1.2191 -1.2152
 7387SOL    HW233795   0.109   3.398  13.682 -1.3500  2.5335  3.1835
 7388SOL     OW33796   2.442   0.879   0.277  0.6317 -0.1751  0.3889
 7388SOL    HW133797   2.443   0.790   0.310  0.6218  0.4344  2.0096
 7388SOL    HW233798   2.359   0.918   0.304  0.2542  0.1357 -1.1765
 7389SOL     OW33799   2.926   2.618   0.817  0.5515  0.1620 -0.3466
 7389SOL    HW133800   2.871   2.553   0.860  0.4534 -1.4326 -2.9100
 7389SOL    HW233801   2.870   2.660   0.751 -0.5478  0.6429  0.9070
 7390SOL     OW33802   0.867   0.383   7.641  0.4657  0.3044 -0.0290
 7390SOL    HW133803   0.814   0.320   7.690 -0.0013  0.7752  0.0661
 7390SOL    HW233804   0.850   0.461   7.694  2.0533  1.6412 -1.4878
 7391SOL     OW33805   1.013   1.788   7.340  0.0380 -0.0436 -0.5424
 7391SOL    HW133806   0.956   1.856   7.305 -0.0201  0.8697  1.3323
 7391SOL    HW233807   1.091   1.834   7.372  1.0097 -2.4986  0.6135
 7392SOL     OW33808   0.018   2.841   7.907 -0.2293  0.0398 -0.3272
 7392SOL    HW133809   0.039   2.815   7.817  2.4766 -0.4299  0.4394
 7392SOL    HW233810   0.058   2.776   7.965  1.0974 -0.4814 -1.8328
 7393SOL     OW33811   3.818   4.376  14.391 -0.4037 -0.0795 -0.1846
 7393SOL    HW133812   3.740   4.427  14.370  0.1445  1.2396  0.9323
 7393SOL    HW233813   3.832   4.333  14.307  0.2618  1.5493 -0.9176
 7394SOL     OW33814   1.461   0.680   4.832  0.3061 -0.3366 -0.0573
 7394SOL    HW133815   1.426   0.758   4.788  2.0479  0.8434  0.6697
 7394SOL    HW233816   1.532   0.665   4.770  0.4720  0.5390 -0.0835
 7395SOL     OW33817   1.482   0.763   6.308 -0.0196  0.2847  0.4506
 7395SOL    HW133818   1.396   0.785   6.344  0.8002  1.6282  1.5696
 7395SOL    HW233819   1.487   0.670   6.331 -0.3616  0.3824  0.9215
 7396SOL     OW33820   4.102   2.788   5.437  0.2976 -0.1068 -0.2127
 7396SOL    HW133821   4.023   2.842   5.438  0.8799  0.7091  0.9181
 7396SOL    HW233822   4.112   2.790   5.532  0.2825  2.0175 -0.2580
 7397SOL     OW33823   4.115   2.182   5.208 -0.1751 -0.3745  0.8314
 7397SOL    HW133824   4.051   2.252   5.217 -1.3427 -1.2279 -0.7765
 7397SOL    HW233825   4.164   2.196   5.289  0.0383 -0.5973  0.7419
 7398SOL     OW33826   3.068   2.804   4.820 -0.0221 -0.2008  0.3358
 7398SOL    HW133827   3.150   2.842   4.786 -0.6541  0.4909 -0.4202
 7398SOL    HW233828   3.052   2.879   4.877  0.8225  1.4405 -1.5734
 7399SOL     OW33829   2.149   3.821  14.581 -0.4693 -0.6437  0.6030
 7399SOL    HW133830   2.073   3.770  14.610 -1.8259  1.1739  0.2693
 7399SOL    HW233831   2.162   3.792  14.490 -0.6266  0.2965  0.2881
 7400SOL     OW33832   0.679   0.048   4.423  0.1878 -0.2605  0.5918
 7400SOL    HW133833   0.678   4.700   4.467  1.4818  0.0265  1.2027
 7400SOL    HW233834   0.774   0.061   4.415  0.0381 -0.4185 -1.4203
 7401SOL     OW33835   3.109   0.204   4.929  0.1436  0.5397 -0.9421
 7401SOL    HW133836   3.193   0.166   4.954 -0.3335 -0.8999 -1.5113
 7401SOL    HW233837   3.080   0.144   4.860 -0.8404  0.6350 -0.6198
 7402SOL     OW33838   0.829   0.794   5.468 -0.0906  0.0674  0.4618
 7402SOL    HW133839   0.840   0.800   5.563  1.7106 -2.0256  0.4047
 7402SOL    HW233840   0.795   0.882   5.453  0.0645  0.3107  1.5934
 7403SOL     OW33841   0.895   1.869   4.376 -0.0830  0.1669  0.1134
 7403SOL    HW133842   0.843   1.824   4.310 -0.1599 -1.2824  1.1577
 7403SOL    HW233843   0.847   1.831   4.450  3.0787 -1.4012  1.3618
 7404SOL     OW33844   3.532   3.453   2.752 -0.3160  0.0311  0.5958
 7404SOL    HW133845   3.523   3.547   2.768 -0.5058 -0.1808  1.7054
 7404SOL    HW233846   3.515   3.451   2.658  1.1558 -0.9478  0.3553
 7405SOL     OW33847   3.690   2.851   4.518 -0.4378  0.1283  0.2134
 7405SOL    HW133848   3.725   2.929   4.474 -1.6701  0.2282 -0.5894
 7405SOL    HW233849   3.719   2.862   4.609 -0.2689 -1.3938  0.3412
 7406SOL     OW33850   3.637   3.512   9.990 -0.1292  0.6384 -0.0902
 7406SOL    HW133851   3.727   3.539   9.973  0.3264 -0.3196  0.8270
 7406SOL    HW233852   3.652   3.465  10.072 -0.4285 -0.0879 -0.4452
 7407SOL     OW33853   1.331   3.615   4.473  0.3498 -0.2659  0.5266
 7407SOL    HW133854   1.378   3.697   4.460 -1.7771  0.5872 -1.7552
 7407SOL    HW233855   1.256   3.630   4.416 -0.3356 -1.3788  1.1433
 7408SOL     OW33856   0.858   1.845  10.906  0.0985 -0.2456  0.1118
 7408SOL    HW133857   0.799   1.886  10.842 -0.1269 -1.8931 -0.7222
 7408SOL    HW233858   0.819   1.758  10.909  0.6415 -0.4715  0.4155
 7409SOL     OW33859   1.669   0.926   4.588 -0.1337 -0.2483 -0.0458
 7409SOL    HW133860   1.747   0.975   4.561 -1.3903  1.0935 -1.1995
 7409SOL    HW233861   1.645   0.971   4.669 -0.6120  0.8565 -0.8068
 7410SOL     OW33862   2.054   3.025   4.632 -0.1097  0.2373  0.1086
 7410SOL    HW133863   2.107   3.088   4.681 -0.0211 -0.4968  0.9608
 7410SOL    HW233864   1.999   3.083   4.579 -0.7678  0.2369  0.7812
 7411SOL     OW33865   2.927   0.480   8.387  0.2738 -0.5338 -0.4985
 7411SOL    HW133866   2.887   0.393   8.380 -1.0385 -0.0695  1.2024
 7411SOL    HW233867   2.853   0.534   8.416  1.3773 -0.4327  2.1108
 7412SOL     OW33868   2.522   2.614   8.405  0.1469 -0.5170 -0.1771
 7412SOL    HW133869   2.613   2.607   8.376  0.4782 -1.4182  1.0723
 7412SOL    HW233870   2.502   2.526   8.437 -2.9767  0.5823  0.9770
 7413SOL     OW33871   3.715   3.445  14.497  0.1727 -0.1902 -0.1006
 7413SOL    HW133872   3.627   3.478  14.515  1.1020  1.9974  0.4573
 7413SOL    HW233873   3.688   3.355  14.480 -1.3597 -0.4405  3.5415
 7414SOL     OW33874   3.378   4.599   0.560  0.2751  0.7493 -0.3017
 7414SOL    HW133875   3.332   4.651   0.626 -1.6515 -0.2207 -0.8728
 7414SOL    HW233876   3.456   4.651   0.544 -0.8135  1.4776 -3.0602
 7415SOL     OW33877   3.347   2.005   9.266  0.1584 -0.0295  0.1906
 7415SOL    HW133878   3.438   2.029   9.251  0.3609  0.1702  1.7744
 7415SOL    HW233879   3.318   2.089   9.302  0.5460  0.0734  0.2568
 7416SOL     OW33880   4.561   2.870   3.062 -0.0925 -0.3872  0.0156
 7416SOL    HW133881   4.496   2.891   2.994 -1.6093  0.0691  1.6138
 7416SOL    HW233882   4.498   2.861   3.133 -0.1357  4.0130  0.5304
 7417SOL     OW33883   2.269   3.267   5.393  0.3374  0.2770  0.1874
 7417SOL    HW133884   2.241   3.298   5.480  0.0932 -3.2584  1.3568
 7417SOL    HW233885   2.351   3.315   5.385  0.5101  0.1939  1.4414
 7418SOL     OW33886   3.526   0.730   7.212 -0.0340  0.3450  0.5132
 7418SOL    HW133887   3.530   0.741   7.117 -1.2387 -1.3124  0.2660
 7418SOL    HW233888   3.472   0.651   7.213  1.1658 -0.4767 -1.2042
 7419SOL     OW33889   1.478   0.468   2.443  0.3720  0.3281 -0.1406
 7419SOL    HW133890   1.512   0.417   2.370 -0.5159 -0.2822 -0.1354
 7419SOL    HW233891   1.420   0.400   2.478 -0.6726  2.2301  1.8436
 7420SOL     OW33892   0.980   2.336  13.054  0.4404 -0.1124 -0.1492
 7420SOL    HW133893   1.000   2.302  12.966  3.3824 -2.4156  1.3888
 7420SOL    HW233894   1.067   2.338  13.095  0.7223 -1.9196 -0.6128
 7421SOL     OW33895   4.682   3.020  12.948  0.1406 -0.6074 -0.0642
 7421SOL    HW133896   4.591   3.051  12.957  0.0224 -0.9178 -0.1959
 7421SOL    HW233897   4.673   2.925  12.939 -2.8420 -0.2402 -1.1248
 7422SOL     OW33898   1.706   1.323   5.602  0.3146 -0.4455  0.6531
 7422SOL    HW133899   1.708   1.379   5.680 -0.3095  1.9215 -1.0291
 7422SOL    HW233900   1.662   1.249   5.644 -1.0985  0.0896  0.1181
 7423SOL     OW33901   2.162   1.024   9.012 -0.1539  0.0906 -1.0385
 7423SOL    HW133902   2.096   0.959   9.035  0.5918  0.2557  1.6450
 7423SOL    HW233903   2.116   1.107   9.026  2.0727  0.8747  1.8050
 7424SOL     OW33904   3.926   2.044  10.793  0.2049  0.1693 -0.0569
 7424SOL    HW133905   3.842   2.075  10.760 -0.3093 -1.6899 -0.4724
 7424SOL    HW233906   3.940   1.963  10.744 -4.0985  0.4862 -1.7628
 7425SOL     OW33907   3.988   2.655   7.612 -0.3116 -0.1691 -0.1127
 7425SOL    HW133908   3.901   2.619   7.594  0.2120 -1.2567 -0.4864
 7425SOL    HW233909   3.966   2.717   7.681  2.7957 -1.0421  1.7088
 7426SOL     OW33910   3.992   3.521   2.001  0.0089  0.4336  0.0754
 7426SOL    HW133911   4.023   3.546   2.088  0.8912 -0.5548  0.0448
 7426SOL    HW233912   3.903   3.557   2.001 -0.5447 -0.9152 -0.4999
 7427SOL     OW33913   1.392   0.974   4.359 -0.9056 -0.0353 -0.5740
 7427SOL    HW133914   1.343   0.966   4.277  0.2698 -2.5262 -1.0365
 7427SOL    HW233915   1.480   0.974   4.322 -0.2316 -1.8868  1.0038
 7428SOL     OW33916   2.078   0.429  17.706  0.0788 -0.3610 -0.2421
 7428SOL    HW133917   2.147   0.389   0.010  0.0450 -0.3988 -0.2262
 7428SOL    HW233918   2.041   0.352  17.664 -1.0475 -0.7163  1.4059
 7429SOL     OW33919   1.690   1.758   3.249  0.1990  0.0299 -0.2409
 7429SOL    HW133920   1.600   1.738   3.273  0.0483 -0.1755 -0.9652
 7429SOL    HW233921   1.691   1.718   3.161 -1.0616 -1.3388  0.3613
 7430SOL     OW33922   0.664   3.277  12.775 -0.1518  0.1447  0.0129
 7430SOL    HW133923   0.587   3.243  12.822 -0.7889  0.2669 -0.9340
 7430SOL    HW233924   0.725   3.288  12.847 -1.2372  2.3492  0.5744
 7431SOL     OW33925   0.869   4.099   8.238  0.0763 -0.0202  0.4222
 7431SOL    HW133926   0.948   4.151   8.221  1.3611 -2.4054 -0.8263
 7431SOL    HW233927   0.800   4.155   8.200  0.1584  0.7380  1.3846
 7432SOL     OW33928   3.424   2.805   7.959  0.3821  0.3613 -0.4326
 7432SOL    HW133929   3.412   2.869   8.028  0.9541 -0.8933  0.8405
 7432SOL    HW233930   3.511   2.769   7.979 -0.0950 -0.2507  0.5311
 7433SOL     OW33931   0.122   2.991  11.838  0.5271 -0.1996  0.4248
 7433SOL    HW133932   0.184   2.991  11.765 -2.3862  1.7049 -2.0942
 7433SOL    HW233933   0.184   2.969  11.907 -0.6269  3.3738  2.6502
 7434SOL     OW33934   2.663   3.405   8.862 -0.4986  0.4888  0.5855
 7434SOL    HW133935   2.582   3.357   8.847 -0.4208  0.3278  0.6749
 7434SOL    HW233936   2.653   3.479   8.803 -0.9506  3.1288  4.0046
 7435SOL     OW33937   2.946   0.657   1.462  0.3902  0.1753 -0.0134
 7435SOL    HW133938   3.037   0.632   1.479  0.3420 -1.8087 -2.9062
 7435SOL    HW233939   2.925   0.606   1.384  0.3095 -1.0915  0.8375
 7436SOL     OW33940   3.041   0.947   5.632  0.6442 -0.3794  0.2256
 7436SOL    HW133941   3.009   1.035   5.654  0.2015 -0.2192 -1.0527
 7436SOL    HW233942   3.130   0.982   5.621  0.2127  0.4292 -0.7362
 7437SOL     OW33943   1.702   1.027  14.670 -0.2976 -0.1249  0.3321
 7437SOL    HW133944   1.736   0.955  14.724 -1.1760  0.0370  1.0953
 7437SOL    HW233945   1.651   1.080  14.732  0.7949  4.1505 -2.4520
 7438SOL     OW33946   4.025   3.517   9.723 -0.3726 -0.4807 -0.0506
 7438SOL    HW133947   3.938   3.488   9.694 -0.7554  1.2335 -0.6006
 7438SOL    HW233948   4.025   3.470   9.806  0.3966  1.5362  1.0931
 7439SOL     OW33949   1.887   0.750  15.474  0.9420  0.1299  0.4397
 7439SOL    HW133950   1.969   0.781  15.511 -0.5580  1.3031  2.7360
 7439SOL    HW233951   1.840   0.831  15.456  0.1627 -0.2209  0.9315
 7440SOL     OW33952   3.253   1.088   9.364  0.0880 -0.7081  0.3902
 7440SOL    HW133953   3.195   1.073   9.439 -0.9204  1.2173  0.0084
 7440SOL    HW233954   3.191   1.112   9.296 -1.3569  0.8733  2.2362
 7441SOL     OW33955   1.522   1.912   2.291 -0.8675  0.8896 -0.2286
 7441SOL    HW133956   1.457   1.980   2.272 -0.9889  1.0710  0.8147
 7441SOL    HW233957   1.488   1.834   2.249 -0.2519  0.8393 -0.6303
 7442SOL     OW33958   0.608   3.009   1.231  0.6782  0.0149 -0.0267
 7442SOL    HW133959   0.561   3.072   1.284  1.3770 -0.7103  1.4480
 7442SOL    HW233960   0.603   3.065   1.154 -0.7312 -0.2028 -0.0930
 7443SOL     OW33961   4.334   3.088   1.917  0.0758 -0.1889  0.0854
 7443SOL    HW133962   4.340   3.066   1.824  3.0223 -0.5704  0.3648
 7443SOL    HW233963   4.361   3.179   1.909  1.5103 -0.5021  1.3351
 7444SOL     OW33964   2.357   0.434   8.507 -0.5038 -0.0143  0.0787
 7444SOL    HW133965   2.296   0.505   8.526 -1.9757 -1.1439 -0.3750
 7444SOL    HW233966   2.407   0.480   8.439 -0.2424 -0.5182 -0.0679
 7445SOL     OW33967   1.915   1.936   8.484  0.7180 -0.3625  0.2594
 7445SOL    HW133968   1.970   1.858   8.493 -0.5542 -1.2244  0.5839
 7445SOL    HW233969   1.916   1.946   8.389  1.1036 -0.1485  0.2845
 7446SOL     OW33970   3.892   0.521  13.431 -0.5893 -0.3798  0.1840
 7446SOL    HW133971   3.983   0.546  13.411 -0.3825 -0.8665  0.5182
 7446SOL    HW233972   3.845   0.603  13.446  2.4873  1.2574  0.9812
 7447SOL     OW33973   3.095   0.173   9.776  0.2144 -0.0057 -0.2159
 7447SOL    HW133974   3.117   0.254   9.822  0.6230  0.6590 -1.5680
 7447SOL    HW233975   3.000   0.187   9.776  0.0770 -0.9645  0.9459
 7448SOL     OW33976   1.300   3.075  12.736 -0.2601 -0.2599 -0.2936
 7448SOL    HW133977   1.209   3.046  12.742  0.1059 -1.3524 -0.0885
 7448SOL    HW233978   1.287   3.158  12.782  0.3480  0.3622 -1.2427
 7449SOL     OW33979   1.472   4.158   0.675  0.7235 -0.1904 -0.2788
 7449SOL    HW133980   1.522   4.108   0.611  0.4506 -1.0401  0.1796
 7449SOL    HW233981   1.519   4.160   0.758 -0.6439 -0.2062  0.5004
 7450SOL     OW33982   3.464   1.398   1.860 -0.2077  0.1336 -0.4542
 7450SOL    HW133983   3.408   1.321   1.874  1.1857 -0.9766 -1.0224
 7450SOL    HW233984   3.442   1.451   1.937  0.1370 -0.7982  0.2878
 7451SOL     OW33985   1.002   0.958  17.383 -0.4239 -0.1576 -0.1184
 7451SOL    HW133986   0.939   0.965  17.454 -1.9042 -1.1593 -1.3382
 7451SOL    HW233987   1.017   0.863  17.386 -0.2013 -0.1209 -0.0661
 7452SOL     OW33988   0.308   4.498   1.784  0.1969  0.0239 -0.2158
 7452SOL    HW133989   0.276   4.456   1.704  0.8651  2.2236 -1.6283
 7452SOL    HW233990   0.229   4.498   1.838  1.1669  0.8366  1.2034
 7453SOL     OW33991   0.770   2.167  17.462 -0.6135  0.0137 -0.0910
 7453SOL    HW133992   0.832   2.164  17.390 -1.4102  2.5751 -0.8948
 7453SOL    HW233993   0.820   2.228  17.516  0.4713  0.3027 -1.4232
 7454SOL     OW33994   3.211   1.709   7.134 -0.3403 -0.2857 -0.2597
 7454SOL    HW133995   3.251   1.757   7.062  0.3577 -2.7106 -1.5096
 7454SOL    HW233996   3.217   1.619   7.101 -1.8700  0.0746 -1.5290
 7455SOL     OW33997   3.133   2.449   7.350  0.2488 -0.1576 -0.4048
 7455SOL    HW133998   3.200   2.381   7.357  1.2690  0.6978 -1.7451
 7455SOL    HW233999   3.140   2.465   7.256 -1.9504 -0.6221 -0.6287
 7456SOL     OW34000   2.089   1.527   7.894 -0.3325  0.1071 -0.8825
 7456SOL    HW134001   2.170   1.508   7.847 -0.8275 -1.4108 -1.1147
 7456SOL    HW234002   2.037   1.578   7.831 -1.8712 -0.0966  0.2135
 7457SOL     OW34003   2.550   2.365  10.969  0.4368 -0.3927 -0.0242
 7457SOL    HW134004   2.522   2.381  11.059 -0.8724  0.6265 -0.6235
 7457SOL    HW234005   2.574   2.452  10.936  1.5017 -0.7417 -0.1633
 7458SOL     OW34006   1.553   4.680   5.446  0.8405 -0.6301  0.1107
 7458SOL    HW134007   1.570   4.710   5.357  0.9905 -2.1213 -0.3627
 7458SOL    HW234008   1.604   4.599   5.449  1.7012 -0.1026 -0.1479
 7459SOL     OW34009   2.149   1.897   3.440 -0.1662  0.1174 -0.1453
 7459SOL    HW134010   2.169   1.899   3.534 -0.6832  2.4548 -0.0891
 7459SOL    HW234011   2.197   1.974   3.409 -0.7416  1.2902  1.8672
 7460SOL     OW34012   4.287   3.526   5.821 -0.1410  0.4046 -0.7539
 7460SOL    HW134013   4.223   3.554   5.886  0.0677  1.0671 -0.8294
 7460SOL    HW234014   4.322   3.611   5.793 -2.0368  2.0103  1.6675
 7461SOL     OW34015   2.573   1.515  16.761  0.2759 -0.1062  0.0223
 7461SOL    HW134016   2.649   1.484  16.712 -1.0488  0.3862 -2.3453
 7461SOL    HW234017   2.603   1.486  16.847 -0.3671 -0.2047  0.2165
 7462SOL     OW34018   1.823   3.348  13.355 -0.2639 -0.0835 -0.5095
 7462SOL    HW134019   1.915   3.366  13.335 -0.6418  1.7448 -0.5972
 7462SOL    HW234020   1.822   3.252  13.346  1.0858 -0.1032 -0.4442
 7463SOL     OW34021   4.002   2.573  16.218  0.2277  0.4973 -0.1852
 7463SOL    HW134022   3.910   2.580  16.242  0.1699 -0.0750 -0.2425
 7463SOL    HW234023   4.021   2.666  16.232  2.0537 -0.0148  0.6119
 7464SOL     OW34024   2.221   2.178   8.551  0.3864  0.5455 -0.2212
 7464SOL    HW134025   2.149   2.231   8.516 -0.3639  0.3027  0.9593
 7464SOL    HW234026   2.237   2.130   8.470 -0.0741  0.4611 -0.2632
 7465SOL     OW34027   2.847   2.013   7.040  0.3697  0.2678 -0.3731
 7465SOL    HW134028   2.888   1.930   7.063  0.3939  0.2303 -0.5551
 7465SOL    HW234029   2.909   2.071   7.084 -1.5231 -0.1641  2.9012
 7466SOL     OW34030   2.739   3.151   8.243  0.2729  0.3452  0.5876
 7466SOL    HW134031   2.821   3.138   8.194 -0.9934 -3.1909 -0.5642
 7466SOL    HW234032   2.722   3.244   8.228 -0.1745 -0.0333 -1.2823
 7467SOL     OW34033   3.167   4.710   3.910 -0.2977  0.0206 -0.3534
 7467SOL    HW134034   3.222   0.047   3.934 -2.7975  0.9306  2.4765
 7467SOL    HW234035   3.135   4.677   3.994  2.5504  0.8453  1.0715
 7468SOL     OW34036   3.981   3.675   4.764 -0.4163 -0.4193  0.0830
 7468SOL    HW134037   4.069   3.711   4.771 -0.0302 -1.5803  1.2249
 7468SOL    HW234038   3.952   3.733   4.693 -2.9018 -1.3699  0.3418
 7469SOL     OW34039   3.337   1.312   7.540 -0.1952  0.0627  0.0270
 7469SOL    HW134040   3.370   1.400   7.520 -0.3440 -0.2440 -1.5555
 7469SOL    HW234041   3.366   1.312   7.631  2.1693 -0.1799 -0.7458
 7470SOL     OW34042   2.159   0.121   9.104  0.3903  0.5023 -0.0871
 7470SOL    HW134043   2.238   0.170   9.083 -0.1298  0.9406 -0.9890
 7470SOL    HW234044   2.196   0.063   9.171 -0.7195  0.0147  0.0927
 7471SOL     OW34045   0.824   0.591   7.892 -0.6323  0.2720  0.0130
 7471SOL    HW134046   0.785   0.624   7.973 -0.9704  0.7955 -0.3594
 7471SOL    HW234047   0.869   0.514   7.926 -0.8061 -0.0044 -0.3836
 7472SOL     OW34048   4.112   1.531  16.201 -0.0748 -0.1010  0.1039
 7472SOL    HW134049   4.092   1.447  16.159 -0.9440 -0.1365  0.5964
 7472SOL    HW234050   4.130   1.499  16.289 -0.7257 -0.3126  0.1593
 7473SOL     OW34051   3.720   1.339  16.348  0.2852 -0.5713  0.4281
 7473SOL    HW134052   3.730   1.249  16.320  1.1090 -0.4925  0.4640
 7473SOL    HW234053   3.722   1.393  16.269 -1.4611  0.0674  0.8088
 7474SOL     OW34054   3.323   3.525   6.049 -0.1634 -0.3611 -0.1294
 7474SOL    HW134055   3.321   3.450   6.109 -3.7271 -1.2043 -1.3058
 7474SOL    HW234056   3.231   3.535   6.026  0.0753 -1.8425 -1.7397
 7475SOL     OW34057   4.469   4.077   8.463  0.0153  0.0111  0.7639
 7475SOL    HW134058   4.390   4.081   8.410  0.8794 -3.6071 -0.8164
 7475SOL    HW234059   4.446   4.142   8.529  1.2632  1.0914  0.1372
 7476SOL     OW34060   1.509   0.808   0.471 -0.8221  0.3025 -0.7051
 7476SOL    HW134061   1.503   0.861   0.551  0.0127 -1.3420  0.4646
 7476SOL    HW234062   1.448   0.736   0.490  0.0459 -0.1990  0.1825
 7477SOL     OW34063   0.071   0.445   5.746 -0.4227  0.0288 -0.3448
 7477SOL    HW134064   0.044   0.403   5.664  1.2324 -0.2999 -0.7064
 7477SOL    HW234065   0.025   0.530   5.748 -0.1430  0.1860 -0.6738
 7478SOL     OW34066   0.409   1.818   9.530 -0.7454  0.6921 -0.3161
 7478SOL    HW134067   0.425   1.875   9.455  0.4579 -1.0864 -1.4157
 7478SOL    HW234068   0.322   1.853   9.545  0.0906  3.3016 -1.6571
 7479SOL     OW34069   1.103   0.401   2.682 -0.3902  0.2112 -0.9284
 7479SOL    HW134070   1.011   0.426   2.691  0.4119  2.4778  1.0413
 7479SOL    HW234071   1.143   0.485   2.702  1.3562 -0.5188 -1.3747
 7480SOL     OW34072   2.062   3.760   4.215 -0.6232 -0.1014 -0.6153
 7480SOL    HW134073   2.104   3.674   4.215 -2.1025 -0.8231 -0.0917
 7480SOL    HW234074   2.137   3.806   4.178  0.7327  0.5540  2.9040
 7481SOL     OW34075   2.747   0.238   4.888 -0.1461 -0.3486  0.1607
 7481SOL    HW134076   2.756   0.313   4.830 -0.0687 -0.0403  0.5707
 7481SOL    HW234077   2.726   0.176   4.819  1.1229 -1.7224  1.0150
 7482SOL     OW34078   1.637   1.318  16.522  0.1514 -0.3050  0.1645
 7482SOL    HW134079   1.614   1.410  16.533  2.0839  0.0813  0.8771
 7482SOL    HW234080   1.631   1.304  16.428 -2.1782 -0.9334  0.3845
 7483SOL     OW34081   2.353   3.045   8.718 -0.4266 -0.5536 -0.2550
 7483SOL    HW134082   2.428   3.003   8.676  1.0565  1.0026  0.8036
 7483SOL    HW234083   2.393   3.095   8.789 -1.2179 -0.4564  0.1192
 7484SOL     OW34084   3.893   3.902  12.588 -0.2181  0.2323  0.4144
 7484SOL    HW134085   3.927   3.926  12.502 -1.1544 -1.5607 -0.4601
 7484SOL    HW234086   3.822   3.966  12.595 -1.3813 -0.8726 -1.2464
 7485SOL     OW34087   0.182   1.420   2.761  0.0291  0.3683  0.4355
 7485SOL    HW134088   0.246   1.388   2.697  0.1687  1.1550  0.1919
 7485SOL    HW234089   0.232   1.392   2.838 -0.2829  0.0096  0.5079
 7486SOL     OW34090   4.707   3.603   9.315  0.3460 -0.4508 -0.3637
 7486SOL    HW134091   0.049   3.551   9.302 -0.5742 -1.5574 -1.5844
 7486SOL    HW234092   4.645   3.538   9.281 -0.5893 -0.9156  2.2710
 7487SOL     OW34093   4.266   3.023   6.204  0.1457 -0.2276 -0.2089
 7487SOL    HW134094   4.317   3.058   6.132  0.0382 -1.0852 -0.7046
 7487SOL    HW234095   4.179   3.014   6.166  0.7801  0.5930 -1.8124
 7488SOL     OW34096   4.605   0.608  14.658 -0.2539 -0.6919  0.0498
 7488SOL    HW134097   4.651   0.524  14.664  1.5346  0.5084  3.6181
 7488SOL    HW234098   4.532   0.572  14.608  1.1157 -0.8287 -1.8576
 7489SOL     OW34099   2.486   3.834   5.724  0.1900  0.1142  0.3929
 7489SOL    HW134100   2.575   3.842   5.761 -0.0610 -0.2212  1.0716
 7489SOL    HW234101   2.451   3.752   5.759 -0.6678  0.8099  1.1381
 7490SOL     OW34102   1.356   0.798  10.714  0.4011 -0.1765 -0.3344
 7490SOL    HW134103   1.263   0.795  10.734  0.3723 -0.3151 -0.4902
 7490SOL    HW234104   1.371   0.892  10.707  0.6267 -0.1357  0.7967
 7491SOL     OW34105   0.981   1.361  16.516  0.2736  0.5796  0.1614
 7491SOL    HW134106   1.051   1.335  16.455  1.9694 -1.3837  2.9120
 7491SOL    HW234107   1.028   1.402  16.589 -0.6792 -1.1452  1.7359
 7492SOL     OW34108   0.675   3.499   5.346  0.2658 -0.1624 -0.0135
 7492SOL    HW134109   0.695   3.575   5.401 -0.5346 -0.4616  0.6842
 7492SOL    HW234110   0.686   3.541   5.261  2.5347  0.1824  0.4276
 7493SOL     OW34111   3.396   3.952  17.647 -0.6743  0.1698 -0.2211
 7493SOL    HW134112   3.464   3.889  17.669 -0.5598  0.1665 -0.5826
 7493SOL    HW234113   3.446   4.032  17.665 -0.0770 -0.6874  1.8546
 7494SOL     OW34114   1.615   3.770   8.669  0.4172  0.2646  0.0150
 7494SOL    HW134115   1.701   3.770   8.712  0.6030  0.6514 -0.3615
 7494SOL    HW234116   1.600   3.864   8.662 -0.4258  0.0677 -0.6582
 7495SOL     OW34117   2.055   1.637   6.961  0.6508  0.9872  0.3218
 7495SOL    HW134118   1.976   1.685   6.985  0.7740  1.1326  0.4416
 7495SOL    HW234119   2.083   1.605   7.047 -0.2011  1.0263  0.6176
 7496SOL     OW34120   4.339   1.667  16.314 -0.1867 -0.6304  0.0197
 7496SOL    HW134121   4.423   1.697  16.280 -0.4378  0.7173  0.5854
 7496SOL    HW234122   4.287   1.666  16.234 -1.0008 -2.8835  0.5672
 7497SOL     OW34123   0.206   4.343   2.959  0.5460 -0.3687 -0.3830
 7497SOL    HW134124   0.190   4.249   2.955  1.1524 -0.4836 -0.1035
 7497SOL    HW234125   0.136   4.366   3.020  3.1861 -0.6339  2.7120
 7498SOL     OW34126   2.620   0.894  10.201  0.1944  0.0679 -0.4189
 7498SOL    HW134127   2.528   0.921  10.206  0.0921  0.3680 -3.9444
 7498SOL    HW234128   2.631   0.849  10.285 -1.3226 -0.9105 -0.7456
 7499SOL     OW34129   3.735   4.360   7.885  0.4845  0.4169  0.1331
 7499SOL    HW134130   3.763   4.318   7.804  2.6952 -2.2196  2.2652
 7499SOL    HW234131   3.651   4.318   7.903 -0.2064  1.8486  0.2163
 7500SOL     OW34132   4.334   4.138  15.553  0.4027  0.4287  0.1914
 7500SOL    HW134133   4.340   4.043  15.562  0.1716  0.5067  1.2508
 7500SOL    HW234134   4.388   4.168  15.626 -0.6198  1.3751  0.5598
 7501SOL     OW34135   3.070   0.404   4.761 -0.0727 -0.1687 -0.2272
 7501SOL    HW134136   3.101   0.462   4.830  0.3447 -2.8447  1.8236
 7501SOL    HW234137   3.093   0.319   4.798 -1.1244 -0.7882 -0.9794
 7502SOL     OW34138   2.390   1.643  10.759 -0.3690  0.4139 -0.0669
 7502SOL    HW134139   2.367   1.590  10.835 -1.0727  1.1212  0.2123
 7502SOL    HW234140   2.362   1.731  10.781  0.8304  0.5076  1.0707
 7503SOL     OW34141   0.535   1.330   2.549  0.3286 -0.2163  0.5088
 7503SOL    HW134142   0.552   1.349   2.456 -0.1402  1.2486  0.7272
 7503SOL    HW234143   0.612   1.292   2.591  0.0668 -0.3875  0.8336
 7504SOL     OW34144   2.052   3.694  15.694 -0.1909  0.6679 -0.2581
 7504SOL    HW134145   2.061   3.689  15.789  0.2389  0.5089 -0.3104
 7504SOL    HW234146   1.960   3.667  15.683  0.2314 -0.1552 -1.7188
 7505SOL     OW34147   4.385   2.639   3.760  0.0627  0.1289  1.2745
 7505SOL    HW134148   4.297   2.629   3.721  0.1247 -0.4570  1.2906
 7505SOL    HW234149   4.427   2.678   3.684  0.9941 -1.4410  0.9780
 7506SOL     OW34150   2.296   4.262   7.047  0.0843 -0.2990  0.3620
 7506SOL    HW134151   2.285   4.238   6.954  2.0821 -0.3043  0.1358
 7506SOL    HW234152   2.223   4.209   7.079 -0.8742  0.0148 -1.2965
 7507SOL     OW34153   0.873   4.719   7.777  0.4416  0.4804 -0.8426
 7507SOL    HW134154   0.925   4.708   7.857 -0.9384  0.7446  0.0896
 7507SOL    HW234155   0.800   4.660   7.793  1.1085  0.4253  1.9641
 7508SOL     OW34156   2.088   1.739   8.524  0.1014 -0.1714  0.1938
 7508SOL    HW134157   2.106   1.699   8.609 -0.4264 -0.2745  0.2565
 7508SOL    HW234158   2.139   1.693   8.457 -0.2215 -0.5385  0.1960
 7509SOL     OW34159   0.196   1.315   5.112  0.4426 -0.4092 -0.0822
 7509SOL    HW134160   0.186   1.222   5.129 -0.6342 -0.0367  1.3268
 7509SOL    HW234161   0.205   1.347   5.201  0.6764 -1.1206  0.1473
 7510SOL     OW34162   2.654   1.821   4.480 -0.1032  0.7846 -0.2565
 7510SOL    HW134163   2.570   1.829   4.434 -1.1190  0.6361  1.6078
 7510SOL    HW234164   2.716   1.817   4.407  0.9392  2.2541  0.5605
 7511SOL     OW34165   4.342   3.099   5.521 -0.2731  0.3608  0.7811
 7511SOL    HW134166   4.262   3.144   5.547 -0.3726  0.2332  0.6943
 7511SOL    HW234167   4.348   3.137   5.433 -3.0161 -1.8366 -0.3480
 7512SOL     OW34168   4.451   1.772   8.119 -0.4778 -0.3674 -0.0796
 7512SOL    HW134169   4.538   1.809   8.102 -1.2292  1.6550  0.5394
 7512SOL    HW234170   4.390   1.845   8.109  2.4388  1.9057 -1.1992
 7513SOL     OW34171   4.075   2.794  17.372 -0.2031  0.2515  0.9478
 7513SOL    HW134172   4.115   2.862  17.318  0.3887 -1.2356 -0.4858
 7513SOL    HW234173   4.093   2.720  17.314  3.4751  2.1622 -0.3427
 7514SOL     OW34174   4.296   3.001   3.046 -0.1041 -0.2169 -0.8898
 7514SOL    HW134175   4.252   3.049   3.116  1.3192 -0.5683  0.2306
 7514SOL    HW234176   4.248   2.918   3.055 -1.3335  0.3595 -2.0322
 7515SOL     OW34177   4.632   1.763  16.308 -0.6813  0.0167  0.3036
 7515SOL    HW134178   4.685   1.786  16.231  2.1107 -1.1741  1.8746
 7515SOL    HW234179   4.693   1.702  16.349 -1.2909 -0.1850  0.9091
 7516SOL     OW34180   4.470   2.261   4.336  0.0381 -0.5529 -0.0864
 7516SOL    HW134181   4.495   2.185   4.389  0.4667  1.1321  2.1380
 7516SOL    HW234182   4.383   2.271   4.373  0.1677 -1.1040  0.3528
 7517SOL     OW34183   4.611   3.089   9.234  0.0122 -0.3130 -0.1114
 7517SOL    HW134184   4.602   3.032   9.311  1.1580 -1.8477 -1.1148
 7517SOL    HW234185   4.556   3.040   9.173 -1.0927 -0.6730  1.1696
 7518SOL     OW34186   2.913   3.395   8.406  0.2401  0.0409 -0.2812
 7518SOL    HW134187   2.937   3.467   8.465 -1.8913  1.2138 -0.8211
 7518SOL    HW234188   2.905   3.325   8.470 -0.0804 -2.0653 -2.6328
 7519SOL     OW34189   3.414   3.210  16.413 -0.0514  0.1021 -0.2951
 7519SOL    HW134190   3.436   3.303  16.412 -3.3123  0.8718 -0.3133
 7519SOL    HW234191   3.476   3.165  16.355  0.2105 -1.4230  1.1472
 7520SOL     OW34192   3.717   0.487   6.654 -0.4141  0.1724  0.6136
 7520SOL    HW134193   3.802   0.528   6.664 -0.6239  1.2076 -1.7360
 7520SOL    HW234194   3.720   0.449   6.566  1.6602  0.4304  0.5871
 7521SOL     OW34195   0.844   3.741   9.656  0.1210  0.0897  0.2681
 7521SOL    HW134196   0.862   3.807   9.589 -2.0852  0.6188  0.1780
 7521SOL    HW234197   0.902   3.772   9.725  2.8177 -0.5195 -1.7079
 7522SOL     OW34198   0.935   3.382   2.638  0.3723 -0.1892  0.2244
 7522SOL    HW134199   1.012   3.363   2.692 -0.0837 -2.5071  0.0640
 7522SOL    HW234200   0.875   3.391   2.711 -0.7975 -1.5878 -0.5750
 7523SOL     OW34201   3.253   0.378   2.207  0.0297  0.2455  0.1302
 7523SOL    HW134202   3.296   0.344   2.286  0.5873  1.1887  0.2267
 7523SOL    HW234203   3.174   0.323   2.207  1.0550 -1.2552  1.2696
 7524SOL     OW34204   0.438   4.452  17.605 -0.0988  0.1932 -0.2097
 7524SOL    HW134205   0.486   4.439  17.687 -0.5371 -0.8329 -0.1153
 7524SOL    HW234206   0.442   4.547  17.592  0.9511  0.4463  1.9352
 7525SOL     OW34207   3.087   0.985  13.755 -0.4105 -0.2416  0.3230
 7525SOL    HW134208   3.136   0.905  13.738  1.4428  1.1361 -0.8549
 7525SOL    HW234209   3.067   1.011  13.665 -0.0903  0.2578  0.3930
 7526SOL     OW34210   0.372   0.369   2.774  0.4097 -0.3309 -0.0210
 7526SOL    HW134211   0.465   0.359   2.795  0.6141  0.9884 -0.2603
 7526SOL    HW234212   0.362   0.301   2.708 -0.0734 -1.7534  1.5145
 7527SOL     OW34213   0.935   2.828   4.905 -0.0180 -0.5904  0.1243
 7527SOL    HW134214   0.932   2.923   4.894  0.7276 -0.4413  1.1361
 7527SOL    HW234215   0.847   2.808   4.874  1.3622 -2.8987 -2.2788
 7528SOL     OW34216   4.101   2.429   2.034  0.2517  0.2114 -0.2554
 7528SOL    HW134217   4.166   2.498   2.048 -0.4617  0.8743 -0.2424
 7528SOL    HW234218   4.054   2.477   1.966 -1.6362  1.1195  1.7072
 7529SOL     OW34219   2.276   0.343   0.127 -0.3915 -0.2693  0.2798
 7529SOL    HW134220   2.277   0.330   0.222 -0.0048 -0.4052  0.2587
 7529SOL    HW234221   2.254   0.252   0.107  0.9659 -0.8264  1.3112
 7530SOL     OW34222   3.959   1.374  13.715 -0.4794 -0.1108 -0.1975
 7530SOL    HW134223   3.963   1.278  13.716 -2.1530 -0.1780 -0.8492
 7530SOL    HW234224   3.873   1.386  13.753 -0.2016  1.0610  0.0461
 7531SOL     OW34225   3.294   0.332   1.924  0.3380  0.4199 -0.1330
 7531SOL    HW134226   3.336   0.383   1.994 -0.0894 -0.3866  0.7102
 7531SOL    HW234227   3.325   0.246   1.952  0.8170  1.2955  2.0529
 7532SOL     OW34228   2.964   1.235   1.433 -0.2175  0.1886 -0.4175
 7532SOL    HW134229   3.012   1.318   1.420 -1.3546  0.9637  0.3465
 7532SOL    HW234230   2.977   1.224   1.527  2.0081  1.1538 -0.5931
 7533SOL     OW34231   4.704   1.178   2.903 -0.2660  0.3506 -0.0013
 7533SOL    HW134232   4.645   1.223   2.842 -0.7231 -0.8806 -0.4774
 7533SOL    HW234233   4.647   1.118   2.951 -0.3158 -0.0301 -0.5271
 7534SOL     OW34234   4.255   0.376   3.425 -0.1501 -0.4676 -0.5837
 7534SOL    HW134235   4.184   0.335   3.375 -0.7607 -0.2594  0.1108
 7534SOL    HW234236   4.204   0.446   3.467  2.8220  1.3522 -0.0419
 7535SOL     OW34237   3.700   3.467  15.392 -0.1496  0.3717 -0.4128
 7535SOL    HW134238   3.619   3.441  15.348 -0.4024  1.3164 -0.5021
 7535SOL    HW234239   3.677   3.554  15.422 -2.3682 -0.6881  0.9565
 7536SOL     OW34240   1.723   3.976  12.136  0.6404 -0.0048  0.2061
 7536SOL    HW134241   1.725   4.071  12.133 -2.8536  0.1373  1.9791
 7536SOL    HW234242   1.783   3.965  12.063  3.2579  1.7552  2.0988
 7537SOL     OW34243   1.567   0.367  10.191  0.3884 -0.5879 -0.5125
 7537SOL    HW134244   1.547   0.317  10.271 -3.4169 -0.6991 -1.5899
 7537SOL    HW234245   1.661   0.350  10.185  0.6988  0.3368  1.5690
 7538SOL     OW34246   0.398   2.283   8.181 -0.2883 -0.0092  0.3783
 7538SOL    HW134247   0.488   2.262   8.155 -0.1610  0.4014  0.4864
 7538SOL    HW234248   0.347   2.239   8.112 -1.6397  1.3009  0.5325
 7539SOL     OW34249   2.732   0.312   7.133  0.0020  0.5087 -0.1596
 7539SOL    HW134250   2.687   0.365   7.067  0.7305 -2.1055 -2.7713
 7539SOL    HW234251   2.681   0.332   7.212 -1.7479 -2.7125 -0.4499
 7540SOL     OW34252   0.094   0.571   8.496 -0.0639 -0.2694 -0.4176
 7540SOL    HW134253   0.076   0.503   8.432 -1.4031 -0.0679 -0.2390
 7540SOL    HW234254   0.013   0.615   8.520 -0.5055 -1.7082  0.7455
 7541SOL     OW34255   1.713   4.699   3.880 -0.2179  0.2662 -0.4509
 7541SOL    HW134256   1.683   4.726   3.794  0.2614 -1.2379 -1.0927
 7541SOL    HW234257   1.778   4.635   3.850  0.3632  0.3912  0.5430
 7542SOL     OW34258   2.891   0.345  16.245 -0.0212  0.1915  0.6378
 7542SOL    HW134259   2.822   0.357  16.179 -0.0408 -0.2132  0.5838
 7542SOL    HW234260   2.860   0.408  16.311  0.6002 -0.6986  1.7864
 7543SOL     OW34261   2.783   0.199   2.222  0.2089 -0.4910  0.4748
 7543SOL    HW134262   2.743   0.285   2.212  0.8792 -0.4984 -2.2768
 7543SOL    HW234263   2.710   0.137   2.227 -0.7039  0.5973  0.4595
 7544SOL     OW34264   2.793   3.235   7.746  0.1465 -0.4175 -0.0059
 7544SOL    HW134265   2.803   3.217   7.839  1.1144  0.3232  0.0331
 7544SOL    HW234266   2.838   3.319   7.743  0.0830 -0.3952 -0.3040
 7545SOL     OW34267   4.633   3.456   1.953  0.1199 -0.3442  0.0770
 7545SOL    HW134268   4.638   3.508   1.873 -0.1150 -0.2089  0.1496
 7545SOL    HW234269   4.704   3.395   1.937 -0.3954 -1.4238  1.8600
 7546SOL     OW34270   1.685   3.486   2.376 -0.3312 -0.1776 -0.2140
 7546SOL    HW134271   1.621   3.415   2.369 -0.7212  0.1503  0.0205
 7546SOL    HW234272   1.727   3.482   2.290  3.0170  1.4619  1.3643
 7547SOL     OW34273   1.681   2.943   0.734 -0.0341 -0.9908  0.5631
 7547SOL    HW134274   1.650   3.025   0.695  0.7549 -1.8176 -1.8389
 7547SOL    HW234275   1.738   2.983   0.799 -0.7545  0.4152  0.3213
 7548SOL     OW34276   0.566   3.226   7.705  0.5227  0.0678 -0.4059
 7548SOL    HW134277   0.590   3.134   7.697  0.1795 -0.0119 -0.5461
 7548SOL    HW234278   0.503   3.219   7.777  1.2905  0.2157  0.2836
 7549SOL     OW34279   3.928   3.870   5.350  0.5972 -0.5333 -0.1112
 7549SOL    HW134280   3.949   3.786   5.391  0.0575 -0.9520 -0.7040
 7549SOL    HW234281   3.949   3.850   5.259 -0.4121  0.5792 -0.5831
 7550SOL     OW34282   3.119   4.371   4.465 -0.5765 -0.1084  0.4183
 7550SOL    HW134283   3.124   4.298   4.404 -1.3038  1.0141 -0.9657
 7550SOL    HW234284   3.052   4.431   4.432  0.7086  0.8442 -0.4689
 7551SOL     OW34285   3.356   0.506   3.915  0.3191 -0.6367 -0.6650
 7551SOL    HW134286   3.408   0.457   3.978  0.1659  0.1294  0.0568
 7551SOL    HW234287   3.407   0.586   3.905 -1.6609  0.4077 -2.3926
 7552SOL     OW34288   0.288   2.141   6.531 -0.2063 -0.5690  0.5406
 7552SOL    HW134289   0.276   2.058   6.577  2.8392 -0.2949  1.8198
 7552SOL    HW234290   0.216   2.153   6.469  1.7430 -0.0488 -1.6323
 7553SOL     OW34291   1.887   0.025   2.483 -0.5605  0.0270 -0.5877
 7553SOL    HW134292   1.827   4.709   2.535  1.2010 -2.2695 -0.9242
 7553SOL    HW234293   1.973   4.720   2.488  0.9786  3.0892 -0.4708
 7554SOL     OW34294   2.614   1.310   3.658 -0.0502 -0.2516 -0.3478
 7554SOL    HW134295   2.685   1.262   3.616  1.5727  0.7499  1.2687
 7554SOL    HW234296   2.648   1.398   3.670  0.0570 -0.6790  2.5130
 7555SOL     OW34297   2.240   1.507   2.262  0.0217  0.4886  0.0859
 7555SOL    HW134298   2.239   1.472   2.350 -1.4577 -0.1920 -0.1955
 7555SOL    HW234299   2.322   1.557   2.264  1.3431 -1.5367 -3.4766
 7556SOL     OW34300   0.250   3.150   7.699 -0.1498 -0.0261 -0.9563
 7556SOL    HW134301   0.297   3.202   7.635 -2.3410  1.8023 -1.0987
 7556SOL    HW234302   0.305   3.140   7.776 -1.0357  2.2239 -0.0131
 7557SOL     OW34303   2.997   0.010   7.354 -0.1918 -0.5146 -0.3419
 7557SOL    HW134304   3.079   0.015   7.403 -0.2236  0.0762 -0.3538
 7557SOL    HW234305   3.014   0.075   7.286  0.1017 -1.2406 -0.9630
 7558SOL     OW34306   0.678   1.909   5.994  0.1261  0.3513  0.6124
 7558SOL    HW134307   0.723   1.862   5.924 -1.5684 -1.4775  0.7627
 7558SOL    HW234308   0.749   1.926   6.055  0.2656 -0.0988  0.5777
 7559SOL     OW34309   4.596   4.716   5.076  0.0240 -0.4811 -0.0825
 7559SOL    HW134310   4.568   0.060   5.117  1.4466  0.3221 -0.7454
 7559SOL    HW234311   4.648   0.017   5.006 -0.3585 -1.8366 -1.1215
 7560SOL     OW34312   3.352   0.526  17.656 -0.5541 -0.2944  0.4583
 7560SOL    HW134313   3.335   0.458  17.722  0.0308 -0.9470 -0.0596
 7560SOL    HW234314   3.432   0.495  17.614 -1.6639 -2.9917  0.2804
 7561SOL     OW34315   3.148   4.025  17.701  0.1922  0.2947  0.0905
 7561SOL    HW134316   3.229   3.988  17.668 -0.4014 -1.0824  0.1797
 7561SOL    HW234317   3.095   4.028  17.621  1.2082 -0.8142 -0.6180
 7562SOL     OW34318   1.803   1.865   7.544  0.4244 -0.5571  0.2322
 7562SOL    HW134319   1.723   1.873   7.595 -0.3482 -1.1265 -0.9111
 7562SOL    HW234320   1.771   1.889   7.457  0.2405  0.6522  0.6360
 7563SOL     OW34321   2.002   2.239   3.909  0.0531 -0.0298 -0.2278
 7563SOL    HW134322   2.003   2.191   3.826 -2.5188  0.1288 -0.3508
 7563SOL    HW234323   1.969   2.326   3.888 -0.0551  0.5930  2.5714
 7564SOL     OW34324   1.959   2.203   3.626 -0.2223 -0.0945  0.2171
 7564SOL    HW134325   1.934   2.132   3.567 -0.1945  0.5611 -0.5856
 7564SOL    HW234326   2.013   2.257   3.568 -1.4624 -0.1121 -0.9689
 7565SOL     OW34327   2.815   0.873   5.785 -0.4462 -0.0017 -0.3158
 7565SOL    HW134328   2.747   0.875   5.717 -1.5459 -0.0304  0.7705
 7565SOL    HW234329   2.892   0.898   5.734 -0.8194  0.5958 -0.5835
 7566SOL     OW34330   2.746   1.752   2.201 -0.5713  0.1192  0.0646
 7566SOL    HW134331   2.806   1.772   2.129 -0.7755 -0.3237 -0.2258
 7566SOL    HW234332   2.673   1.801   2.162 -0.6340  0.0199  0.0573
 7567SOL     OW34333   1.273   1.604   9.606 -0.0091  0.1194 -0.4405
 7567SOL    HW134334   1.279   1.513   9.578 -0.1453  0.0763 -0.3317
 7567SOL    HW234335   1.184   1.621   9.574  0.1248  0.9397 -0.3784
 7568SOL     OW34336   1.009   1.542   6.389 -0.2863 -0.1232 -0.1617
 7568SOL    HW134337   0.974   1.478   6.452  0.5454  0.4139  0.8344
 7568SOL    HW234338   1.103   1.531   6.401 -0.7567 -3.1141  0.8650
 7569SOL     OW34339   2.431   2.031  12.550  0.4410 -0.4261 -0.0975
 7569SOL    HW134340   2.453   2.121  12.572 -0.1617  0.0415 -1.3763
 7569SOL    HW234341   2.343   2.046  12.517  0.9453  1.6165 -0.4930
 7570SOL     OW34342   4.559   2.107  10.744 -0.5952 -0.4533 -0.1768
 7570SOL    HW134343   4.515   2.190  10.724 -2.4099 -0.9045  2.0660
 7570SOL    HW234344   4.523   2.086  10.830 -0.6388  0.1787 -0.0384
 7571SOL     OW34345   3.122   2.514   3.303 -0.3590 -0.4724  0.5774
 7571SOL    HW134346   3.200   2.461   3.285 -0.7813 -1.0254  0.3960
 7571SOL    HW234347   3.152   2.554   3.385 -0.2893 -0.0940  0.3671
 7572SOL     OW34348   2.085   0.211  15.043 -0.5027  0.5760 -0.3964
 7572SOL    HW134349   2.122   0.285  15.091  0.0533  0.5168 -0.7276
 7572SOL    HW234350   2.011   0.254  15.000 -1.3659 -0.2685  0.2669
 7573SOL     OW34351   1.232   1.530   5.191  0.3383 -0.6832 -0.1951
 7573SOL    HW134352   1.256   1.601   5.250 -0.1263 -0.4881 -0.2409
 7573SOL    HW234353   1.183   1.471   5.249  1.3006 -0.2880  1.0278
 7574SOL     OW34354   4.054   0.632   8.864  0.4230 -0.0481 -0.1758
 7574SOL    HW134355   4.078   0.695   8.932 -0.2681 -0.3173  0.3184
 7574SOL    HW234356   3.966   0.668   8.853  0.6083  0.3271 -0.4709
 7575SOL     OW34357   3.644   0.830   4.446 -0.5655 -0.2414 -0.4437
 7575SOL    HW134358   3.731   0.820   4.485 -0.2423 -0.7962 -1.2919
 7575SOL    HW234359   3.587   0.867   4.513  0.2430 -1.0052  0.6597
 7576SOL     OW34360   1.174   1.962   7.566  0.4199 -0.0981 -0.0305
 7576SOL    HW134361   1.131   1.933   7.647 -2.4518  0.6996 -1.2791
 7576SOL    HW234362   1.240   1.892   7.563  0.6156 -0.1279  3.9467
 7577SOL     OW34363   0.467   1.591   2.084 -0.0857  0.2038 -0.6199
 7577SOL    HW134364   0.405   1.578   2.156 -0.5318 -2.1941 -1.4523
 7577SOL    HW234365   0.453   1.514   2.028  0.3043  1.4937 -2.4795
 7578SOL     OW34366   1.553   1.309   6.040  1.1448 -0.1681 -0.0040
 7578SOL    HW134367   1.565   1.302   6.135 -0.4980  1.1030  0.2946
 7578SOL    HW234368   1.645   1.315   6.012  1.1096  0.4690  0.0125
 7579SOL     OW34369   3.625   1.487  15.539  0.1783  0.3962  0.6523
 7579SOL    HW134370   3.672   1.410  15.570 -1.2742 -0.3606  0.9385
 7579SOL    HW234371   3.541   1.464  15.577 -0.1098  1.3346  0.5936
 7580SOL     OW34372   3.515   3.273   8.527 -1.2111 -0.3739  0.0854
 7580SOL    HW134373   3.429   3.244   8.557 -0.9225 -0.2167  1.0611
 7580SOL    HW234374   3.546   3.194   8.484 -0.0525 -0.8855  1.8793
 7581SOL     OW34375   1.197   2.475   6.502 -0.1890 -0.5787 -0.1707
 7581SOL    HW134376   1.117   2.470   6.554  0.6173  0.1755  1.1292
 7581SOL    HW234377   1.258   2.461   6.574  1.0085  1.4455 -0.7871
 7582SOL     OW34378   3.770   4.336   0.095 -0.1998  0.3280 -0.2425
 7582SOL    HW134379   3.706   4.266   0.080 -0.0576  0.1489 -0.0260
 7582SOL    HW234380   3.845   4.303   0.046 -0.0448  0.8267 -0.3359
 7583SOL     OW34381   4.036   0.439  12.844 -0.2917  0.1131 -0.6138
 7583SOL    HW134382   3.945   0.410  12.849  0.3183 -1.3218  2.3160
 7583SOL    HW234383   4.067   0.377  12.778  0.2709 -1.8472  1.5057
 7584SOL     OW34384   1.689   3.060   5.033  0.2848 -0.6067 -0.0411
 7584SOL    HW134385   1.602   3.063   4.993  0.7125  0.0409 -0.9339
 7584SOL    HW234386   1.740   2.998   4.980 -1.2858 -0.1979 -2.0390
 7585SOL     OW34387   0.286   2.750   6.437 -0.2320 -1.0035 -0.0010
 7585SOL    HW134388   0.355   2.713   6.382  0.0736 -1.2599  0.5591
 7585SOL    HW234389   0.215   2.747   6.372 -0.1814 -3.3481  0.0448
 7586SOL     OW34390   2.102   1.494  14.051 -0.3347 -0.2375 -0.0692
 7586SOL    HW134391   2.017   1.486  14.095  0.5532 -1.0451  1.5001
 7586SOL    HW234392   2.135   1.568  14.101 -1.3684 -1.4635  2.4158
 7587SOL     OW34393   2.328   0.029   4.918 -0.5830  0.3837  0.2425
 7587SOL    HW134394   2.286   4.728   4.995 -1.2314 -0.6488 -0.6308
 7587SOL    HW234395   2.293   0.117   4.921  2.4037  1.6085 -0.7383
 7588SOL     OW34396   1.352   1.697  15.835 -0.0064  0.0810 -0.0794
 7588SOL    HW134397   1.448   1.696  15.837 -0.0084 -2.4454 -0.9922
 7588SOL    HW234398   1.343   1.780  15.881 -0.3392  0.2277 -0.4115
 7589SOL     OW34399   0.262   3.777   0.079 -0.4289 -0.4593 -0.1287
 7589SOL    HW134400   0.285   3.711   0.145  2.5554 -0.0879 -0.8354
 7589SOL    HW234401   0.210   3.719   0.023 -0.9798 -1.2430  1.1704
 7590SOL     OW34402   1.620   0.245   0.826 -0.3652  0.4045 -0.3018
 7590SOL    HW134403   1.623   0.150   0.829 -0.2197  0.3382 -2.6163
 7590SOL    HW234404   1.683   0.262   0.896 -0.5697 -2.8315  0.6458
 7591SOL     OW34405   0.192   2.647   1.620  0.3752  0.8306  0.3470
 7591SOL    HW134406   0.110   2.682   1.654 -1.1019 -1.9264 -0.3436
 7591SOL    HW234407   0.223   2.632   1.710 -1.6562 -2.0506  0.5415
 7592SOL     OW34408   1.753   1.497   6.848  0.5347 -0.0182  0.5608
 7592SOL    HW134409   1.834   1.446   6.853  0.2976 -0.4804 -0.3678
 7592SOL    HW234410   1.787   1.587   6.843  2.2775 -0.6736  0.6464
 7593SOL     OW34411   3.414   2.055   3.019  0.3439  0.2012 -0.1090
 7593SOL    HW134412   3.349   2.088   2.957  1.5552 -0.9235 -1.9778
 7593SOL    HW234413   3.496   2.098   2.997  0.0782  1.8509  2.1843
 7594SOL     OW34414   0.498   4.468   2.325  0.1535 -0.1676  0.9993
 7594SOL    HW134415   0.455   4.452   2.241  1.7350 -0.4254  0.2370
 7594SOL    HW234416   0.491   4.380   2.363 -1.9231 -0.8294 -0.8968
 7595SOL     OW34417   1.423   3.070   3.873  0.3373  0.3425 -0.1999
 7595SOL    HW134418   1.368   3.123   3.815 -0.4427 -0.3778 -0.1137
 7595SOL    HW234419   1.360   3.028   3.931  0.3654 -0.8099 -1.0180
 7596SOL     OW34420   2.186   2.729   3.853  0.0428  0.0628 -0.7356
 7596SOL    HW134421   2.239   2.659   3.816  1.1640  0.9188 -0.7261
 7596SOL    HW234422   2.111   2.681   3.889  0.1151  1.2543  0.9800
 7597SOL     OW34423   1.004   1.107  10.826 -0.1112  0.4229  0.2580
 7597SOL    HW134424   0.914   1.083  10.849 -0.6877  0.0436 -2.4015
 7597SOL    HW234425   1.033   1.020  10.799  0.9348  0.9916 -0.4727
 7598SOL     OW34426   3.884   4.588   7.445 -0.1897 -0.4970  0.1104
 7598SOL    HW134427   3.918   4.656   7.503  1.6918 -1.8702  0.6235
 7598SOL    HW234428   3.804   4.626   7.409  0.3269 -1.0866 -1.6724
 7599SOL     OW34429   1.764   2.864   5.705  0.7741 -0.1966 -0.3173
 7599SOL    HW134430   1.809   2.940   5.670 -0.4706  0.2791 -0.8881
 7599SOL    HW234431   1.842   2.830   5.750  0.4632  0.5792  0.8155
 7600SOL     OW34432   0.514   4.695   5.760 -0.2129 -0.1500 -0.0769
 7600SOL    HW134433   0.482   4.673   5.847 -0.3164  0.2463 -0.0145
 7600SOL    HW234434   0.429   4.709   5.718 -0.9718 -1.0372  1.1707
 7601SOL     OW34435   4.689   1.648  10.742  0.2971  0.2211 -0.2932
 7601SOL    HW134436   0.016   1.700  10.789  1.9874 -3.5571  1.5745
 7601SOL    HW234437   4.677   1.573  10.800  0.2241  1.7569  1.6627
 7602SOL     OW34438   2.863   0.540  10.353  0.5059  0.2047 -0.5359
 7602SOL    HW134439   2.914   0.561  10.432 -0.2747 -1.3551  0.3942
 7602SOL    HW234440   2.784   0.593  10.362  0.3396 -0.2081  0.4878
 7603SOL     OW34441   1.896   0.804  10.571 -0.2346 -0.1240 -0.0564
 7603SOL    HW134442   1.934   0.716  10.561  0.9170  0.4687 -0.8008
 7603SOL    HW234443   1.919   0.841  10.656  1.4079  0.7318 -0.8828
 7604SOL     OW34444   1.705   2.590   6.916 -0.6961 -0.3222 -0.5064
 7604SOL    HW134445   1.736   2.598   7.006 -2.3997  0.9497 -0.0258
 7604SOL    HW234446   1.692   2.496   6.911  0.8463 -0.5192 -0.9945
 7605SOL     OW34447   0.875   3.961   5.569 -0.5651  0.2455  0.1810
 7605SOL    HW134448   0.885   3.944   5.663 -0.3639 -1.6380 -0.1830
 7605SOL    HW234449   0.801   3.906   5.544 -1.1839  1.2381 -0.1637
 7606SOL     OW34450   3.849   1.643   7.133  0.0694  0.9168 -0.0566
 7606SOL    HW134451   3.835   1.585   7.058 -1.0360 -0.8081  1.4809
 7606SOL    HW234452   3.811   1.721   7.094  0.7336  0.7769 -0.9956
 7607SOL     OW34453   1.111   2.532   7.439  0.3804  0.6229 -0.2229
 7607SOL    HW134454   1.021   2.564   7.445  0.7930  1.5592  0.9662
 7607SOL    HW234455   1.148   2.599   7.382 -0.8107 -0.0347 -1.7426
 7608SOL     OW34456   3.136   1.285   4.807 -0.1873 -0.4950  0.4603
 7608SOL    HW134457   3.077   1.351   4.843 -2.7516 -1.5607 -1.7584
 7608SOL    HW234458   3.072   1.225   4.767 -1.1008  0.9060 -0.1741
 7609SOL     OW34459   3.802   1.872  17.685  0.4924 -0.1578  0.3982
 7609SOL    HW134460   3.894   1.865  17.659  0.8592  0.8147  1.4630
 7609SOL    HW234461   3.772   1.781  17.675 -1.0508  0.6720 -2.4783
 7610SOL     OW34462   1.853   3.128   3.452 -0.4019 -0.7380  0.0443
 7610SOL    HW134463   1.937   3.170   3.469 -1.6947  2.1406 -0.5688
 7610SOL    HW234464   1.876   3.038   3.474  0.5370 -0.8618 -1.4110
 7611SOL     OW34465   3.575   2.887   6.141 -0.0507 -0.0575  0.0872
 7611SOL    HW134466   3.501   2.859   6.086 -1.3344  1.2918  1.1108
 7611SOL    HW234467   3.650   2.857   6.090  0.1164  4.0749 -2.0550
 7612SOL     OW34468   3.676   0.284   5.739  0.3048  0.0628  0.1339
 7612SOL    HW134469   3.747   0.248   5.792  1.1470  2.2924  0.5318
 7612SOL    HW234470   3.604   0.221   5.750  1.4922 -1.4483 -0.8100
 7613SOL     OW34471   2.447   0.660  15.119  0.4489 -0.5400 -0.2621
 7613SOL    HW134472   2.435   0.622  15.205  0.4966 -0.9708 -0.4481
 7613SOL    HW234473   2.356   0.669  15.091  0.6005  0.0220 -0.5907
 7614SOL     OW34474   3.676   1.883   5.070  0.1814 -0.3830 -0.2032
 7614SOL    HW134475   3.675   1.861   4.977 -1.8621  1.2870 -0.5815
 7614SOL    HW234476   3.601   1.942   5.081  0.9072  0.3533  0.8279
 7615SOL     OW34477   0.225   1.294   0.957 -0.2094 -0.1681  0.6369
 7615SOL    HW134478   0.313   1.333   0.955 -0.2084 -0.1928  0.1067
 7615SOL    HW234479   0.245   1.201   0.947 -1.3743 -0.3781  0.3081
 7616SOL     OW34480   0.161   0.397  13.343 -0.0438  0.2890 -0.2768
 7616SOL    HW134481   0.194   0.315  13.380  0.8119  0.6859 -0.1647
 7616SOL    HW234482   0.230   0.393  13.276  1.8197  5.1015  1.3607
 7617SOL     OW34483   2.336   3.928   3.696  0.0856  0.1052  0.5569
 7617SOL    HW134484   2.407   3.915   3.633 -0.7886 -1.3001 -0.1439
 7617SOL    HW234485   2.282   3.993   3.650  0.2563 -0.7223 -0.8437
 7618SOL     OW34486   3.996   0.981   4.082 -0.0117 -0.1481  0.1387
 7618SOL    HW134487   3.928   0.918   4.107  1.3659 -1.3506  0.8713
 7618SOL    HW234488   3.947   1.048   4.035  0.7213  0.3692  0.1155
 7619SOL     OW34489   1.959   4.563   4.336 -0.0068 -0.1251 -0.5556
 7619SOL    HW134490   2.038   4.614   4.354 -0.4568  1.0349 -1.8741
 7619SOL    HW234491   1.917   4.609   4.263 -2.8064 -2.8688 -0.6973
 7620SOL     OW34492   2.305   3.202   8.463 -0.2283  0.0949 -0.2037
 7620SOL    HW134493   2.398   3.178   8.468 -0.2462  0.1122  0.2219
 7620SOL    HW234494   2.279   3.163   8.546 -0.9661  0.9074 -0.0519
 7621SOL     OW34495   3.693   0.800   9.250 -0.0714 -0.3711 -0.2998
 7621SOL    HW134496   3.674   0.731   9.314  1.3359  0.6784  1.2492
 7621SOL    HW234497   3.773   0.846   9.276  0.0952 -0.7353 -0.1684
 7622SOL     OW34498   3.961   1.637  16.835 -0.2914 -0.1739 -0.1023
 7622SOL    HW134499   3.943   1.670  16.747  1.8903 -0.7195 -0.7410
 7622SOL    HW234500   3.922   1.550  16.833 -1.9646  0.5704  0.0293
 7623SOL     OW34501   1.282   4.114   3.206 -0.1962  0.0753 -0.4181
 7623SOL    HW134502   1.195   4.092   3.239  0.4142  1.4810  2.0911
 7623SOL    HW234503   1.315   4.173   3.273 -1.8941  1.0714 -0.4531
 7624SOL     OW34504   2.784   3.764   7.387 -0.1130 -0.2160 -0.1398
 7624SOL    HW134505   2.703   3.794   7.344  0.4172  2.5218  0.7337
 7624SOL    HW234506   2.778   3.669   7.388 -2.4897 -0.0581  1.0782
 7625SOL     OW34507   4.073   1.369   5.423  0.2474  0.0200 -0.4524
 7625SOL    HW134508   4.099   1.461   5.409  0.4333 -0.5312 -3.7288
 7625SOL    HW234509   4.121   1.347   5.503 -0.6762  1.7031  0.5857
 7626SOL     OW34510   2.012   3.413   3.315 -0.6551  0.0350 -0.6536
 7626SOL    HW134511   2.026   3.498   3.355 -1.9632  0.8443 -1.8873
 7626SOL    HW234512   2.021   3.361   3.395 -1.9003  1.7466  0.5987
 7627SOL     OW34513   0.170   0.384   6.986  0.3554 -0.0516  0.0110
 7627SOL    HW134514   0.179   0.397   7.080 -0.1993  3.2155 -0.3851
 7627SOL    HW234515   0.095   0.436   6.957 -0.5916 -2.4159 -1.8136
 7628SOL     OW34516   4.297   1.438   4.345 -0.2062 -0.3361  0.3404
 7628SOL    HW134517   4.237   1.374   4.306  0.5841 -1.3613  0.8068
 7628SOL    HW234518   4.309   1.401   4.432  0.2525 -1.3363 -0.1460
 7629SOL     OW34519   2.598   0.981   9.290 -0.6315 -0.1256  0.1364
 7629SOL    HW134520   2.528   0.963   9.227 -0.3991 -0.2348 -0.0884
 7629SOL    HW234521   2.555   0.976   9.376 -2.6112  0.5967 -0.8110
 7630SOL     OW34522   3.274   0.398   6.458 -0.3912  0.2821  0.2918
 7630SOL    HW134523   3.269   0.470   6.395  1.8105 -0.2679 -0.4860
 7630SOL    HW234524   3.235   0.443   6.533  0.2588  0.9574  0.2188
 7631SOL     OW34525   2.388   0.963   3.107  0.1354 -0.5873 -0.2561
 7631SOL    HW134526   2.423   0.899   3.169 -0.1629  0.5420  1.0799
 7631SOL    HW234527   2.383   1.036   3.168 -0.8869 -0.1234 -0.8911
 7632SOL     OW34528   3.975   2.411   7.278 -0.1814 -0.3043 -0.1038
 7632SOL    HW134529   3.959   2.319   7.300 -2.8575 -0.1811 -1.6318
 7632SOL    HW234530   3.886   2.445   7.268  0.4900  1.4796 -0.0254
 7633SOL     OW34531   2.914   1.843   9.248 -0.6102  0.5888 -0.2829
 7633SOL    HW134532   2.986   1.781   9.252 -0.3057  1.1228  2.1135
 7633SOL    HW234533   2.880   1.839   9.337 -0.8238  1.0536 -0.3396
 7634SOL     OW34534   1.437   4.592   6.406 -0.1274 -0.1228  0.1709
 7634SOL    HW134535   1.448   4.623   6.496 -2.0409  1.2882 -0.0822
 7634SOL    HW234536   1.382   4.660   6.367 -1.6868 -1.3256  0.2464
 7635SOL     OW34537   0.468   0.080  16.487 -0.2585  0.2582  0.6313
 7635SOL    HW134538   0.417   0.110  16.412  0.6468 -0.7600 -0.3896
 7635SOL    HW234539   0.548   0.037  16.457 -0.2485  1.8049 -1.6003
 7636SOL     OW34540   2.467   2.903  14.223 -0.2857 -0.6295 -0.2959
 7636SOL    HW134541   2.534   2.966  14.197 -2.1343 -0.1135 -3.7556
 7636SOL    HW234542   2.423   2.954  14.290 -0.7017  0.1834 -1.1981
 7637SOL     OW34543   3.797   2.446  16.921 -0.2507  0.3260  0.2922
 7637SOL    HW134544   3.884   2.423  16.887 -0.2478  1.3552 -0.4041
 7637SOL    HW234545   3.754   2.476  16.841  1.1267  1.0666 -0.1832
 7638SOL     OW34546   2.145   4.435   9.399 -0.6513 -0.3295 -0.4554
 7638SOL    HW134547   2.168   4.525   9.376  0.0816  0.0938  1.9013
 7638SOL    HW234548   2.055   4.427   9.369 -0.6660 -2.6947  0.2468
 7639SOL     OW34549   4.511   1.402  17.027  0.9688 -0.0433 -0.6956
 7639SOL    HW134550   4.570   1.439  16.961  0.6731  2.3870  0.4121
 7639SOL    HW234551   4.575   1.346  17.072  0.4460  1.4203  1.8325
 7640SOL     OW34552   1.419   3.258   4.679  0.0912  0.0524 -0.3538
 7640SOL    HW134553   1.484   3.328   4.688 -0.8594  1.1338 -1.8105
 7640SOL    HW234554   1.343   3.303   4.642  1.9647  2.3245 -1.3843
 7641SOL     OW34555   1.533   2.713   0.674 -0.2033  0.7395  0.2036
 7641SOL    HW134556   1.470   2.756   0.616 -0.4241  1.7583  1.1985
 7641SOL    HW234557   1.581   2.791   0.702 -0.6392  1.1866 -0.3024
 7642SOL     OW34558   2.659   0.242   9.181 -0.1649 -0.3796 -0.0552
 7642SOL    HW134559   2.631   0.291   9.258  0.1035 -0.6459  0.2116
 7642SOL    HW234560   2.695   0.172   9.235  2.2117  0.0106 -1.1145
 7643SOL     OW34561   1.126   1.284   4.562 -0.0497  0.0647 -0.0490
 7643SOL    HW134562   1.164   1.349   4.504 -1.2707 -1.8450 -3.0134
 7643SOL    HW234563   1.106   1.337   4.639  1.2069 -0.8799  0.9301
 7644SOL     OW34564   3.294   3.215  14.395  0.0385 -0.6212 -0.4876
 7644SOL    HW134565   3.264   3.142  14.450  1.4168 -1.5587 -0.9873
 7644SOL    HW234566   3.304   3.182  14.306  0.6866  0.4511 -0.8112
 7645SOL     OW34567   4.692   4.413  17.655 -0.6053 -0.2547 -0.2863
 7645SOL    HW134568   0.039   4.380  17.625 -1.0481  1.8802 -3.8544
 7645SOL    HW234569   4.685   4.383  17.746 -1.1113 -0.4220 -0.3824
 7646SOL     OW34570   2.674   0.224   1.773 -0.0640  0.1648  0.0803
 7646SOL    HW134571   2.633   0.177   1.845 -2.2862  0.4530 -0.9898
 7646SOL    HW234572   2.607   0.292   1.766 -1.2684 -0.9271  1.2070
 7647SOL     OW34573   3.438   4.357   4.102 -0.1202 -0.8242  0.2305
 7647SOL    HW134574   3.517   4.343   4.049  0.8419  0.4836  1.2957
 7647SOL    HW234575   3.470   4.331   4.188  1.4386 -0.1438 -0.1256
 7648SOL     OW34576   4.613   1.256   3.546  0.6167  0.0752  0.1382
 7648SOL    HW134577   4.703   1.272   3.575  0.3804  0.8253  0.4743
 7648SOL    HW234578   4.610   1.161   3.552 -0.0550  0.2122  1.8608
 7649SOL     OW34579   3.606   2.606   2.960 -0.0539 -0.0612  0.0512
 7649SOL    HW134580   3.658   2.535   2.922 -0.6886  0.4755 -1.8245
 7649SOL    HW234581   3.658   2.635   3.034  1.7189 -2.4768 -0.2229
 7650SOL     OW34582   3.752   1.731   5.950  0.2642  0.4199 -0.0854
 7650SOL    HW134583   3.767   1.822   5.925  0.3372  0.6895  0.9464
 7650SOL    HW234584   3.691   1.716   5.878  0.0641  1.0288 -0.0426
 7651SOL     OW34585   4.339   0.874  11.824 -0.4124 -0.4906 -0.1307
 7651SOL    HW134586   4.290   0.802  11.865 -1.3724 -0.9024 -2.0311
 7651SOL    HW234587   4.418   0.872  11.877 -0.3231 -1.7967 -0.3054
 7652SOL     OW34588   4.586   3.164   2.494  0.1051  0.3681  0.1443
 7652SOL    HW134589   4.624   3.134   2.412  0.5068 -0.3855  0.5990
 7652SOL    HW234590   4.634   3.103   2.549  0.8527 -1.1290 -2.1675
 7653SOL     OW34591   3.338   1.000   7.533  0.4322  0.0032  0.1516
 7653SOL    HW134592   3.352   1.094   7.529  1.4783 -0.1371  0.7621
 7653SOL    HW234593   3.406   0.974   7.595  1.2883  3.8731  0.8201
 7654SOL     OW34594   2.617   3.678   4.563  0.4576  0.3110  0.4605
 7654SOL    HW134595   2.665   3.623   4.501  0.4718 -2.2528  2.7454
 7654SOL    HW234596   2.592   3.747   4.502 -0.1232  1.7112  2.2643
 7655SOL     OW34597   0.684   2.967  10.312 -0.7312 -0.2824 -0.2878
 7655SOL    HW134598   0.705   2.966  10.219 -1.0542  1.4307 -0.3827
 7655SOL    HW234599   0.720   2.882  10.339  1.2832  0.2936 -1.1305
 7656SOL     OW34600   3.263   2.272  12.205  0.3282  0.3572 -0.1352
 7656SOL    HW134601   3.331   2.205  12.206  0.7611  0.8535  3.0257
 7656SOL    HW234602   3.268   2.312  12.118  3.5994  0.2994  0.0387
 7657SOL     OW34603   3.579   3.418   3.465 -0.9019  0.9642 -0.3008
 7657SOL    HW134604   3.519   3.392   3.395  0.3763 -1.2471 -0.5672
 7657SOL    HW234605   3.641   3.474   3.418 -0.2245  1.6997  1.4814
 7658SOL     OW34606   3.793   0.153   2.498  0.3358  0.2740  0.0947
 7658SOL    HW134607   3.725   0.219   2.487  0.2569  0.1441 -0.1791
 7658SOL    HW234608   3.774   0.112   2.583  2.3543 -1.9870 -0.5445
 7659SOL     OW34609   0.588   0.501   0.451  0.0430 -0.2362 -0.1113
 7659SOL    HW134610   0.566   0.448   0.528 -0.4194  0.7450  0.4394
 7659SOL    HW234611   0.649   0.441   0.407  0.9017  0.3302  0.3040
 7660SOL     OW34612   3.954   0.432   8.336  0.1046  0.0971  0.7179
 7660SOL    HW134613   3.911   0.429   8.250  0.0513 -0.0174  0.7489
 7660SOL    HW234614   3.905   0.499   8.385 -0.4537  1.4802 -1.7400
 7661SOL     OW34615   2.238   1.593   1.831 -0.3754 -0.4625 -0.3100
 7661SOL    HW134616   2.278   1.533   1.768  0.4803 -0.2812  0.0612
 7661SOL    HW234617   2.213   1.531   1.900  2.8016 -1.7335 -0.3226
 7662SOL     OW34618   2.083   4.244  12.720 -0.0638 -0.2105  0.2026
 7662SOL    HW134619   2.141   4.242  12.643  1.8317  1.2364  1.5855
 7662SOL    HW234620   2.073   4.149  12.726  0.6640 -0.2288  1.0657
 7663SOL     OW34621   4.298   1.200   7.120  0.1775  0.0762 -0.1976
 7663SOL    HW134622   4.316   1.268   7.056  0.8476 -0.6005 -0.7370
 7663SOL    HW234623   4.204   1.212   7.124  0.1546 -0.7789  2.0525
 7664SOL     OW34624   2.033   0.227   0.455  0.3550  0.2512  0.2176
 7664SOL    HW134625   2.120   0.265   0.444  0.0295  0.7203 -0.7884
 7664SOL    HW234626   2.043   0.149   0.509 -1.6546  0.2192  0.5604
 7665SOL     OW34627   0.908   2.848   8.156 -0.3678 -0.4667  0.2700
 7665SOL    HW134628   0.933   2.759   8.131 -1.3338 -0.5878 -0.2549
 7665SOL    HW234629   0.937   2.849   8.247 -1.1965  3.5037  0.5118
 7666SOL     OW34630   4.500   1.607   7.880 -0.1271  0.0817  0.5659
 7666SOL    HW134631   4.446   1.686   7.881  1.0967  0.9047  1.3044
 7666SOL    HW234632   4.572   1.631   7.939 -0.6463  2.3338  0.3027
 7667SOL     OW34633   2.103   3.761   8.654  0.1441  0.0897 -0.2120
 7667SOL    HW134634   2.129   3.669   8.646 -1.8434 -0.3679 -1.3539
 7667SOL    HW234635   2.120   3.792   8.743  1.7666 -1.0271 -0.1437
 7668SOL     OW34636   2.841   0.757   6.041 -0.6925  0.5485 -0.1087
 7668SOL    HW134637   2.749   0.744   6.062 -0.3304  0.7537  1.5696
 7668SOL    HW234638   2.834   0.802   5.956  1.6467  1.0889 -0.0279
 7669SOL     OW34639   4.050   0.956   2.632  0.3545 -0.6035  1.2935
 7669SOL    HW134640   3.980   0.972   2.695  0.6201  2.5019  0.7985
 7669SOL    HW234641   4.116   0.909   2.683 -0.3938 -1.7002  1.2509
 7670SOL     OW34642   3.357   2.217  15.498 -0.0679  0.3236 -0.5317
 7670SOL    HW134643   3.407   2.191  15.420  0.6349 -0.5337  0.2092
 7670SOL    HW234644   3.275   2.242  15.454 -0.8665  0.0689  0.8234
 7671SOL     OW34645   1.212   0.560   6.584 -0.1242 -0.6549 -0.5516
 7671SOL    HW134646   1.253   0.474   6.584  1.5164  0.1193  0.2998
 7671SOL    HW234647   1.241   0.591   6.670 -0.8244  0.6780 -0.7938
 7672SOL     OW34648   4.041   1.262   6.261 -0.2396  0.1522 -0.3867
 7672SOL    HW134649   4.014   1.319   6.189  0.7603  1.2514  0.1197
 7672SOL    HW234650   3.983   1.187   6.244 -1.0159  0.8237 -0.7079
 7673SOL     OW34651   4.338   2.157   5.048 -0.4814 -0.1245  0.1849
 7673SOL    HW134652   4.272   2.199   5.103 -0.4248 -1.2641  1.1153
 7673SOL    HW234653   4.422   2.172   5.091 -0.8327  0.0858  0.7979
 7674SOL     OW34654   1.996   0.491   1.054 -0.1895  0.1523  0.3719
 7674SOL    HW134655   1.985   0.585   1.066 -2.3035 -0.2345  1.3408
 7674SOL    HW234656   2.007   0.447   1.138 -1.7367  2.9879  2.0727
 7675SOL     OW34657   3.747   4.446   4.557 -0.1763  0.2814 -0.0347
 7675SOL    HW134658   3.833   4.437   4.596 -0.1118 -0.0652 -0.2483
 7675SOL    HW234659   3.747   4.384   4.483 -0.4643 -0.0539  0.2468
 7676SOL     OW34660   2.389   3.984  15.416 -0.0837 -0.3319  0.0187
 7676SOL    HW134661   2.351   4.071  15.429  0.3965 -0.2412  0.8718
 7676SOL    HW234662   2.325   3.928  15.460 -0.9249  0.3256 -0.3981
 7677SOL     OW34663   3.564   0.838   5.352 -0.6376  0.2763  0.0290
 7677SOL    HW134664   3.471   0.816   5.363 -1.1428  1.6002 -1.6622
 7677SOL    HW234665   3.582   0.813   5.262 -1.3377  1.4332 -0.4263
 7678SOL     OW34666   1.218   0.363   7.079  0.5325  0.2576 -0.0920
 7678SOL    HW134667   1.182   0.439   7.124 -2.0765 -0.3616 -1.1610
 7678SOL    HW234668   1.206   0.301   7.151  2.0811 -1.0180 -0.9184
 7679SOL     OW34669   4.179   2.940   7.988 -0.7020  0.4283  0.7361
 7679SOL    HW134670   4.170   2.870   7.924 -0.1724  1.7269 -0.7541
 7679SOL    HW234671   4.236   2.900   8.053 -0.5734  0.0199  0.3696
 7680SOL     OW34672   2.658   1.250  16.455 -0.0628  0.6517 -0.0218
 7680SOL    HW134673   2.594   1.264  16.384 -0.7857 -1.2100  0.2589
 7680SOL    HW234674   2.733   1.211  16.410  0.0402 -0.5102  1.1501
 7681SOL     OW34675   2.141   2.018   2.695  0.0480 -0.6356 -0.2146
 7681SOL    HW134676   2.222   2.068   2.705 -0.7700  1.3044 -3.4677
 7681SOL    HW234677   2.170   1.932   2.662  1.6014 -0.1695 -0.0534
 7682SOL     OW34678   1.824   4.697   9.095 -0.0260 -0.3985  0.3145
 7682SOL    HW134679   1.911   4.691   9.133  0.0274  2.2540  0.6119
 7682SOL    HW234680   1.767   4.715   9.170  0.8964  1.5519  0.5335
 7683SOL     OW34681   1.710   2.555   7.948 -0.4154 -0.3698  0.3591
 7683SOL    HW134682   1.738   2.647   7.948  0.2645 -0.5770  0.2561
 7683SOL    HW234683   1.758   2.524   8.025 -0.3940 -0.0788  0.4641
 7684SOL     OW34684   2.963   3.475   7.689 -0.5907  0.6512  0.6051
 7684SOL    HW134685   2.971   3.534   7.764  0.8971  0.1710  0.8406
 7684SOL    HW234686   3.022   3.408   7.724  1.0015  1.4467 -0.5211
 7685SOL     OW34687   3.534   2.206  14.620  0.5912  0.2675 -0.2672
 7685SOL    HW134688   3.498   2.294  14.614 -0.6462 -0.2852 -1.0651
 7685SOL    HW234689   3.485   2.169  14.547  0.1596  0.8959 -0.2949
 7686SOL     OW34690   1.317   0.420  11.610 -0.4683  0.2053 -0.4657
 7686SOL    HW134691   1.408   0.449  11.608  0.4940 -2.6732  3.0092
 7686SOL    HW234692   1.318   0.374  11.526 -0.7134 -0.1725 -0.2624
 7687SOL     OW34693   1.087   0.966   7.725  0.2346 -0.0185  0.2472
 7687SOL    HW134694   1.038   0.898   7.679 -1.4205  1.9005 -0.8273
 7687SOL    HW234695   1.148   0.906   7.767  0.5639  0.8096  0.9627
 7688SOL     OW34696   0.280   1.557   6.753  0.0838 -0.1339  0.4557
 7688SOL    HW134697   0.300   1.636   6.804 -1.4253 -0.0890  0.9872
 7688SOL    HW234698   0.363   1.512   6.771  0.3919  0.0657 -0.4666
 7689SOL     OW34699   3.157   0.392  13.376  0.3847  0.1121 -0.2512
 7689SOL    HW134700   3.128   0.339  13.451 -0.9002  0.2015 -0.6925
 7689SOL    HW234701   3.249   0.409  13.397  0.3456 -1.6819  1.4526
 7690SOL     OW34702   4.727   2.740   9.019  0.5188 -0.6044 -0.0344
 7690SOL    HW134703   0.064   2.800   9.033 -1.0124  1.2177  0.2786
 7690SOL    HW234704   4.705   2.715   9.109  0.7268 -2.6451 -0.5513
 7691SOL     OW34705   1.549   2.453   8.860  0.1712  0.1673  0.0738
 7691SOL    HW134706   1.482   2.474   8.795  1.0634  0.4747 -0.7507
 7691SOL    HW234707   1.607   2.395   8.811  0.1282  0.8587 -0.7957
 7692SOL     OW34708   3.437   2.349   4.504 -0.7274  0.3475  0.1919
 7692SOL    HW134709   3.445   2.344   4.600  1.5329  0.2614  0.0008
 7692SOL    HW234710   3.528   2.370   4.482 -0.7508 -0.6082 -0.8011
 7693SOL     OW34711   1.370   1.068   8.615  0.1599 -0.4487 -0.2308
 7693SOL    HW134712   1.344   0.989   8.662  0.5124 -0.4184  0.0126
 7693SOL    HW234713   1.442   1.033   8.562 -1.2285 -2.1499 -0.9898
 7694SOL     OW34714   0.398   3.913   2.274  0.4557  0.3787  0.3787
 7694SOL    HW134715   0.404   3.819   2.259 -2.6171  0.0302  1.3280
 7694SOL    HW234716   0.409   3.951   2.187  0.9888  1.7384  1.0339
 7695SOL     OW34717   0.357   2.970   8.741  0.0250 -0.0245 -0.3474
 7695SOL    HW134718   0.417   3.007   8.676 -0.2678  1.3446  0.1622
 7695SOL    HW234719   0.370   2.875   8.738 -1.6802 -0.2476 -0.4837
 7696SOL     OW34720   2.625   3.436  15.948  0.5158  0.0758  0.0937
 7696SOL    HW134721   2.567   3.433  15.872 -1.0871  0.2755  1.3207
 7696SOL    HW234722   2.622   3.529  15.971 -1.3546  0.3701 -1.3441
 7697SOL     OW34723   1.000   4.617   1.163  0.4783 -0.0247  0.8044
 7697SOL    HW134724   0.987   4.711   1.177  2.7413  0.2080  1.3320
 7697SOL    HW234725   0.991   4.590   1.255  1.1736  0.5230  1.0327
 7698SOL     OW34726   2.914   0.943   1.872 -0.0540 -0.4242 -0.5226
 7698SOL    HW134727   2.882   0.890   1.945  0.3974 -1.5344 -1.1324
 7698SOL    HW234728   2.867   0.909   1.796  0.9382 -2.4476 -0.2319
 7699SOL     OW34729   2.665   2.556   9.634  0.0066  0.0856  0.1047
 7699SOL    HW134730   2.676   2.551   9.539 -2.3907 -1.9021 -0.0591
 7699SOL    HW234731   2.637   2.646   9.650  0.6610  0.1024  1.1954
 7700SOL     OW34732   1.350   3.234  10.613 -0.2231 -0.4326  0.1761
 7700SOL    HW134733   1.329   3.259  10.524 -1.7491 -0.7731  0.4449
 7700SOL    HW234734   1.268   3.238  10.663 -0.7202  1.0003 -0.7513
 7701SOL     OW34735   1.173   0.695   9.287  0.6310 -0.1064 -0.2669
 7701SOL    HW134736   1.253   0.698   9.235  0.8736 -1.0623  0.0568
 7701SOL    HW234737   1.178   0.615   9.339 -1.3298  0.3544  0.6469
 7702SOL     OW34738   3.258   1.864   1.214 -0.1448  0.4822 -0.5461
 7702SOL    HW134739   3.212   1.780   1.208 -0.5336  0.6167  0.6429
 7702SOL    HW234740   3.303   1.856   1.298  1.6269 -3.9806 -1.9311
 7703SOL     OW34741   4.405   3.771   5.711  0.4064  0.0377 -0.7148
 7703SOL    HW134742   4.386   3.796   5.621  1.2924 -0.4817 -1.0523
 7703SOL    HW234743   4.483   3.715   5.713  0.1921 -0.2685 -0.8668
 7704SOL     OW34744   0.024   4.257  16.321  1.1887  0.6306 -0.4288
 7704SOL    HW134745   4.696   4.213  16.267  2.2055 -0.1422 -1.0350
 7704SOL    HW234746   0.016   4.208  16.403  2.7012  1.0991  0.0007
 7705SOL     OW34747   2.893   0.212   2.643 -0.7867  0.0652  0.4956
 7705SOL    HW134748   2.882   0.257   2.559  1.2576 -0.4663 -0.0683
 7705SOL    HW234749   2.893   0.121   2.611 -0.7634  1.0573 -2.3858
 7706SOL     OW34750   4.716   0.894  17.398 -0.5652  0.0174  0.3888
 7706SOL    HW134751   4.710   0.923  17.489 -0.4041 -0.6794  0.6135
 7706SOL    HW234752   4.716   0.799  17.405  0.1100  0.1335  1.7947
 7707SOL     OW34753   1.425   4.178  14.081  0.3440  0.0922  0.5193
 7707SOL    HW134754   1.406   4.095  14.123  1.7851 -0.0093  0.9781
 7707SOL    HW234755   1.519   4.181  14.099  0.1363 -0.9604  1.7402
 7708SOL     OW34756   3.503   2.264  11.669 -0.6491 -0.3056 -0.5842
 7708SOL    HW134757   3.485   2.347  11.625  0.2320  1.0967  1.7224
 7708SOL    HW234758   3.472   2.207  11.599 -1.1422 -0.4576 -0.2484
 7709SOL     OW34759   4.000   1.827   2.194 -0.5366 -0.1862 -0.2583
 7709SOL    HW134760   4.022   1.752   2.249  0.4878  0.6239  0.4499
 7709SOL    HW234761   3.904   1.826   2.192 -0.5778  0.2843  1.3025
 7710SOL     OW34762   4.638   1.539   5.434  0.1101  0.2762 -0.6310
 7710SOL    HW134763   4.716   1.491   5.463 -1.4985 -0.0367  3.2073
 7710SOL    HW234764   4.625   1.607   5.499  1.0064 -0.3049  0.1718
 7711SOL     OW34765   1.989   1.876  10.129 -0.3017  0.2403  0.6153
 7711SOL    HW134766   2.057   1.888  10.194  0.2659  2.0000 -0.3003
 7711SOL    HW234767   1.978   1.961  10.085  0.8194  1.3228  2.4394
 7712SOL     OW34768   3.372   0.834  15.584 -0.3662 -0.3960 -0.5658
 7712SOL    HW134769   3.390   0.762  15.523 -1.5192 -1.2769  0.1286
 7712SOL    HW234770   3.459   0.852  15.619 -1.0331 -0.4491  1.0843
 7713SOL     OW34771   0.428   4.252  14.979  0.3182 -0.1941  0.3173
 7713SOL    HW134772   0.492   4.282  15.044  1.1616  0.0379 -0.6055
 7713SOL    HW234773   0.469   4.287  14.899  0.4188  1.7614  1.2350
 7714SOL     OW34774   3.900   4.548  12.641  0.3151 -0.2761 -0.0941
 7714SOL    HW134775   3.896   4.453  12.630 -0.5592 -0.4173  1.3468
 7714SOL    HW234776   3.927   4.551  12.733  0.2439  2.0037 -0.1438
 7715SOL     OW34777   2.567   0.333   3.906 -0.3501  0.0477  0.1071
 7715SOL    HW134778   2.536   0.414   3.865 -0.4030  0.4022  0.8410
 7715SOL    HW234779   2.522   0.341   3.990 -1.3311  1.9241 -0.6069
 7716SOL     OW34780   1.521   3.986   4.920 -0.0429 -0.0194 -0.4522
 7716SOL    HW134781   1.500   4.018   4.832  0.6200  0.5822 -0.3910
 7716SOL    HW234782   1.510   3.892   4.908 -1.1702 -0.0598  0.9413
 7717SOL     OW34783   3.626   3.780  17.623 -0.1913 -0.2136 -0.3574
 7717SOL    HW134784   3.636   3.792  17.528  1.0888 -1.5591 -0.3983
 7717SOL    HW234785   3.718   3.765  17.645 -0.2054  0.0859 -0.0942
 7718SOL     OW34786   0.194   3.466   3.896  0.0715 -0.2162 -0.1328
 7718SOL    HW134787   0.211   3.550   3.853  1.6099  0.2436  1.3591
 7718SOL    HW234788   0.276   3.420   3.878  0.4622 -0.7417  2.9126
 7719SOL     OW34789   3.882   4.033   6.503  0.7488 -0.4775  0.0074
 7719SOL    HW134790   3.835   4.007   6.424 -0.5111 -1.8332  1.1880
 7719SOL    HW234791   3.826   3.992   6.569 -0.6424 -1.1159 -1.5984
 7720SOL     OW34792   3.019   1.769   4.523  0.4118 -0.3748  0.3972
 7720SOL    HW134793   2.990   1.796   4.610 -0.3013 -3.3812  1.1010
 7720SOL    HW234794   3.000   1.675   4.530  0.8024 -0.5475 -1.0124
 7721SOL     OW34795   2.825   4.025   4.852 -0.3311  0.0896  0.1553
 7721SOL    HW134796   2.802   3.940   4.816  0.5007 -0.2029  0.2921
 7721SOL    HW234797   2.788   4.027   4.940  1.6619 -1.8167  1.0439
 7722SOL     OW34798   4.714   1.503   9.164  0.4880  0.1596 -0.2311
 7722SOL    HW134799   4.654   1.432   9.186  1.5773 -0.2260  1.5173
 7722SOL    HW234800   0.008   1.506   9.254 -0.1552  0.4987 -0.0135
 7723SOL     OW34801   0.141   2.332   2.793 -0.4021 -0.0198  0.2746
 7723SOL    HW134802   0.212   2.336   2.858 -0.6677 -0.1854  0.5744
 7723SOL    HW234803   0.148   2.417   2.750 -1.0901  0.7067  1.5696
 7724SOL     OW34804   3.064   0.414   8.929 -0.3951 -0.5203 -0.1286
 7724SOL    HW134805   3.117   0.450   9.001 -0.3998 -1.8924  0.5716
 7724SOL    HW234806   2.977   0.453   8.934 -0.3086 -0.5667  1.8568
 7725SOL     OW34807   3.820   4.368  11.031 -0.5994  0.1889 -0.4838
 7725SOL    HW134808   3.821   4.272  11.025 -1.2883  0.1853 -0.5950
 7725SOL    HW234809   3.895   4.387  11.087  0.1800 -1.8345 -0.8262
 7726SOL     OW34810   4.705   3.085   6.640 -0.0647 -0.2764  0.5555
 7726SOL    HW134811   0.063   3.077   6.637  0.0517  0.6914  1.6144
 7726SOL    HW234812   4.688   3.010   6.583 -0.4116 -0.9010  1.4754
 7727SOL     OW34813   1.525   3.410  13.850 -0.2786  0.0119  0.1586
 7727SOL    HW134814   1.473   3.486  13.823  0.8700  1.0559  0.8532
 7727SOL    HW234815   1.607   3.450  13.820 -0.3103 -0.7161 -0.8636
 7728SOL     OW34816   3.544   2.783   6.422 -0.2257 -0.5667  0.0334
 7728SOL    HW134817   3.538   2.835   6.342 -0.8095 -0.5171  0.1033
 7728SOL    HW234818   3.600   2.710   6.399  1.0211  0.4330 -0.0847
 7729SOL     OW34819   2.547   1.015   8.911  1.0561 -0.0551 -0.1750
 7729SOL    HW134820   2.551   1.056   8.825 -1.4962  1.1541  0.2971
 7729SOL    HW234821   2.638   0.985   8.907  1.1211  0.1905 -0.5309
 7730SOL     OW34822   1.705   2.857   2.856  0.6709 -0.0171 -0.0898
 7730SOL    HW134823   1.640   2.901   2.910 -0.9252 -1.0782 -1.1502
 7730SOL    HW234824   1.650   2.788   2.819 -0.7449  0.8245  0.4517
 7731SOL     OW34825   3.691   3.846   7.595 -0.3059  0.0213 -0.5091
 7731SOL    HW134826   3.641   3.886   7.524  1.0104  0.4634 -1.1871
 7731SOL    HW234827   3.777   3.881   7.573  0.1263 -0.5942  0.2041
 7732SOL     OW34828   1.851   2.260  12.646 -0.0589  0.4260  0.2382
 7732SOL    HW134829   1.857   2.219  12.560 -3.6712 -2.3269  1.3190
 7732SOL    HW234830   1.885   2.186  12.696  1.3488 -0.0288 -1.3619
 7733SOL     OW34831   3.682   1.681  16.273  0.0990  0.0261 -0.1362
 7733SOL    HW134832   3.772   1.712  16.271  0.2939 -0.5244  0.0148
 7733SOL    HW234833   3.682   1.606  16.214  1.4006 -1.0768  1.2724
 7734SOL     OW34834   1.053   3.421  10.987  0.4230  0.3059 -0.2551
 7734SOL    HW134835   1.027   3.359  11.055 -0.9728 -0.2968 -1.3238
 7734SOL    HW234836   1.101   3.481  11.044  1.4804 -0.0506 -0.7897
 7735SOL     OW34837   4.061   3.832   6.519 -0.0935  0.6003  0.2603
 7735SOL    HW134838   4.010   3.913   6.517  0.4953  0.9979  1.3833
 7735SOL    HW234839   4.072   3.815   6.613 -1.3889 -1.3407  0.0511
 7736SOL     OW34840   2.497   0.250   6.321  0.0664 -0.2851  0.0247
 7736SOL    HW134841   2.467   0.238   6.411 -0.5224 -1.1155 -0.2843
 7736SOL    HW234842   2.455   0.335   6.311  0.2604 -0.0512  1.1871
 7737SOL     OW34843   2.036   4.686  14.930 -0.3670  0.2046 -0.4545
 7737SOL    HW134844   2.078   0.033  14.941  0.4952 -0.1961 -0.6535
 7737SOL    HW234845   1.961   4.698  14.988 -0.6702 -1.2318 -0.5493
 7738SOL     OW34846   0.648   3.447   5.056  0.1426 -0.3457 -0.6631
 7738SOL    HW134847   0.718   3.503   5.021 -0.6344  1.8509  1.3801
 7738SOL    HW234848   0.706   3.371   5.064 -0.0692 -0.5951 -1.5346
 7739SOL     OW34849   1.165   1.875  14.725  0.1923 -0.4438 -0.1965
 7739SOL    HW134850   1.190   1.931  14.651  1.0208 -1.7884 -0.9386
 7739SOL    HW234851   1.147   1.795  14.677 -4.0848 -1.4358  3.0900
 7740SOL     OW34852   1.234   3.164  13.715 -0.5362  0.3047 -0.0792
 7740SOL    HW134853   1.140   3.178  13.728 -1.0389 -2.1891 -1.0692
 7740SOL    HW234854   1.249   3.228  13.646 -1.7849  2.5601  1.7573
 7741SOL     OW34855   2.058   3.341   1.428  0.1992 -0.2662 -0.0162
 7741SOL    HW134856   1.981   3.307   1.474  0.6125 -1.4851 -0.2242
 7741SOL    HW234857   2.095   3.259   1.398 -1.4223 -0.1994 -2.2068
 7742SOL     OW34858   2.800   0.540   8.846  0.2349  0.2426 -0.1793
 7742SOL    HW134859   2.773   0.612   8.902 -3.8994 -1.8485  0.5042
 7742SOL    HW234860   2.831   0.584   8.767 -0.1833  0.7623 -0.0526
 7743SOL     OW34861   4.284   4.351   4.183  0.4935 -1.0277 -0.3012
 7743SOL    HW134862   4.322   4.275   4.138  0.2754 -0.5673 -1.2768
 7743SOL    HW234863   4.282   4.419   4.115  1.1189 -1.3450 -0.6360
 7744SOL     OW34864   0.160   0.519   3.376 -0.7518  0.0193 -0.0825
 7744SOL    HW134865   0.100   0.551   3.308  0.0268 -1.0354 -1.2816
 7744SOL    HW234866   0.247   0.540   3.342  0.3633 -2.3833  1.2841
 7745SOL     OW34867   0.730   0.498   3.047 -0.6190  0.5810  0.4418
 7745SOL    HW134868   0.718   0.568   3.112 -0.8431  0.6557  0.3191
 7745SOL    HW234869   0.671   0.434   3.089 -1.9360  0.4581 -1.5977
 7746SOL     OW34870   3.937   4.166   3.969  0.3640 -0.1638  0.4687
 7746SOL    HW134871   4.015   4.215   3.997  0.7573 -0.1008 -0.7738
 7746SOL    HW234872   3.979   4.083   3.948 -1.7659 -0.9957 -0.4673
 7747SOL     OW34873   1.710   4.058   1.193 -0.8472 -0.2921 -0.3507
 7747SOL    HW134874   1.771   3.990   1.223  1.1070  1.7491  0.2697
 7747SOL    HW234875   1.639   4.003   1.160  1.2348 -1.1846 -3.3180
 7748SOL     OW34876   2.408   0.960  16.335  0.2149  0.8006  0.9667
 7748SOL    HW134877   2.345   0.942  16.265  1.6114 -2.0129  0.4612
 7748SOL    HW234878   2.420   1.054  16.318  1.5076  0.3125 -0.8293
 7749SOL     OW34879   3.913   1.425   5.869 -0.4891 -0.7794 -0.0011
 7749SOL    HW134880   3.853   1.439   5.942 -0.4330  1.3054 -0.3565
 7749SOL    HW234881   3.942   1.334   5.874 -1.1433 -1.0265 -0.6987
 7750SOL     OW34882   3.790   4.162   3.451  0.3868 -0.2527 -0.7372
 7750SOL    HW134883   3.743   4.239   3.419 -0.2324 -0.3463 -0.0604
 7750SOL    HW234884   3.830   4.198   3.530 -1.3225 -2.6378  1.1874
 7751SOL     OW34885   0.141   2.182   6.071 -0.5534  0.0980  0.2498
 7751SOL    HW134886   0.197   2.168   5.995  1.5230  0.4788  1.7064
 7751SOL    HW234887   0.055   2.168   6.031  0.3240  1.3327 -2.0751
 7752SOL     OW34888   0.468   3.428  14.995 -0.2058  0.3061  0.1900
 7752SOL    HW134889   0.406   3.492  14.960 -2.1451 -1.5244  0.3220
 7752SOL    HW234890   0.512   3.478  15.064  1.0008 -1.7236  0.8871
 7753SOL     OW34891   1.443   3.962  12.688 -0.0088  1.1613  0.5034
 7753SOL    HW134892   1.436   3.882  12.636  1.1781 -0.2481  2.4571
 7753SOL    HW234893   1.537   3.979  12.688  0.1135  0.4834 -0.3274
 7754SOL     OW34894   0.968   4.613  12.873  0.1362 -0.8424 -0.3387
 7754SOL    HW134895   0.886   4.565  12.889 -1.2814  2.1632  1.3636
 7754SOL    HW234896   1.023   4.569  12.937  1.9602 -0.2094 -1.4789
 7755SOL     OW34897   3.653   2.904   4.795  0.5402 -0.3775 -0.3719
 7755SOL    HW134898   3.595   2.830   4.810  1.4559 -0.8975  0.6006
 7755SOL    HW234899   3.597   2.979   4.773  0.4916 -0.9024 -2.0458
 7756SOL     OW34900   1.794   0.521   4.406  0.2092  0.5404  0.1274
 7756SOL    HW134901   1.716   0.548   4.455  0.8353  1.3554  0.6937
 7756SOL    HW234902   1.867   0.529   4.468  2.4505  0.3739 -2.4952
 7757SOL     OW34903   0.910   2.014   6.232  0.2685 -0.3160 -0.4650
 7757SOL    HW134904   0.951   2.097   6.258 -2.1046  0.2868  1.4206
 7757SOL    HW234905   0.858   1.979   6.305 -3.0144 -1.1316 -3.1974
 7758SOL     OW34906   0.423   3.970  12.127 -0.2003 -0.5034  0.0787
 7758SOL    HW134907   0.331   3.951  12.109 -0.1339 -1.4353  0.7054
 7758SOL    HW234908   0.449   3.884  12.161 -0.3737 -0.2709  0.8074
 7759SOL     OW34909   4.606   2.085   4.560 -0.5852  0.2288 -0.2983
 7759SOL    HW134910   4.522   2.072   4.604 -0.0161 -1.8021  0.2161
 7759SOL    HW234911   4.616   1.997   4.523 -0.8930  0.7810 -1.7021
 7760SOL     OW34912   1.800   0.710  13.525 -0.2166 -0.2763  0.0991
 7760SOL    HW134913   1.824   0.771  13.456  1.8433  1.5773  2.4200
 7760SOL    HW234914   1.866   0.640  13.524  0.9730  0.9047 -2.1592
 7761SOL     OW34915   1.185   3.862   2.098 -0.3175 -0.2503  0.4931
 7761SOL    HW134916   1.140   3.946   2.088  2.2032  1.0976  0.5545
 7761SOL    HW234917   1.144   3.813   2.026 -0.7465 -1.5866  1.6401
 7762SOL     OW34918   3.618   2.490  10.674 -0.4786 -0.1823  0.2148
 7762SOL    HW134919   3.565   2.510  10.751 -2.6269  1.1057 -1.5937
 7762SOL    HW234920   3.655   2.409  10.710 -1.4269 -0.4060  0.7055
 7763SOL     OW34921   1.934   2.599   9.843 -0.6824 -0.4679 -0.0985
 7763SOL    HW134922   1.850   2.572   9.805 -0.3378  0.4559 -1.5279
 7763SOL    HW234923   1.952   2.523   9.897 -0.7113 -0.1860  0.3067
 7764SOL     OW34924   3.584   4.010   8.003  1.2622  0.4539  0.1131
 7764SOL    HW134925   3.566   3.921   8.034 -2.1117  0.5841 -1.4559
 7764SOL    HW234926   3.546   4.052   8.080 -1.3099  0.2471 -1.0614
 7765SOL     OW34927   1.195   0.071   0.648  0.0682  0.0204 -0.5578
 7765SOL    HW134928   1.189   0.113   0.563  0.1393  2.6939  0.7677
 7765SOL    HW234929   1.140   4.730   0.650 -0.7555  0.6001 -0.6888
 7766SOL     OW34930   2.483   4.176   0.753  0.4010 -0.1922 -0.0452
 7766SOL    HW134931   2.471   4.137   0.839  3.2024 -0.9633 -0.0073
 7766SOL    HW234932   2.486   4.271   0.768 -0.7730 -0.1650  0.0030
 7767SOL     OW34933   2.407   1.032   2.053 -0.0141  0.0014 -0.0380
 7767SOL    HW134934   2.412   1.110   1.999 -1.7153 -1.2405 -1.9628
 7767SOL    HW234935   2.327   1.035   2.107  0.3008  1.3481  0.3601
 7768SOL     OW34936   0.493   3.584  16.278  0.6104 -0.3231  0.3445
 7768SOL    HW134937   0.515   3.594  16.371 -0.8894 -0.1124  0.6740
 7768SOL    HW234938   0.569   3.629  16.241 -0.5506  0.4365 -1.1312
 7769SOL     OW34939   3.424   0.943   2.321 -0.8592  0.2564  0.3433
 7769SOL    HW134940   3.354   0.996   2.284 -1.4191  0.0070  1.0605
 7769SOL    HW234941   3.375   0.878   2.371 -0.6828 -0.0354  0.1323
 7770SOL     OW34942   2.077   4.601   6.882  0.1846  0.4132  0.6680
 7770SOL    HW134943   1.993   4.560   6.902 -0.6798  1.3571 -0.9982
 7770SOL    HW234944   2.086   4.674   6.944  2.4741  1.3443 -0.7830
 7771SOL     OW34945   0.848   3.208   2.436 -0.7046 -0.0928  0.1065
 7771SOL    HW134946   0.920   3.235   2.380  0.2044 -2.6693  0.0639
 7771SOL    HW234947   0.847   3.282   2.497  0.1671  0.6207 -0.7530
 7772SOL     OW34948   0.985   0.768  11.257 -0.7105  0.3695  0.6156
 7772SOL    HW134949   0.976   0.858  11.289 -1.1492  1.4436 -2.5147
 7772SOL    HW234950   1.059   0.745  11.313 -0.9586  0.0139  0.7971
 7773SOL     OW34951   4.405   1.004   5.235  0.2872 -0.3624  0.5527
 7773SOL    HW134952   4.498   1.024   5.240  0.1168  1.0852 -1.9521
 7773SOL    HW234953   4.388   0.968   5.148  0.3288  1.3657 -0.1690
 7774SOL     OW34954   3.682   4.119   3.192 -0.4425 -0.7509 -0.6888
 7774SOL    HW134955   3.712   4.175   3.120  1.8375 -1.2167 -0.1020
 7774SOL    HW234956   3.758   4.061   3.203 -0.3962 -0.1721  1.9185
 7775SOL     OW34957   1.593   2.142   3.111 -0.1021  0.7168 -0.4806
 7775SOL    HW134958   1.512   2.141   3.161 -0.3437  2.3721 -0.8389
 7775SOL    HW234959   1.600   2.056   3.070  0.1554  0.7333 -0.4717
 7776SOL     OW34960   4.369   3.337  16.830 -0.2345 -0.4397  0.2065
 7776SOL    HW134961   4.443   3.276  16.832 -0.8897 -1.2662 -0.5945
 7776SOL    HW234962   4.407   3.424  16.816  1.4087 -1.5236 -2.0951
 7777SOL     OW34963   3.283   1.307   0.539 -0.0965  0.2967 -0.2867
 7777SOL    HW134964   3.260   1.247   0.469 -0.8385  0.6232 -0.3170
 7777SOL    HW234965   3.343   1.370   0.499  0.7609  0.0059  0.5329
 7778SOL     OW34966   4.226   4.670  10.318  0.7015 -0.5685  0.2238
 7778SOL    HW134967   4.177   4.600  10.360 -0.2133 -0.6162 -0.9356
 7778SOL    HW234968   4.249   4.728  10.391  2.0513 -2.7020  1.4926
 7779SOL     OW34969   1.675   0.280  10.938  0.1594 -0.8805  0.3966
 7779SOL    HW134970   1.749   0.314  10.888 -0.7326  2.2987  1.2099
 7779SOL    HW234971   1.627   0.240  10.866 -0.8731  2.2653 -0.6916
 7780SOL     OW34972   3.017   3.247  13.563 -1.2465 -0.3115 -0.2616
 7780SOL    HW134973   2.994   3.171  13.617  0.7179 -0.9738 -0.3776
 7780SOL    HW234974   3.087   3.225  13.502 -0.1174 -0.7755  1.2214
 7781SOL     OW34975   0.745   0.951   2.705 -0.1187  0.3515  0.2728
 7781SOL    HW134976   0.753   0.867   2.750 -0.5001 -1.5649 -3.2355
 7781SOL    HW234977   0.654   0.973   2.726 -0.0048  0.3527  0.7496
 7782SOL     OW34978   2.693   0.793   2.786 -0.1469 -0.5201 -0.0990
 7782SOL    HW134979   2.653   0.749   2.711  0.8000 -0.4504 -0.6414
 7782SOL    HW234980   2.614   0.839   2.817 -0.0340  0.6897 -1.6332
 7783SOL     OW34981   0.267   4.081   7.431  0.2974  1.1272 -0.6206
 7783SOL    HW134982   0.303   4.147   7.371  2.5120 -0.2867 -0.8473
 7783SOL    HW234983   0.223   4.140   7.491  0.7107  2.4948 -1.6585
 7784SOL     OW34984   1.811   4.065   6.272  0.1965  0.1472  0.3608
 7784SOL    HW134985   1.731   4.013   6.270 -0.2984  0.9732 -1.0878
 7784SOL    HW234986   1.822   4.052   6.366  2.2211 -0.4252  0.0482
 7785SOL     OW34987   4.306   3.625   7.659  0.8105  0.2450 -0.0597
 7785SOL    HW134988   4.314   3.578   7.576 -0.8029  0.0025 -0.0802
 7785SOL    HW234989   4.213   3.608   7.679  0.9605 -1.3178 -0.6427
 7786SOL     OW34990   0.715   3.674   2.279 -0.3287 -0.3650  0.0319
 7786SOL    HW134991   0.666   3.592   2.291  1.5442 -1.4570  0.2197
 7786SOL    HW234992   0.799   3.654   2.237  0.2711 -0.3052  1.2095
 7787SOL     OW34993   2.841   4.577   2.812 -0.3706 -0.5853 -0.2265
 7787SOL    HW134994   2.839   4.642   2.741 -1.0298  1.8078  1.9650
 7787SOL    HW234995   2.934   4.560   2.820 -0.4066 -0.7483 -0.1460
 7788SOL     OW34996   2.759   0.495  16.755  0.0747 -0.3584 -0.5156
 7788SOL    HW134997   2.701   0.438  16.806  0.8364 -0.3128  0.3874
 7788SOL    HW234998   2.768   0.577  16.803  1.5456 -0.5850 -0.4180
 7789SOL     OW34999   2.645   4.212   8.433  0.4572  0.1980 -0.9734
 7789SOL    HW135000   2.573   4.271   8.456 -1.1109 -1.9560 -0.3962
 7789SOL    HW235001   2.714   4.247   8.491 -1.7136 -0.0876  1.7744
 7790SOL     OW35002   3.829   2.775   3.827  0.4213  0.2089  0.3369
 7790SOL    HW135003   3.844   2.832   3.751 -2.9464  0.8806  0.1821
 7790SOL    HW235004   3.808   2.840   3.894  0.2599  0.0514  0.4397
 7791SOL     OW35005   4.662   4.276   1.695  0.2315 -0.1430  0.0225
 7791SOL    HW135006   4.580   4.269   1.743 -0.2253 -1.3568 -0.9341
 7791SOL    HW235007   4.636   4.277   1.603  0.1192  0.1530  0.0572
 7792SOL     OW35008   2.669   3.797  13.799 -0.2235  0.1230 -0.1504
 7792SOL    HW135009   2.690   3.883  13.836 -1.5824 -0.1634  1.2827
 7792SOL    HW235010   2.724   3.793  13.721  2.1089  1.1584  1.4539
 7793SOL     OW35011   3.207   4.180   1.412  0.1958 -0.2494 -0.2490
 7793SOL    HW135012   3.114   4.204   1.403 -0.3404 -2.2291  0.1229
 7793SOL    HW235013   3.226   4.259   1.463  0.1234 -1.0807  1.0564
 7794SOL     OW35014   2.696   4.260   1.761 -0.7674 -0.0617 -0.4616
 7794SOL    HW135015   2.703   4.353   1.781 -0.0182 -0.3568  0.6586
 7794SOL    HW235016   2.771   4.224   1.807 -0.5273 -1.3157 -1.8326
 7795SOL     OW35017   4.656   0.560   2.438 -0.0971 -0.2921  0.1547
 7795SOL    HW135018   4.633   0.541   2.529 -2.3327  1.3495 -0.0789
 7795SOL    HW235019   4.591   0.625   2.413 -1.4017 -1.2971  0.9738
 7796SOL     OW35020   0.100   1.809  16.910  0.1361 -0.4571  0.1130
 7796SOL    HW135021   0.146   1.891  16.893 -3.5576  1.2112 -1.6599
 7796SOL    HW235022   0.149   1.801  16.992 -0.8289 -0.0909  0.7256
 7797SOL     OW35023   1.700   1.960   5.221  0.1247 -0.2946 -0.4409
 7797SOL    HW135024   1.788   1.957   5.185 -0.7878  1.7158 -2.8163
 7797SOL    HW235025   1.717   1.938   5.312 -2.7394 -3.5520 -0.6462
 7798SOL     OW35026   1.465   2.337   4.293  0.1908 -0.2110 -0.0444
 7798SOL    HW135027   1.381   2.300   4.265  0.0482 -1.4968  2.1058
 7798SOL    HW235028   1.451   2.430   4.277 -1.9982 -0.5654 -0.2450
 7799SOL     OW35029   0.031   1.480   1.481  0.2490  0.1679 -0.1758
 7799SOL    HW135030   0.040   1.461   1.388  1.4406 -0.0424 -0.0178
 7799SOL    HW235031   0.032   1.574   1.467  0.8218  0.4085  1.4710
 7800SOL     OW35032   0.189   2.529   9.856  0.4082  0.7237 -0.0501
 7800SOL    HW135033   0.149   2.443   9.844  1.4004  0.1984  0.3511
 7800SOL    HW235034   0.213   2.525   9.949  0.4367  1.5314 -0.0230
 7801SOL     OW35035   2.172   3.158  13.847 -0.7480 -0.6720  0.1263
 7801SOL    HW135036   2.247   3.100  13.859  0.4680  0.7623 -0.5186
 7801SOL    HW235037   2.210   3.231  13.896  1.0102 -2.7604  1.8705
 7802SOL     OW35038   3.874   3.638   5.014 -0.4900 -0.4658  0.3266
 7802SOL    HW135039   3.787   3.612   5.046 -0.3795 -0.4612  0.6293
 7802SOL    HW235040   3.869   3.661   4.921 -0.2187  0.1985  0.4729
 7803SOL     OW35041   2.449   4.456   7.171 -0.1015 -0.1327  0.1068
 7803SOL    HW135042   2.396   4.423   7.098 -0.8860  1.7260 -0.1789
 7803SOL    HW235043   2.392   4.464   7.247  2.2246  1.2681  1.6910
 7804SOL     OW35044   4.264   4.684   9.627 -0.0684 -0.2013  0.3149
 7804SOL    HW135045   4.174   4.689   9.659  0.2661 -1.9273  1.5285
 7804SOL    HW235046   4.255   4.607   9.569 -1.8083  1.2798 -1.3902
 7805SOL     OW35047   2.472   3.685   6.573  0.0679 -0.0230  0.2450
 7805SOL    HW135048   2.487   3.635   6.492  0.9665 -0.5658  0.7460
 7805SOL    HW235049   2.522   3.766   6.563  1.5352 -0.9291  0.2249
 7806SOL     OW35050   2.849   0.135   3.128  0.0466  0.1229  0.2650
 7806SOL    HW135051   2.872   0.159   3.038  0.1639  4.0476  1.3562
 7806SOL    HW235052   2.814   0.216   3.165 -0.3740  0.9291 -1.8836
 7807SOL     OW35053   0.013   3.705   4.257  0.5219 -0.7409  0.0468
 7807SOL    HW135054   0.062   3.787   4.264 -1.1083  0.1037  1.3956
 7807SOL    HW235055   4.667   3.719   4.301 -0.2615 -1.1477 -1.3127
 7808SOL     OW35056   4.097   1.187   2.503  0.0857  0.3335 -0.2170
 7808SOL    HW135057   4.050   1.182   2.420  1.3890 -0.8505 -0.8672
 7808SOL    HW235058   4.049   1.118   2.550 -1.0397  1.8231  0.8170
 7809SOL     OW35059   1.372   2.430   6.962  0.4758 -0.2717  0.0240
 7809SOL    HW135060   1.404   2.341   6.969 -1.5087 -1.2706 -3.5981
 7809SOL    HW235061   1.278   2.409   6.960  0.6760 -0.8468 -2.6971
 7810SOL     OW35062   2.874   3.505   0.422  0.3045  0.0033 -0.2539
 7810SOL    HW135063   2.837   3.569   0.483  1.0312 -0.4653  0.6776
 7810SOL    HW235064   2.914   3.564   0.358  1.7471 -0.0523  0.6083
 7811SOL     OW35065   0.047   2.322   3.812  0.0432  0.0264  0.2882
 7811SOL    HW135066   4.691   2.336   3.824  0.0187  2.3509 -2.6975
 7811SOL    HW235067   0.083   2.390   3.868  3.3519 -0.9438 -0.6580
 7812SOL     OW35068   2.931   0.419   2.421 -0.2933  0.3048  0.1740
 7812SOL    HW135069   2.876   0.407   2.344 -0.9497 -0.8844  0.8221
 7812SOL    HW235070   2.871   0.471   2.475 -1.8691 -1.6041  0.2607
 7813SOL     OW35071   1.551   4.474   2.056  0.2048  0.0081  0.6352
 7813SOL    HW135072   1.644   4.490   2.069  0.6701 -0.8965 -1.4644
 7813SOL    HW235073   1.533   4.530   1.980  0.0186  1.2246  1.5799
 7814SOL     OW35074   3.993   4.077   1.461  0.3154 -0.4648 -0.0618
 7814SOL    HW135075   4.018   4.072   1.368 -0.3528 -1.4324 -0.1915
 7814SOL    HW235076   3.903   4.046   1.455 -0.8040  2.5809  1.4251
 7815SOL     OW35077   1.855   2.904   6.532  0.0788 -0.1265 -0.0151
 7815SOL    HW135078   1.803   2.974   6.572  0.2606 -0.6037  1.0461
 7815SOL    HW235079   1.796   2.845   6.484  0.4758  0.3536 -1.0877
 7816SOL     OW35080   2.263   1.309   6.165  0.1029 -0.3576 -0.1168
 7816SOL    HW135081   2.180   1.314   6.119  0.7634 -0.4444 -1.3297
 7816SOL    HW235082   2.277   1.403   6.175  0.4189 -0.5806  1.5821
 7817SOL     OW35083   2.306   0.517   4.757 -0.0263 -0.0289  0.0130
 7817SOL    HW135084   2.364   0.527   4.682  0.3946  1.1754  0.5003
 7817SOL    HW235085   2.356   0.565   4.823 -0.1392 -0.9964  0.8102
 7818SOL     OW35086   0.772   3.967   8.914  0.0408 -0.0029  0.3145
 7818SOL    HW135087   0.791   4.047   8.964 -0.7817 -0.7247  1.7857
 7818SOL    HW235088   0.699   4.002   8.863 -1.5997 -0.9882  1.9827
 7819SOL     OW35089   4.032   1.186   3.765  0.0895  0.1895  0.0582
 7819SOL    HW135090   3.998   1.272   3.741 -2.4111 -0.6963  0.4781
 7819SOL    HW235091   3.982   1.166   3.844 -2.1637  0.9111 -1.1967
 7820SOL     OW35092   4.380   0.892   8.701 -0.4104  0.0798 -0.3650
 7820SOL    HW135093   4.445   0.923   8.639  1.1763  0.1532  1.3271
 7820SOL    HW235094   4.356   0.978   8.738 -3.3771 -0.1147 -1.8206
 7821SOL     OW35095   2.787   2.929  11.897  0.9421  0.7441 -0.1863
 7821SOL    HW135096   2.876   2.956  11.918  1.4938 -1.3729  0.1279
 7821SOL    HW235097   2.744   2.992  11.955 -0.1521 -0.5685  0.4026
 7822SOL     OW35098   1.664   3.982   8.231 -0.9531  0.2725 -0.4492
 7822SOL    HW135099   1.656   4.075   8.253 -1.8295  0.2548 -0.6963
 7822SOL    HW235100   1.699   3.936   8.307  1.6445  2.8256 -0.0979
 7823SOL     OW35101   3.737   3.529   3.286  0.0202  0.3986  1.1083
 7823SOL    HW135102   3.727   3.618   3.252  0.2329  0.2771  0.7247
 7823SOL    HW235103   3.704   3.489   3.205  2.8362 -0.4747  0.4058
 7824SOL     OW35104   4.696   3.742  11.230  0.2025  0.5609  0.3036
 7824SOL    HW135105   4.623   3.708  11.282  0.7793 -2.9239 -1.1390
 7824SOL    HW235106   0.023   3.671  11.230 -0.4385 -0.0527 -2.1645
 7825SOL     OW35107   1.030   0.808   0.010  0.1723 -0.0464  0.1810
 7825SOL    HW135108   1.107   0.753   0.017  2.0134  2.5621  0.2388
 7825SOL    HW235109   1.028   0.819  17.663 -0.7492 -0.0869  0.1887
 7826SOL     OW35110   1.191   0.949   2.809 -0.1458 -0.0601 -0.0094
 7826SOL    HW135111   1.272   0.993   2.835 -1.0920  0.1071  2.6870
 7826SOL    HW235112   1.123   0.999   2.855  0.7271  1.2487 -0.1785
 7827SOL     OW35113   2.443   1.123   3.337 -0.1402 -0.1419 -0.0009
 7827SOL    HW135114   2.450   1.049   3.397 -2.6298 -0.5922 -0.2715
 7827SOL    HW235115   2.398   1.179   3.401  2.2631  1.0919  0.6080
 7828SOL     OW35116   0.521   1.829   3.628  0.1908  0.0213 -0.3504
 7828SOL    HW135117   0.484   1.917   3.617 -0.5153 -0.2550 -0.2082
 7828SOL    HW235118   0.584   1.852   3.696 -0.4683 -0.8369  0.5538
 7829SOL     OW35119   2.857   4.538   5.606  0.5530 -0.2925  0.4020
 7829SOL    HW135120   2.934   4.532   5.662  0.6105 -1.4950  0.1957
 7829SOL    HW235121   2.898   4.598   5.542  0.6518  0.0529  0.7887
 7830SOL     OW35122   2.461   3.856  17.654 -0.2359 -0.5414 -0.2574
 7830SOL    HW135123   2.390   3.904  17.696 -0.8498 -0.8038 -0.9841
 7830SOL    HW235124   2.437   3.882  17.565  0.0214  0.7869  0.0703
 7831SOL     OW35125   3.432   2.331   7.111  1.0162 -0.0831 -0.0334
 7831SOL    HW135126   3.358   2.319   7.051  1.8484 -1.6456 -0.7540
 7831SOL    HW235127   3.410   2.301   7.199 -1.4943  2.0945  0.0753
 7832SOL     OW35128   0.804   0.953  14.958 -0.0002  0.6639  0.0127
 7832SOL    HW135129   0.719   0.944  14.916 -0.6196  0.1852  1.3636
 7832SOL    HW235130   0.860   0.894  14.909  1.9252  0.5066  2.3448
 7833SOL     OW35131   0.265   2.064   7.764 -0.1350  0.4347  0.0971
 7833SOL    HW135132   0.278   2.147   7.717 -1.1729  1.5852  1.8440
 7833SOL    HW235133   0.185   2.032   7.721  0.7141 -0.9296 -0.4579
 7834SOL     OW35134   0.980   0.235   5.771  0.0938 -0.5279 -0.4756
 7834SOL    HW135135   0.955   0.233   5.679  0.8563 -0.2955 -0.6907
 7834SOL    HW235136   1.050   0.170   5.773 -0.8658 -1.5270  0.8291
 7835SOL     OW35137   1.284   1.704   3.770 -0.3453  0.5687 -0.4509
 7835SOL    HW135138   1.238   1.694   3.853 -1.2901 -1.6488 -1.2150
 7835SOL    HW235139   1.372   1.671   3.783 -0.3194  0.5837 -0.5881
 7836SOL     OW35140   1.535   1.238   3.814 -0.3720 -0.3212 -0.4867
 7836SOL    HW135141   1.509   1.166   3.756 -2.9007 -0.1353  0.4292
 7836SOL    HW235142   1.580   1.305   3.763 -2.1030  1.3399  0.1670
 7837SOL     OW35143   3.778   4.072  14.474 -0.1252 -0.0917 -0.5116
 7837SOL    HW135144   3.711   4.044  14.412  0.4063 -0.1493 -1.0535
 7837SOL    HW235145   3.815   4.154  14.441  1.5434 -1.3827 -1.8277
 7838SOL     OW35146   1.080   0.355   2.336  0.3997 -0.3268 -0.2276
 7838SOL    HW135147   1.021   0.336   2.263 -0.8355  0.3554  0.6068
 7838SOL    HW235148   1.084   0.450   2.341 -0.6862 -0.2528 -0.6967
 7839SOL     OW35149   0.019   4.033  15.089  0.0869  0.4152 -0.2945
 7839SOL    HW135150   0.037   4.127  15.101  2.7246 -0.2402  1.0589
 7839SOL    HW235151   0.009   3.993  15.176  0.3622 -0.3900 -0.6341
 7840SOL     OW35152   2.233   4.264   9.070  0.2528 -0.0664 -0.3289
 7840SOL    HW135153   2.258   4.172   9.084 -1.8250 -0.5668  0.1427
 7840SOL    HW235154   2.145   4.275   9.106  0.4639  2.0748 -0.4785
 7841SOL     OW35155   1.721   0.518   1.322 -0.2743 -0.7137  0.1849
 7841SOL    HW135156   1.744   0.604   1.357 -2.0869 -0.4171  0.6126
 7841SOL    HW235157   1.737   0.461   1.398 -1.3926  0.4134  1.2693
 7842SOL     OW35158   1.605   4.087   7.018 -0.1644  0.1434 -0.2581
 7842SOL    HW135159   1.614   4.044   7.103 -0.1944  2.5815  0.9642
 7842SOL    HW235160   1.593   4.008   6.964 -1.0626 -0.5962  1.0371
 7843SOL     OW35161   2.247   1.846   5.131 -0.3387 -0.3309 -0.1311
 7843SOL    HW135162   2.189   1.771   5.115  0.2319 -0.5431 -1.1700
 7843SOL    HW235163   2.321   1.801   5.173 -0.7215 -1.7497 -0.9667
 7844SOL     OW35164   3.415   3.192  11.955  0.0852  0.1708 -0.2247
 7844SOL    HW135165   3.440   3.126  11.891  1.5196 -0.4058  0.9167
 7844SOL    HW235166   3.435   3.272  11.906  0.3142  1.0653  1.3182
 7845SOL     OW35167   4.074   3.431  11.610 -0.3472  0.5051 -0.0900
 7845SOL    HW135168   4.163   3.415  11.641 -0.6628 -2.2284 -0.5620
 7845SOL    HW235169   4.036   3.386  11.686 -0.5529  0.3227 -0.3001
 7846SOL     OW35170   3.498   2.000  17.738 -0.0705  0.4559  0.0597
 7846SOL    HW135171   3.523   1.956  17.656  0.1893 -0.8962  0.8605
 7846SOL    HW235172   3.584   2.016   0.028 -0.2588 -0.1196  0.7218
 7847SOL     OW35173   3.993   3.249   1.896  0.0381  0.5825 -0.1458
 7847SOL    HW135174   4.068   3.271   1.841 -0.1427  0.6647 -0.3569
 7847SOL    HW235175   3.983   3.329   1.947 -1.6326 -0.1240  0.6407
 7848SOL     OW35176   0.761   4.544   5.664 -0.0575  0.1739 -0.7110
 7848SOL    HW135177   0.745   4.526   5.572  1.5155 -1.5496 -0.6330
 7848SOL    HW235178   0.687   4.492   5.697  0.7218  0.0884  0.9258
 7849SOL     OW35179   4.334   0.753   5.397  0.0188 -0.4461 -0.4160
 7849SOL    HW135180   4.376   0.822   5.346  0.8280 -1.8721 -1.6888
 7849SOL    HW235181   4.245   0.787   5.406  0.1900 -0.8275  2.9545
 7850SOL     OW35182   0.984   1.610   5.621  0.1126 -0.3250  0.0336
 7850SOL    HW135183   1.057   1.608   5.683  2.0113  0.6186 -2.1379
 7850SOL    HW235184   0.953   1.701   5.627  2.4379  0.4614  0.2387
 7851SOL     OW35185   3.426   0.218   4.729 -0.7747 -0.0712  0.6357
 7851SOL    HW135186   3.501   0.254   4.681 -0.9811  2.1314  2.0098
 7851SOL    HW235187   3.396   0.150   4.668  2.6402 -1.0626  0.0453
 7852SOL     OW35188   4.058   4.400   7.360  0.2628  0.4190 -0.1778
 7852SOL    HW135189   4.032   4.327   7.415  2.5897  0.5990  1.1669
 7852SOL    HW235190   3.996   4.467   7.390 -0.9689 -1.9421  2.5450
 7853SOL     OW35191   3.794   3.376  16.681  0.1171 -0.1139  0.5227
 7853SOL    HW135192   3.852   3.450  16.662 -1.9321  1.5782  0.9550
 7853SOL    HW235193   3.714   3.424  16.701 -1.4593 -2.7369  0.5031
 7854SOL     OW35194   2.748   1.816   7.578  0.3102 -0.2730 -0.1703
 7854SOL    HW135195   2.824   1.857   7.619  0.3606 -0.2972 -0.2377
 7854SOL    HW235196   2.779   1.728   7.556 -1.5278 -0.2694 -2.7647
 7855SOL     OW35197   2.155   4.279   5.819  0.1460 -0.5123  0.2006
 7855SOL    HW135198   2.178   4.195   5.859 -0.1705  0.1333  1.7755
 7855SOL    HW235199   2.236   4.297   5.772 -0.4677 -1.1989 -1.1292
 7856SOL     OW35200   1.060   1.936   6.020  0.9147  0.2214 -0.4151
 7856SOL    HW135201   1.005   1.961   6.094  0.7517  0.5264 -0.6425
 7856SOL    HW235202   1.112   2.016   6.012 -1.0101  1.2250 -2.7229
 7857SOL     OW35203   1.450   4.437   7.575 -0.6927 -0.1750 -0.0418
 7857SOL    HW135204   1.530   4.451   7.625 -0.1116  1.0307 -1.2853
 7857SOL    HW235205   1.487   4.406   7.492  0.7201 -2.0058  1.2859
 7858SOL     OW35206   1.324   1.288  10.198  0.3568 -0.6681 -0.1178
 7858SOL    HW135207   1.285   1.369  10.165 -0.0121 -1.0946 -0.7235
 7858SOL    HW235208   1.255   1.242  10.247  2.6364  0.9489  4.6608
 7859SOL     OW35209   0.520   4.388  13.376 -0.0860  0.0804 -0.4107
 7859SOL    HW135210   0.471   4.468  13.394  1.9595  1.8069 -2.5784
 7859SOL    HW235211   0.578   4.406  13.449  1.5964 -0.6951 -1.5676
 7860SOL     OW35212   1.476   2.174  14.267 -0.4080 -0.0134  0.1781
 7860SOL    HW135213   1.559   2.212  14.240 -0.0509 -1.2621 -0.4616
 7860SOL    HW235214   1.418   2.188  14.192  1.9931 -0.3638 -1.7075
 7861SOL     OW35215   1.990   4.666   0.295 -0.5246 -0.2280  0.3653
 7861SOL    HW135216   1.916   4.728   0.294 -0.4548 -0.1954 -2.3333
 7861SOL    HW235217   1.980   4.641   0.387 -2.1989  0.8492  0.4976
 7862SOL     OW35218   2.187   3.890  17.015  0.3294  0.0902 -0.6928
 7862SOL    HW135219   2.238   3.910  17.094 -1.8547 -0.7054  0.9287
 7862SOL    HW235220   2.112   3.844  17.052  0.0696  1.3323  0.3551
 7863SOL     OW35221   1.025   2.396   1.225  0.7208  0.5083  0.4169
 7863SOL    HW135222   1.045   2.376   1.317  1.3805 -0.0676  0.1460
 7863SOL    HW235223   0.940   2.436   1.243  0.9719  1.2044  0.0373
 7864SOL     OW35224   3.852   1.765   2.651 -0.0357  0.1203 -0.1001
 7864SOL    HW135225   3.879   1.786   2.562  0.8484 -1.5489 -0.2335
 7864SOL    HW235226   3.916   1.698   2.676  0.5283  1.6070  2.3408
 7865SOL     OW35227   3.530   0.413   3.701  0.3524 -0.1936 -0.3822
 7865SOL    HW135228   3.461   0.401   3.636  0.9246  0.9941 -1.2023
 7865SOL    HW235229   3.489   0.485   3.749 -1.2451 -0.8800 -0.7105
 7866SOL     OW35230   3.311   2.242   1.730  0.2890  0.1836 -0.7978
 7866SOL    HW135231   3.395   2.208   1.762  0.1981  1.1034  0.4400
 7866SOL    HW235232   3.328   2.236   1.636  2.4493  0.8935 -0.4596
 7867SOL     OW35233   0.728   0.641   6.690  0.3295  0.0248  0.1799
 7867SOL    HW135234   0.809   0.606   6.652 -0.3009  0.8007 -1.8661
 7867SOL    HW235235   0.739   0.632   6.784 -3.2739 -0.4175  0.5668
 7868SOL     OW35236   1.427   0.032   5.656  0.8183  0.7579  0.4506
 7868SOL    HW135237   1.476   4.729   5.584  2.4156  1.5026  1.1210
 7868SOL    HW235238   1.428   0.120   5.618  1.5935  0.5673  0.0246
 7869SOL     OW35239   3.419   0.891  12.544  0.4406  0.5376  0.3460
 7869SOL    HW135240   3.421   0.796  12.552  2.1385  0.5398 -0.0562
 7869SOL    HW235241   3.399   0.905  12.451 -1.2339 -0.0195  0.6231
 7870SOL     OW35242   4.088   0.674  14.833  0.0055 -0.1260 -0.3366
 7870SOL    HW135243   4.167   0.724  14.854 -0.8362  0.3631  1.6592
 7870SOL    HW235244   4.018   0.739  14.841  1.4960  1.3494  0.5710
 7871SOL     OW35245   0.971   0.922   4.072 -0.5103  0.4121  0.0197
 7871SOL    HW135246   0.947   1.014   4.066 -1.5109  0.1714  0.2512
 7871SOL    HW235247   0.898   0.879   4.117 -2.0394  1.6962 -1.1933
 7872SOL     OW35248   0.382   2.818  13.155 -0.6061 -0.4572  0.1959
 7872SOL    HW135249   0.381   2.801  13.249  0.8796  1.1490  0.4849
 7872SOL    HW235250   0.459   2.764  13.140  0.8557  1.2731  1.5536
 7873SOL     OW35251   2.371   2.780   7.610  0.2307  0.2693 -0.1638
 7873SOL    HW135252   2.429   2.759   7.683  1.1231  0.8279 -0.7067
 7873SOL    HW235253   2.428   2.833   7.554  1.8309 -0.1947  1.0355
 7874SOL     OW35254   3.221   0.204   3.783 -0.0940 -0.0890  0.5645
 7874SOL    HW135255   3.225   0.176   3.692 -0.1608  0.4385  0.3981
 7874SOL    HW235256   3.140   0.163   3.814 -0.0521 -1.4033 -1.0963
 7875SOL     OW35257   4.315   2.736  17.658  0.5844 -0.0701 -0.6574
 7875SOL    HW135258   4.285   2.695  17.739  2.3788  1.2874  0.6952
 7875SOL    HW235259   4.297   2.829  17.672  1.7562 -0.1973  1.8405
 7876SOL     OW35260   1.249   0.209   2.860  0.0256 -0.0858 -0.5587
 7876SOL    HW135261   1.310   0.275   2.830 -1.1326  0.6300 -1.3277
 7876SOL    HW235262   1.171   0.255   2.891  0.9874  0.5500  0.9422
 7877SOL     OW35263   3.273   2.907  11.650  0.1575 -0.1856 -0.3902
 7877SOL    HW135264   3.250   2.992  11.614  0.1172 -1.2261 -2.8190
 7877SOL    HW235265   3.326   2.935  11.725 -3.8751  1.6102  1.7448
 7878SOL     OW35266   4.163   1.245   4.793 -0.1789  0.1578  0.6784
 7878SOL    HW135267   4.124   1.222   4.878 -0.4541  2.2961  1.1373
 7878SOL    HW235268   4.182   1.156   4.763  2.4059  0.4051  1.5116
 7879SOL     OW35269   0.589   1.832   2.257 -0.3298  0.5523 -0.3763
 7879SOL    HW135270   0.528   1.869   2.321  0.3170 -0.5110  0.8571
 7879SOL    HW235271   0.531   1.792   2.193 -1.1565 -0.8854  1.2650
 7880SOL     OW35272   3.364   4.072   3.777 -0.2079  0.1831  0.6540
 7880SOL    HW135273   3.313   4.070   3.696  1.5096  1.7427 -0.4568
 7880SOL    HW235274   3.454   4.090   3.752  0.2331 -2.5851  0.2926
 7881SOL     OW35275   2.992   2.201   0.687 -0.0049  0.1001 -0.4620
 7881SOL    HW135276   2.910   2.252   0.686 -0.0054  0.1079  0.0375
 7881SOL    HW235277   3.013   2.218   0.595 -1.0646 -1.9327 -1.0869
 7882SOL     OW35278   3.743   4.476   2.951  0.0378  0.1236  0.0516
 7882SOL    HW135279   3.682   4.468   3.025 -0.2411  2.3860  0.0698
 7882SOL    HW235280   3.809   4.414   2.980  0.1115  0.1679 -0.0214
 7883SOL     OW35281   1.905   2.935   2.694  0.2212  0.6157  0.8840
 7883SOL    HW135282   1.989   2.904   2.727  1.3705  0.9086 -1.7962
 7883SOL    HW235283   1.843   2.902   2.759  2.2285 -2.4620  1.2522
 7884SOL     OW35284   0.862   0.761   2.512  0.2107  0.4837 -0.3314
 7884SOL    HW135285   0.823   0.837   2.556 -0.6412 -0.3092  0.2580
 7884SOL    HW235286   0.952   0.790   2.497  1.6511 -2.7790  2.0992
 7885SOL     OW35287   1.841   0.061   8.835 -0.2213  0.4104  0.0126
 7885SOL    HW135288   1.831   0.059   8.930 -2.2763  0.5076 -0.2177
 7885SOL    HW235289   1.936   0.066   8.821 -0.6973  2.6653 -2.2478
 7886SOL     OW35290   0.410   3.105  12.076 -0.1540  0.2170  0.7490
 7886SOL    HW135291   0.420   3.019  12.117  1.2937  0.9061  1.8448
 7886SOL    HW235292   0.319   3.124  12.099  1.0822  0.5974  5.2596
 7887SOL     OW35293   0.983   3.285   6.118 -0.2550 -0.2302  0.1810
 7887SOL    HW135294   0.990   3.350   6.048 -0.3519 -1.9339 -1.4254
 7887SOL    HW235295   1.074   3.282   6.149 -0.1381 -1.7023 -0.3108
 7888SOL     OW35296   4.503   2.739   2.631  0.0038  0.5321  0.1309
 7888SOL    HW135297   4.437   2.808   2.637  0.3109  0.7718  0.7559
 7888SOL    HW235298   4.582   2.793   2.628 -0.3347  0.9449 -1.1416
 7889SOL     OW35299   2.550   2.793  13.259 -0.0107  0.4640  0.2131
 7889SOL    HW135300   2.587   2.795  13.170 -1.1235  2.7480 -0.1990
 7889SOL    HW235301   2.629   2.771  13.309  0.2637 -1.5238 -1.0757
 7890SOL     OW35302   1.724   4.725   4.787 -0.0553  0.1635 -0.0151
 7890SOL    HW135303   1.816   0.011   4.805 -0.1409  0.5800 -0.1232
 7890SOL    HW235304   1.728   4.698   4.695 -1.2263  1.6755 -0.5029
 7891SOL     OW35305   3.666   3.898   1.531  0.0213 -0.5617  0.2332
 7891SOL    HW135306   3.575   3.868   1.528  0.6073 -2.4747  1.4871
 7891SOL    HW235307   3.677   3.921   1.439  1.0273 -3.8672 -0.4809
 7892SOL     OW35308   3.508   0.178   3.852  0.0358 -0.1866 -0.5826
 7892SOL    HW135309   3.414   0.163   3.841 -0.2336  1.8294 -0.9780
 7892SOL    HW235310   3.498   0.273   3.844 -0.1641 -0.1095  0.4580
 7893SOL     OW35311   0.160   1.623   5.148  0.3953  0.1981  0.2696
 7893SOL    HW135312   0.253   1.631   5.170  0.2785  0.8974  0.5157
 7893SOL    HW235313   0.164   1.650   5.056  1.8312 -0.5403  0.1187
 7894SOL     OW35314   1.578   1.973   2.003 -0.2990  0.8130  0.5146
 7894SOL    HW135315   1.554   1.890   2.045  2.4468  0.0457  0.5668
 7894SOL    HW235316   1.634   2.001   2.075  0.3008 -0.1400  0.4148
 7895SOL     OW35317   4.250   4.587  16.533  0.3054 -0.2130 -0.0810
 7895SOL    HW135318   4.330   4.589  16.480 -1.0477 -1.5085 -2.1891
 7895SOL    HW235319   4.195   4.519  16.492  0.6230  0.9664 -2.4532
 7896SOL     OW35320   4.351   2.217   8.756 -0.1563  0.2321  0.2563
 7896SOL    HW135321   4.430   2.203   8.808 -0.4971 -0.0443  0.7076
 7896SOL    HW235322   4.319   2.305   8.777  0.3667  0.3179  0.6761
 7897SOL     OW35323   0.350   0.688  14.382  0.5680 -0.1877 -0.3926
 7897SOL    HW135324   0.336   0.597  14.357 -0.0541 -0.0192 -0.6633
 7897SOL    HW235325   0.444   0.700  14.374  0.4953 -0.3302 -1.4338
 7898SOL     OW35326   0.183   4.245   7.062 -0.2293 -0.1106 -0.0577
 7898SOL    HW135327   0.118   4.314   7.049 -0.0270  0.0567 -0.1743
 7898SOL    HW235328   0.229   4.244   6.978 -1.0943 -1.2525 -0.5275
 7899SOL     OW35329   4.540   2.430   3.354 -0.1691 -0.0165  0.2286
 7899SOL    HW135330   4.451   2.435   3.322 -0.1817 -2.0307 -0.0583
 7899SOL    HW235331   4.556   2.336   3.362 -3.9439 -0.6170  0.4985
 7900SOL     OW35332   4.565   2.110   5.238 -0.6242 -0.2229  0.2346
 7900SOL    HW135333   4.495   2.068   5.287 -1.0686  0.5934  0.2987
 7900SOL    HW235334   4.624   2.037   5.219 -0.0622 -0.3768  2.5589
 7901SOL     OW35335   2.963   4.012  17.515  0.3689  0.1777 -0.2754
 7901SOL    HW135336   2.910   3.937  17.489 -2.0869  1.7204  0.2858
 7901SOL    HW235337   2.969   4.056  17.431  2.4521 -1.6649 -1.0885
 7902SOL     OW35338   0.388   1.443  14.899  0.1012  0.0496 -0.1216
 7902SOL    HW135339   0.305   1.491  14.891 -0.0043 -0.2097 -0.6050
 7902SOL    HW235340   0.432   1.492  14.968  2.0129 -2.0237  0.1121
 7903SOL     OW35341   2.485   0.765   2.558  0.1905  0.3660 -0.4046
 7903SOL    HW135342   2.443   0.713   2.626  1.8886  0.9681  1.0859
 7903SOL    HW235343   2.449   0.717   2.484  2.5820 -1.0225 -0.6953
 7904SOL     OW35344   1.607   3.730   7.795 -0.0690  0.0455 -0.3319
 7904SOL    HW135345   1.556   3.790   7.740 -1.7258  0.6288  1.8439
 7904SOL    HW235346   1.688   3.722   7.744 -0.4923 -0.5488 -0.9115
 7905SOL     OW35347   1.312   3.314  12.881  0.0951 -0.2219  0.0479
 7905SOL    HW135348   1.353   3.300  12.966 -0.3452  0.2776  0.3410
 7905SOL    HW235349   1.243   3.377  12.901  0.0621  0.6332 -2.8035
 7906SOL     OW35350   1.041   2.071   2.326 -0.4537 -0.0427 -0.0679
 7906SOL    HW135351   0.947   2.082   2.333 -0.4850  0.4797 -1.3383
 7906SOL    HW235352   1.061   1.978   2.339  2.1403  0.7278  1.5534
 7907SOL     OW35353   3.176   1.251  17.664 -0.3159  0.0190 -0.0587
 7907SOL    HW135354   3.266   1.278  17.684 -0.3934  0.3547 -0.1747
 7907SOL    HW235355   3.151   1.187  17.731  1.9952  0.9595  1.7137
 7908SOL     OW35356   1.821   1.122  10.009  0.3873 -0.2221  0.3065
 7908SOL    HW135357   1.860   1.177  10.077  1.6203  0.4585 -0.9603
 7908SOL    HW235358   1.728   1.137  10.025  0.8647  0.7597  2.2330
 7909SOL     OW35359   4.099   3.398  14.789  0.1538  0.1687 -0.5606
 7909SOL    HW135360   4.054   3.346  14.722 -2.5459  1.4885  0.2093
 7909SOL    HW235361   4.044   3.477  14.785  0.3688  0.3548  0.3575
 7910SOL     OW35362   2.951   2.843   6.065 -0.0667  0.2880  0.0615
 7910SOL    HW135363   3.043   2.855   6.088  0.5135 -0.1680 -2.0426
 7910SOL    HW235364   2.954   2.871   5.974  2.2256  0.6235  0.2468
 7911SOL     OW35365   4.098   0.849   5.363  0.0493  0.4882 -0.4126
 7911SOL    HW135366   4.008   0.830   5.389  0.2636  1.3015  0.9378
 7911SOL    HW235367   4.092   0.937   5.327 -0.1162 -0.1282 -1.8572
 7912SOL     OW35368   0.830   4.643   9.040  0.5224  0.1715 -0.2581
 7912SOL    HW135369   0.926   4.649   9.035  0.4563  0.9047 -0.6761
 7912SOL    HW235370   0.802   4.657   8.950  0.4395  0.1010 -0.2425
 7913SOL     OW35371   3.298   0.885   8.129 -0.3232  0.1174  0.0232
 7913SOL    HW135372   3.392   0.894   8.145 -0.2731  0.5883 -0.5220
 7913SOL    HW235373   3.278   0.808   8.182  0.2720  0.6713  1.0526
 7914SOL     OW35374   1.111   2.543   1.552 -0.6204 -0.1216 -0.4027
 7914SOL    HW135375   1.049   2.471   1.560 -1.1473  0.1439 -2.2276
 7914SOL    HW235376   1.149   2.539   1.640 -1.5058 -0.3085 -0.0303
 7915SOL     OW35377   2.299   3.288   3.287  0.2802 -0.1194 -0.1828
 7915SOL    HW135378   2.267   3.262   3.374 -2.5556 -0.8501 -1.4459
 7915SOL    HW235379   2.254   3.225   3.231 -2.7294 -0.7319  2.9298
 7916SOL     OW35380   1.447   1.687   8.936 -0.5290  0.4978  0.0953
 7916SOL    HW135381   1.525   1.634   8.952  0.1295  1.3822 -0.1687
 7916SOL    HW235382   1.418   1.658   8.850  1.2337 -0.8051 -0.0625
 7917SOL     OW35383   4.561   0.468   4.528  0.0906  0.6622 -0.1398
 7917SOL    HW135384   4.530   0.384   4.494  1.1876  0.1834  0.0481
 7917SOL    HW235385   4.618   0.492   4.455 -1.3247 -0.1755 -1.5163
 7918SOL     OW35386   1.878   1.183   6.677  0.0014  0.2249  0.5690
 7918SOL    HW135387   1.952   1.225   6.633  0.1149 -0.6399 -0.0775
 7918SOL    HW235388   1.886   1.217   6.766  0.0898 -0.2318  0.7383
 7919SOL     OW35389   1.824   0.883   0.697  0.0270  0.3605 -0.4315
 7919SOL    HW135390   1.770   0.806   0.681  1.8101 -1.3658  1.7903
 7919SOL    HW235391   1.840   0.867   0.790 -1.9668  1.4616  0.0893
 7920SOL     OW35392   2.148   3.352  16.389 -0.0768  0.5122  0.1611
 7920SOL    HW135393   2.132   3.421  16.325 -1.8698  0.5916  0.6865
 7920SOL    HW235394   2.057   3.338  16.416  0.3465  1.4155  2.0063
 7921SOL     OW35395   3.774   2.503   4.812 -0.3383  0.4529 -0.1744
 7921SOL    HW135396   3.806   2.592   4.824 -0.9864  0.6311  0.2212
 7921SOL    HW235397   3.844   2.468   4.757 -1.0002  0.0886 -0.7936
 7922SOL     OW35398   4.714   4.687  11.856 -0.0729 -0.3605 -0.0513
 7922SOL    HW135399   4.726   4.601  11.896  0.1729 -0.5095 -0.4519
 7922SOL    HW235400   0.004   4.677  11.765 -0.1581 -1.8804  0.0889
 7923SOL     OW35401   1.357   4.068   4.416 -0.1174 -0.7443  0.0760
 7923SOL    HW135402   1.414   3.992   4.429  0.8951 -0.2709 -1.5768
 7923SOL    HW235403   1.422   4.138   4.413 -1.1179  0.1975  0.2514
 7924SOL     OW35404   2.318   3.720   5.062  0.1669  0.4682  0.9539
 7924SOL    HW135405   2.346   3.698   4.973  0.0890  2.3332  0.4657
 7924SOL    HW235406   2.282   3.808   5.055  0.5535  0.4641 -1.0585
 7925SOL     OW35407   1.293   0.934   9.769 -0.0754  0.0682  0.1206
 7925SOL    HW135408   1.228   0.953   9.837  0.6010  2.2247  0.1617
 7925SOL    HW235409   1.254   0.855   9.733 -0.8647  1.7440 -2.7493
 7926SOL     OW35410   3.048   0.758   6.488 -0.7919 -0.2853 -0.5270
 7926SOL    HW135411   2.954   0.759   6.507 -1.0965  0.4676 -2.0375
 7926SOL    HW235412   3.060   0.701   6.412  0.7092 -1.1786  0.3689
 7927SOL     OW35413   0.185   1.232   3.917 -0.8407 -0.5116  0.2285
 7927SOL    HW135414   0.200   1.232   3.822 -2.2595 -1.0389  0.0069
 7927SOL    HW235415   0.091   1.216   3.923 -0.8676 -0.6116 -0.4611
 7928SOL     OW35416   3.916   1.780   1.126  0.1693  0.5033 -0.3192
 7928SOL    HW135417   3.829   1.757   1.092  2.0332 -2.6153 -2.9576
 7928SOL    HW235418   3.894   1.785   1.219 -0.3907 -0.5694 -0.4009
 7929SOL     OW35419   1.781   3.224   9.335  0.4558 -0.0879  0.1989
 7929SOL    HW135420   1.687   3.214   9.347  0.0707  0.6653 -2.2332
 7929SOL    HW235421   1.774   3.310   9.294  0.0534  0.7295  1.9776
 7930SOL     OW35422   3.967   1.304   7.967 -0.0989 -0.0473 -0.2789
 7930SOL    HW135423   4.000   1.339   7.884  2.7396 -0.3480  0.7100
 7930SOL    HW235424   3.887   1.355   7.980  2.0176  2.6732  2.1144
 7931SOL     OW35425   2.401   1.843   0.248 -0.2687 -0.2038 -0.4739
 7931SOL    HW135426   2.472   1.902   0.271  1.2447 -2.3355  0.2000
 7931SOL    HW235427   2.443   1.763   0.218  0.0478  0.1797 -1.0631
 7932SOL     OW35428   3.242   3.679   3.868 -0.1340 -0.2294 -0.2800
 7932SOL    HW135429   3.272   3.676   3.777 -1.1898 -2.0287 -0.5766
 7932SOL    HW235430   3.151   3.699   3.847 -0.3553 -0.5793  0.3643
 7933SOL     OW35431   4.733   4.564   7.969  0.5650  0.3064 -0.2203
 7933SOL    HW135432   0.017   4.626   8.039 -0.9043  1.4377 -0.7613
 7933SOL    HW235433   0.049   4.486   7.979  0.8913  0.5814  0.2041
 7934SOL     OW35434   0.337   1.349   4.353  0.3277 -0.0284 -0.2218
 7934SOL    HW135435   0.309   1.327   4.442 -0.6552  0.9189 -0.3019
 7934SOL    HW235436   0.377   1.265   4.327 -1.0761 -0.1926 -1.8534
 7935SOL     OW35437   0.539   2.365  15.249  0.0100 -0.4339  0.0690
 7935SOL    HW135438   0.609   2.300  15.262  0.0546 -0.8560 -2.1501
 7935SOL    HW235439   0.469   2.301  15.264 -0.7909  1.0554  2.5222
 7936SOL     OW35440   1.247   1.520   4.435  0.2254  0.1394 -0.0310
 7936SOL    HW135441   1.188   1.542   4.363  0.1213 -1.2172 -0.3627
 7936SOL    HW235442   1.324   1.575   4.421  0.9945 -0.5593  1.3904
 7937SOL     OW35443   0.840   1.508   3.745 -0.1132  0.5403 -0.1017
 7937SOL    HW135444   0.744   1.507   3.752  0.0300 -1.0344  1.5752
 7937SOL    HW235445   0.863   1.529   3.654 -0.8434  1.9260  0.0305
 7938SOL     OW35446   4.226   4.095  12.508  0.9678 -0.1717 -0.2016
 7938SOL    HW135447   4.134   4.070  12.520  0.6752  1.4797  0.9902
 7938SOL    HW235448   4.237   4.099  12.413  1.1456  0.3129 -0.1605
 7939SOL     OW35449   2.280   2.884   0.802  0.5833 -0.4732 -0.1344
 7939SOL    HW135450   2.342   2.867   0.873 -0.2754 -0.2280  0.6754
 7939SOL    HW235451   2.241   2.797   0.796  0.1710 -0.3596  0.7619
 7940SOL     OW35452   1.565   2.783   6.143 -0.4054 -0.5513  0.7293
 7940SOL    HW135453   1.537   2.789   6.052 -3.5605 -1.1763  1.6512
 7940SOL    HW235454   1.477   2.780   6.182 -0.7852 -0.6691 -0.1405
 7941SOL     OW35455   0.918   2.490   2.517  0.2299 -0.1259  0.3851
 7941SOL    HW135456   0.988   2.538   2.561 -2.5844  0.2870  4.4250
 7941SOL    HW235457   0.838   2.538   2.537 -0.2942 -1.2107  0.8750
 7942SOL     OW35458   1.133   2.511   9.784  0.2523 -0.9126  0.1741
 7942SOL    HW135459   1.068   2.449   9.751 -1.7958  1.4551 -0.2376
 7942SOL    HW235460   1.186   2.524   9.705 -1.3771  2.0760 -0.4401
 7943SOL     OW35461   4.067   4.449   5.065 -0.0759  0.2874 -0.5918
 7943SOL    HW135462   3.988   4.481   5.021  0.2648  3.2071  0.9515
 7943SOL    HW235463   4.099   4.535   5.091  1.5323 -0.7590  0.9123
 7944SOL     OW35464   3.373   3.658  10.170  0.1907  0.2290 -0.1215
 7944SOL    HW135465   3.447   3.620  10.218 -0.0640  1.1406  0.9930
 7944SOL    HW235466   3.344   3.719  10.238 -0.9101 -0.4815  0.0486
 7945SOL     OW35467   4.126   3.353   7.054 -0.1054 -0.0767  0.1494
 7945SOL    HW135468   4.195   3.396   7.004 -0.6601 -0.3434 -0.8593
 7945SOL    HW235469   4.108   3.419   7.121  1.5170  0.8834 -0.3597
 7946SOL     OW35470   2.265   4.000   5.750 -0.0959 -0.0557  0.0908
 7946SOL    HW135471   2.333   3.935   5.732  0.6245  0.5026  0.8364
 7946SOL    HW235472   2.276   4.056   5.673 -1.2787 -0.7134 -0.5615
 7947SOL     OW35473   2.091   0.450   6.432  0.2303 -0.6058  0.4776
 7947SOL    HW135474   2.040   0.477   6.357 -1.6273  0.9699  2.3336
 7947SOL    HW235475   2.086   0.520   6.496  2.0166  0.7226 -0.8298
 7948SOL     OW35476   0.260   1.447   8.077 -0.0119 -0.2389 -0.6044
 7948SOL    HW135477   0.228   1.371   8.028  1.0440 -0.9950 -0.1329
 7948SOL    HW235478   0.175   1.491   8.086  0.0646  0.4687 -3.2610
 7949SOL     OW35479   3.637   1.720  12.886 -0.2987  0.5115  0.3443
 7949SOL    HW135480   3.633   1.726  12.791 -0.5413  0.5039  0.3545
 7949SOL    HW235481   3.572   1.652  12.904 -2.2339  1.8880 -1.3399
 7950SOL     OW35482   2.557   2.104   7.333 -0.1056  0.0363 -0.2920
 7950SOL    HW135483   2.642   2.067   7.355  0.6208 -0.5595 -4.0740
 7950SOL    HW235484   2.523   2.116   7.422  1.8983 -0.5159  0.5372
 7951SOL     OW35485   1.282   4.211  13.847 -0.2395 -0.5089 -0.5637
 7951SOL    HW135486   1.358   4.233  13.793  0.2795 -2.5138 -0.6273
 7951SOL    HW235487   1.325   4.197  13.931 -0.0522  0.6057 -0.4669
 7952SOL     OW35488   0.036   3.570   2.900 -0.0233 -0.0196  0.3115
 7952SOL    HW135489   0.035   3.542   2.992 -1.0114  1.7808  0.8449
 7952SOL    HW235490   0.114   3.531   2.860 -0.4893  0.1479 -0.7664
 7953SOL     OW35491   0.049   0.953   7.626 -0.0476 -0.2989 -0.1170
 7953SOL    HW135492   0.063   1.040   7.664 -0.7384 -0.4166  0.4073
 7953SOL    HW235493   0.090   0.962   7.540 -1.1362 -1.2128 -0.7273
 7954SOL     OW35494   4.128   4.711  11.519  0.6154  0.1630  0.1730
 7954SOL    HW135495   4.183   0.007  11.449 -1.9535 -0.2056 -2.0035
 7954SOL    HW235496   4.196   4.649  11.544 -1.2176 -1.3593  1.3873
 7955SOL     OW35497   0.418   1.090   6.808 -1.0987 -0.4369 -0.4138
 7955SOL    HW135498   0.333   1.126   6.835 -0.9881  0.4734 -1.3045
 7955SOL    HW235499   0.437   1.025   6.876 -0.1354  0.0085 -0.2574
 7956SOL     OW35500   3.349   2.861   8.564  0.0748  0.2737 -0.1786
 7956SOL    HW135501   3.316   2.771   8.556  1.0383 -0.2405  1.5582
 7956SOL    HW235502   3.419   2.839   8.503 -0.4136 -1.7229 -0.0230
 7957SOL     OW35503   1.741   1.796   2.357 -0.2332  0.4084  0.3018
 7957SOL    HW135504   1.660   1.846   2.343  0.3870  0.7033 -2.3580
 7957SOL    HW235505   1.784   1.797   2.271  1.9255  0.3118  1.3833
 7958SOL     OW35506   0.146   0.169   3.851 -0.9473  0.3086 -0.3669
 7958SOL    HW135507   0.172   0.079   3.869 -1.2745  0.5355  1.2480
 7958SOL    HW235508   0.146   0.203   3.941 -2.8478  2.2074 -1.0830
 7959SOL     OW35509   4.318   0.399   7.768 -0.6463  0.0265 -0.3995
 7959SOL    HW135510   4.392   0.378   7.712 -1.0736 -2.6589  0.0201
 7959SOL    HW235511   4.308   0.315   7.814  0.3404  0.1890  0.1034
 7960SOL     OW35512   2.281   0.280   5.165  0.0859 -0.0382  0.6000
 7960SOL    HW135513   2.241   0.365   5.183  0.3384  0.3103 -0.4580
 7960SOL    HW235514   2.223   0.256   5.093 -0.4963 -0.1717  1.1135
 7961SOL     OW35515   1.451   4.365  17.717  0.4926 -0.3971  0.0648
 7961SOL    HW135516   1.458   4.320   0.053 -0.6446 -1.3451 -0.3397
 7961SOL    HW235517   1.518   4.433  17.728  0.8246 -1.2545  3.4235
 7962SOL     OW35518   1.488   4.036   8.631  0.4806  0.0585  0.4624
 7962SOL    HW135519   1.528   4.091   8.564  0.3495  0.6929  0.9134
 7962SOL    HW235520   1.410   4.007   8.584  0.9179 -0.7733  0.2394
 7963SOL     OW35521   1.674   4.609   7.134  0.1425 -0.1371 -0.1890
 7963SOL    HW135522   1.653   4.536   7.192  0.9786 -0.3742 -0.1867
 7963SOL    HW235523   1.712   4.675   7.193  0.7564  0.6545 -1.4728
 7964SOL     OW35524   0.427   1.380   4.987  0.1342 -0.3134 -0.8325
 7964SOL    HW135525   0.491   1.343   5.049 -1.0837  0.1751  0.7181
 7964SOL    HW235526   0.343   1.364   5.031 -0.3334  0.9837 -1.2641
 7965SOL     OW35527   3.287   0.797   5.408 -0.3480  0.1947 -0.3382
 7965SOL    HW135528   3.284   0.708   5.375 -0.2054 -0.1524  0.5929
 7965SOL    HW235529   3.294   0.779   5.502 -0.0410 -3.0754 -1.0138
 7966SOL     OW35530   4.668   1.635   2.865  0.6319  0.6029  0.2751
 7966SOL    HW135531   4.689   1.547   2.833  0.2673 -0.4741  2.9516
 7966SOL    HW235532   4.676   1.691   2.788 -0.2274  1.1556  0.5826
 7967SOL     OW35533   4.721   4.550  11.565  0.0069 -0.3232 -0.1317
 7967SOL    HW135534   0.069   4.585  11.590  0.4504 -0.9442 -0.8117
 7967SOL    HW235535   0.002   4.526  11.474  0.8616 -1.6846  0.4054
 7968SOL     OW35536   0.639   2.854   0.225  0.2026 -0.2704 -0.3020
 7968SOL    HW135537   0.551   2.857   0.263  0.5136  1.2140  0.2932
 7968SOL    HW235538   0.644   2.759   0.214  0.2564 -0.0903 -1.7699
 7969SOL     OW35539   4.648   0.150   8.474 -0.2289  0.0773 -0.5959
 7969SOL    HW135540   4.686   0.077   8.523  1.6202  0.5812 -1.2842
 7969SOL    HW235541   4.623   0.204   8.549 -0.7017 -0.2011 -0.5477
 7970SOL     OW35542   1.817   3.680   5.926  0.0652 -0.0617 -0.8122
 7970SOL    HW135543   1.847   3.768   5.904 -1.2373  0.7124  0.5217
 7970SOL    HW235544   1.873   3.655   6.000 -0.9805  1.8364  0.5938
 7971SOL     OW35545   4.618   1.960   1.315  0.3830 -0.1131 -0.1267
 7971SOL    HW135546   4.565   1.883   1.296 -1.6812  1.0551  1.0015
 7971SOL    HW235547   4.634   1.980   1.223 -1.8228  1.6065 -0.1309
 7972SOL     OW35548   4.177   4.330  15.443 -0.3426 -0.4710  0.3928
 7972SOL    HW135549   4.093   4.312  15.485  0.1333 -0.1382  1.5009
 7972SOL    HW235550   4.230   4.264  15.487 -1.3295 -1.5320 -0.0198
 7973SOL     OW35551   2.472   1.913   5.940 -0.3446  0.1651 -0.4867
 7973SOL    HW135552   2.500   1.922   5.849  1.0382  1.9146  0.1162
 7973SOL    HW235553   2.550   1.937   5.990 -0.5948 -0.1434  0.0469
 7974SOL     OW35554   3.914   2.378   3.111  0.1925  0.1470  0.0028
 7974SOL    HW135555   3.824   2.359   3.140  1.3785 -0.2051  3.4249
 7974SOL    HW235556   3.908   2.471   3.130 -1.4598 -0.2686  1.5456
 7975SOL     OW35557   4.164   4.665   5.211  0.5037 -0.3766  0.2764
 7975SOL    HW135558   4.166   0.009   5.260 -1.9525 -1.5894  2.4162
 7975SOL    HW235559   4.175   4.605   5.285 -1.0665 -1.4236 -0.3259
 7976SOL     OW35560   0.818   1.864   6.957  0.3906  0.0999  0.3029
 7976SOL    HW135561   0.785   1.869   7.047  1.7771  1.3532  0.7439
 7976SOL    HW235562   0.883   1.935   6.959  2.6713 -2.0439  2.2998
 7977SOL     OW35563   3.039   4.193   6.995 -0.1338  0.2677 -0.4697
 7977SOL    HW135564   2.982   4.268   6.978 -2.3131 -0.9142  1.6705
 7977SOL    HW235565   3.091   4.212   6.917 -0.3506  1.0657 -0.4216
 7978SOL     OW35566   0.965   4.649   9.360 -0.1530 -0.4745  0.2929
 7978SOL    HW135567   0.876   4.679   9.377  0.2072  0.7536  0.0873
 7978SOL    HW235568   1.001   4.730   9.322 -0.3666 -0.7154 -0.4145
 7979SOL     OW35569   4.357   2.712   8.350  0.4649  0.0882 -0.2117
 7979SOL    HW135570   4.334   2.804   8.363 -1.2871 -0.4912  0.6927
 7979SOL    HW235571   4.452   2.719   8.360  0.4387 -2.7875  2.0582
 7980SOL     OW35572   0.469   4.501   6.541 -0.3859  0.4610  0.0675
 7980SOL    HW135573   0.526   4.510   6.465 -2.1660 -1.2761 -1.4788
 7980SOL    HW235574   0.522   4.441   6.595 -0.5545 -0.2285 -0.5300
 7981SOL     OW35575   4.056   0.822  15.146 -0.1274 -0.7583  0.1846
 7981SOL    HW135576   4.055   0.894  15.082 -1.9792 -0.8277  0.1252
 7981SOL    HW235577   3.973   0.783  15.119  0.0561  1.0556 -3.1286
 7982SOL     OW35578   2.547   1.468  13.114  0.2556  0.2809  0.3259
 7982SOL    HW135579   2.638   1.446  13.093  1.0277  0.8372  3.1481
 7982SOL    HW235580   2.510   1.528  13.049  2.7450  0.9054 -0.5255
 7983SOL     OW35581   3.784   2.355  17.383 -0.0335 -0.1638 -0.8889
 7983SOL    HW135582   3.763   2.421  17.317 -1.1365 -0.3618 -0.7299
 7983SOL    HW235583   3.730   2.290  17.338  0.4263 -0.0934 -1.5442
 7984SOL     OW35584   2.742   4.733   7.380 -0.3129  0.7346  0.2869
 7984SOL    HW135585   2.744   4.690   7.294 -0.0569  0.2623  0.5307
 7984SOL    HW235586   2.837   4.737   7.386 -0.1499 -1.6919 -0.4664
 7985SOL     OW35587   2.382   0.624   0.341  0.1103  0.0936  0.2682
 7985SOL    HW135588   2.473   0.595   0.345  0.9428  2.4981 -1.0832
 7985SOL    HW235589   2.324   0.556   0.374  0.1704 -0.7938 -1.4822
 7986SOL     OW35590   2.370   2.603  12.899 -0.7177  0.1587 -0.5789
 7986SOL    HW135591   2.438   2.670  12.887 -0.4209  0.0883  0.7414
 7986SOL    HW235592   2.312   2.622  12.824 -1.9427 -0.9627  0.0855
 7987SOL     OW35593   1.345   2.676  14.935  0.1181  0.0094  0.2374
 7987SOL    HW135594   1.386   2.669  15.021  0.1601  0.3705  0.2477
 7987SOL    HW235595   1.263   2.723  14.948 -0.3058 -0.0272 -2.2272
 7988SOL     OW35596   2.282   2.935  11.672  0.6511 -0.2327  0.4419
 7988SOL    HW135597   2.208   2.938  11.612  0.6887 -2.6127  0.3025
 7988SOL    HW235598   2.348   2.966  11.609  0.2515 -1.2487 -0.4622
 7989SOL     OW35599   4.639   4.364   0.763 -0.5981 -0.1496  0.0339
 7989SOL    HW135600   4.635   4.269   0.774  0.2286  0.0595  2.2598
 7989SOL    HW235601   4.697   4.372   0.687 -2.6674  1.1794 -1.3869
 7990SOL     OW35602   3.328   4.006   1.571  0.0121  0.0398 -0.1577
 7990SOL    HW135603   3.370   3.952   1.503 -0.1085  1.1894 -1.1310
 7990SOL    HW235604   3.310   4.085   1.521 -1.4164 -1.4855 -2.0672
 7991SOL     OW35605   3.990   4.474   3.325  0.5441 -0.0107 -0.0821
 7991SOL    HW135606   3.974   4.547   3.384 -1.2081  0.6935 -1.4291
 7991SOL    HW235607   3.897   4.449   3.322  0.8558 -1.1027 -0.5932
 7992SOL     OW35608   1.744   3.567  13.780  0.0381 -0.1116  0.6216
 7992SOL    HW135609   1.756   3.662  13.780 -0.4074 -0.0558  0.0146
 7992SOL    HW235610   1.771   3.549  13.690 -1.9018 -2.5592  0.5352
 7993SOL     OW35611   4.405   2.708   9.464 -0.0686  0.4544  0.6178
 7993SOL    HW135612   4.355   2.701   9.383  1.3073  2.4343 -0.3848
 7993SOL    HW235613   4.332   2.711   9.525 -0.7726  1.4726 -0.2673
 7994SOL     OW35614   0.254   2.394   8.421  0.1341 -0.0991  0.3457
 7994SOL    HW135615   0.255   2.327   8.489  0.0456 -3.2349 -2.7338
 7994SOL    HW235616   0.296   2.358   8.343  0.8030 -0.6690  0.9672
 7995SOL     OW35617   0.703   1.617  10.985  0.4310 -0.1044  0.3360
 7995SOL    HW135618   0.717   1.539  11.039 -0.1481 -0.1850  0.3687
 7995SOL    HW235619   0.619   1.600  10.941  1.3277  0.7988 -1.6906
 7996SOL     OW35620   2.805   2.629   2.983  0.1402  0.5428  0.2887
 7996SOL    HW135621   2.841   2.699   2.927  0.5318 -0.7696 -1.1067
 7996SOL    HW235622   2.871   2.629   3.052  0.3086  1.6929  0.1333
 7997SOL     OW35623   0.908   3.956   9.489  0.2597  0.4362 -0.2680
 7997SOL    HW135624   0.937   4.032   9.538 -1.3196  1.2635 -0.6379
 7997SOL    HW235625   0.847   3.989   9.423 -0.7400  0.4986  0.7013
 7998SOL     OW35626   3.822   0.871   3.423  0.3189 -0.5291 -0.2535
 7998SOL    HW135627   3.871   0.869   3.341  1.6494 -0.4944  0.5503
 7998SOL    HW235628   3.893   0.912   3.473 -1.0034  1.0565  0.3583
 7999SOL     OW35629   0.191   4.699  16.315  0.1316 -0.3895  0.3493
 7999SOL    HW135630   0.196   4.619  16.262 -2.8193  0.9084 -1.9044
 7999SOL    HW235631   0.236   0.033  16.270  0.1432 -1.4132 -1.2601
 8000SOL     OW35632   3.874   2.225   6.439  0.6171  0.5661  0.4037
 8000SOL    HW135633   3.947   2.195   6.384  0.1143 -0.7457  0.4669
 8000SOL    HW235634   3.818   2.148   6.433 -2.2017  2.6757 -0.5890
 8001SOL     OW35635   3.507   1.253   6.696  0.7768 -0.1815 -0.0714
 8001SOL    HW135636   3.452   1.288   6.766  0.9752 -1.3229  0.6536
 8001SOL    HW235637   3.589   1.239   6.744  0.9764 -0.0715 -0.3757
 8002SOL     OW35638   2.951   1.708   0.992 -0.1314  0.3868  0.5742
 8002SOL    HW135639   2.953   1.768   1.067  0.4795 -0.6070  1.3563
 8002SOL    HW235640   2.877   1.743   0.942  0.3894  0.0666 -0.4076
 8003SOL     OW35641   3.978   2.839   1.937 -0.4615  0.9678  0.3693
 8003SOL    HW135642   3.947   2.754   1.907  0.5097  0.9928 -0.6903
 8003SOL    HW235643   4.072   2.824   1.928 -0.2752  0.9501  2.4071
 8004SOL     OW35644   1.261   1.838   3.098  0.3990 -0.2286 -0.4379
 8004SOL    HW135645   1.168   1.835   3.077 -0.0239 -2.0145  1.6490
 8004SOL    HW235646   1.286   1.917   3.051 -0.3758  0.3835  0.1885
 8005SOL     OW35647   2.393   0.931   9.785  0.2217  0.7636  0.8833
 8005SOL    HW135648   2.410   1.019   9.818  2.8555 -0.0110  1.5159
 8005SOL    HW235649   2.398   0.869   9.858  1.3620 -1.9797 -1.5183
 8006SOL     OW35650   2.966   3.564   7.213 -0.4296 -0.3280  0.0392
 8006SOL    HW135651   3.059   3.566   7.236 -0.0624  1.2874 -1.6197
 8006SOL    HW235652   2.934   3.505   7.281  0.3897 -0.6984  0.0961
 8007SOL     OW35653   0.706   3.946   9.950  0.5704  0.0873  0.2005
 8007SOL    HW135654   0.686   3.935  10.043  2.4034  0.7380  0.6630
 8007SOL    HW235655   0.622   3.940   9.904  0.5221 -0.6466  0.3915
 8008SOL     OW35656   4.419   2.703   4.038  0.3079 -0.3276 -0.5609
 8008SOL    HW135657   4.392   2.688   3.947  1.8162  0.5222 -1.1597
 8008SOL    HW235658   4.417   2.798   4.034  0.5962 -0.3850 -2.1157
 8009SOL     OW35659   3.315   2.063  10.017 -0.2398 -0.2100  0.1443
 8009SOL    HW135660   3.254   2.135  10.004 -1.2630 -0.7827  1.7197
 8009SOL    HW235661   3.357   2.099  10.095  1.1115 -0.0253 -0.6745
 8010SOL     OW35662   0.110   2.855  14.032 -0.2480  0.1289 -0.3645
 8010SOL    HW135663   0.145   2.930  14.080 -3.1617  1.7614 -0.8129
 8010SOL    HW235664   0.017   2.857  14.052 -0.3874  1.7688 -1.2055
 8011SOL     OW35665   0.737   3.930   9.190  0.2352 -0.2736 -0.5440
 8011SOL    HW135666   0.714   4.022   9.176 -0.9920 -0.6861 -1.2656
 8011SOL    HW235667   0.705   3.889   9.110 -2.4941 -3.7652  2.3463
 8012SOL     OW35668   4.595   1.979   1.031  0.0382 -0.2581 -0.4800
 8012SOL    HW135669   4.678   1.965   0.984 -1.3458  0.5553 -3.1924
 8012SOL    HW235670   4.544   1.903   1.002  0.2141 -0.4136 -0.3833
 8013SOL     OW35671   2.201   1.607   9.963  0.4006 -0.8950  0.4412
 8013SOL    HW135672   2.282   1.561   9.982  0.3540 -0.9274  0.5625
 8013SOL    HW235673   2.232   1.697   9.971 -0.7141 -0.2565 -2.2783
 8014SOL     OW35674   3.563   1.934   4.526  0.3863 -0.3690 -0.3568
 8014SOL    HW135675   3.629   2.002   4.514  0.9948 -0.4132  2.5129
 8014SOL    HW235676   3.488   1.980   4.488  0.1152  0.3544  1.0430
 8015SOL     OW35677   3.205   4.525  15.228 -0.3144 -0.5037 -0.2070
 8015SOL    HW135678   3.239   4.610  15.199  2.2637 -1.4204  0.1074
 8015SOL    HW235679   3.116   4.557  15.219  0.1805  0.3123 -2.2217
 8016SOL     OW35680   4.291   3.598   9.674 -0.5682 -0.7109 -1.2242
 8016SOL    HW135681   4.332   3.526   9.722  0.2868  0.8734  0.4343
 8016SOL    HW235682   4.204   3.565   9.695 -0.6463 -0.7477 -1.6112
 8017SOL     OW35683   0.953   1.182   7.630  0.0998  0.0793  0.0767
 8017SOL    HW135684   0.986   1.110   7.684 -1.2192 -0.5425  0.0586
 8017SOL    HW235685   0.951   1.149   7.541 -1.0258  0.2154  0.0419
 8018SOL     OW35686   3.770   0.728  13.133  0.1681 -0.3950 -0.5400
 8018SOL    HW135687   3.748   0.749  13.224 -2.1802 -1.3798 -0.8799
 8018SOL    HW235688   3.865   0.726  13.137  0.2404  2.1075 -0.9603
 8019SOL     OW35689   3.042   0.031   4.735  0.0095  0.1035 -0.1991
 8019SOL    HW135690   2.990   0.063   4.662  0.6961  0.4727 -0.5280
 8019SOL    HW235691   3.063   4.678   4.712 -3.4139 -0.4595 -0.9912
 8020SOL     OW35692   3.068   1.639   2.957 -0.1917 -0.0670  0.0628
 8020SOL    HW135693   3.124   1.635   2.879 -0.2136 -0.8675  0.0842
 8020SOL    HW235694   3.095   1.561   3.005 -0.0986  0.1297  0.3298
 8021SOL     OW35695   3.800   2.114   8.734 -0.1666 -0.2467  0.2651
 8021SOL    HW135696   3.805   2.028   8.693 -0.7181 -0.8760  1.5430
 8021SOL    HW235697   3.894   2.130   8.744 -0.4326  1.9777 -0.7169
 8022SOL     OW35698   3.937   2.097  12.993  0.1232 -0.1051 -0.0213
 8022SOL    HW135699   3.921   2.003  12.989  2.3589 -0.5475  0.8589
 8022SOL    HW235700   3.877   2.126  13.061  1.2547 -0.0093  0.9448
 8023SOL     OW35701   0.689   2.936   8.337 -0.0480 -0.4965 -0.1272
 8023SOL    HW135702   0.668   2.842   8.332 -1.1185 -0.2308 -0.6123
 8023SOL    HW235703   0.760   2.937   8.402  0.2847  2.5766 -0.5662
 8024SOL     OW35704   1.580   3.874   5.691 -0.0584 -0.7421  0.4661
 8024SOL    HW135705   1.585   3.942   5.757 -0.5301 -2.4804  2.3002
 8024SOL    HW235706   1.574   3.923   5.609 -2.2912  1.4328  1.9400
 8025SOL     OW35707   4.582   1.759   8.842  0.3642  0.1656 -0.1750
 8025SOL    HW135708   4.582   1.842   8.889  0.8854  0.9521 -1.5491
 8025SOL    HW235709   4.494   1.727   8.863  1.6105 -1.8553  1.9662
 8026SOL     OW35710   1.554   4.064  15.821 -0.3562 -0.4193  0.3875
 8026SOL    HW135711   1.505   4.032  15.896 -0.0436 -1.2733  0.2374
 8026SOL    HW235712   1.642   4.026  15.829 -0.9455 -2.0940 -1.0037
 8027SOL     OW35713   4.211   2.831   8.746 -0.4423 -0.4513  0.0191
 8027SOL    HW135714   4.196   2.788   8.831  0.3230  1.2688  1.0154
 8027SOL    HW235715   4.144   2.899   8.743  0.3709  0.4896  2.8037
 8028SOL     OW35716   0.359   4.082   5.004  0.0285 -0.4190  0.2339
 8028SOL    HW135717   0.285   4.036   5.045  0.1768  0.0548  1.0292
 8028SOL    HW235718   0.346   4.165   5.049  0.2182  1.5710 -3.3865
 8029SOL     OW35719   4.028   4.583   5.717  0.5668  0.3081  0.4199
 8029SOL    HW135720   3.976   4.541   5.648 -0.0479  0.3522  0.8492
 8029SOL    HW235721   3.992   4.552   5.800  0.4977  4.1327  1.7927
 8030SOL     OW35722   1.812   2.575   3.623  0.1228  0.8266  0.3999
 8030SOL    HW135723   1.748   2.510   3.654  1.7588 -1.3327 -0.7768
 8030SOL    HW235724   1.763   2.618   3.552  0.2544  1.3000  0.5967
 8031SOL     OW35725   3.894   1.341   1.739 -0.1307  0.2627  0.2577
 8031SOL    HW135726   3.804   1.366   1.717 -0.3194 -0.5954  0.0647
 8031SOL    HW235727   3.890   1.248   1.762 -1.8939  0.2990  0.1414
 8032SOL     OW35728   1.258   0.105  12.180  0.1254  0.3434 -0.5196
 8032SOL    HW135729   1.253   0.200  12.181  3.1526  0.5163 -1.7912
 8032SOL    HW235730   1.269   0.070  12.269  2.3318 -1.7177 -1.5791
 8033SOL     OW35731   1.897   2.171   2.588 -0.2430 -0.5250 -0.1955
 8033SOL    HW135732   1.968   2.196   2.648 -1.9965  1.5747  1.0229
 8033SOL    HW235733   1.926   2.095   2.537  2.9977 -0.9595  2.2642
 8034SOL     OW35734   4.513   2.175   7.755  0.0798 -0.4008 -0.3576
 8034SOL    HW135735   4.537   2.235   7.825  1.1476 -2.5236  1.0918
 8034SOL    HW235736   4.423   2.200   7.735  0.3856  0.8011 -0.2519
 8035SOL     OW35737   1.960   0.342   6.733 -0.0930  0.2417 -0.2992
 8035SOL    HW135738   1.931   0.287   6.660 -3.5804 -1.2787  2.1624
 8035SOL    HW235739   1.894   0.318   6.799  0.1286 -1.6420 -0.7645
 8036SOL     OW35740   4.089   3.153   6.857 -0.2903 -0.3248 -0.4230
 8036SOL    HW135741   4.144   3.162   6.779  1.0795 -0.8796  0.4907
 8036SOL    HW235742   4.095   3.239   6.899  2.6620 -0.3254 -0.8308
 8037SOL     OW35743   0.189   4.018  17.197  0.3985 -0.2241 -0.0831
 8037SOL    HW135744   0.241   4.001  17.118  1.7181 -0.9831  0.9564
 8037SOL    HW235745   0.223   4.102  17.227 -0.9097  0.8456 -1.5338
 8038SOL     OW35746   3.677   3.621   8.202 -0.3831  0.3031  0.4048
 8038SOL    HW135747   3.667   3.574   8.285  0.3509 -0.2879  0.1685
 8038SOL    HW235748   3.769   3.604   8.181 -0.3525 -0.3700  1.0756
 8039SOL     OW35749   0.531   0.992   8.780 -0.1538 -0.0894 -0.3938
 8039SOL    HW135750   0.447   0.987   8.735  0.7071 -0.7509 -1.9075
 8039SOL    HW235751   0.500   0.974   8.869 -0.7550 -1.3762 -0.8736
 8040SOL     OW35752   0.087   1.718   4.907 -0.5065  0.2667  0.2622
 8040SOL    HW135753   0.004   1.756   4.879  0.8553  1.7694 -1.6933
 8040SOL    HW235754   0.149   1.756   4.845 -1.3695 -1.2738 -1.5484
 8041SOL     OW35755   2.064   1.396   8.731  0.0665  0.4889  0.1203
 8041SOL    HW135756   2.100   1.403   8.643 -1.0531  0.3043 -0.3495
 8041SOL    HW235757   2.087   1.478   8.774 -1.0478  1.2626 -0.8018
 8042SOL     OW35758   1.651   0.707   0.163  0.1695 -0.5356  0.0494
 8042SOL    HW135759   1.576   0.654   0.188 -0.8589  1.8201  2.0078
 8042SOL    HW235760   1.690   0.725   0.249 -2.3453 -0.8023  1.2351
 8043SOL     OW35761   1.035   1.479   2.396  0.2626  0.4122 -0.0626
 8043SOL    HW135762   1.044   1.451   2.305  0.6595 -1.0668  0.4245
 8043SOL    HW235763   0.942   1.457   2.401  0.3193  0.5697  1.7378
 8044SOL     OW35764   3.311   1.690   4.100 -0.3851  0.0178  0.1401
 8044SOL    HW135765   3.241   1.748   4.129 -1.2395 -1.0860  0.2771
 8044SOL    HW235766   3.349   1.740   4.027 -1.3400  0.4873 -0.0383
 8045SOL     OW35767   2.525   1.632   2.356 -0.5340  0.0492 -0.8892
 8045SOL    HW135768   2.581   1.565   2.396 -1.2899  1.2773  2.2139
 8045SOL    HW235769   2.588   1.686   2.307  1.6320 -0.2044  1.6290
 8046SOL     OW35770   3.519   3.189  16.055  0.2363  0.3203  0.2879
 8046SOL    HW135771   3.609   3.201  16.024 -0.3762 -1.8752 -2.3089
 8046SOL    HW235772   3.528   3.119  16.121 -1.8362 -1.8276 -1.7061
 8047SOL     OW35773   2.403   0.104   9.451  0.4521 -0.1395  0.3717
 8047SOL    HW135774   2.456   0.036   9.491 -1.4986 -2.7738 -1.4678
 8047SOL    HW235775   2.461   0.180   9.458  0.1464 -0.0545  1.9665
 8048SOL     OW35776   1.501   0.975   7.352  0.5218  0.5197 -0.6497
 8048SOL    HW135777   1.512   1.042   7.285 -2.1893  1.8936  0.3002
 8048SOL    HW235778   1.426   0.926   7.320  1.3392 -0.9193 -0.3504
 8049SOL     OW35779   2.084   3.666   3.919 -0.1598 -0.1976  0.2358
 8049SOL    HW135780   2.062   3.732   3.853 -0.0103 -2.7861 -2.4179
 8049SOL    HW235781   2.145   3.714   3.975 -1.2598  2.1449 -0.5752
 8050SOL     OW35782   4.588   1.497  14.772  0.3325 -0.1861 -0.0039
 8050SOL    HW135783   4.611   1.446  14.694  1.2213 -1.4871  1.1225
 8050SOL    HW235784   4.608   1.588  14.749 -0.5968 -0.4416 -1.8307
 8051SOL     OW35785   2.641   0.044   5.165 -0.3468  0.5412 -0.7596
 8051SOL    HW135786   2.730   0.035   5.130  0.9858  2.2188  2.1593
 8051SOL    HW235787   2.655   0.100   5.242  1.3849 -0.2999 -0.4485
 8052SOL     OW35788   2.432   0.711  16.454 -0.9276  0.2135  0.1756
 8052SOL    HW135789   2.512   0.662  16.436  0.7087  2.0873  2.4243
 8052SOL    HW235790   2.442   0.786  16.396  0.5924 -0.7587 -0.8036
 8053SOL     OW35791   2.510   4.491   7.669  0.4824  0.0690  0.2541
 8053SOL    HW135792   2.546   4.407   7.642  1.0512  0.4641 -0.2010
 8053SOL    HW235793   2.445   4.467   7.735  0.8984  0.4431  0.8010
 8054SOL     OW35794   4.492   3.847   4.636  0.8323 -0.5343 -0.2459
 8054SOL    HW135795   4.518   3.853   4.728 -0.6487  2.4741 -0.0169
 8054SOL    HW235796   4.524   3.762   4.608  0.2610 -1.4056  1.7460
 8055SOL     OW35797   1.695   1.877   7.286  0.2559 -0.1192  0.4334
 8055SOL    HW135798   1.680   1.960   7.240 -1.2693 -0.9111 -0.5123
 8055SOL    HW235799   1.633   1.816   7.247  0.6116  0.0899 -0.4713
 8056SOL     OW35800   1.597   2.599   4.960  0.1329  0.5149  0.0585
 8056SOL    HW135801   1.604   2.673   4.901 -1.1666  0.7659  0.2072
 8056SOL    HW235802   1.512   2.622   4.998  0.2998  1.9903 -0.4960
 8057SOL     OW35803   0.316   2.649  10.737 -0.3733  0.6984  0.0119
 8057SOL    HW135804   0.225   2.667  10.715 -0.7195 -1.5644 -0.4110
 8057SOL    HW235805   0.348   2.726  10.783  0.6237 -0.7744  1.8208
 8058SOL     OW35806   2.471   3.820   9.181 -0.0529  0.3900  0.2341
 8058SOL    HW135807   2.505   3.819   9.092  2.1833  0.2189  1.0826
 8058SOL    HW235808   2.485   3.727   9.202  0.5416  0.4130 -0.0719
 8059SOL     OW35809   1.121   1.552   9.300 -0.5268  0.1101 -0.2678
 8059SOL    HW135810   1.062   1.477   9.301  0.0476 -0.3215  1.3053
 8059SOL    HW235811   1.068   1.617   9.347  0.4723  1.6947 -1.3251
 8060SOL     OW35812   0.934   0.829   8.089 -0.7114  0.2745 -0.1980
 8060SOL    HW135813   0.867   0.808   8.155 -1.8761  1.2856 -1.0738
 8060SOL    HW235814   0.955   0.750   8.039  0.6510 -0.3982  1.4501
 8061SOL     OW35815   0.035   4.573  16.877  0.0803  0.0632  0.1930
 8061SOL    HW135816   0.034   4.478  16.868  0.0988  0.1662 -0.9042
 8061SOL    HW235817   0.027   4.594  16.784 -0.8980  1.4390  0.5908
 8062SOL     OW35818   1.043   3.399   3.957 -0.4402  0.5862 -0.0862
 8062SOL    HW135819   1.130   3.436   3.971 -0.3872  0.6196 -0.5189
 8062SOL    HW235820   1.035   3.384   3.863 -0.6617  1.2636 -0.1754
 8063SOL     OW35821   1.523   0.021   6.905  0.1000 -0.1540 -0.1852
 8063SOL    HW135822   1.529   4.680   6.960 -2.0948  1.7002  2.7178
 8063SOL    HW235823   1.481   0.082   6.966  1.6637  1.0915 -0.3419
 8064SOL     OW35824   1.598   0.546  12.283 -0.1043  0.4569  0.4046
 8064SOL    HW135825   1.547   0.627  12.285 -0.7964  0.0683 -2.2684
 8064SOL    HW235826   1.559   0.493  12.353  1.7019 -2.4365 -0.7708
 8065SOL     OW35827   0.276   2.419   3.317 -0.2358  0.4350 -0.2312
 8065SOL    HW135828   0.240   2.395   3.232  1.1630  0.1076 -0.7319
 8065SOL    HW235829   0.279   2.335   3.363 -2.2550  1.1457  1.1904
 8066SOL     OW35830   1.685   4.060   5.874 -0.5672 -0.7290  0.0006
 8066SOL    HW135831   1.619   4.111   5.919 -0.6036  0.5529 -1.4992
 8066SOL    HW235832   1.766   4.091   5.915 -1.8049  0.6283  1.3931
 8067SOL     OW35833   2.710   4.008   9.157 -0.3252 -0.5265  0.2533
 8067SOL    HW135834   2.756   4.069   9.099 -0.3087 -0.7638  0.0134
 8067SOL    HW235835   2.647   3.967   9.097 -0.6229  0.5667 -0.1837
 8068SOL     OW35836   0.735   3.691   1.902  0.0485  0.9581  0.7481
 8068SOL    HW135837   0.798   3.711   1.971  1.1141 -0.7521  0.2946
 8068SOL    HW235838   0.700   3.612   1.944 -1.8697  1.5885  0.3355
 8069SOL     OW35839   2.448   3.485  15.750  0.0964  0.1039 -0.0709
 8069SOL    HW135840   2.366   3.477  15.701 -0.4077  1.2827  0.5791
 8069SOL    HW235841   2.483   3.558  15.697 -1.3513 -0.1263 -1.3324
 8070SOL     OW35842   0.588   1.803   0.594 -0.3553 -0.0885 -0.0179
 8070SOL    HW135843   0.578   1.895   0.619  1.1772  0.0369  0.1235
 8070SOL    HW235844   0.577   1.806   0.499 -2.1667 -1.5305  0.1427
 8071SOL     OW35845   2.603   1.032   2.643  0.0631  0.4035 -0.0450
 8071SOL    HW135846   2.647   0.981   2.711  1.9041 -0.9362 -2.2294
 8071SOL    HW235847   2.541   0.968   2.608 -1.3661 -0.1594  3.4669
 8072SOL     OW35848   3.512   2.579   1.666 -0.0222 -0.5710  0.3955
 8072SOL    HW135849   3.506   2.532   1.749 -1.2787 -0.1219  0.5633
 8072SOL    HW235850   3.417   2.585   1.651  0.1428 -0.1515 -0.5295
 8073SOL     OW35851   4.683   1.055   7.926 -0.3439 -0.1872 -0.2807
 8073SOL    HW135852   4.695   1.146   7.954 -1.0160 -0.1432 -0.1450
 8073SOL    HW235853   4.609   1.055   7.866 -0.6244  0.3387  0.0656
 8074SOL     OW35854   2.166   3.595  15.321 -0.3715 -0.5684  0.1420
 8074SOL    HW135855   2.235   3.654  15.350 -1.1857  0.6036 -0.2843
 8074SOL    HW235856   2.199   3.580  15.233  0.5947  1.3900  0.1808
 8075SOL     OW35857   2.747   3.140   9.582 -0.2909 -0.0538 -0.0422
 8075SOL    HW135858   2.713   3.104   9.500 -1.2193 -0.9454  0.7352
 8075SOL    HW235859   2.764   3.232   9.562  1.9804 -0.5479 -0.4412
 8076SOL     OW35860   0.115   3.545  15.965  0.2577 -0.2394  0.4423
 8076SOL    HW135861   0.147   3.607  16.030 -0.9095  3.0038 -2.0659
 8076SOL    HW235862   0.138   3.581  15.880  2.8337 -0.0791  1.2108
 8077SOL     OW35863   2.429   1.307   8.018 -0.0510  0.1518  0.0437
 8077SOL    HW135864   2.387   1.388   8.048  0.0584 -0.7895  2.7352
 8077SOL    HW235865   2.417   1.249   8.093 -1.9322  0.0323 -0.3424
 8078SOL     OW35866   0.253   1.389  13.113  0.3053  0.1620  0.3949
 8078SOL    HW135867   0.325   1.392  13.177  3.4216 -0.6264 -3.1097
 8078SOL    HW235868   0.199   1.464  13.137 -0.4111  0.0759 -1.0152
 8079SOL     OW35869   1.242   1.104   6.448 -0.1754 -0.0834  0.1500
 8079SOL    HW135870   1.318   1.084   6.503 -0.2495 -0.6822  0.0348
 8079SOL    HW235871   1.176   1.056   6.498  0.5540 -0.7449  0.4850
 8080SOL     OW35872   3.576   0.413  17.552  0.0049  0.4936 -0.6060
 8080SOL    HW135873   3.671   0.406  17.559 -0.5462 -2.7123  4.0473
 8080SOL    HW235874   3.552   0.387  17.463  0.9448  1.4296 -1.1326
 8081SOL     OW35875   2.089   4.668   0.575  0.9948  0.1232 -0.1200
 8081SOL    HW135876   2.166   4.619   0.548  0.4627 -0.1490 -1.1284
 8081SOL    HW235877   2.049   4.596   0.624  0.3462 -0.5559 -1.6631
 8082SOL     OW35878   1.025   3.820  17.695  0.3226 -0.3943 -0.4179
 8082SOL    HW135879   0.939   3.809  17.736  0.4353 -1.4353 -0.4593
 8082SOL    HW235880   1.077   3.806   0.026  1.8554  2.7673 -0.8655
 8083SOL     OW35881   2.138   0.297  10.962 -0.3677  0.3281  0.1655
 8083SOL    HW135882   2.202   0.363  10.935 -0.2228 -0.6793 -1.9732
 8083SOL    HW235883   2.164   0.230  10.899  0.6960  0.6357  0.2774
 8084SOL     OW35884   1.163   2.930   8.654 -0.4245  0.1314 -0.2461
 8084SOL    HW135885   1.069   2.925   8.672 -0.2697  1.1651  0.8939
 8084SOL    HW235886   1.198   2.969   8.735  1.1962 -3.2057  0.6682
 8085SOL     OW35887   1.362   4.709   2.196 -0.0663 -0.3615  0.3375
 8085SOL    HW135888   1.282   4.685   2.150  0.4714  0.7831 -1.2076
 8085SOL    HW235889   1.371   4.639   2.261 -0.4194 -1.7142 -1.0995
 8086SOL     OW35890   0.461   4.647   4.132 -0.3653 -0.0551  0.1376
 8086SOL    HW135891   0.541   4.692   4.105  1.6620 -2.8158  1.5494
 8086SOL    HW235892   0.498   4.582   4.191  0.4845 -0.3336 -0.6960
 8087SOL     OW35893   2.508   3.113   2.902 -0.2564  0.6440  0.1548
 8087SOL    HW135894   2.568   3.041   2.886 -1.5378 -0.8633  2.0935
 8087SOL    HW235895   2.531   3.140   2.991 -1.0720 -1.8661  1.0967
 8088SOL     OW35896   0.480   3.999   4.783  0.4727  0.6442 -0.0443
 8088SOL    HW135897   0.424   4.042   4.848 -0.6286 -0.1064 -0.4873
 8088SOL    HW235898   0.496   4.066   4.717  1.0506  1.4820  0.9512
 8089SOL     OW35899   0.362   0.550   7.155 -0.0874 -0.4951  0.2072
 8089SOL    HW135900   0.285   0.590   7.196 -1.5482 -3.5328  0.4443
 8089SOL    HW235901   0.378   0.480   7.219  1.3566 -0.2113  0.1439
 8090SOL     OW35902   1.724   0.665   6.401 -0.6824  0.2440 -0.5995
 8090SOL    HW135903   1.786   0.737   6.389  1.1578 -1.2954 -0.2916
 8090SOL    HW235904   1.658   0.702   6.342  0.6554  1.1213 -1.5470
 8091SOL     OW35905   0.105   0.731   9.003  0.2855  0.6058  0.5504
 8091SOL    HW135906   0.048   0.785   8.948 -1.1100  1.4458  2.8243
 8091SOL    HW235907   0.037   0.696   9.060 -0.3853  1.7481  0.4519
 8092SOL     OW35908   4.709   4.060   6.159 -0.4173 -0.1782  0.1915
 8092SOL    HW135909   0.005   4.063   6.069 -0.9817  1.8834  0.0473
 8092SOL    HW235910   0.026   3.991   6.197 -0.3684  0.1212  0.6703
 8093SOL     OW35911   2.029   1.212   3.288  0.5871 -0.1790  0.0721
 8093SOL    HW135912   2.087   1.143   3.318 -1.4474 -1.6415  0.6957
 8093SOL    HW235913   1.987   1.161   3.218  1.2704 -1.6026  0.7202
 8094SOL     OW35914   2.671   4.075  13.861  0.0325  0.3792  0.5598
 8094SOL    HW135915   2.685   4.155  13.810  0.0328 -1.4107 -2.2266
 8094SOL    HW235916   2.728   4.101  13.934  0.9633 -1.8020  0.5955
 8095SOL     OW35917   3.444   0.525  16.415 -0.1399 -0.7858 -0.4770
 8095SOL    HW135918   3.415   0.576  16.339 -3.4913 -0.2619  1.1369
 8095SOL    HW235919   3.451   0.591  16.484  0.4678 -1.1810 -0.1634
 8096SOL     OW35920   2.466   3.069   7.994  0.1907 -0.0300  0.4142
 8096SOL    HW135921   2.415   3.055   8.074  0.8444 -0.2908  0.7830
 8096SOL    HW235922   2.402   3.050   7.925 -0.5027  1.6859  0.5826
 8097SOL     OW35923   0.360   3.683   2.504  0.6036 -0.0106 -0.3187
 8097SOL    HW135924   0.396   3.764   2.469 -0.0424  0.0962 -0.7306
 8097SOL    HW235925   0.441   3.647   2.540  2.0398  1.5303 -2.0506
 8098SOL     OW35926   1.097   0.186   1.947 -0.1596 -0.3068  0.1940
 8098SOL    HW135927   1.020   0.215   1.996  0.5694 -1.3940  1.9759
 8098SOL    HW235928   1.113   0.098   1.982 -1.1723 -0.9496 -0.9283
 8099SOL     OW35929   3.168   3.565  17.541 -0.3322  0.2301  0.0911
 8099SOL    HW135930   3.136   3.480  17.510  2.3647 -0.0509 -1.9041
 8099SOL    HW235931   3.149   3.627  17.472 -3.6398 -2.0596 -1.0590
 8100SOL     OW35932   3.114   1.836   9.690 -0.2385 -0.1966  0.0852
 8100SOL    HW135933   3.100   1.768   9.756  4.2066  0.2720  1.4704
 8100SOL    HW235934   3.196   1.876   9.719 -0.1617  1.3631 -2.2909
 8101SOL     OW35935   4.737   4.504   3.380  0.0636 -0.5267 -0.0837
 8101SOL    HW135936   4.711   4.592   3.353  0.8546  0.3997  2.2120
 8101SOL    HW235937   0.000   4.454   3.298 -0.2972 -1.0451  0.2255
 8102SOL     OW35938   1.999   0.521  13.425 -0.4816  0.2145 -0.9048
 8102SOL    HW135939   2.004   0.511  13.520 -1.0118 -0.3478 -0.9331
 8102SOL    HW235940   2.013   0.433  13.392 -0.3878  0.1463 -0.6815
 8103SOL     OW35941   0.532   3.195   9.260  0.4749 -0.4625  0.0055
 8103SOL    HW135942   0.516   3.253   9.335 -0.8423 -1.9707  0.8823
 8103SOL    HW235943   0.444   3.158   9.251  0.2395  0.4159 -1.2350
 8104SOL     OW35944   3.223   3.442   8.808 -0.7499  0.1232  0.6676
 8104SOL    HW135945   3.316   3.427   8.826 -0.6384  1.0633  0.8612
 8104SOL    HW235946   3.198   3.483   8.891 -1.0237  0.2706  0.5109
 8105SOL     OW35947   4.656   1.478   6.966 -0.2381 -0.0178  0.1986
 8105SOL    HW135948   4.586   1.426   7.005  0.1746 -0.2413  0.6268
 8105SOL    HW235949   4.673   1.415   6.896  0.0300 -0.2888  0.5123
 8106SOL     OW35950   0.911   2.534  17.091 -0.7320 -0.0444  0.2096
 8106SOL    HW135951   0.984   2.595  17.098 -0.4722 -0.3652  0.3083
 8106SOL    HW235952   0.963   2.453  17.085  2.3926  1.9020  1.2467
 8107SOL     OW35953   3.987   0.806   5.711 -0.3373  0.0614 -0.0166
 8107SOL    HW135954   3.905   0.766   5.681 -0.6982  0.1922  0.7986
 8107SOL    HW235955   4.028   0.738   5.764  0.8599 -0.5828 -1.7652
 8108SOL     OW35956   0.543   4.673   8.109  0.3973 -0.2576 -0.5084
 8108SOL    HW135957   0.575   0.025   8.107  0.6652 -0.3225  1.0593
 8108SOL    HW235958   0.463   4.684   8.057  0.5257  0.0636 -0.6368
 8109SOL     OW35959   3.040   0.150   2.242 -0.1838  0.1028  0.0088
 8109SOL    HW135960   3.056   0.108   2.157 -1.1950 -1.8115  0.7632
 8109SOL    HW235961   2.948   0.176   2.238 -0.5101 -0.7652  1.8274
 8110SOL     OW35962   4.685   2.143   2.896  0.4453  0.8151  0.2089
 8110SOL    HW135963   0.015   2.187   2.844  1.0810 -0.5321 -0.1046
 8110SOL    HW235964   4.650   2.209   2.956 -3.6943 -1.2660  0.0491
 8111SOL     OW35965   4.648   2.167   3.347 -0.5826 -0.2709  0.0676
 8111SOL    HW135966   4.639   2.081   3.307  0.1039  0.1452 -0.9746
 8111SOL    HW235967   4.666   2.151   3.440  2.2538  1.9894 -0.0638
 8112SOL     OW35968   1.111   0.353   5.085 -0.7995 -0.2233 -0.8197
 8112SOL    HW135969   1.175   0.295   5.128 -1.8473 -1.1337 -0.4839
 8112SOL    HW235970   1.176   0.387   5.023  1.4645 -2.5872  0.2580
 8113SOL     OW35971   1.824   0.480   9.573 -0.3881  0.0352 -0.7337
 8113SOL    HW135972   1.734   0.491   9.605 -0.2186 -1.8840  0.3863
 8113SOL    HW235973   1.842   0.573   9.576 -1.5522  0.2286  0.4960
 8114SOL     OW35974   3.971   0.470   5.591 -0.0505 -0.0941 -0.3122
 8114SOL    HW135975   3.916   0.532   5.543 -0.0516  0.7872  0.8371
 8114SOL    HW235976   3.903   0.429   5.644  1.3424 -1.2552  0.5875
 8115SOL     OW35977   0.226   2.175   2.336  0.0806  0.0132 -0.4258
 8115SOL    HW135978   0.165   2.162   2.263  1.5169 -1.0933 -1.4313
 8115SOL    HW235979   0.286   2.227   2.282 -2.2839  0.2793 -2.8411
 8116SOL     OW35980   3.418   2.232  14.009  0.1289 -0.3939 -1.2442
 8116SOL    HW135981   3.334   2.222  14.053  1.4656 -2.0303  0.9300
 8116SOL    HW235982   3.487   2.234  14.076 -0.8761 -1.8080 -0.1743
 8117SOL     OW35983   1.003   2.095   7.044  0.5518 -0.4721  0.1904
 8117SOL    HW135984   0.949   2.146   7.103  0.4667  1.6621 -1.7305
 8117SOL    HW235985   1.046   2.166   6.996  1.8747 -2.4688 -1.6025
 8118SOL     OW35986   0.494   3.863  14.286 -0.0157 -0.0801  0.8606
 8118SOL    HW135987   0.499   3.768  14.271  1.9952  0.2468 -0.5615
 8118SOL    HW235988   0.399   3.873  14.284  0.2407  2.0115 -0.7807
 8119SOL     OW35989   2.685   3.493   4.371 -0.8880  0.2346 -0.5224
 8119SOL    HW135990   2.593   3.467   4.375 -1.2170  1.4565 -0.1995
 8119SOL    HW235991   2.715   3.430   4.306 -1.8897 -0.3374 -0.4322
 8120SOL     OW35992   0.067   2.663  10.641  0.0573 -0.2678  0.3182
 8120SOL    HW135993   0.049   2.597  10.708 -0.7563  0.3867  0.7535
 8120SOL    HW235994   4.716   2.672  10.604 -0.7249 -2.6816  1.5739
 8121SOL     OW35995   2.593   0.409   9.672  0.0930 -0.2136  0.0203
 8121SOL    HW135996   2.652   0.484   9.663  0.9858 -0.9341 -0.2153
 8121SOL    HW235997   2.515   0.451   9.707  0.7245  0.4897  0.5804
 8122SOL     OW35998   2.520   2.306   1.191 -0.3974 -0.0274 -0.0431
 8122SOL    HW135999   2.435   2.263   1.190  0.3058 -1.3408 -1.9578
 8122SOL    HW236000   2.496   2.387   1.145 -1.8426 -0.6996 -0.4819
 8123SOL     OW36001   3.283   3.311   4.908 -0.1482 -0.6908  0.0096
 8123SOL    HW136002   3.360   3.333   4.856 -0.1851  0.2998  0.3689
 8123SOL    HW236003   3.309   3.310   5.000  0.4944  4.3664 -0.0978
 8124SOL     OW36004   2.628   1.471   1.650 -0.3780 -0.1291  0.1125
 8124SOL    HW136005   2.635   1.479   1.745  1.7181 -1.9921  0.1169
 8124SOL    HW236006   2.651   1.561   1.629 -0.9045  0.6339  2.7764
 8125SOL     OW36007   1.347   0.030  17.306 -0.0671  0.1000 -0.2387
 8125SOL    HW136008   1.277   0.026  17.371  1.9804 -0.1297  1.9764
 8125SOL    HW236009   1.331   0.120  17.277  0.3015  0.4840  0.7378
 8126SOL     OW36010   0.489   0.881  10.843 -0.5351 -0.3534  0.8585
 8126SOL    HW136011   0.519   0.793  10.865  1.1655 -0.2027 -0.8179
 8126SOL    HW236012   0.412   0.876  10.899 -0.8699  0.9579  0.5108
 8127SOL     OW36013   1.302   3.942  12.321  0.4061  0.4750 -0.0882
 8127SOL    HW136014   1.377   3.882  12.331  0.1081  0.0740 -0.2690
 8127SOL    HW236015   1.222   3.893  12.343  0.4907  0.3346 -0.0883
 8128SOL     OW36016   3.425   1.017   7.060  0.9534  0.2806  0.0315
 8128SOL    HW136017   3.351   0.966   7.092  0.9357  1.7883  2.3444
 8128SOL    HW236018   3.488   1.003   7.131 -1.4596 -0.3348  2.0194
 8129SOL     OW36019   3.157   4.450  15.982  0.2948  0.0445 -0.4333
 8129SOL    HW136020   3.134   4.503  15.907 -0.8761 -0.4012 -0.3948
 8129SOL    HW236021   3.245   4.479  16.003 -0.3641  2.0366 -0.4307
 8130SOL     OW36022   2.920   1.067   4.406  0.1894 -0.1908 -0.0385
 8130SOL    HW136023   3.001   1.025   4.379  0.1192  0.6237 -1.5356
 8130SOL    HW236024   2.909   1.141   4.346  1.1474 -1.8758 -2.3123
 8131SOL     OW36025   3.049   1.324   3.378 -0.8719  0.0579 -0.1712
 8131SOL    HW136026   3.057   1.240   3.424  1.8602  0.9516  0.9541
 8131SOL    HW236027   3.129   1.359   3.416 -1.9405  0.8953  1.3024
 8132SOL     OW36028   1.900   1.016   8.532 -0.2117  0.5567  0.4143
 8132SOL    HW136029   1.830   1.081   8.526 -1.5235 -0.9779 -0.9526
 8132SOL    HW236030   1.938   1.022   8.444 -0.2855  0.1128  0.3553
 8133SOL     OW36031   4.120   0.719  11.582  0.1417 -0.7363 -0.2616
 8133SOL    HW136032   4.080   0.680  11.504  1.4007 -1.8492 -0.3475
 8133SOL    HW236033   4.175   0.643  11.599 -0.8051 -1.2677  0.4465
 8134SOL     OW36034   4.376   4.080   7.141 -0.4648 -0.2051 -0.2725
 8134SOL    HW136035   4.321   4.159   7.142 -2.3122 -1.5269  1.4113
 8134SOL    HW236036   4.458   4.125   7.120  0.9520 -2.3058  0.7370
 8135SOL     OW36037   2.449   1.752  16.709 -0.2718  0.1923  0.4245
 8135SOL    HW136038   2.482   1.663  16.698 -1.5130 -0.0988 -0.8020
 8135SOL    HW236039   2.498   1.779  16.787 -2.2561  1.7525  1.1198
 8136SOL     OW36040   3.781   3.934   6.737 -0.0012 -0.0450  0.7155
 8136SOL    HW136041   3.709   3.872   6.736 -0.9784  1.1060 -1.2461
 8136SOL    HW236042   3.807   3.941   6.829  1.0425 -0.2027  0.4347
 8137SOL     OW36043   4.502   3.176   6.810  0.1659 -0.6061  0.0584
 8137SOL    HW136044   4.549   3.203   6.889 -1.3830  1.4166  0.2881
 8137SOL    HW236045   4.576   3.149   6.756 -0.9997  0.4583 -2.0618
 8138SOL     OW36046   2.206   0.569   3.204  0.4450 -0.0350 -0.3488
 8138SOL    HW136047   2.201   0.474   3.201 -0.9672  0.0484 -0.7155
 8138SOL    HW236048   2.297   0.591   3.188  0.7605  0.1880  1.7094
 8139SOL     OW36049   0.897   1.521   1.967  0.2422 -0.2001 -0.4628
 8139SOL    HW136050   0.962   1.557   1.907  0.0579 -1.1145 -1.2227
 8139SOL    HW236051   0.841   1.596   1.986  0.3666  0.0206 -0.9738
 8140SOL     OW36052   1.866   2.097   5.728  0.6231 -0.3456  0.2966
 8140SOL    HW136053   1.802   2.167   5.719  0.2595 -0.4324  2.1690
 8140SOL    HW236054   1.923   2.118   5.654 -1.2262 -0.1269 -1.0570
 8141SOL     OW36055   4.676   2.761   5.048  0.0986 -0.0931  0.0422
 8141SOL    HW136056   0.016   2.754   5.103  0.1366  1.1427  0.1430
 8141SOL    HW236057   4.704   2.841   5.002 -0.7888 -1.2649 -2.5701
 8142SOL     OW36058   4.248   3.761   4.745 -0.3038 -0.9132  0.2886
 8142SOL    HW136059   4.280   3.808   4.668 -0.5216  2.1790  2.0784
 8142SOL    HW236060   4.296   3.804   4.816 -0.8056 -0.8698  0.6049
 8143SOL     OW36061   0.614   2.262   7.667  0.3736 -0.4090 -0.5400
 8143SOL    HW136062   0.546   2.303   7.613  0.6025 -0.8174 -1.1388
 8143SOL    HW236063   0.616   2.171   7.635  0.8604 -1.3321  2.1108
 8144SOL     OW36064   0.069   1.689   5.835 -0.3845  0.4430 -0.0182
 8144SOL    HW136065   0.109   1.775   5.845 -0.0758  0.3274 -0.2627
 8144SOL    HW236066   0.145   1.630   5.842 -0.6324  0.1588  0.3216
 8145SOL     OW36067   2.919   4.585   4.436  0.2815  0.1033  0.4800
 8145SOL    HW136068   2.957   4.628   4.512  0.4902  0.4329  0.1871
 8145SOL    HW236069   2.829   4.567   4.464  0.5133 -2.1170 -0.1975
 8146SOL     OW36070   2.891   0.017   5.058 -0.8793  0.2748  0.0887
 8146SOL    HW136071   2.907   4.685   4.994  0.4231 -0.3887  1.1257
 8146SOL    HW236072   2.911   0.097   5.009  0.1875 -0.3115 -0.4386
 8147SOL     OW36073   0.542   4.356   8.695  0.3140 -0.7708 -0.1573
 8147SOL    HW136074   0.591   4.431   8.726  0.8092 -1.6927  1.3031
 8147SOL    HW236075   0.502   4.390   8.615 -0.6018 -1.7498 -0.1218
 8148SOL     OW36076   1.398   4.505   0.396 -0.3729  0.2046 -0.0070
 8148SOL    HW136077   1.436   4.506   0.484 -0.5123  0.4369  0.0484
 8148SOL    HW236078   1.335   4.437   0.417 -0.8731  0.7714  0.3135
 8149SOL     OW36079   3.053   2.755   3.161 -0.1375  0.1916 -0.1121
 8149SOL    HW136080   3.059   2.675   3.214 -0.9703  0.2681  0.0914
 8149SOL    HW236081   3.133   2.741   3.109  0.8268  3.0785  0.5997
 8150SOL     OW36082   0.282   2.253   3.025 -0.1942 -0.3012 -0.4032
 8150SOL    HW136083   0.255   2.162   3.013 -0.6125 -0.2771  0.3768
 8150SOL    HW236084   0.376   2.241   3.036 -0.3312  0.2836  1.3895
 8151SOL     OW36085   0.775   4.191   4.449 -0.0130 -0.1894  0.0927
 8151SOL    HW136086   0.761   4.126   4.380  1.0448 -1.7389  1.3027
 8151SOL    HW236087   0.823   4.253   4.394 -1.8003  1.8748  0.9087
 8152SOL     OW36088   2.691   2.393   5.340 -0.4033  0.7821  0.5391
 8152SOL    HW136089   2.735   2.478   5.335  0.1581  0.4489 -0.3141
 8152SOL    HW236090   2.640   2.392   5.421 -0.9524  2.5372  0.2057
 8153SOL     OW36091   0.809   2.608   9.862 -0.2527  0.3370  0.0001
 8153SOL    HW136092   0.770   2.695   9.858 -0.3842  0.3399  1.4430
 8153SOL    HW236093   0.735   2.563   9.904  0.3066 -0.9257 -0.3536
 8154SOL     OW36094   4.283   2.973   8.296  0.0980 -0.0850  0.2276
 8154SOL    HW136095   4.255   3.036   8.362 -1.0966 -0.4219  0.0453
 8154SOL    HW236096   4.364   3.018   8.273 -0.4282  0.8775  0.2960
 8155SOL     OW36097   2.109   3.364   3.047 -0.8864 -0.2572 -0.4679
 8155SOL    HW136098   2.061   3.375   3.129  2.2968 -0.1746  1.3472
 8155SOL    HW236099   2.132   3.273   3.065  1.2331  0.3650 -0.1225
 8156SOL     OW36100   3.639   1.885   4.107  0.0267  0.1246  0.5034
 8156SOL    HW136101   3.567   1.945   4.088  1.5964  1.8853  0.1420
 8156SOL    HW236102   3.657   1.890   4.201  2.9654 -0.3015 -0.0419
 8157SOL     OW36103   2.348   2.796  15.297  0.1622 -0.0819 -0.2985
 8157SOL    HW136104   2.409   2.739  15.250  0.0709 -1.1687  0.9286
 8157SOL    HW236105   2.400   2.876  15.293  1.0489 -0.5802  1.3881
 8158SOL     OW36106   3.335   1.931   9.781  0.1643 -0.3087 -0.4683
 8158SOL    HW136107   3.329   1.993   9.853  0.0632 -0.3054 -0.4805
 8158SOL    HW236108   3.343   1.993   9.709  2.1971 -1.1833 -1.0171
 8159SOL     OW36109   2.715   3.039   2.197  0.1215  0.0047  0.0812
 8159SOL    HW136110   2.770   3.038   2.119  0.2256 -2.3099  0.1839
 8159SOL    HW236111   2.773   2.994   2.259 -1.7417 -0.3366  1.5956
 8160SOL     OW36112   3.417   2.931  10.273  0.6398 -0.0727  0.5457
 8160SOL    HW136113   3.512   2.931  10.259  0.9606 -1.2037  2.7293
 8160SOL    HW236114   3.384   2.872  10.205  1.5060 -0.2594  0.2850
 8161SOL     OW36115   4.639   2.630  17.706 -0.1793  0.1119 -0.1111
 8161SOL    HW136116   4.573   2.699  17.715  0.0400  0.0211  2.2476
 8161SOL    HW236117   4.677   2.667  17.627  0.5219 -1.2479 -0.4088
 8162SOL     OW36118   1.059   2.969  12.772 -0.0816 -0.0830 -0.4905
 8162SOL    HW136119   1.009   2.924  12.703 -1.2408  0.5742 -0.0777
 8162SOL    HW236120   1.038   2.909  12.844 -0.2463  1.2924  0.5936
 8163SOL     OW36121   1.156   4.377   7.412  0.1300 -0.0643  0.7341
 8163SOL    HW136122   1.140   4.403   7.502  1.0935  2.4656  0.1910
 8163SOL    HW236123   1.194   4.290   7.420  1.1581  0.2995 -0.0774
 8164SOL     OW36124   1.268   4.025   6.469 -0.4060  0.0206  0.2598
 8164SOL    HW136125   1.303   4.014   6.557  0.0798 -3.4477 -0.3806
 8164SOL    HW236126   1.282   3.939   6.430 -2.8009 -0.8146  1.2357
 8165SOL     OW36127   2.755   0.029   9.555  0.2323  0.0162 -0.0652
 8165SOL    HW136128   2.779   0.094   9.622 -0.8369  1.5887 -1.1928
 8165SOL    HW236129   2.687   4.714   9.596 -0.6941  0.7767 -0.6088
 8166SOL     OW36130   1.237   1.888   0.276  0.2642 -0.3583 -0.4825
 8166SOL    HW136131   1.196   1.803   0.259  1.3308 -0.6169 -1.7366
 8166SOL    HW236132   1.231   1.940   0.197  0.7409  1.3393  0.6046
 8167SOL     OW36133   3.951   1.689   6.843 -0.4758 -0.3321 -0.5036
 8167SOL    HW136134   4.005   1.611   6.835  1.2860  0.7552  0.6842
 8167SOL    HW236135   3.865   1.649   6.834 -0.3618 -0.3921 -1.3646
 8168SOL     OW36136   3.071   1.962   3.079 -0.5502  0.5988 -0.2756
 8168SOL    HW136137   3.152   1.913   3.091 -0.6080  0.8387  1.0664
 8168SOL    HW236138   3.011   1.916   3.138 -0.2838  1.4368  0.6377
 8169SOL     OW36139   4.277   4.158   7.883  0.2792 -0.3685  0.1012
 8169SOL    HW136140   4.201   4.195   7.928  0.3292 -0.2691  0.1030
 8169SOL    HW236141   4.313   4.243   7.858  0.8480 -0.4215  0.7381
 8170SOL     OW36142   3.502   0.310   9.764 -0.7337  0.2792  0.2391
 8170SOL    HW136143   3.583   0.356   9.744 -1.8029  1.5332 -1.2097
 8170SOL    HW236144   3.461   0.307   9.678 -2.7763 -1.0175  1.2542
 8171SOL     OW36145   2.383   2.979   9.556 -0.5457 -0.3237  0.0064
 8171SOL    HW136146   2.320   3.029   9.607 -3.4903 -3.8520 -0.1903
 8171SOL    HW236147   2.320   2.949   9.491  1.2617  0.6489 -2.2101
 8172SOL     OW36148   2.553   3.220   3.930  0.1744 -0.1066 -0.5945
 8172SOL    HW136149   2.464   3.192   3.906 -1.0573  0.9539  2.6872
 8172SOL    HW236150   2.562   3.306   3.890  3.3552 -0.6294 -0.9583
 8173SOL     OW36151   1.199   0.687   3.992 -0.9697  0.3077 -0.0394
 8173SOL    HW136152   1.171   0.775   4.018  0.1576  0.2779  1.3430
 8173SOL    HW236153   1.194   0.648   4.080  0.3874 -0.6246 -0.3763
 8174SOL     OW36154   0.476   0.836   3.969  0.4193 -0.0794 -0.3648
 8174SOL    HW136155   0.534   0.907   3.996  1.0108 -0.2261 -1.2160
 8174SOL    HW236156   0.437   0.876   3.891  1.0162  1.3347  0.0561
 8175SOL     OW36157   3.740   3.195   9.780 -0.2256  0.0365  0.1965
 8175SOL    HW136158   3.665   3.253   9.791 -0.0593  0.2626  0.1590
 8175SOL    HW236159   3.760   3.199   9.686 -0.2517  2.0385  0.2667
 8176SOL     OW36160   2.036   3.644   5.094 -0.0820  0.3634  0.4020
 8176SOL    HW136161   1.986   3.674   5.170  0.4412  0.4932  0.6982
 8176SOL    HW236162   2.123   3.679   5.113  0.5073 -0.8840 -0.0222
 8177SOL     OW36163   0.430   0.444   2.244  0.2405  0.1777 -0.4894
 8177SOL    HW136164   0.499   0.439   2.310 -1.0812  1.7179  0.9923
 8177SOL    HW236165   0.360   0.497   2.283 -0.1040 -0.8553  0.2775
 8178SOL     OW36166   4.253   0.997   5.987  0.4459  0.6630 -0.2966
 8178SOL    HW136167   4.305   0.919   6.005 -2.5999 -0.8996  1.7335
 8178SOL    HW236168   4.243   0.987   5.892  1.0717  1.0662 -0.4027
 8179SOL     OW36169   2.682   0.740   1.110 -0.2011  0.1991  0.1360
 8179SOL    HW136170   2.657   0.826   1.077 -1.2244  0.4102  1.4925
 8179SOL    HW236171   2.611   0.714   1.168 -0.2912 -0.2844 -0.1920
 8180SOL     OW36172   1.445   0.553   1.902 -0.7519  0.3384  0.0921
 8180SOL    HW136173   1.516   0.494   1.926  1.0005  2.0302 -0.9808
 8180SOL    HW236174   1.374   0.494   1.874 -0.4070  0.1662 -0.4000
 8181SOL     OW36175   0.875   1.300   6.454 -0.1593 -0.2434  0.0815
 8181SOL    HW136176   0.898   1.240   6.383  1.2070 -0.4287  0.6857
 8181SOL    HW236177   0.868   1.238   6.526 -1.8650  1.1876  1.1731
 8182SOL     OW36178   3.104   1.979  16.587 -0.0775 -0.4851  0.4221
 8182SOL    HW136179   3.014   2.005  16.567 -0.8233 -3.5868 -0.3136
 8182SOL    HW236180   3.091   1.941  16.675 -1.5401  1.6832  1.1355
 8183SOL     OW36181   4.660   2.439  10.286  0.2653 -0.4003  0.4517
 8183SOL    HW136182   4.613   2.365  10.324 -0.2054  0.5594  1.7426
 8183SOL    HW236183   4.708   2.394  10.217 -0.2350 -0.3358  0.0660
 8184SOL     OW36184   4.223   0.818  17.096  0.4468  0.1702 -0.0189
 8184SOL    HW136185   4.237   0.738  17.046  1.9687  0.3717  0.0679
 8184SOL    HW236186   4.130   0.833  17.081  0.4108  2.1552  2.3709
 8185SOL     OW36187   1.047   2.188   6.511 -0.3764 -0.0728 -0.4885
 8185SOL    HW136188   1.094   2.125   6.457  2.5296  1.3018  0.4407
 8185SOL    HW236189   1.023   2.254   6.446  2.0115 -0.8325 -2.1233
 8186SOL     OW36190   4.225   2.976   0.303 -0.0700 -0.7396 -0.3029
 8186SOL    HW136191   4.276   2.930   0.369  1.7181  1.4881 -0.1567
 8186SOL    HW236192   4.181   3.037   0.363  2.1202  0.7694 -0.2311
 8187SOL     OW36193   0.938   1.111   3.096  0.2963  0.5584 -0.2796
 8187SOL    HW136194   1.021   1.151   3.071  0.1851  1.2274  0.4429
 8187SOL    HW236195   0.964   1.024   3.123  0.1876  0.1231 -1.5704
 8188SOL     OW36196   1.146   4.179   8.145  0.2222 -0.8126 -0.1081
 8188SOL    HW136197   1.204   4.107   8.170  2.2292  1.8576  2.8380
 8188SOL    HW236198   1.213   4.246   8.157  0.7720 -1.4635  0.4782
 8189SOL     OW36199   4.270   4.021   8.279 -0.1063  0.5756 -0.3505
 8189SOL    HW136200   4.197   4.014   8.217  0.5009  1.5220 -1.1739
 8189SOL    HW236201   4.341   4.000   8.219 -1.3692 -1.3109 -1.1801
 8190SOL     OW36202   3.551   0.109   1.663  0.2826  0.1218  0.4084
 8190SOL    HW136203   3.562   0.015   1.653  1.3649  0.3132 -0.1114
 8190SOL    HW236204   3.459   0.131   1.676  0.5576  1.9016 -0.7364
 8191SOL     OW36205   0.237   4.067  16.183 -0.9487 -0.0433 -0.2315
 8191SOL    HW136206   0.202   4.082  16.095 -0.4269 -1.6452 -0.7043
 8191SOL    HW236207   0.260   3.975  16.172  2.8139  1.1321 -2.3582
 8192SOL     OW36208   2.511   2.135   3.579  0.7916 -0.3323 -0.1214
 8192SOL    HW136209   2.509   2.225   3.547 -0.0565 -0.9396 -1.7462
 8192SOL    HW236210   2.535   2.153   3.670 -1.5298 -1.8964  0.8056
 8193SOL     OW36211   2.720   2.875   8.209  0.2872  0.2866 -0.4288
 8193SOL    HW136212   2.803   2.843   8.246 -0.6339 -1.4433  0.1352
 8193SOL    HW236213   2.717   2.966   8.239 -0.7133  0.6994 -1.7617
 8194SOL     OW36214   1.533   3.831  10.608 -0.2790  0.5000 -0.4344
 8194SOL    HW136215   1.509   3.923  10.601  0.8213  0.8319  0.1027
 8194SOL    HW236216   1.453   3.783  10.631  0.5348 -0.5488  0.2387
 8195SOL     OW36217   4.687   3.964   2.350 -0.2228 -0.2444  0.0185
 8195SOL    HW136218   4.677   3.890   2.410  1.8722 -1.4382 -1.1037
 8195SOL    HW236219   4.693   3.914   2.268  0.4924 -0.9356  0.4865
 8196SOL     OW36220   2.108   0.565   9.845  0.1349 -0.5474 -0.2324
 8196SOL    HW136221   2.020   0.529   9.858 -0.2365  0.3489 -0.2211
 8196SOL    HW236222   2.111   0.630   9.775  1.9070  0.9183  1.2026
 8197SOL     OW36223   0.478   0.951   8.145 -0.0293  0.2787  0.3408
 8197SOL    HW136224   0.461   1.033   8.191  1.4439  1.2045 -0.7268
 8197SOL    HW236225   0.414   0.891   8.182  0.1825  0.3391  0.8044
 8198SOL     OW36226   1.161   0.646   2.420  0.2196  0.0802 -0.5350
 8198SOL    HW136227   1.250   0.631   2.452 -0.8361  0.0984  2.4039
 8198SOL    HW236228   1.136   0.714   2.482  1.5273 -0.8257  0.9721
 8199SOL     OW36229   3.290   0.051  15.137 -0.4985  0.2933 -0.4030
 8199SOL    HW136230   3.232   0.083  15.068 -0.9354  2.1205  0.7931
 8199SOL    HW236231   3.346   0.129  15.137  0.1695 -0.2122  2.1735
 8200SOL     OW36232   2.810   1.763   6.568  0.4306  0.6142  0.1823
 8200SOL    HW136233   2.878   1.696   6.580 -1.1295 -0.9221  0.6006
 8200SOL    HW236234   2.871   1.830   6.539  0.3026  0.8643  0.4939
 8201SOL     OW36235   4.411   4.709   6.775 -0.0025  0.5134 -0.0983
 8201SOL    HW136236   4.446   0.060   6.773  2.8598 -0.5834  2.3502
 8201SOL    HW236237   4.479   4.660   6.728 -0.0453  1.4347 -1.1205
 8202SOL     OW36238   1.491   4.280   1.599 -0.7499 -0.0441 -0.2088
 8202SOL    HW136239   1.480   4.278   1.694  1.1759 -2.0572 -0.0216
 8202SOL    HW236240   1.524   4.370   1.595  0.2083 -0.4015 -0.5016
 8203SOL     OW36241   1.744   0.007  15.417  0.0995 -0.3651  0.1330
 8203SOL    HW136242   1.750   0.000  15.512 -0.6839  0.1588  0.2221
 8203SOL    HW236243   1.658   0.049  15.412  0.3282  0.2932  1.6425
 8204SOL     OW36244   1.133   3.536  14.646  0.4029 -0.4548  0.2001
 8204SOL    HW136245   1.166   3.593  14.716  0.5917 -0.5762  0.2121
 8204SOL    HW236246   1.165   3.449  14.673  1.9638 -0.0088 -0.1679
 8205SOL     OW36247   1.162   3.586  13.666  0.4103  0.5624  0.1778
 8205SOL    HW136248   1.244   3.591  13.715  0.4020 -1.1716  0.3712
 8205SOL    HW236249   1.179   3.660  13.606 -1.4096  0.0028 -1.0345
 8206SOL     OW36250   0.138   3.138  10.963 -0.4847 -0.8738 -0.8151
 8206SOL    HW136251   0.198   3.073  10.924  0.5234 -0.0309 -0.6774
 8206SOL    HW236252   0.112   3.189  10.886 -1.8111 -1.0010 -0.4462
 8207SOL     OW36253   1.908   2.250   8.304  0.0959 -0.1174 -0.1792
 8207SOL    HW136254   1.933   2.281   8.391  1.7225 -4.5672  0.9284
 8207SOL    HW236255   1.992   2.217   8.273 -0.9290 -1.5598 -1.4108
 8208SOL     OW36256   1.433   0.526  10.008  0.0898  0.3382  0.3025
 8208SOL    HW136257   1.484   0.474  10.071  0.0767 -0.3212 -0.2377
 8208SOL    HW236258   1.402   0.592  10.070  1.3627  2.9188 -1.8398
 8209SOL     OW36259   2.136   2.306   3.475  0.0432 -0.4126  0.0840
 8209SOL    HW136260   2.210   2.251   3.449 -0.0596 -0.7637  0.5327
 8209SOL    HW236261   2.097   2.327   3.390 -0.3271  1.3488  0.7016
 8210SOL     OW36262   3.004   4.474  11.739  0.2873 -0.1382 -0.3760
 8210SOL    HW136263   2.962   4.559  11.753 -0.3683 -0.7570  1.3584
 8210SOL    HW236264   2.993   4.469  11.644  0.3529  1.1698 -0.4540
 8211SOL     OW36265   2.710   3.370   9.476  0.1373  0.9002 -0.0733
 8211SOL    HW136266   2.727   3.462   9.494  1.0258  1.0124 -1.4573
 8211SOL    HW236267   2.705   3.378   9.380 -0.1739  0.2014 -0.1177
 8212SOL     OW36268   3.617   2.607   5.735 -0.3335 -0.0040  0.3709
 8212SOL    HW136269   3.681   2.563   5.790  0.3132 -0.1213 -0.4900
 8212SOL    HW236270   3.533   2.594   5.780 -1.6446  0.6755 -1.8345
 8213SOL     OW36271   2.233   2.403  15.013 -0.3961  0.0211  0.4857
 8213SOL    HW136272   2.292   2.330  15.031 -1.9919 -1.0796  1.1774
 8213SOL    HW236273   2.156   2.348  15.001 -0.1075 -0.2367 -0.1973
 8214SOL     OW36274   4.273   3.914  15.207 -0.1921 -0.2969 -0.1933
 8214SOL    HW136275   4.236   3.901  15.120 -0.3071 -1.5585  0.0480
 8214SOL    HW236276   4.235   4.000  15.229  0.8633 -0.1015  0.8669
 8215SOL     OW36277   2.556   3.438   6.098  0.3765 -0.4022 -0.1560
 8215SOL    HW136278   2.555   3.353   6.054  0.1260 -0.8556  0.7256
 8215SOL    HW236279   2.648   3.434   6.124  1.2408 -0.6046 -3.2363
 8216SOL     OW36280   3.084   4.220  12.112 -0.2702  0.6603 -0.1195
 8216SOL    HW136281   3.045   4.212  12.025 -0.7993 -0.8250  0.2552
 8216SOL    HW236282   3.155   4.156  12.109 -1.6594 -0.9501  1.8449
 8217SOL     OW36283   0.600   3.434   8.058  0.1081 -0.5673  0.6845
 8217SOL    HW136284   0.551   3.415   8.137 -0.4531 -1.3481  0.1443
 8217SOL    HW236285   0.671   3.485   8.097 -0.3234  1.5875 -1.3502
 8218SOL     OW36286   3.257   2.633  14.724 -0.3075  0.5135  0.3921
 8218SOL    HW136287   3.239   2.726  14.737  0.9040  0.6897  0.8961
 8218SOL    HW236288   3.187   2.590  14.773 -0.4286  1.4166  1.0165
 8219SOL     OW36289   2.350   2.929   3.766 -0.0050  0.1647 -0.1481
 8219SOL    HW136290   2.292   2.856   3.786  1.1764 -0.8757 -0.6052
 8219SOL    HW236291   2.308   2.991   3.827 -3.0603 -0.3505 -1.7017
 8220SOL     OW36292   3.981   1.531   2.765 -0.4225 -0.1942  0.3028
 8220SOL    HW136293   4.042   1.579   2.820  1.1202 -0.3355 -1.3031
 8220SOL    HW236294   4.007   1.440   2.779  0.1310 -0.3932 -2.0399
 8221SOL     OW36295   2.433   2.871   2.330  0.6666  0.0754 -0.0772
 8221SOL    HW136296   2.469   2.786   2.306  0.4320 -0.3341  1.0197
 8221SOL    HW236297   2.480   2.860   2.412  0.3305  0.7347  0.2091
 8222SOL     OW36298   2.600   3.339   0.388  0.5198 -0.0135  0.5973
 8222SOL    HW136299   2.619   3.383   0.471 -0.3499  0.5266  0.5075
 8222SOL    HW236300   2.650   3.398   0.331  0.6673  0.4693  1.2265
 8223SOL     OW36301   2.013   4.446   0.692  0.6824 -0.3745  0.1274
 8223SOL    HW136302   2.071   4.373   0.712  3.4298  1.4702 -1.1314
 8223SOL    HW236303   1.940   4.394   0.658  0.6183 -1.0144  1.2158
 8224SOL     OW36304   3.011   4.228   5.664  0.3680  0.7891  0.0524
 8224SOL    HW136305   2.981   4.257   5.578 -1.7914  2.0565  1.2389
 8224SOL    HW236306   3.097   4.188   5.652 -0.0014 -0.0572  0.1642
 8225SOL     OW36307   0.254   3.427   8.882  0.3845 -0.7942  0.1371
 8225SOL    HW136308   0.297   3.512   8.880 -0.7972 -0.1705  1.2148
 8225SOL    HW236309   0.169   3.450   8.920 -0.4274 -1.5761 -1.2023
 8226SOL     OW36310   2.975   1.869  13.098 -0.4003 -0.1450  0.3609
 8226SOL    HW136311   2.991   1.903  13.185 -1.3659 -1.8700  1.2146
 8226SOL    HW236312   2.922   1.938  13.058 -0.7656 -0.3341  0.5146
 8227SOL     OW36313   2.712   4.523   7.196 -0.6841  0.6525  0.0108
 8227SOL    HW136314   2.626   4.483   7.180 -0.1826 -0.0158 -0.9845
 8227SOL    HW236315   2.749   4.451   7.247 -0.2100 -0.2736 -1.6467
 8228SOL     OW36316   0.744   3.815   7.458 -0.2433 -0.7930 -0.9535
 8228SOL    HW136317   0.807   3.746   7.439 -0.9834 -1.8610  0.5161
 8228SOL    HW236318   0.711   3.786   7.542 -0.1741  0.0683 -0.6251
 8229SOL     OW36319   1.187   2.268  13.256 -0.3127  0.5556 -0.2762
 8229SOL    HW136320   1.274   2.282  13.294 -0.3520  1.7661 -0.6134
 8229SOL    HW236321   1.137   2.256  13.337  0.4603  1.5640  0.3532
 8230SOL     OW36322   0.635   4.421  13.604  0.7885 -0.1273  0.3801
 8230SOL    HW136323   0.618   4.357  13.673  1.5767 -0.0853  0.6160
 8230SOL    HW236324   0.728   4.409  13.587  1.2998  1.1961  2.1953
 8231SOL     OW36325   1.295   1.318   3.679  0.9701  0.1075 -0.1326
 8231SOL    HW136326   1.376   1.301   3.727  1.6307 -0.5134 -1.4818
 8231SOL    HW236327   1.247   1.340   3.759 -0.0963 -0.7274 -0.5538
 8232SOL     OW36328   4.107   1.607  13.608 -0.1012  0.1077 -0.0610
 8232SOL    HW136329   4.202   1.620  13.617 -0.3567  1.0174  1.2787
 8232SOL    HW236330   4.090   1.542  13.677 -0.8105  0.8920  0.4944
 8233SOL     OW36331   4.661   1.161   3.822 -0.0516 -0.1658  0.5332
 8233SOL    HW136332   4.622   1.083   3.860 -0.3760 -0.6623 -0.8283
 8233SOL    HW236333   4.648   1.141   3.729  2.2082  0.2728  0.1260
 8234SOL     OW36334   0.965   3.510   4.995 -0.4444 -0.1314 -0.0601
 8234SOL    HW136335   0.965   3.480   4.905 -1.5994  0.6781 -0.3247
 8234SOL    HW236336   0.990   3.603   4.994 -1.2435  0.0710 -0.5289
 8235SOL     OW36337   2.188   1.417   5.720  0.3658 -0.2231  0.0838
 8235SOL    HW136338   2.199   1.509   5.741  0.1687 -0.0708 -0.4808
 8235SOL    HW236339   2.246   1.405   5.645 -0.1639 -0.7988 -0.2368
 8236SOL     OW36340   2.478   1.216   7.127  0.1425 -0.0418  0.0029
 8236SOL    HW136341   2.403   1.172   7.169 -0.1078 -0.0014 -0.3970
 8236SOL    HW236342   2.536   1.235   7.200  0.5292  3.0775 -1.1520
 8237SOL     OW36343   0.767   4.592  11.867  0.6777 -0.9892 -0.4390
 8237SOL    HW136344   0.723   4.507  11.863  0.0159 -0.6427 -0.5214
 8237SOL    HW236345   0.755   4.619  11.958  1.5056 -1.7035 -0.1301
 8238SOL     OW36346   4.721   3.674  16.800  0.4367  0.2273  0.5761
 8238SOL    HW136347   0.026   3.592  16.825  2.0370  0.6786 -0.6735
 8238SOL    HW236348   4.711   3.725  16.880  1.0000  0.7895  0.2882
 8239SOL     OW36349   1.366   3.774   5.924  0.2111 -0.1001 -0.0418
 8239SOL    HW136350   1.401   3.846   5.976  0.0563  1.6999 -2.4599
 8239SOL    HW236351   1.291   3.743   5.974 -0.6164  3.1821  0.7107
 8240SOL     OW36352   4.015   4.673  15.231 -0.2111 -0.9511  0.0892
 8240SOL    HW136353   4.090   4.654  15.287  1.6051 -0.3681 -2.1387
 8240SOL    HW236354   3.954   4.712  15.293 -0.2932  0.2057 -0.7191
 8241SOL     OW36355   1.896   0.003   8.356 -0.0118 -0.5784 -1.0444
 8241SOL    HW136356   1.961   4.718   8.289 -0.3679 -3.3449 -0.4509
 8241SOL    HW236357   1.907   0.098   8.369 -0.9066 -0.5307 -0.6466
 8242SOL     OW36358   3.596   1.746   2.566  0.3633 -0.2583 -0.4065
 8242SOL    HW136359   3.553   1.796   2.635 -0.0347 -1.8844  0.5068
 8242SOL    HW236360   3.678   1.723   2.610  1.7753  0.0641 -2.8502
 8243SOL     OW36361   3.154   0.039   9.555  0.3624  0.1099 -0.7187
 8243SOL    HW136362   3.250   0.037   9.555  0.4288  2.6742  1.4246
 8243SOL    HW236363   3.133   0.085   9.636 -1.3400  2.1501 -2.3304
 8244SOL     OW36364   1.486   0.199   1.366  0.2409  0.2372 -0.2941
 8244SOL    HW136365   1.541   0.125   1.391  0.8304  1.6233  2.4865
 8244SOL    HW236366   1.454   0.236   1.448  1.1403  3.1409 -1.2307
 8245SOL     OW36367   0.670   0.179   8.041  0.3102  0.2365  0.4691
 8245SOL    HW136368   0.729   0.190   8.116  1.3379 -0.5750 -0.2233
 8245SOL    HW236369   0.609   0.249   8.061  0.1993 -0.3831  2.2548
 8246SOL     OW36370   2.177   0.022  11.715 -0.4149 -0.5085  0.1644
 8246SOL    HW136371   2.195   0.099  11.661  0.7169 -2.0302 -1.6256
 8246SOL    HW236372   2.114   4.721  11.655 -0.7543  0.6908 -0.2502
 8247SOL     OW36373   1.050   1.514   4.688 -0.3706  0.1873  0.0367
 8247SOL    HW136374   0.996   1.468   4.753  1.4510  0.9820  2.1101
 8247SOL    HW236375   1.023   1.605   4.697 -1.3138 -0.1753  0.9424
 8248SOL     OW36376   3.382   3.474   4.686  0.4890 -0.0807  0.3068
 8248SOL    HW136377   3.362   3.566   4.703 -0.8518 -0.3068 -0.0077
 8248SOL    HW236378   3.304   3.457   4.632 -0.4228 -1.4117  2.0534
 8249SOL     OW36379   3.472   2.475   4.769 -0.1419 -0.0739  0.2871
 8249SOL    HW136380   3.451   2.438   4.855 -1.8554  1.7121  0.6265
 8249SOL    HW236381   3.567   2.469   4.765 -0.2319 -0.0619 -1.8372
 8250SOL     OW36382   0.591   2.544  10.024 -0.1349 -1.0693 -0.1043
 8250SOL    HW136383   0.515   2.596  10.050  0.8535  0.8187 -0.9744
 8250SOL    HW236384   0.566   2.452  10.018 -1.3254 -0.8190  0.9905
 8251SOL     OW36385   0.083   3.348   3.603 -0.4703 -0.2337 -0.3978
 8251SOL    HW136386   0.042   3.389   3.679 -1.1331 -0.8362 -0.4383
 8251SOL    HW236387   0.056   3.256   3.604  1.0932 -0.6987 -1.8259
 8252SOL     OW36388   4.569   2.520  12.917 -1.2627 -0.4423  0.7073
 8252SOL    HW136389   4.593   2.432  12.890  0.2240 -0.0577  0.7403
 8252SOL    HW236390   4.649   2.560  12.953 -0.9592 -1.0710  0.7242
 8253SOL     OW36391   4.245   1.120   5.427 -0.5634 -0.5272  0.4149
 8253SOL    HW136392   4.317   1.090   5.372 -0.4150  3.5342 -1.6819
 8253SOL    HW236393   4.173   1.125   5.364 -1.3295  1.3831  1.4258
 8254SOL     OW36394   2.116   0.943   2.831  0.2190  0.1118  0.1756
 8254SOL    HW136395   2.138   0.859   2.869  0.5205 -0.0557 -0.3670
 8254SOL    HW236396   2.193   1.000   2.829  0.5262 -0.2934  0.4466
 8255SOL     OW36397   2.321   4.248  15.458  0.0752 -0.0670  0.1630
 8255SOL    HW136398   2.283   4.282  15.377  0.1133 -0.4281 -0.0085
 8255SOL    HW236399   2.276   4.293  15.529 -0.7435 -0.5286 -0.0656
 8256SOL     OW36400   1.030   3.488   9.653  0.1051  0.2131  0.1506
 8256SOL    HW136401   1.013   3.422   9.720 -0.3536  0.0693 -0.1104
 8256SOL    HW236402   0.956   3.547   9.667  1.7277  1.8245  2.0203
 8257SOL     OW36403   3.045   0.315   7.596  0.4281  0.2933  0.3218
 8257SOL    HW136404   3.055   0.329   7.502 -0.0554 -0.9790  0.0763
 8257SOL    HW236405   3.107   0.377   7.633  1.0423  1.5464 -2.8271
 8258SOL     OW36406   2.524   0.612   5.450 -0.3898 -0.2427  0.4861
 8258SOL    HW136407   2.507   0.520   5.431 -0.6693  0.0717 -0.7990
 8258SOL    HW236408   2.562   0.609   5.538 -0.1486 -2.7757  0.3169
 8259SOL     OW36409   2.455   0.041   3.987 -0.2774  0.7523  0.7974
 8259SOL    HW136410   2.427   4.698   3.944 -0.9024  2.5134 -2.1268
 8259SOL    HW236411   2.447   0.099   3.911  0.6027 -0.3330 -0.1151
 8260SOL     OW36412   0.259   1.652   9.201 -0.0432 -0.1615  0.0220
 8260SOL    HW136413   0.249   1.599   9.122  3.1884 -1.2091  0.2803
 8260SOL    HW236414   0.223   1.599   9.272  0.2521 -1.0316 -0.4761
 8261SOL     OW36415   3.531   2.242   4.202  0.1551 -0.4551 -0.6054
 8261SOL    HW136416   3.510   2.303   4.273 -0.6736 -0.3056 -0.9782
 8261SOL    HW236417   3.623   2.263   4.189  0.2696  0.9551  2.4404
 8262SOL     OW36418   2.024   1.697   4.924 -0.7743  0.3029  0.4776
 8262SOL    HW136419   1.938   1.725   4.893 -1.4700 -1.5107  0.7018
 8262SOL    HW236420   2.025   1.601   4.930  2.3439  0.2603 -0.6275
 8263SOL     OW36421   2.647   3.110   1.662  0.2074  0.7268  0.3846
 8263SOL    HW136422   2.729   3.154   1.683  1.2208 -0.8870 -0.1451
 8263SOL    HW236423   2.651   3.056   1.741  0.8620 -2.4432 -1.8031
 8264SOL     OW36424   2.130   1.646   8.821  0.1865  0.0191  0.1740
 8264SOL    HW136425   2.099   1.736   8.833 -2.4706 -0.5179 -2.6001
 8264SOL    HW236426   2.201   1.629   8.883 -0.1204 -0.1685  0.4718
 8265SOL     OW36427   0.349   4.083   4.236 -0.0884  0.3631  0.3611
 8265SOL    HW136428   0.334   3.990   4.251 -2.2297  0.3642 -1.7543
 8265SOL    HW236429   0.275   4.133   4.272 -1.0034 -0.2532 -0.6784
 8266SOL     OW36430   0.243   0.389   1.642  0.1414 -0.4309 -0.6551
 8266SOL    HW136431   0.170   0.348   1.688  0.5145  1.5505  1.6781
 8266SOL    HW236432   0.316   0.383   1.704 -0.9187  0.2061  0.6395
 8267SOL     OW36433   0.350   3.649   5.161  0.3721  0.0722 -0.0262
 8267SOL    HW136434   0.297   3.716   5.203 -1.7681 -1.1816 -0.7222
 8267SOL    HW236435   0.367   3.681   5.072 -1.7420  0.1386 -0.3866
 8268SOL     OW36436   2.240   2.009   8.759  0.3930  0.0580 -0.1308
 8268SOL    HW136437   2.268   2.054   8.679 -1.3085  1.5872  0.1522
 8268SOL    HW236438   2.150   2.038   8.771  0.9685  0.8068  2.3015
 8269SOL     OW36439   2.253   2.744  16.669 -0.4133  0.3089  0.3213
 8269SOL    HW136440   2.331   2.761  16.616  1.4731 -0.0789  2.9861
 8269SOL    HW236441   2.202   2.679  16.620 -0.7540 -0.2414  1.4046
 8270SOL     OW36442   4.702   3.877  12.791 -0.3765  0.1308  0.3638
 8270SOL    HW136443   0.001   3.846  12.873 -2.0695 -3.9150 -0.3967
 8270SOL    HW236444   4.642   3.940  12.831 -1.4469 -0.3476 -0.4807
 8271SOL     OW36445   0.399   4.496  12.102  0.2723 -0.1385 -0.2155
 8271SOL    HW136446   0.380   4.450  12.184 -1.0168  1.1040  0.1866
 8271SOL    HW236447   0.462   4.556  12.143  0.3648 -0.4186  0.0511
 8272SOL     OW36448   0.188   3.904   6.239  0.2997 -0.3957  0.4154
 8272SOL    HW136449   0.281   3.897   6.263  0.8512  1.4066 -1.2832
 8272SOL    HW236450   0.154   3.815   6.252  0.3890 -0.3887  0.7013
 8273SOL     OW36451   3.900   2.452  11.539 -0.0037  0.0435 -0.0444
 8273SOL    HW136452   3.982   2.422  11.579 -1.1745 -1.6841  1.0841
 8273SOL    HW236453   3.927   2.464  11.448 -0.5776  0.5507 -0.1489
 8274SOL     OW36454   1.149   4.457  13.662  0.2029  0.2352 -0.1191
 8274SOL    HW136455   1.154   4.525  13.730  0.5992 -0.4149  0.5054
 8274SOL    HW236456   1.169   4.380  13.714 -0.5198  0.7196  0.8737
 8275SOL     OW36457   1.414   1.481   2.575 -0.0837 -0.2474 -0.1047
 8275SOL    HW136458   1.343   1.416   2.576 -2.7337  2.6168  0.9869
 8275SOL    HW236459   1.490   1.427   2.554  1.1148  1.7841 -0.9814
 8276SOL     OW36460   1.976   3.893   4.866 -0.2161  0.3450 -0.1448
 8276SOL    HW136461   1.979   3.988   4.882 -0.8078  0.0441  1.7440
 8276SOL    HW236462   1.933   3.866   4.947 -0.6908 -3.5753 -1.7099
 8277SOL     OW36463   3.373   0.149  17.065  0.2002  0.6902 -0.4549
 8277SOL    HW136464   3.438   0.157  16.996  0.4865 -0.0587 -0.2743
 8277SOL    HW236465   3.347   0.241  17.071 -0.7838  0.3741  0.1359
 8278SOL     OW36466   1.566   0.681   7.239 -0.0426  0.3544 -0.6803
 8278SOL    HW136467   1.587   0.759   7.291 -0.2912 -0.3869  0.5243
 8278SOL    HW236468   1.478   0.662   7.273  0.8326 -0.6660  0.9942
 8279SOL     OW36469   2.349   0.524  12.610  0.7094  0.2879 -0.2561
 8279SOL    HW136470   2.269   0.536  12.663  0.3229  1.4580 -1.1113
 8279SOL    HW236471   2.313   0.549  12.525  0.8149 -1.6778 -0.8625
 8280SOL     OW36472   3.415   2.435  14.579  0.2234 -0.1042 -0.2917
 8280SOL    HW136473   3.360   2.488  14.636  1.7409 -1.3381  2.3402
 8280SOL    HW236474   3.371   2.422  14.496  0.6412  0.2490 -0.5658
 8281SOL     OW36475   4.648   4.035   4.519  0.5826 -0.3952 -0.0669
 8281SOL    HW136476   4.674   4.081   4.599  0.3439 -0.3822  0.0031
 8281SOL    HW236477   4.563   4.000   4.547  0.3365 -0.9256 -1.4390
 8282SOL     OW36478   0.671   1.941  14.492 -0.2938  0.0545  0.0182
 8282SOL    HW136479   0.608   1.927  14.422  2.1092  1.8031 -2.4914
 8282SOL    HW236480   0.679   1.856  14.534 -0.6245 -0.4324 -0.9194
 8283SOL     OW36481   1.695   3.005   2.296  0.1786 -0.2438 -0.0784
 8283SOL    HW136482   1.637   2.947   2.345 -0.1068  0.0384 -0.0872
 8283SOL    HW236483   1.776   3.008   2.347  0.5901 -0.7537 -0.6970
 8284SOL     OW36484   2.859   1.560   8.947 -0.0982  0.2508  0.5971
 8284SOL    HW136485   2.811   1.534   8.868  0.2590  1.7922 -0.1306
 8284SOL    HW236486   2.784   1.576   9.003  1.6708  0.3425  2.9304
 8285SOL     OW36487   4.365   2.351   6.776 -0.2380  0.5149 -0.3669
 8285SOL    HW136488   4.435   2.286   6.772  2.0426  2.8624  0.9604
 8285SOL    HW236489   4.400   2.414   6.839 -0.7334  0.6494 -0.2243
 8286SOL     OW36490   1.253   2.599   3.548 -0.1019  0.5458 -0.0669
 8286SOL    HW136491   1.210   2.549   3.478  1.2667 -1.3408  0.4231
 8286SOL    HW236492   1.208   2.683   3.540  1.4767  1.3281 -0.8124
 8287SOL     OW36493   3.228   4.078   5.701 -0.2037 -0.6451 -0.0241
 8287SOL    HW136494   3.320   4.096   5.717 -0.0478 -2.2056  0.8341
 8287SOL    HW236495   3.213   4.014   5.771  1.7093 -1.0970 -0.0192
 8288SOL     OW36496   2.593   4.667   4.893  0.0500  0.6543 -0.2511
 8288SOL    HW136497   2.610   4.693   4.983 -1.1431 -0.8987  0.4176
 8288SOL    HW236498   2.502   4.695   4.886  0.6508  2.1573 -2.0118
 8289SOL     OW36499   4.293   2.172   2.104 -0.4373  0.2168  0.7063
 8289SOL    HW136500   4.281   2.171   2.199  0.8883  1.1386  0.8914
 8289SOL    HW236501   4.227   2.239   2.085 -1.3249 -0.5606  1.0692
 8290SOL     OW36502   3.997   1.136   8.936 -0.3639  0.4987  0.1950
 8290SOL    HW136503   4.061   1.208   8.938 -1.7963  1.7966 -0.7240
 8290SOL    HW236504   3.964   1.147   9.026 -1.3102  0.4710 -0.1461
 8291SOL     OW36505   0.069   2.519   6.940  0.2413  0.4258  0.2630
 8291SOL    HW136506   0.077   2.438   6.890 -1.0989  0.0004  0.7279
 8291SOL    HW236507   0.087   2.589   6.877 -4.1645  1.4773  0.1679
 8292SOL     OW36508   3.074   1.742   5.209  0.4747 -0.6667  0.2663
 8292SOL    HW136509   3.070   1.653   5.172  1.8432 -0.3399 -0.6711
 8292SOL    HW236510   3.154   1.771   5.166  0.2711  0.5815  0.7374
 8293SOL     OW36511   0.491   3.173  14.348 -0.1904 -0.6812 -0.5766
 8293SOL    HW136512   0.551   3.203  14.280  0.4428  0.0446  0.3052
 8293SOL    HW236513   0.473   3.081  14.327 -1.2067 -0.4315 -0.8226
 8294SOL     OW36514   1.408   2.074  11.690  0.3632  0.1556 -0.1021
 8294SOL    HW136515   1.410   2.077  11.595  2.7957  1.0799 -0.0274
 8294SOL    HW236516   1.491   2.119  11.709 -0.0573  0.0635  2.0074
 8295SOL     OW36517   1.026   3.078  15.275 -0.3744 -0.4619 -0.0072
 8295SOL    HW136518   0.939   3.039  15.273 -0.6946  0.1882  1.4990
 8295SOL    HW236519   1.078   3.028  15.338 -0.4390 -0.7703 -0.1969
 8296SOL     OW36520   0.292   1.862   0.773  0.1093  0.1639 -0.2795
 8296SOL    HW136521   0.378   1.824   0.758 -0.5748 -1.1913 -0.7218
 8296SOL    HW236522   0.304   1.947   0.730  0.1163 -0.5787 -1.7641
 8297SOL     OW36523   1.656   0.470   3.099  0.1269 -0.5988  0.1289
 8297SOL    HW136524   1.570   0.457   3.140 -1.7593  0.4431 -3.4954
 8297SOL    HW236525   1.714   0.436   3.166  0.7621 -0.3907 -0.3157
 8298SOL     OW36526   4.686   3.826   2.091 -0.2516 -0.6493  0.0064
 8298SOL    HW136527   4.636   3.746   2.110 -1.4568  0.1517  0.2347
 8298SOL    HW236528   0.037   3.801   2.066  0.5047 -0.0007  2.0279
 8299SOL     OW36529   0.505   2.427   6.424  0.3667 -0.0132 -0.0977
 8299SOL    HW136530   0.427   2.423   6.368  0.8836  3.3451 -1.0435
 8299SOL    HW236531   0.524   2.520   6.413  0.6022  0.1979  2.1686
 8300SOL     OW36532   3.439   3.875   1.365 -0.2873  0.2842 -0.0436
 8300SOL    HW136533   3.400   3.911   1.285  1.9513 -0.3639 -1.4324
 8300SOL    HW236534   3.478   3.796   1.327  0.3697  0.6780 -0.1782
 8301SOL     OW36535   0.798   3.837   4.747 -0.2259 -0.1388 -0.3329
 8301SOL    HW136536   0.830   3.913   4.699  0.4388 -0.4751 -0.4233
 8301SOL    HW236537   0.867   3.847   4.812  1.7756 -0.7993 -2.3271
 8302SOL     OW36538   0.390   4.435   0.478 -0.0227 -0.3737  0.4895
 8302SOL    HW136539   0.390   4.358   0.535  0.5904 -0.6041  0.1813
 8302SOL    HW236540   0.318   4.481   0.520 -1.2209 -0.0601 -1.9074
 8303SOL     OW36541   4.543   2.665  10.505 -0.9281 -0.5886  0.3090
 8303SOL    HW136542   4.463   2.613  10.514 -0.7451 -0.7366  1.0748
 8303SOL    HW236543   4.526   2.719  10.428 -0.1119 -2.9762 -1.5560
 8304SOL     OW36544   1.524   4.097   3.682  0.2322 -0.1128  0.2053
 8304SOL    HW136545   1.601   4.049   3.653  0.4467  0.1893  0.2721
 8304SOL    HW236546   1.470   4.103   3.603 -0.3950  3.2697  0.9072
 8305SOL     OW36547   0.372   1.134   8.299 -0.2215  0.2621 -0.2496
 8305SOL    HW136548   0.431   1.170   8.365 -2.8339  1.6637  1.3073
 8305SOL    HW236549   0.299   1.194   8.311 -0.3859  0.0880 -0.3712
 8306SOL     OW36550   1.392   1.376   6.748 -0.1640  0.0591  0.2726
 8306SOL    HW136551   1.341   1.449   6.714  0.4586  1.0794  1.5011
 8306SOL    HW236552   1.458   1.376   6.679  0.0759 -1.8459  0.4903
 8307SOL     OW36553   4.078   1.199   5.931 -0.1032 -0.3095 -0.0240
 8307SOL    HW136554   4.149   1.146   5.968  0.8854  0.9938 -0.0453
 8307SOL    HW236555   4.036   1.129   5.882 -0.1257 -0.8640  0.7884
 8308SOL     OW36556   3.004   2.886   5.804 -0.1409  0.4706 -0.3049
 8308SOL    HW136557   3.020   2.844   5.720 -1.4325  1.3837 -0.9988
 8308SOL    HW236558   2.917   2.917   5.780 -1.2923 -2.6414 -0.0838
 8309SOL     OW36559   1.201   0.186  13.363 -0.2450  0.0281 -0.0115
 8309SOL    HW136560   1.282   0.156  13.405  0.4292  1.1585 -0.5091
 8309SOL    HW236561   1.200   0.140  13.279 -1.3048 -0.5877  0.3375
 8310SOL     OW36562   1.739   2.373  13.366  0.2781 -0.1107  0.3553
 8310SOL    HW136563   1.784   2.289  13.351 -1.6699 -1.1864  0.5442
 8310SOL    HW236564   1.733   2.403  13.276  0.3142 -0.3283  0.2801
 8311SOL     OW36565   0.963   0.660   9.094 -0.3526  0.2005 -0.1012
 8311SOL    HW136566   0.975   0.721   9.022 -2.6978  2.2153  1.2387
 8311SOL    HW236567   1.046   0.667   9.141 -1.7064  2.4353  1.9341
 8312SOL     OW36568   0.989   0.532  12.349 -0.7937  0.6526  0.3379
 8312SOL    HW136569   0.973   0.553  12.257  0.0060  0.2567  0.1098
 8312SOL    HW236570   0.942   0.607  12.386  0.1370  1.9157 -1.0262
 8313SOL     OW36571   0.581   2.964   4.629 -0.3589  0.5605 -0.0685
 8313SOL    HW136572   0.607   2.933   4.716 -0.1502 -2.0098 -1.0632
 8313SOL    HW236573   0.492   2.929   4.635 -0.2244  0.1690 -0.4265
 8314SOL     OW36574   1.203   4.392   5.900 -0.0410  0.1263 -1.1669
 8314SOL    HW136575   1.259   4.464   5.929 -3.2306  1.9676  0.5033
 8314SOL    HW236576   1.119   4.436   5.886  0.3720  0.8661 -1.3427
 8315SOL     OW36577   2.266   3.031   6.790  0.1397 -0.1929 -0.6604
 8315SOL    HW136578   2.244   3.005   6.700  2.1155  0.4610 -1.3347
 8315SOL    HW236579   2.222   2.961   6.838  0.6223  0.7325  1.1128
 8316SOL     OW36580   2.086   0.068   7.049  0.1636  0.0726  0.0514
 8316SOL    HW136581   2.165   0.108   7.085  0.4989  2.4678 -3.4248
 8316SOL    HW236582   2.026   0.109   7.112 -0.0664 -0.6266  0.2856
 8317SOL     OW36583   3.819   1.534   7.551  0.3118 -0.0864 -0.0023
 8317SOL    HW136584   3.886   1.592   7.588 -2.1923  1.5150  2.0218
 8317SOL    HW236585   3.758   1.602   7.523 -0.0055 -0.9592 -1.4348
 8318SOL     OW36586   2.094   1.811   1.956 -0.0305 -0.3953  0.4848
 8318SOL    HW136587   2.145   1.751   1.902  1.3557  2.1953 -1.1328
 8318SOL    HW236588   2.095   1.893   1.906  0.8172 -1.0855 -0.6176
 8319SOL     OW36589   0.109   2.551   3.951 -0.0033  0.1837 -0.2238
 8319SOL    HW136590   0.101   2.617   4.020 -0.8885 -0.6615  0.4832
 8319SOL    HW236591   0.124   2.611   3.878  2.0258 -0.3256 -0.2189
 8320SOL     OW36592   1.460   1.391   7.903 -0.1743 -0.6231  0.1625
 8320SOL    HW136593   1.420   1.311   7.870 -0.9975  0.8278 -2.2790
 8320SOL    HW236594   1.551   1.376   7.875 -0.0020  0.4703  0.1221
 8321SOL     OW36595   4.171   0.508   7.412  0.0510 -0.3272 -0.2385
 8321SOL    HW136596   4.218   0.583   7.449 -1.6370  1.3325 -1.4687
 8321SOL    HW236597   4.217   0.498   7.329 -0.0454 -0.7060 -0.2497
 8322SOL     OW36598   2.241   2.381   8.754  0.4688  0.2127  0.5134
 8322SOL    HW136599   2.259   2.307   8.696  1.1264  1.8074 -1.3245
 8322SOL    HW236600   2.265   2.337   8.836  3.9403  0.6362 -0.2593
 8323SOL     OW36601   1.698   4.189   5.002  0.2406  0.5699 -0.3927
 8323SOL    HW136602   1.633   4.129   4.965 -1.0385  1.2063  0.8368
 8323SOL    HW236603   1.700   4.263   4.942  1.4726 -0.7838 -2.0320
 8324SOL     OW36604   1.609   3.391   7.453  1.0848 -0.5671 -0.5096
 8324SOL    HW136605   1.531   3.427   7.496  1.8574  3.9277 -2.8647
 8324SOL    HW236606   1.631   3.334   7.526 -1.8532 -0.9067  0.1231
 8325SOL     OW36607   1.685   0.674   0.646 -0.0714  0.1892  0.6316
 8325SOL    HW136608   1.648   0.682   0.558 -1.4391 -2.1199  0.9959
 8325SOL    HW236609   1.720   0.585   0.647 -3.0478 -0.9883 -1.2072
 8326SOL     OW36610   1.651   1.727  16.231 -0.1075  0.3237 -0.0889
 8326SOL    HW136611   1.652   1.648  16.178 -2.6087 -0.5983  1.2443
 8326SOL    HW236612   1.698   1.788  16.174  0.7813  0.4996  0.8360
 8327SOL     OW36613   1.389   0.420  12.076 -0.8176  0.4418  0.0076
 8327SOL    HW136614   1.325   0.441  12.009  0.2507  3.8239  0.0459
 8327SOL    HW236615   1.332   0.413  12.153  0.9563  0.9601  1.3972
 8328SOL     OW36616   1.068   4.067  11.199 -0.4684  0.2033 -0.2716
 8328SOL    HW136617   0.986   4.075  11.150 -1.3278 -2.4620  0.7375
 8328SOL    HW236618   1.116   3.992  11.165  0.6670  0.4186  0.8616
 8329SOL     OW36619   3.907   1.793   4.308  0.0498 -0.0663  0.4672
 8329SOL    HW136620   3.816   1.766   4.320  0.4954 -1.5978  0.4718
 8329SOL    HW236621   3.945   1.737   4.376 -1.7482  0.1574  1.6448
 8330SOL     OW36622   0.966   0.369   7.957  0.0635 -0.2774  0.3088
 8330SOL    HW136623   0.981   0.281   7.991 -0.6406 -0.3671  0.3807
 8330SOL    HW236624   1.052   0.377   7.914  1.2586  0.0200  2.7838
 8331SOL     OW36625   1.904   4.509   8.912 -0.0547 -0.3771  0.1815
 8331SOL    HW136626   1.859   4.564   8.976  1.4862  0.0597  0.8832
 8331SOL    HW236627   1.993   4.504   8.946  0.4314  0.1080 -1.0399
 8332SOL     OW36628   2.822   2.334  12.816 -0.4979  0.4587 -0.5175
 8332SOL    HW136629   2.907   2.291  12.805 -0.3125  1.0598 -1.4088
 8332SOL    HW236630   2.831   2.398  12.746  1.5734 -0.3133 -0.9719
 8333SOL     OW36631   2.013   4.265   1.005  0.8117  0.1231 -0.4534
 8333SOL    HW136632   2.039   4.181   1.041  0.7928  0.2639 -0.1183
 8333SOL    HW236633   1.921   4.279   1.030  1.1237  1.5976 -0.1433
 8334SOL     OW36634   1.665   3.365   1.117 -0.3011  0.1816 -0.4086
 8334SOL    HW136635   1.630   3.279   1.093  0.1019  0.1358 -0.8320
 8334SOL    HW236636   1.721   3.337   1.190 -2.1235  0.1980  0.9772
 8335SOL     OW36637   1.605   2.370   3.552 -0.4236 -0.4896 -0.2230
 8335SOL    HW136638   1.574   2.452   3.513  0.4050 -0.4318 -0.7464
 8335SOL    HW236639   1.540   2.308   3.519 -0.6418 -0.3453 -0.0717
 8336SOL     OW36640   3.059   1.770   6.349 -0.3690  0.3518  0.2009
 8336SOL    HW136641   3.014   1.854   6.358 -0.7334  0.2328 -0.5051
 8336SOL    HW236642   3.107   1.779   6.267  0.0225 -0.6418  0.3193
 8337SOL     OW36643   0.785   4.617  10.322  0.6348  0.1047 -1.3651
 8337SOL    HW136644   0.730   4.677  10.271  0.0043  1.1775  0.5515
 8337SOL    HW236645   0.765   4.651  10.409 -1.1610 -3.1470 -0.5049
 8338SOL     OW36646   4.468   1.945   6.730  0.3185  0.3014 -0.0030
 8338SOL    HW136647   4.390   1.965   6.678  0.4535 -0.8654 -0.6359
 8338SOL    HW236648   4.428   1.908   6.809  0.4994  0.8512  0.3491
 8339SOL     OW36649   2.525   1.196  17.361  0.0149  0.1608  0.6810
 8339SOL    HW136650   2.473   1.172  17.285  0.2888  0.9012  0.2611
 8339SOL    HW236651   2.579   1.117  17.361  1.8017  1.3692  0.2022
 8340SOL     OW36652   4.458   3.402   4.929 -0.0975 -0.6427  0.4720
 8340SOL    HW136653   4.467   3.452   5.010  0.8245 -1.7992  1.0928
 8340SOL    HW236654   4.551   3.405   4.908 -0.1796  0.8376  0.3344
 8341SOL     OW36655   0.407   1.895   6.036  0.0020 -0.1246  0.0364
 8341SOL    HW136656   0.415   1.818   6.093 -0.8075 -0.1620  0.0974
 8341SOL    HW236657   0.500   1.917   6.033 -0.0150 -0.1514 -0.7235
 8342SOL     OW36658   3.701   0.243   4.310  0.0710 -0.0282  0.2542
 8342SOL    HW136659   3.724   0.203   4.226 -0.4267  1.0264 -0.3811
 8342SOL    HW236660   3.758   0.319   4.297 -0.5106  0.5514  1.1286
 8343SOL     OW36661   4.541   1.567   4.557  0.2033 -0.3746  0.5762
 8343SOL    HW136662   4.614   1.516   4.592  0.0409  0.1864  1.7302
 8343SOL    HW236663   4.472   1.506   4.581  0.5962 -0.4457  1.5084
 8344SOL     OW36664   3.588   4.064  16.947  0.6099  0.2588  0.4447
 8344SOL    HW136665   3.656   4.068  17.014  2.6881  0.1528 -1.6443
 8344SOL    HW236666   3.616   4.134  16.888  0.7785 -2.7697 -3.0590
 8345SOL     OW36667   3.372   3.515   2.191 -0.1621  0.4357  0.1811
 8345SOL    HW136668   3.288   3.472   2.177  0.6569 -1.0642 -0.2051
 8345SOL    HW236669   3.435   3.456   2.148 -0.9277 -1.1294  1.2004
 8346SOL     OW36670   3.434   1.621   2.898 -0.2137  0.1043  0.5081
 8346SOL    HW136671   3.395   1.547   2.944  0.3655  0.0278  0.8790
 8346SOL    HW236672   3.526   1.613   2.925  0.0433 -0.7767 -0.6154
 8347SOL     OW36673   3.225   1.660   6.626 -0.7136 -0.3422 -0.2073
 8347SOL    HW136674   3.243   1.603   6.552 -2.8089 -4.3580  2.3650
 8347SOL    HW236675   3.142   1.629   6.662 -0.8783 -1.5298 -1.6589
 8348SOL     OW36676   4.236   2.076   6.112  0.6519  0.1281  0.1386
 8348SOL    HW136677   4.167   2.014   6.136  0.4744 -0.7798 -2.6939
 8348SOL    HW236678   4.289   2.013   6.064  1.3626  0.1819  0.8673
 8349SOL     OW36679   4.712   3.477   5.822  0.0186  0.0987 -0.1922
 8349SOL    HW136680   4.735   3.401   5.876 -0.8886  0.6839  1.0393
 8349SOL    HW236681   0.035   3.464   5.750 -0.6718  1.1662 -0.9652
 8350SOL     OW36682   1.674   4.706   0.777 -0.3039  0.1901 -0.2797
 8350SOL    HW136683   1.580   4.699   0.760 -0.2540 -0.0846 -0.4449
 8350SOL    HW236684   1.695   4.644   0.847 -0.7188 -0.1279 -0.4333
 8351SOL     OW36685   4.518   0.671   6.366  0.1157 -0.3736  0.2770
 8351SOL    HW136686   4.597   0.718   6.391 -0.9365  1.4494  0.2331
 8351SOL    HW236687   4.464   0.745   6.337  1.5756 -0.2041 -1.9973
 8352SOL     OW36688   1.041   4.505  13.393 -0.0574  0.3314  0.3932
 8352SOL    HW136689   1.074   4.528  13.479  1.5903  2.6321 -0.8652
 8352SOL    HW236690   0.992   4.430  13.428 -1.0824  0.0337 -1.6577
 8353SOL     OW36691   1.007   3.735   5.431  0.1187  0.5350 -0.3835
 8353SOL    HW136692   1.069   3.749   5.360  0.6988 -0.8142 -0.1436
 8353SOL    HW236693   1.026   3.802   5.497 -2.4332  1.0263 -0.1328
 8354SOL     OW36694   0.316   1.776  14.511  0.0181  0.4847  0.1077
 8354SOL    HW136695   0.403   1.780  14.471  0.8971 -1.6596  1.8044
 8354SOL    HW236696   0.308   1.860  14.555  1.6034  0.2825  0.7958
 8355SOL     OW36697   2.014   3.681   2.862 -0.4256 -0.1705  0.2779
 8355SOL    HW136698   2.097   3.730   2.863  0.4268 -1.5718 -0.8857
 8355SOL    HW236699   1.998   3.657   2.771 -0.5335 -2.0394  0.8037
 8356SOL     OW36700   1.558   3.944   0.528 -0.9140  0.5062  0.4255
 8356SOL    HW136701   1.562   3.903   0.442  2.3326  2.6090 -0.3933
 8356SOL    HW236702   1.475   3.906   0.558  0.1241 -1.1801  1.1255
 8357SOL     OW36703   4.211   1.420   3.029  0.0560  0.6037  0.3070
 8357SOL    HW136704   4.168   1.379   2.954  1.7199 -0.0059 -0.3253
 8357SOL    HW236705   4.226   1.506   2.991  1.6576  0.7151  1.1655
 8358SOL     OW36706   2.433   3.268   9.476 -0.3021  0.0592 -0.1187
 8358SOL    HW136707   2.436   3.254   9.570  1.3418  1.3947  0.0415
 8358SOL    HW236708   2.524   3.274   9.447 -0.2270  2.9874  0.6554
 8359SOL     OW36709   2.988   1.123   6.304 -0.2805  0.7979  0.1809
 8359SOL    HW136710   3.065   1.171   6.334 -0.0454 -0.4162  1.4892
 8359SOL    HW236711   2.930   1.199   6.308 -1.3925  0.0107 -0.7486
 8360SOL     OW36712   1.454   3.795   7.087 -0.1727  0.1967  0.2346
 8360SOL    HW136713   1.537   3.767   7.124  0.6562 -1.0747 -2.6694
 8360SOL    HW236714   1.414   3.709   7.072 -0.1312  0.1184  0.5675
 8361SOL     OW36715   2.897   3.771  12.168  0.1143  0.3251  0.0648
 8361SOL    HW136716   2.858   3.811  12.090 -2.6618 -2.1482  0.2031
 8361SOL    HW236717   2.892   3.677  12.154  1.4883  0.1032  1.0460
 8362SOL     OW36718   1.277   1.766   6.848 -0.4572  0.0536 -0.1767
 8362SOL    HW136719   1.201   1.797   6.800 -1.0430 -0.1409  0.6159
 8362SOL    HW236720   1.303   1.837   6.907  0.4322 -0.4532  0.0431
 8363SOL     OW36721   4.229   3.884  14.946 -0.2719  0.4106  0.0641
 8363SOL    HW136722   4.207   3.975  14.928 -0.8859  0.4017  0.7752
 8363SOL    HW236723   4.243   3.846  14.859 -0.9432  0.9474 -0.2720
 8364SOL     OW36724   2.680   0.484   1.972  0.5617 -0.1113  0.2288
 8364SOL    HW136725   2.631   0.505   1.892 -0.5264  0.6880  1.1200
 8364SOL    HW236726   2.742   0.414   1.951  0.2656 -0.4990  0.6504
 8365SOL     OW36727   2.222   1.602  12.852 -0.1774  0.1077  0.1444
 8365SOL    HW136728   2.316   1.600  12.835 -0.1034 -0.4764  0.6501
 8365SOL    HW236729   2.221   1.698  12.847  2.4117  0.0525 -1.2527
 8366SOL     OW36730   1.418   4.596   1.852  0.0181  0.5537  0.2142
 8366SOL    HW136731   1.334   4.555   1.875 -0.2058  0.9995  0.1795
 8366SOL    HW236732   1.388   4.684   1.831 -0.6335 -0.1279 -1.7213
 8367SOL     OW36733   0.945   3.833   9.880  0.0559  0.3236  0.5871
 8367SOL    HW136734   0.997   3.911   9.896 -0.1363  1.0969 -2.6072
 8367SOL    HW236735   0.865   3.861   9.924  0.3668 -0.2400  1.5062
 8368SOL     OW36736   4.244   0.017   3.166 -0.0710 -0.0392 -0.0966
 8368SOL    HW136737   4.268   0.014   3.258  1.1454  0.7807 -0.3793
 8368SOL    HW236738   4.330   0.005   3.124 -0.6382  0.3103 -1.3676
 8369SOL     OW36739   0.386   4.442   8.199 -0.5957  0.0225 -0.1027
 8369SOL    HW136740   0.320   4.386   8.158 -0.9242 -0.9242  1.7240
 8369SOL    HW236741   0.434   4.499   8.139  2.1097 -0.8766  1.2177
 8370SOL     OW36742   4.167   0.538  13.330  0.2571  0.4723 -0.2600
 8370SOL    HW136743   4.262   0.534  13.339  0.1248 -0.2210  0.8218
 8370SOL    HW236744   4.157   0.545  13.235 -0.8083  1.0437 -0.1088
 8371SOL     OW36745   3.071   0.366  15.772  0.1914  0.2741  0.0179
 8371SOL    HW136746   2.985   0.331  15.749  0.5263 -0.2844 -0.3721
 8371SOL    HW236747   3.114   0.287  15.804  0.8289  0.3080 -0.7513
 8372SOL     OW36748   4.383   2.132   3.527  0.6114 -0.4535 -0.2001
 8372SOL    HW136749   4.360   2.167   3.441 -0.9552 -0.4505  0.2052
 8372SOL    HW236750   4.402   2.206   3.585 -0.3573 -0.3144 -0.0540
 8373SOL     OW36751   2.493   1.333   9.453  0.3140  0.6622  0.3747
 8373SOL    HW136752   2.439   1.405   9.484  0.8600  2.0904 -1.9646
 8373SOL    HW236753   2.508   1.282   9.532  0.3116  1.5440  0.9369
 8374SOL     OW36754   2.547   3.181   7.390  0.1655 -0.0772 -0.4805
 8374SOL    HW136755   2.468   3.132   7.367  0.4801 -0.9529  0.3053
 8374SOL    HW236756   2.560   3.216   7.302 -0.3594  4.9381  1.4103
 8375SOL     OW36757   4.194   2.947   0.833  0.4419 -0.3886 -0.1396
 8375SOL    HW136758   4.219   2.967   0.924 -1.5752 -1.0915  0.5571
 8375SOL    HW236759   4.118   2.896   0.860 -1.7283  1.6664 -2.4388
 8376SOL     OW36760   3.172   2.096   1.971 -0.5404 -0.0082 -0.6603
 8376SOL    HW136761   3.202   2.049   2.048 -0.5692 -0.8140 -1.1367
 8376SOL    HW236762   3.234   2.071   1.902 -1.4284 -0.1938 -1.4105
 8377SOL     OW36763   3.247   2.202  15.741 -0.9296 -0.3628  0.2292
 8377SOL    HW136764   3.270   2.109  15.744 -0.0308 -0.1195  0.9890
 8377SOL    HW236765   3.298   2.224  15.663 -0.5065 -1.3872  0.2224
 8378SOL     OW36766   1.998   2.313   4.291  0.0838  0.3461 -0.2405
 8378SOL    HW136767   2.051   2.363   4.352 -1.2390  1.1661  0.2406
 8378SOL    HW236768   1.951   2.389   4.256 -0.4553 -0.1610 -0.6396
 8379SOL     OW36769   2.350   1.742   2.899  0.6848  0.1985 -0.7225
 8379SOL    HW136770   2.418   1.678   2.921  0.1829 -0.4192 -0.9836
 8379SOL    HW236771   2.377   1.814   2.957 -1.2099 -1.6398  2.4322
 8380SOL     OW36772   2.218   1.110   8.498 -0.0636  0.1092  0.6848
 8380SOL    HW136773   2.280   1.181   8.479 -3.6845  3.0128 -0.3819
 8380SOL    HW236774   2.225   1.105   8.593 -1.0073 -1.3880  0.6789
 8381SOL     OW36775   0.992   0.415   9.649 -0.0072 -0.0442 -0.1910
 8381SOL    HW136776   0.967   0.436   9.739  0.0786 -1.1805  0.0952
 8381SOL    HW236777   0.928   0.350   9.620 -1.5914  1.6799 -0.5651
 8382SOL     OW36778   3.113   3.060   2.490  0.1667  0.0822 -0.2064
 8382SOL    HW136779   3.196   3.023   2.520 -0.2922 -2.5033 -2.1250
 8382SOL    HW236780   3.141   3.090   2.404  0.1860  1.1275  0.1727
 8383SOL     OW36781   2.255   1.886   6.620 -0.3441 -0.3538 -0.4815
 8383SOL    HW136782   2.195   1.940   6.671 -0.5564 -0.6388 -0.4292
 8383SOL    HW236783   2.261   1.802   6.667 -0.0563 -1.1862 -1.9991
 8384SOL     OW36784   4.545   0.577  16.639 -0.3525 -0.1520  0.4149
 8384SOL    HW136785   4.506   0.652  16.594  0.1960 -0.9374 -1.3841
 8384SOL    HW236786   4.633   0.573  16.602  0.1943  1.1299  1.6152
 8385SOL     OW36787   2.395   3.517  10.083 -0.1629 -0.0755 -0.7035
 8385SOL    HW136788   2.330   3.550  10.144 -1.8813 -0.4582 -2.3359
 8385SOL    HW236789   2.410   3.604  10.047 -0.3692  0.4081  0.3896
 8386SOL     OW36790   2.164   2.151   6.250  0.8439 -0.0013 -0.1964
 8386SOL    HW136791   2.244   2.148   6.302  0.2989  1.1972  0.7297
 8386SOL    HW236792   2.196   2.134   6.161 -0.9131 -1.0072 -0.6413
 8387SOL     OW36793   0.884   0.157   6.030  0.3127  0.6252  0.0213
 8387SOL    HW136794   0.884   0.176   5.937  1.6858 -0.7891 -0.2764
 8387SOL    HW236795   0.827   0.080   6.026 -2.2511  2.4319  1.8064
 8388SOL     OW36796   2.849   0.430   6.170 -0.2877 -0.1531 -0.0414
 8388SOL    HW136797   2.760   0.416   6.140 -0.7227 -0.2140  1.2438
 8388SOL    HW236798   2.851   0.364   6.240  0.0940 -0.3207 -0.2125
 8389SOL     OW36799   3.517   0.295  12.605  0.2634  0.1902 -0.0675
 8389SOL    HW136800   3.548   0.219  12.554 -2.0870  0.3255 -1.6711
 8389SOL    HW236801   3.551   0.273  12.692  0.8709  0.5989 -0.1976
 8390SOL     OW36802   0.852   1.373  14.832  0.1859 -0.7901  0.3920
 8390SOL    HW136803   0.762   1.404  14.823  0.0651 -0.8812  1.3175
 8390SOL    HW236804   0.853   1.291  14.782  0.9357  0.8536 -2.3326
 8391SOL     OW36805   1.911   4.046   8.546 -0.0723 -0.2158  0.2176
 8391SOL    HW136806   1.919   4.134   8.582  0.3050 -0.0833 -0.1976
 8391SOL    HW236807   1.907   3.995   8.627 -1.0686 -0.4613  0.0137
 8392SOL     OW36808   1.772   3.916  10.945  0.2323 -0.0214  0.6552
 8392SOL    HW136809   1.761   3.966  10.864 -0.3376 -0.3858  0.5135
 8392SOL    HW236810   1.799   3.834  10.905 -2.2055  0.3183 -1.7152
 8393SOL     OW36811   3.953   1.078   2.304 -0.3752  0.7441  0.1869
 8393SOL    HW136812   3.979   1.108   2.217 -1.0034 -0.2360 -0.3391
 8393SOL    HW236813   3.860   1.057   2.300 -0.0137 -0.6456 -0.9452
 8394SOL     OW36814   1.510   1.452   7.181 -0.3029 -0.2493  0.4663
 8394SOL    HW136815   1.495   1.419   7.092  0.1455 -3.1266  1.4346
 8394SOL    HW236816   1.422   1.459   7.218 -0.2176 -3.6833  1.3222
 8395SOL     OW36817   4.431   1.777  13.603  0.4213  0.0992  0.1877
 8395SOL    HW136818   4.514   1.807  13.639  1.7330 -2.9951 -0.3099
 8395SOL    HW236819   4.401   1.724  13.677 -0.3011 -0.5039 -0.5400
 8396SOL     OW36820   2.537   1.016   1.094  0.0753  0.3677 -0.1328
 8396SOL    HW136821   2.508   1.031   1.185 -2.8415  1.6115 -1.2600
 8396SOL    HW236822   2.536   1.109   1.070 -0.8131  0.6533  0.9660
 8397SOL     OW36823   2.767   0.799   7.729  0.0946  0.2578  0.5405
 8397SOL    HW136824   2.773   0.727   7.667 -0.0528  0.3129  0.4643
 8397SOL    HW236825   2.855   0.830   7.708  0.0721  1.0673  1.6273
 8398SOL     OW36826   1.077   0.978  16.667  0.4411  0.0908  0.9572
 8398SOL    HW136827   1.096   0.988  16.760 -1.2086  1.4981  1.1433
 8398SOL    HW236828   1.016   0.904  16.670  0.2420  0.3301  2.8042
 8399SOL     OW36829   3.672   2.535   7.267 -0.5301 -0.2735  0.1009
 8399SOL    HW136830   3.657   2.630   7.256 -2.3516 -0.5503  0.1237
 8399SOL    HW236831   3.638   2.494   7.187 -1.7421  1.1980 -0.1587
 8400SOL     OW36832   1.141   2.880   7.494 -0.0313  0.1803 -0.5218
 8400SOL    HW136833   1.065   2.923   7.532  0.3622  3.3414 -3.3269
 8400SOL    HW236834   1.213   2.927   7.536 -0.5851  1.6879 -1.2660
 8401SOL     OW36835   2.748   3.450   5.198 -0.5545 -0.3945  0.1090
 8401SOL    HW136836   2.756   3.538   5.232 -0.0708 -0.7153  0.8247
 8401SOL    HW236837   2.802   3.452   5.119 -0.4688  1.4926  0.2289
 8402SOL     OW36838   0.623   1.686  12.415 -0.3958  0.0684 -0.5929
 8402SOL    HW136839   0.696   1.688  12.477 -1.2052  0.5025  0.3438
 8402SOL    HW236840   0.664   1.643  12.340  1.6599  0.2369  0.4351
 8403SOL     OW36841   4.536   2.459   1.911 -0.3303 -0.1560 -0.0365
 8403SOL    HW136842   4.575   2.374   1.935  1.8676  0.5732 -0.9552
 8403SOL    HW236843   4.475   2.439   1.840 -0.0254 -0.2607 -0.2702
 8404SOL     OW36844   4.082   3.394   4.231 -0.4445  0.4487 -0.2103
 8404SOL    HW136845   4.077   3.477   4.278 -3.0490  0.5614 -0.7254
 8404SOL    HW236846   4.068   3.336   4.305  0.1236 -0.7600 -1.0426
 8405SOL     OW36847   4.004   2.548  17.529  0.7605  0.5902  0.1066
 8405SOL    HW136848   3.909   2.542  17.540  0.7114  0.4431 -0.4444
 8405SOL    HW236849   4.014   2.626  17.475  0.2921 -1.2252 -2.5732
 8406SOL     OW36850   0.251   0.852  10.951  0.4735 -0.6349  0.1229
 8406SOL    HW136851   0.195   0.838  11.027  0.3014  1.4879  0.3712
 8406SOL    HW236852   0.208   0.915  10.894 -1.4746 -1.6338  0.4947
 8407SOL     OW36853   0.445   3.318   4.586 -0.6743  0.5272 -0.7323
 8407SOL    HW136854   0.470   3.406   4.616 -2.1746  1.2698 -1.6181
 8407SOL    HW236855   0.507   3.263   4.633 -0.5666  0.1901 -1.2742
 8408SOL     OW36856   2.426   3.516   5.215  0.1516 -0.3141  0.2964
 8408SOL    HW136857   2.491   3.492   5.148 -1.6784 -4.3328 -0.0240
 8408SOL    HW236858   2.365   3.565   5.160 -0.6410 -1.7805 -0.1322
 8409SOL     OW36859   3.097   1.524   2.210  0.6707  0.2452 -0.1374
 8409SOL    HW136860   3.069   1.470   2.285  0.1775 -0.6700 -0.9757
 8409SOL    HW236861   3.090   1.458   2.141  0.9611  0.4074 -0.3209
 8410SOL     OW36862   2.174   0.983   3.342 -0.2985  0.6306 -0.0459
 8410SOL    HW136863   2.119   0.907   3.360 -0.3913  0.7344  0.1163
 8410SOL    HW236864   2.259   0.940   3.356  0.0887  1.5125  0.3418
 8411SOL     OW36865   1.318   1.742   7.559  0.5236  0.4863  0.0863
 8411SOL    HW136866   1.228   1.711   7.569  1.1650 -0.4640  2.8340
 8411SOL    HW236867   1.370   1.664   7.579 -1.5907 -1.4428 -2.0200
 8412SOL     OW36868   1.908   2.598   8.884 -0.5360  0.0650  0.3842
 8412SOL    HW136869   1.911   2.665   8.952  0.7470 -0.2920  0.6737
 8412SOL    HW236870   1.884   2.656   8.812 -1.5541  0.0842  0.7416
 8413SOL     OW36871   3.789   0.163   6.985  0.2371  0.1029 -0.6983
 8413SOL    HW136872   3.810   0.247   6.942 -1.1112  2.1198  2.6156
 8413SOL    HW236873   3.771   0.105   6.911 -0.0700 -0.8208  0.1167
 8414SOL     OW36874   3.839   2.284   8.192  0.1137  0.0213  0.0259
 8414SOL    HW136875   3.857   2.244   8.107  3.1825  0.9994  0.2157
 8414SOL    HW236876   3.764   2.229   8.214  0.8394 -0.9377  0.0711
 8415SOL     OW36877   1.749   4.710  14.468  0.5508  0.3354  0.3239
 8415SOL    HW136878   1.832   4.664  14.476  0.0829 -0.2842  1.5658
 8415SOL    HW236879   1.684   4.640  14.467  0.7171  0.1442  2.2573
 8416SOL     OW36880   3.928   1.357   4.567 -0.4902 -0.5567  0.3111
 8416SOL    HW136881   3.905   1.307   4.645 -2.6885 -1.0657 -0.6738
 8416SOL    HW236882   3.882   1.305   4.502  1.9638 -1.5832 -0.6363
 8417SOL     OW36883   0.633   0.369   9.365 -0.0463 -0.1155  0.2124
 8417SOL    HW136884   0.538   0.376   9.367 -0.0594  0.1210 -1.2968
 8417SOL    HW236885   0.656   0.456   9.332 -0.5542  0.6848  1.9104
 8418SOL     OW36886   3.308   1.814  14.893 -0.0159 -0.1470 -0.4043
 8418SOL    HW136887   3.353   1.804  14.977 -0.9335  0.0221  0.1160
 8418SOL    HW236888   3.369   1.864  14.839  1.0181  1.4305  2.2156
 8419SOL     OW36889   1.565   0.749   9.105  1.0255 -0.0824  0.1061
 8419SOL    HW136890   1.539   0.812   9.172  0.1502  1.9861 -2.2056
 8419SOL    HW236891   1.634   0.696   9.147  0.4531 -1.9392 -1.2682
 8420SOL     OW36892   3.271   3.587   7.843  0.1237 -0.3952 -0.4544
 8420SOL    HW136893   3.292   3.653   7.908  0.7276 -0.7484 -0.2949
 8420SOL    HW236894   3.188   3.623   7.811  1.0313  1.9782 -0.0755
 8421SOL     OW36895   2.327   1.852  10.015 -0.1336 -0.1063  0.3309
 8421SOL    HW136896   2.292   1.818  10.098 -4.0213  1.6037 -0.5980
 8421SOL    HW236897   2.416   1.865  10.046  0.0122 -1.4402  0.4664
 8422SOL     OW36898   0.990   4.481  10.223 -0.1255 -0.0760  0.1545
 8422SOL    HW136899   0.915   4.527  10.259 -0.8055 -1.1674  0.1354
 8422SOL    HW236900   1.053   4.553  10.216  0.2645 -0.3362  1.0200
 8423SOL     OW36901   2.000   0.310  14.369  0.0302  0.0399  0.1765
 8423SOL    HW136902   2.082   0.358  14.360 -0.3769  0.6183 -0.4432
 8423SOL    HW236903   2.016   0.226  14.327  0.6280 -0.0689  0.6261
 8424SOL     OW36904   2.674   2.323   2.605  0.4617 -0.0126  0.2734
 8424SOL    HW136905   2.603   2.266   2.574  0.3412  0.0300  0.4724
 8424SOL    HW236906   2.622   2.382   2.660  0.7504  1.4321 -0.9979
 8425SOL     OW36907   3.140   2.202   4.876 -0.1006  0.0586 -0.1627
 8425SOL    HW136908   3.162   2.241   4.960 -2.2942 -0.6400  0.7360
 8425SOL    HW236909   3.061   2.154   4.900  1.4803 -2.1544  0.5336
 8426SOL     OW36910   0.829   0.006   3.539  0.0311  0.6373 -0.4340
 8426SOL    HW136911   0.747   0.046   3.511 -0.7290 -0.1780  0.6439
 8426SOL    HW236912   0.800   4.660   3.576  0.1723  0.9528  0.3911
 8427SOL     OW36913   1.960   2.671   4.918 -0.5216  0.7932  0.0614
 8427SOL    HW136914   2.022   2.599   4.929 -0.7485  0.6628  0.4379
 8427SOL    HW236915   1.876   2.626   4.919  0.2660 -0.6981 -0.7153
 8428SOL     OW36916   3.214   4.427   5.848 -0.6392  0.0744 -0.2517
 8428SOL    HW136917   3.162   4.505   5.870 -1.0758 -0.1060 -0.6538
 8428SOL    HW236918   3.187   4.410   5.758 -1.5092  0.1604 -0.0124
 8429SOL     OW36919   1.639   2.001   4.427 -0.4518  0.1410  0.2474
 8429SOL    HW136920   1.600   2.073   4.477  3.1512  1.5398  1.1231
 8429SOL    HW236921   1.728   2.020   4.458 -0.7726  0.6863  0.8530
 8430SOL     OW36922   4.733   3.661   7.249  0.0217  0.1104  0.1875
 8430SOL    HW136923   4.672   3.603   7.202 -1.6166  0.1027  2.3110
 8430SOL    HW236924   0.051   3.702   7.183 -0.4779  1.9734  0.9336
 8431SOL     OW36925   2.024   4.135   8.322  0.4173  0.2382  0.2173
 8431SOL    HW136926   1.997   4.088   8.401 -0.0161  1.7164  0.9457
 8431SOL    HW236927   2.115   4.154   8.347 -0.0511 -1.1993  3.0540
 8432SOL     OW36928   4.039   2.883  12.122  0.3191 -0.0406  0.1241
 8432SOL    HW136929   4.011   2.796  12.152 -1.0384  0.9714  1.7728
 8432SOL    HW236930   4.090   2.904  12.200 -2.4353  1.9638  1.3730
 8433SOL     OW36931   3.758   0.497   7.209 -0.3624  0.7389 -0.2998
 8433SOL    HW136932   3.666   0.518   7.197 -0.8061 -0.3920  1.1236
 8433SOL    HW236933   3.790   0.555   7.278  1.3064 -1.0370  0.4191
 8434SOL     OW36934   0.533   3.303  17.563 -0.1356 -0.5398 -0.2717
 8434SOL    HW136935   0.526   3.386  17.516  0.6921 -0.4933 -0.3134
 8434SOL    HW236936   0.495   3.330  17.647 -0.9824  0.7703 -1.0953
 8435SOL     OW36937   2.740   3.999  10.367  0.5997  0.2615 -0.5371
 8435SOL    HW136938   2.712   3.915  10.405 -0.7032  0.5493 -0.8502
 8435SOL    HW236939   2.755   4.041  10.452 -1.6094 -1.8509  0.9318
 8436SOL     OW36940   1.905   3.328  13.794  0.2541 -0.1060  0.0257
 8436SOL    HW136941   1.861   3.326  13.879 -1.1659  1.0604 -0.6845
 8436SOL    HW236942   1.857   3.398  13.751  1.6512 -0.9993 -2.9580
 8437SOL     OW36943   3.805   4.523  17.488 -0.3465  0.2596  0.4178
 8437SOL    HW136944   3.873   4.514  17.555 -0.1605  0.2510  0.2260
 8437SOL    HW236945   3.728   4.554  17.536  1.1036 -0.4087  3.2087
 8438SOL     OW36946   1.522   3.971   3.917  0.1513  0.0830  0.3740
 8438SOL    HW136947   1.607   3.939   3.946 -0.2064 -1.9650 -0.7988
 8438SOL    HW236948   1.536   4.034   3.847 -0.4377 -1.6204 -1.2746
 8439SOL     OW36949   0.323   3.806   4.264  0.1202 -0.5381  0.2777
 8439SOL    HW136950   0.324   3.721   4.308 -2.3632 -0.2285  0.9269
 8439SOL    HW236951   0.406   3.791   4.219  1.1817  3.0431  1.0806
 8440SOL     OW36952   0.474   2.635   5.775  0.1009 -0.1584 -0.6637
 8440SOL    HW136953   0.398   2.602   5.728 -1.7290  2.0517  0.7292
 8440SOL    HW236954   0.469   2.728   5.753  1.6518  0.3179  1.0010
 8441SOL     OW36955   4.223   1.984   7.404  0.6759  0.1149  0.0600
 8441SOL    HW136956   4.297   1.995   7.345 -0.2864  0.1064 -1.1544
 8441SOL    HW236957   4.199   1.892   7.393  1.9874 -0.0607 -1.3298
 8442SOL     OW36958   2.118   2.849   6.950  0.2766 -0.0717 -0.3223
 8442SOL    HW136959   2.077   2.815   7.030  0.2277  1.5520  0.3602
 8442SOL    HW236960   2.079   2.798   6.879 -0.1636  1.2158 -1.0085
 8443SOL     OW36961   1.987   4.069   3.152  0.3347  0.5329  0.1689
 8443SOL    HW136962   1.963   4.055   3.061 -0.2513  0.7005  0.3006
 8443SOL    HW236963   1.980   3.976   3.172 -0.3936  0.9195  1.7582
 8444SOL     OW36964   1.496   1.640   0.858 -0.1840  0.0367  0.2380
 8444SOL    HW136965   1.414   1.685   0.876  0.8798  1.6609  1.0398
 8444SOL    HW236966   1.564   1.707   0.847  0.9216 -1.5707 -2.8348
 8445SOL     OW36967   3.702   0.325   8.141 -0.3569 -0.2270 -0.1841
 8445SOL    HW136968   3.649   0.339   8.219  2.3897 -1.3357  1.8701
 8445SOL    HW236969   3.670   0.237   8.118  1.5352 -0.3575 -2.2641
 8446SOL     OW36970   1.851   0.831   5.846  0.2608  0.5141 -0.2519
 8446SOL    HW136971   1.820   0.922   5.853 -1.0479  0.1586 -1.3441
 8446SOL    HW236972   1.783   0.796   5.789  0.0050  0.1152  0.3016
 8447SOL     OW36973   0.963   2.295   6.278 -0.1466 -0.0516  0.0450
 8447SOL    HW136974   0.870   2.316   6.283 -0.0507  0.0617  1.4512
 8447SOL    HW236975   0.999   2.380   6.256 -1.0852  0.2537 -0.2924
 8448SOL     OW36976   4.170   4.355  17.079  0.1853  0.3312  0.3746
 8448SOL    HW136977   4.078   4.380  17.085  0.2053 -0.1483  2.7564
 8448SOL    HW236978   4.195   4.422  17.016  1.0143 -0.3993 -0.0714
 8449SOL     OW36979   3.896   4.410   6.165 -0.1684 -0.2762  0.4777
 8449SOL    HW136980   3.887   4.365   6.249 -0.9626 -0.4978  0.2692
 8449SOL    HW236981   3.813   4.387   6.124  0.6763 -0.9195 -0.8704
 8450SOL     OW36982   3.703   4.455   6.832  0.4133 -0.0730  0.1447
 8450SOL    HW136983   3.663   4.392   6.772  0.0739  0.7865 -0.5523
 8450SOL    HW236984   3.792   4.422   6.840  0.3082 -0.2639  0.5078
 8451SOL     OW36985   3.956   2.722  15.271  0.0771  0.2054 -0.2307
 8451SOL    HW136986   4.048   2.727  15.298 -0.2638 -3.5595  1.7030
 8451SOL    HW236987   3.915   2.674  15.343  1.4193  0.1839  0.5254
 8452SOL     OW36988   3.845   1.837   3.897  0.0881  0.1670 -0.7420
 8452SOL    HW136989   3.921   1.816   3.952 -0.6715  1.0206  0.6250
 8452SOL    HW236990   3.780   1.856   3.964  0.5090 -1.4035  0.1340
 8453SOL     OW36991   4.219   2.114   6.869  0.5581 -0.1383  0.1868
 8453SOL    HW136992   4.261   2.195   6.843 -0.0721  0.9309  2.5315
 8453SOL    HW236993   4.168   2.096   6.789 -0.1046 -0.3233  0.6459
 8454SOL     OW36994   3.546   4.602   2.593  0.1203  0.2577  0.0426
 8454SOL    HW136995   3.614   4.622   2.657  0.4176 -0.5142 -0.0406
 8454SOL    HW236996   3.496   4.533   2.636  0.9805 -1.7826 -2.2877
 8455SOL     OW36997   1.519   3.839  13.602 -0.0590 -0.1330  0.5855
 8455SOL    HW136998   1.602   3.836  13.553  0.3746 -1.3087  1.3809
 8455SOL    HW236999   1.504   3.930  13.630 -2.4011 -0.8205  1.5408
 8456SOL     OW37000   4.193   2.424  10.644 -0.4582  0.0653 -0.1580
 8456SOL    HW137001   4.211   2.517  10.636 -0.0810 -0.3021 -3.2734
 8456SOL    HW237002   4.157   2.412  10.556  1.2211 -0.0463 -0.8259
 8457SOL     OW37003   0.974   0.113  17.477  0.1060 -0.2676  0.0693
 8457SOL    HW137004   0.991   0.187  17.419 -1.7403  1.7256  2.0855
 8457SOL    HW237005   0.938   0.054  17.411  1.2485 -1.1132  0.1971
 8458SOL     OW37006   3.836   4.690  12.412 -0.3505  0.0945  0.5102
 8458SOL    HW137007   3.868   4.653  12.494 -0.8683 -1.7500 -0.1271
 8458SOL    HW237008   3.851   4.611  12.360  1.4112 -0.0307  1.2151
 8459SOL     OW37009   0.090   2.475   5.816  0.3984  0.0909  0.5557
 8459SOL    HW137010   0.157   2.512   5.758  0.5222 -1.3512 -0.2139
 8459SOL    HW237011   0.019   2.479   5.752  0.6566  1.9432  0.3729
 8460SOL     OW37012   2.764   4.337   8.633 -0.0673 -0.4923 -0.6571
 8460SOL    HW137013   2.703   4.379   8.694  1.4925  0.7445  0.0519
 8460SOL    HW237014   2.843   4.391   8.639  0.3713 -1.1575 -0.4826
 8461SOL     OW37015   1.889   1.690   4.384 -0.6519 -0.3732 -0.0982
 8461SOL    HW137016   1.873   1.640   4.464 -0.6804  3.8223  2.5425
 8461SOL    HW237017   1.943   1.768   4.399 -1.3678  0.5708 -2.4855
 8462SOL     OW37018   0.071   0.301   0.209 -1.1619 -0.0103 -0.3015
 8462SOL    HW137019   0.158   0.299   0.250 -0.3275  0.0181 -2.0663
 8462SOL    HW237020   0.054   0.208   0.198 -2.2525  0.0562  0.8056
 8463SOL     OW37021   3.556   3.644   1.262  0.0602  0.1090 -0.3434
 8463SOL    HW137022   3.593   3.628   1.175 -0.4600 -0.0033 -0.5485
 8463SOL    HW237023   3.608   3.582   1.314 -1.2533 -2.0976 -1.6251
 8464SOL     OW37024   4.020   0.742   9.654 -0.0447 -0.4553 -0.3060
 8464SOL    HW137025   4.095   0.705   9.701  1.1289  1.3952 -0.7201
 8464SOL    HW237026   3.995   0.795   9.730 -0.5298  0.8905 -1.4112
 8465SOL     OW37027   0.619   2.247   3.963  0.4406  0.1633  0.3132
 8465SOL    HW137028   0.570   2.198   4.029 -1.6404  1.1176 -0.5497
 8465SOL    HW237029   0.707   2.234   4.000 -0.7655 -0.8615  2.8389
 8466SOL     OW37030   1.888   4.079   3.666 -0.1119  0.5577  0.6862
 8466SOL    HW137031   1.895   4.126   3.583 -0.9862  1.8559  1.3396
 8466SOL    HW237032   1.808   4.029   3.652  0.3447 -0.3823  1.4243
 8467SOL     OW37033   1.332   3.079   6.242  0.1186  0.3921  0.2712
 8467SOL    HW137034   1.264   3.015   6.221 -1.1585  1.1999  1.9416
 8467SOL    HW237035   1.384   3.024   6.300 -0.7780 -2.1925 -1.3442
 8468SOL     OW37036   4.614   2.338   7.947 -0.0595 -0.0309  0.4249
 8468SOL    HW137037   4.700   2.375   7.926 -0.2905  0.9368  1.2052
 8468SOL    HW237038   4.585   2.407   8.006  1.2998  0.9589 -0.0653
 8469SOL     OW37039   3.340   0.065   4.962  0.4122  0.2228 -0.4063
 8469SOL    HW137040   3.347   4.716   4.922 -1.0332  0.1007 -0.3870
 8469SOL    HW237041   3.422   0.107   4.935 -0.2510  2.1022  0.4761
 8470SOL     OW37042   0.407   3.475   4.149  0.6096  0.5735  0.0663
 8470SOL    HW137043   0.438   3.561   4.122  1.0310  0.7699  1.1672
 8470SOL    HW237044   0.389   3.494   4.241 -4.3921 -1.3292 -0.5192
 8471SOL     OW37045   0.583   1.864   4.804 -0.0498 -0.3408 -0.4043
 8471SOL    HW137046   0.522   1.802   4.846  0.2427 -0.8433 -0.7261
 8471SOL    HW237047   0.536   1.945   4.821  1.4765  0.7426 -1.4365
 8472SOL     OW37048   3.354   0.029   0.805 -1.0556  0.1063  0.0817
 8472SOL    HW137049   3.383   0.119   0.791 -2.2659  0.5599  0.5999
 8472SOL    HW237050   3.284   0.042   0.869 -1.0021 -1.8833  0.5678
 8473SOL     OW37051   4.055   2.774   2.763  0.3612 -0.4804 -1.2625
 8473SOL    HW137052   4.139   2.802   2.727  1.9605  0.4801  3.1574
 8473SOL    HW237053   4.089   2.745   2.848 -0.7621 -1.2673 -1.0752
 8474SOL     OW37054   0.737   4.702   1.387  0.2164  0.3943  0.4509
 8474SOL    HW137055   0.826   4.732   1.368  0.1399  0.3805  0.0643
 8474SOL    HW237056   0.682   0.012   1.325  0.5018  1.2537  0.8590
 8475SOL     OW37057   1.031   1.365   2.157  0.1847 -0.8973 -0.4204
 8475SOL    HW137058   0.999   1.408   2.078  0.8237 -0.6317 -0.5335
 8475SOL    HW237059   1.108   1.316   2.126  2.3034  1.7560  0.6837
 8476SOL     OW37060   1.097   0.289   8.440 -0.7360 -0.0616  0.1812
 8476SOL    HW137061   1.120   0.369   8.486 -1.3764 -0.3345  0.9803
 8476SOL    HW237062   1.172   0.298   8.382  0.8850 -0.9448  2.1225
 8477SOL     OW37063   4.230   3.644   3.706 -0.1675 -0.0241  0.4262
 8477SOL    HW137064   4.319   3.620   3.682 -0.4358 -1.0070  0.4068
 8477SOL    HW237065   4.207   3.712   3.642  1.2825 -0.6046 -0.6953
 8478SOL     OW37066   2.014   3.770   0.624  0.2597 -0.4297  0.1891
 8478SOL    HW137067   2.007   3.859   0.659  0.7413 -0.3581  0.1052
 8478SOL    HW237068   1.986   3.726   0.704  0.5951 -0.5409  0.2461
 8479SOL     OW37069   2.391   3.232   5.928 -0.5725  0.7541 -0.2804
 8479SOL    HW137070   2.362   3.184   5.850 -2.3770  0.2766  0.6840
 8479SOL    HW237071   2.307   3.242   5.973 -1.5806 -0.1240 -1.9335
 8480SOL     OW37072   0.307   1.113   4.849 -0.2977 -0.2077 -0.2037
 8480SOL    HW137073   0.246   1.082   4.915  1.1850  1.0261  1.7526
 8480SOL    HW237074   0.366   1.174   4.893 -1.7961 -0.7142  2.4813
 8481SOL     OW37075   2.550   2.942   5.530  0.1521  0.1413  0.1910
 8481SOL    HW137076   2.575   3.018   5.583  0.2397  0.6043 -0.5134
 8481SOL    HW237077   2.458   2.924   5.552 -0.4511  1.8517 -0.9868
 8482SOL     OW37078   4.323   3.186   4.730  0.5448  0.6493 -0.1840
 8482SOL    HW137079   4.388   3.189   4.660 -0.0126 -1.3035 -0.7779
 8482SOL    HW237080   4.364   3.241   4.797 -0.6667  0.0882  1.0199
 8483SOL     OW37081   0.836   0.246   8.259  0.2022  0.0509  0.4230
 8483SOL    HW137082   0.858   0.209   8.345 -0.5344 -3.1201 -0.7550
 8483SOL    HW237083   0.917   0.234   8.209  1.1924 -1.2079  2.2842
 8484SOL     OW37084   3.957   3.329  14.563 -0.4918 -0.5859  0.0640
 8484SOL    HW137085   3.882   3.384  14.541 -0.2039  0.1598  0.9232
 8484SOL    HW237086   3.923   3.241  14.552 -1.5274 -0.0760 -0.7623
 8485SOL     OW37087   3.177   2.392   5.730  0.0982  0.1195  0.4925
 8485SOL    HW137088   3.215   2.343   5.658  1.7535  2.9728 -0.5636
 8485SOL    HW237089   3.094   2.418   5.690  0.7772  0.2632 -0.8105
 8486SOL     OW37090   0.240   2.857  14.917  0.1000 -0.0078 -0.3209
 8486SOL    HW137091   0.288   2.937  14.939  0.9923 -0.1995 -1.5532
 8486SOL    HW237092   0.300   2.818  14.853 -0.7916  0.7270 -1.6128
 8487SOL     OW37093   1.439   0.858   5.220  0.0612  0.1508 -0.4585
 8487SOL    HW137094   1.430   0.907   5.138 -0.0178 -0.9907 -1.1413
 8487SOL    HW237095   1.348   0.829   5.222  0.0266  0.3529  0.9051
 8488SOL     OW37096   2.857   2.330   7.116 -0.2148 -0.2479 -0.1351
 8488SOL    HW137097   2.875   2.367   7.030  1.4512 -1.2542 -0.2079
 8488SOL    HW237098   2.940   2.282   7.119  0.6077  1.2578  1.3959
 8489SOL     OW37099   0.664   1.033   3.708  0.7576  0.3354 -0.4120
 8489SOL    HW137100   0.591   1.042   3.770  0.3629 -1.8609 -0.5509
 8489SOL    HW237101   0.646   1.105   3.648 -1.8316  0.5032  0.5527
 8490SOL     OW37102   2.831   2.526   3.266 -0.1229 -0.1803  0.5359
 8490SOL    HW137103   2.827   2.469   3.189  0.9201  0.8745 -0.3044
 8490SOL    HW237104   2.918   2.524   3.307  1.1404 -1.1706 -2.1626
 8491SOL     OW37105   4.323   3.732   5.153  0.0194  0.1563  0.2739
 8491SOL    HW137106   4.291   3.820   5.130 -2.6436 -0.5713  1.2810
 8491SOL    HW237107   4.253   3.680   5.114  0.1714 -0.4228  0.7890
 8492SOL     OW37108   4.206   1.994   2.846 -0.5404 -0.4936  0.3793
 8492SOL    HW137109   4.202   2.052   2.922 -2.4459  2.1415 -1.7273
 8492SOL    HW237110   4.299   1.980   2.829 -0.2374 -0.5028  2.1201
 8493SOL     OW37111   2.586   3.967   8.298 -0.4048 -0.3681 -0.0149
 8493SOL    HW137112   2.517   3.920   8.345 -0.7060 -1.3749 -1.4850
 8493SOL    HW237113   2.584   4.054   8.338  1.5135  0.4658 -1.7819
 8494SOL     OW37114   2.282   2.588   2.937 -0.2771  0.4299 -0.0601
 8494SOL    HW137115   2.193   2.581   2.972 -0.0638  1.0844  0.6164
 8494SOL    HW237116   2.280   2.535   2.858  1.1444  0.3850 -0.0659
 8495SOL     OW37117   4.132   3.953   3.106 -0.4404  1.1733  0.1746
 8495SOL    HW137118   4.043   3.935   3.136 -0.2183  2.0349  1.3192
 8495SOL    HW237119   4.104   3.980   3.018  1.9919 -1.3658 -1.3575
 8496SOL     OW37120   1.133   2.849   2.406 -0.0015 -0.0328 -0.1498
 8496SOL    HW137121   1.134   2.808   2.320  0.3166 -0.5029  0.0764
 8496SOL    HW237122   1.046   2.882   2.428  0.2861  1.2323 -0.9140
 8497SOL     OW37123   3.209   0.559  14.620  0.0137 -0.0096 -0.7866
 8497SOL    HW137124   3.227   0.564  14.526  0.6224  0.3899 -0.6468
 8497SOL    HW237125   3.119   0.527  14.629 -0.1385  0.3077 -1.1630
 8498SOL     OW37126   0.531   1.533   7.888 -0.2895 -0.3817  0.2220
 8498SOL    HW137127   0.436   1.541   7.892  0.0605  3.5249  0.5319
 8498SOL    HW237128   0.560   1.602   7.947  0.9073 -0.3024 -0.4542
 8499SOL     OW37129   1.495   3.065  12.929 -0.2179 -0.1256 -0.2933
 8499SOL    HW137130   1.436   3.065  12.854  0.0539  1.2844 -0.5177
 8499SOL    HW237131   1.559   3.129  12.898 -1.2877  2.0789  2.0322
 8500SOL     OW37132   0.316   0.761   8.506 -0.2773  0.4140  0.2855
 8500SOL    HW137133   0.230   0.722   8.522  0.1241 -0.1120  1.1703
 8500SOL    HW237134   0.312   0.830   8.572  2.0783  0.7289  0.0860
 8501SOL     OW37135   3.297   1.813   5.064 -0.3486 -0.1692 -0.1141
 8501SOL    HW137136   3.292   1.799   4.969  1.4502  1.4750 -0.4590
 8501SOL    HW237137   3.317   1.907   5.067 -0.2841 -0.1975  0.2784
 8502SOL     OW37138   1.815   4.152   4.435  0.4377 -1.0028 -0.2096
 8502SOL    HW137139   1.860   4.089   4.490 -0.7949  0.2242  2.2110
 8502SOL    HW237140   1.843   4.130   4.346  0.6151 -1.5800 -0.0065
 8503SOL     OW37141   1.548   1.163  10.064 -0.6276 -0.0476 -0.0124
 8503SOL    HW137142   1.530   1.072  10.087  1.0025 -0.5599 -0.8163
 8503SOL    HW237143   1.488   1.224  10.108  1.2565  2.4105 -0.8503
 8504SOL     OW37144   2.791   2.122  15.504 -0.3510  0.1615 -0.5110
 8504SOL    HW137145   2.863   2.105  15.565  0.5422 -0.1525 -1.6536
 8504SOL    HW237146   2.789   2.037  15.461  1.9995 -0.5899  0.8389
 8505SOL     OW37147   3.665   0.834   8.984  0.5150 -0.4015 -0.0636
 8505SOL    HW137148   3.665   0.928   9.000  2.5034 -0.0455 -2.1592
 8505SOL    HW237149   3.640   0.808   9.073  0.5490  0.0670  0.0814
 8506SOL     OW37150   0.850   4.345  12.552 -0.0770  0.6611 -0.1787
 8506SOL    HW137151   0.901   4.308  12.623 -1.4189 -0.5144  0.1552
 8506SOL    HW237152   0.796   4.271  12.524 -0.2089  0.6765  0.0352
 8507SOL     OW37153   3.691   0.676   7.666 -0.2338  0.3080  0.2092
 8507SOL    HW137154   3.658   0.605   7.721 -0.5052 -1.1369 -1.8301
 8507SOL    HW237155   3.632   0.749   7.683 -0.9090 -0.1103 -0.3402
 8508SOL     OW37156   4.088   2.717   3.684 -0.5572 -0.5613 -0.1473
 8508SOL    HW137157   4.028   2.768   3.737  0.0667 -0.5945  0.6011
 8508SOL    HW237158   4.095   2.636   3.734 -0.1078 -0.0413  0.6330
 8509SOL     OW37159   2.195   0.862   1.301 -0.0284 -0.7054  0.0042
 8509SOL    HW137160   2.208   0.783   1.353 -0.0114 -0.5625  0.2141
 8509SOL    HW237161   2.100   0.871   1.293  0.2312  0.0527 -2.3718
 8510SOL     OW37162   1.185   1.497   7.873  0.1132  0.4660  0.2333
 8510SOL    HW137163   1.274   1.500   7.908  0.0286  3.5354  0.1883
 8510SOL    HW237164   1.171   1.402   7.868  1.5276  0.3021 -0.6087
 8511SOL     OW37165   4.105   3.394   6.452 -0.9488  0.6680 -0.3353
 8511SOL    HW137166   4.084   3.357   6.366  0.9891  2.6061 -1.6404
 8511SOL    HW237167   4.197   3.390   6.475 -1.0797 -1.7388 -0.2515
 8512SOL     OW37168   3.319   4.698   1.573 -0.0366 -0.5280 -0.0846
 8512SOL    HW137169   3.343   0.047   1.541 -1.6716 -0.5890 -1.4570
 8512SOL    HW237170   3.231   4.710   1.607 -1.0529 -2.9344 -1.8364
 8513SOL     OW37171   4.691   3.195   8.916  0.1033  0.0116  0.2638
 8513SOL    HW137172   0.012   3.123   8.939  1.1790  0.6456 -0.4868
 8513SOL    HW237173   4.705   3.205   8.822 -1.5166 -1.8723 -0.1706
 8514SOL     OW37174   1.006   0.056   2.663 -0.3056 -0.2663  0.2817
 8514SOL    HW137175   1.097   0.027   2.673  0.3894  0.7835 -2.8767
 8514SOL    HW237176   0.952   4.715   2.673  0.0223 -0.2411  2.1960
 8515SOL     OW37177   4.224   4.420   7.604 -0.3337  0.1054 -0.2083
 8515SOL    HW137178   4.208   4.430   7.511 -1.2579 -1.5302 -0.2145
 8515SOL    HW237179   4.301   4.365   7.593 -1.3647 -1.1813 -1.0309
 8516SOL     OW37180   3.611   3.837   5.096  0.3594  0.2441 -0.4953
 8516SOL    HW137181   3.644   3.753   5.128 -0.6705 -0.3873 -1.0653
 8516SOL    HW237182   3.523   3.837   5.134 -0.0618  1.1735 -1.5129
 8517SOL     OW37183   0.049   4.475  11.316  0.0642 -0.3664 -0.6322
 8517SOL    HW137184   0.047   4.382  11.293  2.1671 -0.5070 -0.2514
 8517SOL    HW237185   0.062   4.515  11.231  1.7527 -2.8942 -1.5574
 8518SOL     OW37186   0.142   4.493  12.063  0.1170  0.6733 -0.4472
 8518SOL    HW137187   0.234   4.471  12.070  0.6736  3.2015  0.1351
 8518SOL    HW237188   0.124   4.438  11.986 -1.9329  0.2466  0.3318
 8519SOL     OW37189   3.627   4.643   4.356 -0.5004  0.2956 -0.0859
 8519SOL    HW137190   3.722   4.639   4.359 -0.5274  1.4366  1.8694
 8519SOL    HW237191   3.619   4.555   4.394 -1.9841 -0.2268 -1.5972
 8520SOL     OW37192   3.093   0.533  13.644 -0.3261 -0.1705 -0.0063
 8520SOL    HW137193   3.144   0.453  13.657  0.6003  0.4150 -0.0387
 8520SOL    HW237194   3.001   0.520  13.668 -0.6287 -0.1574 -1.1901
 8521SOL     OW37195   4.470   4.610   8.053 -0.2631  0.1471  0.3095
 8521SOL    HW137196   4.558   4.575   8.043 -0.8696 -1.2131 -0.2071
 8521SOL    HW237197   4.475   4.676   7.984  0.5908 -1.4595 -1.1627
 8522SOL     OW37198   2.060   3.879   3.766  0.1204  0.2243 -0.1572
 8522SOL    HW137199   2.013   3.954   3.730  0.1436  0.8560  1.0999
 8522SOL    HW237200   2.115   3.922   3.832 -2.3632 -0.5558  2.4755
 8523SOL     OW37201   1.399   3.924   9.889  0.3508  0.3010  0.2787
 8523SOL    HW137202   1.376   3.838   9.855 -0.9708  0.9999 -0.6207
 8523SOL    HW237203   1.488   3.933   9.855 -0.6610 -0.3316 -2.5104
 8524SOL     OW37204   3.841   4.206   7.183 -0.1496  0.0911  0.1906
 8524SOL    HW137205   3.750   4.231   7.198  1.0372  2.7817  2.9288
 8524SOL    HW237206   3.880   4.291   7.163  0.9232 -0.4555  0.0037
 8525SOL     OW37207   2.820   2.580  16.850  0.5462  0.3373 -0.0742
 8525SOL    HW137208   2.838   2.488  16.865  2.4662  0.5879 -0.8058
 8525SOL    HW237209   2.854   2.591  16.761  1.2251 -1.9929 -0.0815
 8526SOL     OW37210   2.525   1.937   9.128  0.1956  0.3546  0.4593
 8526SOL    HW137211   2.503   1.963   9.218  3.0007 -0.6988  1.4536
 8526SOL    HW237212   2.594   1.995   9.096 -0.2248  0.6158  0.0293
 8527SOL     OW37213   4.342   4.661   4.628 -0.0198 -0.0203 -0.0862
 8527SOL    HW137214   4.358   4.721   4.555 -0.6233 -0.5372 -0.6373
 8527SOL    HW237215   4.307   4.715   4.700 -0.0046 -0.7267  0.4518
 8528SOL     OW37216   3.839   2.640  10.877  0.5017  0.3897  0.0836
 8528SOL    HW137217   3.770   2.595  10.926  1.1993 -0.5842  0.1755
 8528SOL    HW237218   3.888   2.562  10.848 -2.9755 -1.7542  0.0072
 8529SOL     OW37219   2.961   2.251  16.819 -0.4316  0.0686  0.9827
 8529SOL    HW137220   3.000   2.208  16.895 -0.0894 -0.8383  0.2969
 8529SOL    HW237221   2.870   2.226  16.802 -0.7490  1.9631 -0.0901
 8530SOL     OW37222   2.733   0.983   1.405 -0.5270 -0.0360  0.4273
 8530SOL    HW137223   2.639   0.967   1.408 -0.3808 -0.9605  0.1287
 8530SOL    HW237224   2.734   1.051   1.337  3.4947 -1.4040 -0.8751
 8531SOL     OW37225   2.499   3.202  10.540  0.3436 -0.0331 -0.2687
 8531SOL    HW137226   2.444   3.142  10.489 -0.7905  1.5289 -0.8777
 8531SOL    HW237227   2.442   3.278  10.554 -0.5849 -0.7353 -0.2392
 8532SOL     OW37228   4.218   2.486  14.609 -0.0865 -0.0117  0.2276
 8532SOL    HW137229   4.182   2.553  14.551  0.6592  0.4051  0.2499
 8532SOL    HW237230   4.299   2.467  14.563 -0.7334  1.4840 -1.5358
 8533SOL     OW37231   2.058   2.724   6.586 -0.2815 -0.7470 -0.3291
 8533SOL    HW137232   1.976   2.761   6.555 -0.9355 -0.4985  1.6706
 8533SOL    HW237233   2.020   2.696   6.670 -2.2385  1.0689 -0.6101
 8534SOL     OW37234   2.634   3.697  15.963  0.4068 -0.4701  0.3529
 8534SOL    HW137235   2.695   3.726  15.896 -1.7239 -0.8823 -1.7747
 8534SOL    HW237236   2.609   3.780  16.004  0.3638 -0.9008  1.1855
 8535SOL     OW37237   4.528   1.112   6.448  0.1091 -0.1237  0.0980
 8535SOL    HW137238   4.575   1.192   6.427  1.1332 -0.4516  1.1395
 8535SOL    HW237239   4.528   1.072   6.361 -1.4309 -0.0553  0.0594
 8536SOL     OW37240   0.769   0.757  11.949 -0.1271 -0.1456 -0.0573
 8536SOL    HW137241   0.759   0.813  11.872  1.2464  0.6785  0.3700
 8536SOL    HW237242   0.745   0.818  12.018  0.7257 -0.0629  0.1687
 8537SOL     OW37243   0.063   0.060   7.373  0.1652  0.2476  0.2753
 8537SOL    HW137244   4.735   4.729   7.381 -0.7409  1.1470  0.4869
 8537SOL    HW237245   0.022   0.133   7.420 -1.0938  0.3820 -1.0439
 8538SOL     OW37246   3.985   1.215   6.629 -0.1878  0.1801  0.6598
 8538SOL    HW137247   3.978   1.273   6.553  1.1841 -0.5684 -0.0354
 8538SOL    HW237248   3.920   1.148   6.609 -2.0070  1.6278  1.6708
 8539SOL     OW37249   4.178   2.737   3.054 -0.8941  0.3104  0.0076
 8539SOL    HW137250   4.246   2.673   3.033 -0.7576  0.5515 -0.2778
 8539SOL    HW237251   4.187   2.720   3.148 -0.4962  1.0375  0.1030
 8540SOL     OW37252   0.655   3.162   3.507 -0.3762 -0.6640  0.8207
 8540SOL    HW137253   0.569   3.203   3.515  0.5815  1.1505  1.6716
 8540SOL    HW237254   0.643   3.096   3.439  0.6475  0.8380 -0.8191
 8541SOL     OW37255   2.884   4.665   2.088 -0.3302  0.1760  0.5722
 8541SOL    HW137256   2.833   0.004   2.114 -4.0272 -1.9548 -0.2566
 8541SOL    HW237257   2.949   4.699   2.027 -3.2742  0.5499 -2.3525
 8542SOL     OW37258   0.998   0.327  14.023  0.4628 -0.0765 -0.0817
 8542SOL    HW137259   1.044   0.380  13.958 -1.0196  0.2351 -0.8759
 8542SOL    HW237260   1.064   0.324  14.093  0.8569 -1.7201 -0.5170
 8543SOL     OW37261   4.275   1.866   4.449  0.5354  0.5874 -0.3353
 8543SOL    HW137262   4.272   1.783   4.496  2.4710 -0.0880 -1.3711
 8543SOL    HW237263   4.294   1.936   4.511  0.5727  0.7499 -0.5291
 8544SOL     OW37264   3.594   4.062   1.117 -0.8839  0.1371  0.0022
 8544SOL    HW137265   3.662   4.067   1.049  1.1940 -0.6586  2.0051
 8544SOL    HW237266   3.540   3.989   1.087  1.0759 -0.3367 -2.3724
 8545SOL     OW37267   0.673   0.246   7.029 -0.7135  0.0073  0.1906
 8545SOL    HW137268   0.670   0.180   7.097  1.4959  1.4229  1.6572
 8545SOL    HW237269   0.581   0.250   7.000 -1.4513 -2.0671  2.2688
 8546SOL     OW37270   2.520   0.136   1.977  0.1711 -0.0671 -0.2261
 8546SOL    HW137271   2.549   0.092   2.057 -0.7060 -0.7847 -0.3035
 8546SOL    HW237272   2.446   0.083   1.949  0.9379 -1.5944  0.6573
 8547SOL     OW37273   2.047   2.492   7.091  0.1838  0.0804  0.5515
 8547SOL    HW137274   2.071   2.446   7.171 -1.1353  3.8088  3.0587
 8547SOL    HW237275   1.955   2.507   7.109  0.4352  0.6082  1.3523
 8548SOL     OW37276   3.348   4.304   5.134  0.4213 -0.0568  0.4132
 8548SOL    HW137277   3.371   4.212   5.147 -0.0095 -0.0103  1.5315
 8548SOL    HW237278   3.431   4.351   5.148  0.3330  0.0458  0.5936
 8549SOL     OW37279   0.760   0.995   9.249 -0.4407  0.4788 -0.3745
 8549SOL    HW137280   0.725   1.031   9.331  1.4520  0.1036  0.6010
 8549SOL    HW237281   0.694   0.927   9.235  1.0617 -1.2137  0.6930
 8550SOL     OW37282   1.075   4.725   7.576 -0.0836  0.0661  0.1586
 8550SOL    HW137283   1.006   4.708   7.640 -0.1851  0.0563  0.0473
 8550SOL    HW237284   1.062   0.082   7.562  1.3062 -0.3392 -3.7248
 8551SOL     OW37285   1.942   0.915   1.256  0.4932  0.0759  0.4452
 8551SOL    HW137286   1.873   0.858   1.290 -0.4591  1.6474  1.1476
 8551SOL    HW237287   1.890   0.990   1.227 -0.2655 -0.8408 -0.5558
 8552SOL     OW37288   3.495   0.924   4.678  0.3212 -0.3543  0.0761
 8552SOL    HW137289   3.403   0.949   4.672  0.7440  1.0693 -0.4985
 8552SOL    HW237290   3.518   0.965   4.761  0.5753 -0.8105  0.2313
 8553SOL     OW37291   1.536   1.183  14.831 -0.4227  0.0265 -0.6865
 8553SOL    HW137292   1.552   1.271  14.865 -0.5963  0.2210 -1.1207
 8553SOL    HW237293   1.491   1.139  14.904  1.7795  0.9414  1.2449
 8554SOL     OW37294   2.129   2.795  15.126  0.4811  0.0307 -0.1097
 8554SOL    HW137295   2.070   2.784  15.201 -0.2986  0.3618 -0.6662
 8554SOL    HW237296   2.207   2.786  15.180 -0.5141  1.6033  1.5697
 8555SOL     OW37297   2.190   4.558   0.136 -0.4947  0.1342 -0.3015
 8555SOL    HW137298   2.113   4.563   0.192  0.1847  1.2723  0.5353
 8555SOL    HW237299   2.257   4.521   0.194 -1.9012 -2.7399 -0.5387
 8556SOL     OW37300   2.236   4.242  12.438 -0.5836 -0.1740 -0.0972
 8556SOL    HW137301   2.231   4.297  12.360  1.1835  0.1408  0.0168
 8556SOL    HW237302   2.329   4.242  12.461 -0.7585  0.6152  0.5912
 8557SOL     OW37303   0.502   4.348   1.878 -0.3118  0.1914  0.0457
 8557SOL    HW137304   0.439   4.384   1.815 -0.4373  0.2738  0.2181
 8557SOL    HW237305   0.450   4.363   1.957  0.0989  2.9456 -0.2040
 8558SOL     OW37306   2.581   0.978   4.858  0.2598 -0.2585  0.5955
 8558SOL    HW137307   2.650   0.928   4.814  0.1674 -1.6919  2.1117
 8558SOL    HW237308   2.615   0.985   4.947  1.9608 -0.2397 -0.0378
 8559SOL     OW37309   3.278   4.117   8.775  0.5755 -0.5968 -0.1258
 8559SOL    HW137310   3.361   4.072   8.791  1.6809  2.0052  1.5602
 8559SOL    HW237311   3.299   4.187   8.712 -2.5736  0.3165 -0.1998
 8560SOL     OW37312   1.046   3.629   0.179 -0.2899  0.2416  0.0683
 8560SOL    HW137313   0.965   3.581   0.163 -0.0174 -1.1811  2.9253
 8560SOL    HW237314   1.109   3.579   0.127 -1.6675 -2.7624  1.3220
 8561SOL     OW37315   3.715   0.785  13.397  0.3426 -0.3488  0.5184
 8561SOL    HW137316   3.766   0.856  13.436  0.4717  0.1156 -0.5038
 8561SOL    HW237317   3.647   0.774  13.463 -0.6545  1.9545 -0.1497
 8562SOL     OW37318   3.132   0.708  12.703  0.3382  0.4674  0.2262
 8562SOL    HW137319   3.182   0.627  12.714 -1.9488 -0.8417  0.9938
 8562SOL    HW237320   3.054   0.678  12.750  0.1374  0.7861  0.0918
 8563SOL     OW37321   2.897   4.043   3.198  0.5529 -0.2296 -0.2003
 8563SOL    HW137322   2.884   3.949   3.209 -0.5214 -0.3154 -2.1819
 8563SOL    HW237323   2.878   4.083   3.282 -1.5250 -1.0293 -0.2822
 8564SOL     OW37324   2.700   0.543   1.547  0.0580 -0.2476 -0.1990
 8564SOL    HW137325   2.737   0.625   1.579  0.1406 -0.5099  0.3819
 8564SOL    HW237326   2.761   0.524   1.475  0.2672  0.9905 -0.3494
 8565SOL     OW37327   2.668   3.585   1.483  0.2359  0.2206 -0.6706
 8565SOL    HW137328   2.624   3.501   1.481  1.2279 -0.2925 -1.0388
 8565SOL    HW237329   2.720   3.584   1.403  0.1052 -1.4813 -0.7342
 8566SOL     OW37330   0.413   0.426   6.601 -0.8690 -0.2720 -0.3125
 8566SOL    HW137331   0.350   0.473   6.655 -0.4516 -0.1003  0.0272
 8566SOL    HW237332   0.476   0.374   6.651  1.5682  1.1850 -1.8558
 8567SOL     OW37333   1.074   0.208  10.230 -0.0050  0.1171  0.7776
 8567SOL    HW137334   1.028   0.253  10.301 -1.5593 -3.5449  2.1313
 8567SOL    HW237335   1.081   0.278  10.165  1.0860 -0.6038  0.1129
 8568SOL     OW37336   1.030   0.924   0.384 -0.3920 -0.5602  0.3256
 8568SOL    HW137337   1.051   0.984   0.456 -1.3782  0.9553 -0.6708
 8568SOL    HW237338   1.119   0.893   0.366  0.0272  0.8478  0.0258
 8569SOL     OW37339   1.478   0.742   8.404  0.9756  0.5654 -0.3610
 8569SOL    HW137340   1.433   0.807   8.349  1.3707  0.8663 -0.3291
 8569SOL    HW237341   1.542   0.797   8.450 -0.1149  0.9918  0.6537
 8570SOL     OW37342   0.975   2.098   4.213 -0.3813 -0.1216 -0.1653
 8570SOL    HW137343   0.922   2.032   4.258 -1.6462  2.0757  1.5784
 8570SOL    HW237344   1.002   2.144   4.294 -0.2351  2.0503 -1.4420
 8571SOL     OW37345   0.394   2.533   9.368  0.0825 -0.5449 -0.6592
 8571SOL    HW137346   0.442   2.613   9.349 -2.2241  1.2345  0.9856
 8571SOL    HW237347   0.367   2.545   9.459  0.6091 -2.0443 -0.3063
 8572SOL     OW37348   4.011   4.030   1.157  0.2104 -0.2953  0.8361
 8572SOL    HW137349   4.037   3.964   1.092  2.6482 -0.5978  2.0971
 8572SOL    HW237350   4.072   4.099   1.130 -0.8484  0.1075 -0.4673
 8573SOL     OW37351   1.347   4.314  10.872  0.5610  0.0414  0.5519
 8573SOL    HW137352   1.409   4.286  10.939  0.2147 -0.8484  0.5025
 8573SOL    HW237353   1.386   4.389  10.826  2.6376 -0.2821  1.7792
 8574SOL     OW37354   2.238   0.350  15.862  0.1056  0.6419 -0.1747
 8574SOL    HW137355   2.188   0.282  15.906 -0.0154  2.1247  1.9746
 8574SOL    HW237356   2.191   0.433  15.872  1.0440  1.1800 -0.1760
 8575SOL     OW37357   2.596   0.541   5.707 -0.4626  0.0865  0.1904
 8575SOL    HW137358   2.645   0.578   5.780  0.0808 -2.0140  0.8764
 8575SOL    HW237359   2.508   0.523   5.741  0.3749  0.7297  2.7121
 8576SOL     OW37360   2.530   3.382  14.991 -0.2041  0.3997 -0.1998
 8576SOL    HW137361   2.537   3.334  15.074 -0.1021  2.0439  0.7435
 8576SOL    HW237362   2.527   3.309  14.930 -1.1628 -0.7451  1.2361
 8577SOL     OW37363   1.014   2.498  13.470 -0.4461 -0.0750 -0.0031
 8577SOL    HW137364   1.057   2.472  13.552  1.2095 -0.2701 -0.9189
 8577SOL    HW237365   1.085   2.535  13.417 -0.6011  0.2564  0.0196
 8578SOL     OW37366   0.588   0.218   5.661  0.0003 -0.7379 -0.3440
 8578SOL    HW137367   0.505   0.255   5.632  0.4905  0.8676  0.2922
 8578SOL    HW237368   0.584   0.125   5.641 -0.6641 -0.5324 -1.1796
 8579SOL     OW37369   1.997   1.357   9.233 -0.3240  0.3378  0.2312
 8579SOL    HW137370   1.921   1.346   9.177 -0.9779  2.5222  0.7020
 8579SOL    HW237371   1.975   1.428   9.294 -1.2610  1.4303 -1.3627
 8580SOL     OW37372   3.101   3.149   4.269 -0.0947 -0.0152 -0.2399
 8580SOL    HW137373   3.191   3.119   4.281 -0.1645 -0.4338 -0.7509
 8580SOL    HW237374   3.057   3.133   4.352 -0.2902 -0.2234 -0.3832
 8581SOL     OW37375   0.038   1.781  15.299 -0.5331 -0.0635 -0.4806
 8581SOL    HW137376   0.116   1.727  15.304  0.3580  1.3653  0.8730
 8581SOL    HW237377   4.730   1.742  15.373 -0.4978 -0.9637 -0.9241
 8582SOL     OW37378   1.990   0.850   8.753  0.0926  0.4831 -0.2915
 8582SOL    HW137379   1.990   0.938   8.715 -0.5919  0.2702 -0.7845
 8582SOL    HW237380   1.947   0.808   8.678  0.2071  0.4501 -0.3379
 8583SOL     OW37381   1.941   3.974   2.904  0.2602 -0.1091  0.2849
 8583SOL    HW137382   1.912   4.023   2.828  0.4151 -0.6824 -0.1430
 8583SOL    HW237383   1.910   3.886   2.883  0.4973  0.2207 -1.4249
 8584SOL     OW37384   0.110   3.030   9.077 -0.1723 -0.0840  0.7111
 8584SOL    HW137385   0.040   3.069   9.130  0.4505 -0.0365  1.5109
 8584SOL    HW237386   0.155   2.973   9.140 -0.7303 -1.8041 -0.4690
 8585SOL     OW37387   3.026   4.690   8.287  0.4505 -0.6066  0.5552
 8585SOL    HW137388   2.984   0.017   8.230 -0.7714 -2.9398 -1.1829
 8585SOL    HW237389   3.045   0.009   8.362 -1.0892  1.2228 -0.4135
 8586SOL     OW37390   3.195   4.250   7.429  0.2692 -0.0375  0.2915
 8586SOL    HW137391   3.135   4.217   7.496  1.0400  0.0035  1.0074
 8586SOL    HW237392   3.138   4.323   7.404  0.4605  1.0191  2.8976
 8587SOL     OW37393   0.214   2.106   3.346  0.3483  0.1845  0.8908
 8587SOL    HW137394   0.270   2.093   3.270 -1.4862 -1.6274 -0.1379
 8587SOL    HW237395   0.132   2.122   3.298  1.8286 -0.8181 -1.9574
 8588SOL     OW37396   1.319   0.598   5.504  0.2365  0.3721 -0.3868
 8588SOL    HW137397   1.232   0.637   5.491  1.5608  2.9411 -1.4841
 8588SOL    HW237398   1.289   0.508   5.519 -1.1090  0.8997  0.1425
 8589SOL     OW37399   4.634   1.757   5.636  0.1978 -0.0719 -0.8315
 8589SOL    HW137400   4.654   1.848   5.659 -1.9562 -0.0300  0.8133
 8589SOL    HW237401   4.703   1.710   5.683 -0.9369  0.2974  1.1973
 8590SOL     OW37402   3.101   3.680   5.246  0.2196  0.1727  0.1370
 8590SOL    HW137403   3.093   3.768   5.281  1.1283 -0.1305  1.0862
 8590SOL    HW237404   3.061   3.684   5.158  1.1242 -1.3475 -0.3565
 8591SOL     OW37405   1.760   1.486   3.391  0.0272 -0.2231 -0.0654
 8591SOL    HW137406   1.760   1.491   3.296  2.9932  1.6348  0.0225
 8591SOL    HW237407   1.838   1.539   3.409 -0.2336  0.2704 -0.3949
 8592SOL     OW37408   3.487   2.167   2.033  0.1660 -0.3685  0.4024
 8592SOL    HW137409   3.525   2.082   2.055  1.3939 -0.2291 -1.1388
 8592SOL    HW237410   3.562   2.198   1.981 -1.3478  0.4710 -1.2673
 8593SOL     OW37411   2.630   1.614   9.686 -0.1554 -0.1062 -0.7131
 8593SOL    HW137412   2.549   1.589   9.643  0.6703 -2.3712 -0.9419
 8593SOL    HW237413   2.650   1.692   9.635 -1.7540  1.1905  0.6438
 8594SOL     OW37414   1.197   4.307   4.498 -0.5370 -0.0151  0.2677
 8594SOL    HW137415   1.173   4.329   4.588 -1.5233 -0.0552  0.0117
 8594SOL    HW237416   1.262   4.236   4.508 -0.6209 -0.1714 -0.3203
 8595SOL     OW37417   3.533   3.685  15.209 -0.7197 -0.7583  0.3007
 8595SOL    HW137418   3.527   3.716  15.299  1.0574  1.3885 -0.3178
 8595SOL    HW237419   3.498   3.598  15.228  0.5243 -1.4800 -0.6968
 8596SOL     OW37420   2.881   3.881   2.414 -0.2466 -0.3261  0.0171
 8596SOL    HW137421   2.950   3.847   2.471  0.5053  0.2058 -0.5774
 8596SOL    HW237422   2.937   3.934   2.356  0.8471 -0.2759  1.1158
 8597SOL     OW37423   1.429   0.459   3.262 -0.1901 -0.3007 -0.1562
 8597SOL    HW137424   1.430   0.543   3.307  0.8957  0.5579 -1.7964
 8597SOL    HW237425   1.432   0.402   3.339  0.8917  0.4308  0.3527
 8598SOL     OW37426   1.257   1.519   1.213 -0.5388  0.2250 -0.3947
 8598SOL    HW137427   1.256   1.541   1.120  0.6813  3.6552  0.4382
 8598SOL    HW237428   1.347   1.491   1.232 -0.6678  0.4233  0.5031
 8599SOL     OW37429   1.931   2.417   6.216  0.0094 -0.5588  0.2714
 8599SOL    HW137430   1.869   2.415   6.143  1.1316  1.7068 -0.7286
 8599SOL    HW237431   1.962   2.326   6.209 -1.4705 -1.0680  0.2652
 8600SOL     OW37432   2.219   2.043   5.989  0.2634  0.2111  0.0159
 8600SOL    HW137433   2.253   2.133   5.985 -0.2231  0.2765 -2.4331
 8600SOL    HW237434   2.298   1.994   5.968 -0.8625 -0.8590 -1.6744
 8601SOL     OW37435   2.251   1.708   2.625  0.1172  0.2702 -0.3751
 8601SOL    HW137436   2.263   1.718   2.720 -0.8362  0.2607 -0.2545
 8601SOL    HW237437   2.274   1.616   2.618  1.2341  0.5933 -1.0753
 8602SOL     OW37438   1.262   3.682   4.974  0.7177 -0.6497  0.2101
 8602SOL    HW137439   1.350   3.699   5.007 -0.5737 -1.7087  4.1297
 8602SOL    HW237440   1.280   3.644   4.888 -0.4670  0.1537 -0.3946
 8603SOL     OW37441   3.900   1.002   8.730  0.3289 -0.0835 -0.1544
 8603SOL    HW137442   3.870   0.918   8.766 -0.7827  0.4735  0.2103
 8603SOL    HW237443   3.936   1.052   8.803 -1.9928 -0.6879  1.3724
 8604SOL     OW37444   2.195   1.487   4.221 -0.0308 -0.3781 -0.2134
 8604SOL    HW137445   2.103   1.512   4.216 -0.2749 -0.8117  2.6395
 8604SOL    HW237446   2.194   1.418   4.287 -2.6821 -0.8023 -0.7188
 8605SOL     OW37447   1.892   1.737   6.698  0.4118  0.0849 -0.3089
 8605SOL    HW137448   1.888   1.739   6.794  2.2236 -1.0714 -0.2022
 8605SOL    HW237449   1.894   1.830   6.676  0.9402  0.6038  1.9215
 8606SOL     OW37450   1.873   2.549  10.909 -0.1056  0.0490 -0.2667
 8606SOL    HW137451   1.819   2.504  10.845  0.2375 -1.0368  0.2025
 8606SOL    HW237452   1.913   2.614  10.851 -2.4074  1.3699 -0.3468
 8607SOL     OW37453   3.369   4.047   6.842  0.7518  0.5429 -0.3236
 8607SOL    HW137454   3.298   4.020   6.901  0.4299  1.3452 -0.3391
 8607SOL    HW237455   3.435   3.980   6.857  0.6927  0.5459 -0.0450
 8608SOL     OW37456   3.577   4.707  17.508 -0.8358 -0.3243 -0.2590
 8608SOL    HW137457   3.629   0.048  17.489 -0.6836  0.0695  1.7421
 8608SOL    HW237458   3.551   4.683  17.419 -1.9513  0.6330 -0.1936
 8609SOL     OW37459   0.674   0.756   3.118  0.2840  0.5371 -0.3871
 8609SOL    HW137460   0.708   0.780   3.204 -1.4250 -0.8596  0.6821
 8609SOL    HW237461   0.622   0.835   3.100 -2.2353 -1.3992 -1.6320
 8610SOL     OW37462   3.034   1.970   2.804 -0.1153 -0.6711  0.0064
 8610SOL    HW137463   2.961   2.033   2.803 -0.3476 -0.9016  1.5186
 8610SOL    HW237464   3.057   1.974   2.897 -1.3215  2.2839  0.1795
 8611SOL     OW37465   4.109   2.751  13.906 -0.2237  0.3015 -0.4100
 8611SOL    HW137466   4.043   2.733  13.974 -1.8585  3.0959 -1.2368
 8611SOL    HW237467   4.173   2.806  13.950 -0.5640  1.5872 -1.5173
 8612SOL     OW37468   3.836   0.460   1.984  0.0482  0.0316 -0.5883
 8612SOL    HW137469   3.771   0.418   1.927 -3.0811  1.5780  1.8326
 8612SOL    HW237470   3.847   0.395   2.053  0.4302 -1.3511 -1.9421
 8613SOL     OW37471   2.344   3.985   1.594  0.2534 -0.0531  0.6452
 8613SOL    HW137472   2.390   4.014   1.515  0.4280 -1.6431  0.1459
 8613SOL    HW237473   2.368   3.893   1.583 -0.4264 -0.1234 -0.1747
 8614SOL     OW37474   1.377   3.359   7.795 -0.2980 -0.1036 -0.4567
 8614SOL    HW137475   1.309   3.297   7.820  0.9890 -0.5798  1.9267
 8614SOL    HW237476   1.340   3.436   7.838 -0.5722 -0.9738  0.8576
 8615SOL     OW37477   3.440   2.946   3.812 -0.4213  0.1119 -0.3201
 8615SOL    HW137478   3.457   2.995   3.893 -0.4022  1.4415 -1.1323
 8615SOL    HW237479   3.348   2.970   3.804  0.5185  3.6088 -0.7877
 8616SOL     OW37480   3.480   4.021  10.300  0.0130 -0.1187  0.4209
 8616SOL    HW137481   3.541   4.031  10.373 -0.5291 -3.6417  1.3577
 8616SOL    HW237482   3.519   3.940  10.267 -0.4292 -0.6607  1.2066
 8617SOL     OW37483   2.094   0.576  12.745  0.2380  0.0981  0.7265
 8617SOL    HW137484   2.132   0.630  12.814 -1.4244  1.9964  0.1565
 8617SOL    HW237485   2.026   0.523  12.788 -0.0355  0.0839  0.2761
 8618SOL     OW37486   0.225   4.657   3.857  0.1088  0.9293 -0.4776
 8618SOL    HW137487   0.163   4.627   3.923 -0.6296 -0.7426 -1.9309
 8618SOL    HW237488   0.164   4.677   3.787 -1.7707 -1.1939  0.5696
 8619SOL     OW37489   2.586   4.016  17.436  0.1809  0.1908 -0.7324
 8619SOL    HW137490   2.612   4.018  17.529  1.1670 -0.2711 -1.0033
 8619SOL    HW237491   2.650   3.956  17.399 -0.3461 -2.0185  1.8516
 8620SOL     OW37492   3.158   2.573   7.076 -0.2611 -0.6393  0.1967
 8620SOL    HW137493   3.173   2.576   6.982 -3.1670 -0.1937 -0.2483
 8620SOL    HW237494   3.068   2.606   7.083  0.8714  2.3836  0.4812
 8621SOL     OW37495   3.337   2.950   1.830 -0.1507  0.0931 -0.3223
 8621SOL    HW137496   3.248   2.970   1.860  0.1896 -0.7597  1.2326
 8621SOL    HW237497   3.395   2.958   1.905 -0.7123  0.4220  0.0703
 8622SOL     OW37498   1.284   2.330   2.440 -0.5975 -0.0939 -0.4776
 8622SOL    HW137499   1.204   2.382   2.436 -0.5875  0.0319  1.0218
 8622SOL    HW237500   1.298   2.309   2.533  0.5945 -2.6719 -1.2399
 8623SOL     OW37501   3.383   2.965   9.515  0.0180  0.0841  0.0394
 8623SOL    HW137502   3.471   2.935   9.491 -0.3115 -0.9587  0.1256
 8623SOL    HW237503   3.407   3.047   9.559  0.7514  0.3304 -0.7999
 8624SOL     OW37504   1.766   1.673   4.763 -0.2640  0.3295 -0.0354
 8624SOL    HW137505   1.717   1.754   4.780 -0.5859  0.1042  0.0878
 8624SOL    HW237506   1.692   1.613   4.769 -0.9691  1.0260 -1.6359
 8625SOL     OW37507   2.761   4.221   6.612 -0.4662 -0.3330  0.2896
 8625SOL    HW137508   2.701   4.165   6.662 -1.5883  0.3608 -0.2977
 8625SOL    HW237509   2.697   4.273   6.563 -1.1877  0.0840  1.6609
 8626SOL     OW37510   0.335   2.779   9.841 -0.1112  0.0980  0.5125
 8626SOL    HW137511   0.331   2.684   9.847 -0.0128 -0.0276 -1.6570
 8626SOL    HW237512   0.356   2.799   9.933  0.7020 -1.4842  0.6625
 8627SOL     OW37513   4.430   2.369   5.941  0.3328  0.1828 -0.1319
 8627SOL    HW137514   4.449   2.341   6.030  0.6182 -0.3000 -0.3401
 8627SOL    HW237515   4.351   2.420   5.958 -0.0146 -0.4619  0.2148
 8628SOL     OW37516   2.824   0.779   9.518 -0.0683 -0.3118 -0.1723
 8628SOL    HW137517   2.817   0.862   9.566  0.9935 -0.0380 -0.4864
 8628SOL    HW237518   2.919   0.776   9.512  0.1498  1.7331  2.2316
 8629SOL     OW37519   1.803   4.291   1.137  0.2361  0.0543 -0.2992
 8629SOL    HW137520   1.750   4.211   1.142  1.3524 -0.7257 -0.8980
 8629SOL    HW237521   1.774   4.348   1.208  1.1114  1.1007 -0.7753
 8630SOL     OW37522   0.421   3.461   3.696  0.3908 -0.1666 -0.3573
 8630SOL    HW137523   0.391   3.370   3.704 -2.8775  1.0864  1.7120
 8630SOL    HW237524   0.373   3.480   3.616 -1.9554 -1.4107  0.7354
 8631SOL     OW37525   1.710   2.917   7.068 -0.2068  0.2427  0.2901
 8631SOL    HW137526   1.793   2.923   7.114 -0.2919  1.3295  0.3001
 8631SOL    HW237527   1.661   2.869   7.134 -1.6869  4.0010  1.9148
 8632SOL     OW37528   4.731   2.475  10.834  0.5686 -0.3028  0.7075
 8632SOL    HW137529   4.638   2.458  10.842  0.4643 -0.9794 -1.8700
 8632SOL    HW237530   0.022   2.384  10.829  1.9033  0.2108 -1.3534
 8633SOL     OW37531   3.770   1.966   3.620  0.2196  1.4695 -0.3804
 8633SOL    HW137532   3.843   1.907   3.600  0.4827  0.9355  2.1591
 8633SOL    HW237533   3.823   2.037   3.654  0.5170  0.2015  1.8353
 8634SOL     OW37534   0.557   1.240  10.953  0.8332 -0.6279 -0.2097
 8634SOL    HW137535   0.543   1.157  10.999 -1.8776  0.1273  0.3308
 8634SOL    HW237536   0.613   1.276  11.021  0.6111 -3.3449  1.4006
 8635SOL     OW37537   2.398   4.242  13.911 -0.3000  0.4510  0.0255
 8635SOL    HW137538   2.395   4.154  13.875  2.1996 -1.1872  3.8131
 8635SOL    HW237539   2.476   4.237  13.967 -0.2164  0.7611 -0.0631
 8636SOL     OW37540   4.315   4.204  17.252 -0.4953 -0.1328  0.7789
 8636SOL    HW137541   4.261   4.249  17.188  2.5319 -0.1815 -1.8017
 8636SOL    HW237542   4.375   4.274  17.277 -1.9564  0.3972  2.7975
 8637SOL     OW37543   1.568   2.735   5.532 -0.3208 -0.0032 -0.0216
 8637SOL    HW137544   1.533   2.787   5.460 -0.0076 -1.8168 -1.4968
 8637SOL    HW237545   1.633   2.787   5.578  0.5228 -1.3391  0.2862
 8638SOL     OW37546   1.834   3.929   0.378  0.7134  0.2672 -0.4977
 8638SOL    HW137547   1.808   3.933   0.286 -1.5686  0.0732  0.1414
 8638SOL    HW237548   1.786   3.849   0.399 -0.4803  1.2523  0.5118
 8639SOL     OW37549   2.203   2.316   2.161  0.0334 -0.6016 -0.0122
 8639SOL    HW137550   2.127   2.261   2.182 -0.3556 -0.1017 -0.1039
 8639SOL    HW237551   2.200   2.371   2.239  0.8042  0.1280 -0.5013
 8640SOL     OW37552   3.695   4.196   9.077 -0.0859 -0.5289  0.1580
 8640SOL    HW137553   3.753   4.271   9.062 -0.9003  0.0170 -0.3066
 8640SOL    HW237554   3.683   4.203   9.172  2.5084 -0.6377  0.4761
 8641SOL     OW37555   3.116   4.170  16.033 -0.3744  0.5143  0.0336
 8641SOL    HW137556   3.021   4.179  16.044 -0.3174 -1.2529  2.1058
 8641SOL    HW237557   3.131   4.264  16.041 -0.0285  0.4454  0.1931
 8642SOL     OW37558   2.869   4.536  12.030 -0.0889  0.4032  0.0461
 8642SOL    HW137559   2.810   4.471  11.994  0.0215  0.2938  0.0633
 8642SOL    HW237560   2.858   4.511  12.122 -0.4547 -1.5350 -0.5338
 8643SOL     OW37561   0.080   4.719   9.472  0.0622 -0.3982 -0.5118
 8643SOL    HW137562   0.165   4.679   9.452  0.1119 -0.7273  0.3650
 8643SOL    HW237563   0.027   4.658   9.421 -1.8246 -1.3805  2.6334
 8644SOL     OW37564   4.425   4.372   1.900  0.0017  0.2131 -0.0404
 8644SOL    HW137565   4.408   4.434   1.829 -1.6256 -1.7475 -1.3687
 8644SOL    HW237566   4.396   4.428   1.973 -3.6661 -1.9480  0.1744
 8645SOL     OW37567   1.006   3.747   3.224  0.4088  0.1472  0.9295
 8645SOL    HW137568   0.922   3.776   3.258  0.7338  0.8402  1.1320
 8645SOL    HW237569   1.056   3.828   3.226  2.1414 -0.8984  0.1632
 8646SOL     OW37570   1.057   4.285   3.426 -0.0900  0.6632  0.6226
 8646SOL    HW137571   1.103   4.257   3.505  2.8918  3.0777 -0.2496
 8646SOL    HW237572   1.056   4.201   3.380  0.9802  0.4374  1.0011
 8647SOL     OW37573   3.452   4.299   7.895 -0.0810  0.2053  0.6160
 8647SOL    HW137574   3.365   4.332   7.876  1.1873  3.4914  0.6167
 8647SOL    HW237575   3.442   4.272   7.987 -2.5824  0.5183  0.4443
 8648SOL     OW37576   3.324   1.206   4.518 -0.7478 -0.0191 -0.5997
 8648SOL    HW137577   3.356   1.166   4.437  0.4051 -0.6441  0.1719
 8648SOL    HW237578   3.296   1.126   4.563 -0.5313  0.2696  0.0499
 8649SOL     OW37579   0.906   4.206   4.862 -0.1982  0.3735  0.0533
 8649SOL    HW137580   0.812   4.197   4.878  0.3146 -0.2417  2.7686
 8649SOL    HW237581   0.932   4.223   4.952  0.3570  0.4366 -0.1184
 8650SOL     OW37582   0.224   3.076   3.275  0.2690 -0.2312 -0.5436
 8650SOL    HW137583   0.155   3.143   3.280  1.1049  0.4790  1.1632
 8650SOL    HW237584   0.208   3.047   3.185 -0.3206 -0.4029 -0.3864
 8651SOL     OW37585   4.254   0.976  11.220 -0.0088 -0.2724  0.3416
 8651SOL    HW137586   4.160   0.962  11.220  0.2409 -1.9720  0.9857
 8651SOL    HW237587   4.278   0.939  11.135 -3.5590 -1.0568 -0.3293
 8652SOL     OW37588   0.643   3.826  10.193  0.0352 -0.0102  0.0462
 8652SOL    HW137589   0.685   3.741  10.191  1.8639  0.9085 -0.3326
 8652SOL    HW237590   0.559   3.792  10.225  0.1129 -0.7179 -0.5067
 8653SOL     OW37591   1.167   1.996  15.549  0.3142 -0.5010  0.2411
 8653SOL    HW137592   1.171   1.919  15.606  1.5192  0.0536  0.9228
 8653SOL    HW237593   1.248   1.994  15.498  0.3906  1.5875  0.2589
 8654SOL     OW37594   3.870   3.207   4.894 -0.0993 -0.6235 -0.5981
 8654SOL    HW137595   3.912   3.293   4.884  1.6863 -1.5676 -1.1837
 8654SOL    HW237596   3.930   3.149   4.848  0.6088 -0.1325 -0.2938
 8655SOL     OW37597   4.341   1.662  13.803  0.6693 -0.0410  0.1185
 8655SOL    HW137598   4.347   1.703  13.890 -0.6880  1.1735 -0.3568
 8655SOL    HW237599   4.332   1.570  13.828  0.1920 -0.2606 -0.8711
 8656SOL     OW37600   2.486   0.139   5.756  0.0952 -0.2556  0.3509
 8656SOL    HW137601   2.438   0.126   5.675 -1.8416 -0.8587  1.6049
 8656SOL    HW237602   2.465   0.055   5.797 -1.2701  0.5014  1.2361
 8657SOL     OW37603   4.463   4.519   2.777  0.4276  0.2144  0.2864
 8657SOL    HW137604   4.444   4.437   2.733 -1.3647  2.0186 -2.3323
 8657SOL    HW237605   4.484   4.501   2.869  3.3372  1.5073 -0.1340
 8658SOL     OW37606   0.232   3.926   5.732  0.2445  0.3767  0.2240
 8658SOL    HW137607   0.180   3.854   5.696 -1.5825  0.1286  3.3788
 8658SOL    HW237608   0.282   3.959   5.658  0.6539 -0.1074  0.2806
 8659SOL     OW37609   3.668   4.499   0.324 -0.1334 -0.1124 -0.2440
 8659SOL    HW137610   3.702   4.460   0.244  1.3713 -0.7057  0.6831
 8659SOL    HW237611   3.628   4.579   0.288 -0.1828  0.0328  0.1303
 8660SOL     OW37612   2.558   2.941   5.049  0.4030 -0.0247 -0.0887
 8660SOL    HW137613   2.471   2.911   5.023  0.6683 -0.6068 -0.3045
 8660SOL    HW237614   2.542   3.035   5.054  0.6616  0.1478 -2.6101
 8661SOL     OW37615   1.085   1.637   7.651  0.1664  0.1035 -0.2565
 8661SOL    HW137616   1.128   1.610   7.732  0.3116 -1.0741 -0.7286
 8661SOL    HW237617   1.034   1.711   7.683  0.1538 -1.1926  2.6716
 8662SOL     OW37618   4.008   3.420   4.818 -0.1919  0.2979  0.1394
 8662SOL    HW137619   4.099   3.422   4.787 -1.3687  0.2384 -3.3525
 8662SOL    HW237620   3.967   3.506   4.807  0.4481  0.7279  1.1002
 8663SOL     OW37621   0.677   0.097  13.743  0.3293  0.9208 -0.0124
 8663SOL    HW137622   0.768   0.078  13.722  0.0037 -0.4797 -0.1962
 8663SOL    HW237623   0.673   0.179  13.792 -0.5047  0.8761 -0.0078
 8664SOL     OW37624   4.460   3.737   5.419  0.2363 -0.4703  0.1819
 8664SOL    HW137625   4.388   3.766   5.364 -1.1481  1.9027  3.2510
 8664SOL    HW237626   4.441   3.643   5.423 -1.7150  0.0429  2.7115
 8665SOL     OW37627   0.444   0.440   7.385 -0.3924 -0.6933 -0.0390
 8665SOL    HW137628   0.534   0.420   7.411 -0.5792  0.0722  1.2006
 8665SOL    HW237629   0.403   0.472   7.465 -2.8165 -0.4657 -1.3662
 8666SOL     OW37630   4.472   0.687   3.588  0.4955 -0.8835 -0.1298
 8666SOL    HW137631   4.467   0.648   3.675  1.5050  1.0392  0.7875
 8666SOL    HW237632   4.555   0.733   3.593  0.2759 -0.6131  1.1214
 8667SOL     OW37633   3.093   0.068   0.125 -0.3954  0.1578  0.0388
 8667SOL    HW137634   3.026   0.020   0.077 -0.0837  1.0835 -1.3448
 8667SOL    HW237635   3.176   0.062   0.077  0.0503 -1.4659  1.0167
 8668SOL     OW37636   2.584   2.110   6.744  0.8150  0.1941 -0.2291
 8668SOL    HW137637   2.565   2.064   6.662 -0.2850 -1.3040  0.8590
 8668SOL    HW237638   2.496   2.127   6.776 -0.0768 -2.7850 -1.0908
 8669SOL     OW37639   3.383   4.028   2.139  0.2371 -0.1021  0.3711
 8669SOL    HW137640   3.378   3.933   2.149 -1.9678  0.4174  4.1894
 8669SOL    HW237641   3.478   4.034   2.129 -0.0119 -0.8409 -2.5248
 8670SOL     OW37642   0.837   1.482   8.511 -0.2555  0.3825  0.2277
 8670SOL    HW137643   0.768   1.416   8.501 -0.6015  0.7175  0.4292
 8670SOL    HW237644   0.839   1.514   8.421 -0.3429  0.6305  0.3147
 8671SOL     OW37645   2.836   1.317  14.691  0.2043 -0.0636 -0.5481
 8671SOL    HW137646   2.833   1.326  14.786 -1.2814  0.0959 -0.6186
 8671SOL    HW237647   2.746   1.306  14.663 -0.0850  0.7607  0.0824
 8672SOL     OW37648   3.882   3.631   4.228  0.4447  0.0555  0.2803
 8672SOL    HW137649   3.816   3.650   4.295  0.6290  2.7839 -0.2998
 8672SOL    HW237650   3.830   3.669   4.157 -0.9041  1.8254  2.2189
 8673SOL     OW37651   4.399   2.690   4.770 -0.0726 -1.0045  0.0900
 8673SOL    HW137652   4.340   2.632   4.722 -3.2088  1.5655  0.8418
 8673SOL    HW237653   4.385   2.669   4.862 -1.0392  1.2192  0.4731
 8674SOL     OW37654   0.414   3.948   6.890 -0.0997 -0.3426 -0.1484
 8674SOL    HW137655   0.478   4.019   6.896 -0.8750  0.2710  0.7489
 8674SOL    HW237656   0.457   3.873   6.930  1.6091 -0.5596 -2.3905
 8675SOL     OW37657   3.079   2.912   8.658  0.2357  0.2422 -0.3916
 8675SOL    HW137658   3.168   2.894   8.626 -0.0855 -2.9982  0.4754
 8675SOL    HW237659   3.061   2.839   8.718 -3.2694  2.2204  0.9561
 8676SOL     OW37660   0.712   4.448   6.410 -0.0558  0.2606  0.2890
 8676SOL    HW137661   0.787   4.445   6.468  0.7008 -1.0323 -0.7454
 8676SOL    HW237662   0.699   4.539   6.384  0.9974  0.0020 -1.1726
 8677SOL     OW37663   3.986   0.845  11.224  0.2408  0.7820 -0.1335
 8677SOL    HW137664   4.022   0.781  11.287 -0.7089 -0.8547 -1.2519
 8677SOL    HW237665   3.934   0.787  11.169  1.0834  1.7775 -1.9481
 8678SOL     OW37666   2.221   2.360   5.461 -0.0892 -0.0138  0.4654
 8678SOL    HW137667   2.230   2.403   5.376 -2.4288  1.6734  1.0570
 8678SOL    HW237668   2.247   2.273   5.432 -0.9454 -0.4287  0.9465
 8679SOL     OW37669   1.045   1.154  11.110 -0.3073 -0.1452 -0.4803
 8679SOL    HW137670   1.138   1.135  11.124 -0.5541 -1.3472 -0.5069
 8679SOL    HW237671   1.038   1.154  11.014  1.2670  0.4953 -0.5931
 8680SOL     OW37672   2.250   4.034   6.281  0.3042  0.4067  0.0116
 8680SOL    HW137673   2.244   4.124   6.315  0.0274  0.3110  0.2142
 8680SOL    HW237674   2.200   4.043   6.200 -0.2337 -1.8582  0.0931
 8681SOL     OW37675   2.959   0.295  10.282  0.0313 -0.5723 -0.0178
 8681SOL    HW137676   2.902   0.368  10.305  2.2208  0.8480  0.8903
 8681SOL    HW237677   3.036   0.339  10.248  0.2608 -0.2490  0.9223
 8682SOL     OW37678   2.970   3.406   1.667 -0.1109  0.3943 -0.5665
 8682SOL    HW137679   3.059   3.429   1.641 -0.1515  1.0958 -0.0813
 8682SOL    HW237680   2.957   3.312   1.654 -0.6683  0.3545  0.3019
 8683SOL     OW37681   0.079   2.726   9.643 -0.0981  0.1392 -0.3190
 8683SOL    HW137682   0.089   2.645   9.593 -0.1695 -0.1547  0.1443
 8683SOL    HW237683   0.118   2.700   9.727 -2.6885 -1.7475  0.3045
 8684SOL     OW37684   3.451   1.898   6.104  0.1068  0.0291  0.3325
 8684SOL    HW137685   3.544   1.876   6.104  0.1891  0.3733 -0.1279
 8684SOL    HW237686   3.458   1.986   6.066 -0.0023 -0.5572 -1.0587
 8685SOL     OW37687   3.764   0.834   6.615 -0.2891  0.0643  0.7517
 8685SOL    HW137688   3.701   0.803   6.551 -2.1451  2.5949  1.3551
 8685SOL    HW237689   3.828   0.763   6.621 -0.8651 -0.4615  0.6536
 8686SOL     OW37690   3.414   1.452  15.673 -0.2623 -0.8033 -0.0969
 8686SOL    HW137691   3.338   1.477  15.620 -0.1254  2.4847  1.1993
 8686SOL    HW237692   3.399   1.486  15.761  1.0061  1.4093 -0.7185
 8687SOL     OW37693   3.262   3.742   9.421  0.2032 -0.8043  0.0597
 8687SOL    HW137694   3.272   3.828   9.462 -1.2192 -0.0766 -1.1019
 8687SOL    HW237695   3.303   3.760   9.336 -0.6511 -1.2661 -0.4456
 8688SOL     OW37696   3.489   4.586   8.974 -0.1026 -0.0430 -0.8117
 8688SOL    HW137697   3.556   4.556   9.034 -1.7585 -0.9813  0.5805
 8688SOL    HW237698   3.534   4.596   8.890  1.4403  1.9142  0.2617
 8689SOL     OW37699   0.980   3.475   5.309 -0.3259 -0.1243  0.0427
 8689SOL    HW137700   0.996   3.551   5.365 -3.2146  0.0041  0.6960
 8689SOL    HW237701   0.960   3.519   5.227  1.4388  1.1207  0.2524
 8690SOL     OW37702   1.984   3.286   1.719  0.6831  0.6753  0.8353
 8690SOL    HW137703   2.022   3.335   1.793  0.2223  0.7124  1.0462
 8690SOL    HW237704   1.958   3.206   1.765 -0.7525 -1.3222 -3.5436
 8691SOL     OW37705   2.907   3.277   2.427  0.2875  0.4487  0.2934
 8691SOL    HW137706   2.984   3.225   2.451  0.4055  0.4714 -0.0415
 8691SOL    HW237707   2.839   3.210   2.414 -1.4222  1.7429  2.5398
 8692SOL     OW37708   3.563   2.923   7.435  0.2180 -0.4112 -0.4415
 8692SOL    HW137709   3.552   2.894   7.526  0.5163  0.8043 -0.0146
 8692SOL    HW237710   3.548   3.015   7.458 -0.9307 -0.2224 -1.9560
 8693SOL     OW37711   2.496   0.072   2.913  0.6880  0.3464 -0.3165
 8693SOL    HW137712   2.435   0.086   2.985  1.0639 -1.4455  0.3428
 8693SOL    HW237713   2.520   4.719   2.934  0.9440  0.7747  1.2393
 8694SOL     OW37714   3.659   0.642  12.876 -0.0677 -0.6744  0.2411
 8694SOL    HW137715   3.572   0.606  12.892 -0.3159 -0.2545 -0.1343
 8694SOL    HW237716   3.681   0.676  12.962 -1.9965 -1.5101  1.0736
 8695SOL     OW37717   1.567   0.238   5.014  0.1085 -0.4943  0.0772
 8695SOL    HW137718   1.656   0.257   4.984 -0.3515 -1.5802 -1.9674
 8695SOL    HW237719   1.526   0.211   4.932  1.7862 -0.2897 -0.8191
 8696SOL     OW37720   4.721   3.102   4.690  0.1999 -0.0635 -0.2452
 8696SOL    HW137721   4.718   3.036   4.621 -0.0033 -0.6896  0.3749
 8696SOL    HW237722   0.050   3.164   4.660  0.2442 -0.3029 -0.6426
 8697SOL     OW37723   0.243   3.822   4.709 -0.0984 -0.8099  0.3262
 8697SOL    HW137724   0.323   3.874   4.708 -0.5161 -0.1601  0.1278
 8697SOL    HW237725   0.195   3.861   4.636 -0.5019 -0.0439  0.9986
 8698SOL     OW37726   2.089   2.284  11.181  0.0513 -0.0827  0.3155
 8698SOL    HW137727   2.124   2.280  11.093 -1.2184 -1.1737 -0.1489
 8698SOL    HW237728   2.160   2.252  11.236  0.5018  1.7641  0.8070
 8699SOL     OW37729   0.451   1.424  16.281 -0.4487  0.0825 -0.2186
 8699SOL    HW137730   0.399   1.504  16.281 -1.5095 -0.6163  1.2674
 8699SOL    HW237731   0.394   1.361  16.237  1.5678  0.1987 -3.0040
 8700SOL     OW37732   0.698   0.989   4.177  0.0505  0.4764 -0.1772
 8700SOL    HW137733   0.646   1.027   4.248  1.8073 -0.4892  1.6367
 8700SOL    HW237734   0.744   1.064   4.140  1.2882 -1.4650 -2.5158
 8701SOL     OW37735   3.087   2.937   9.284  0.5963 -0.0945 -0.1751
 8701SOL    HW137736   3.123   3.021   9.312  2.0535 -0.0946 -2.0755
 8701SOL    HW237737   3.046   2.954   9.199 -0.8837 -0.6128  0.4337
 8702SOL     OW37738   0.248   3.789   3.846 -0.1001  0.1197  0.2434
 8702SOL    HW137739   0.271   3.869   3.892  1.7368 -0.4949  0.3690
 8702SOL    HW237740   0.163   3.773   3.888  0.8356 -1.2340  1.5813
 8703SOL     OW37741   3.665   0.762   5.111  0.1546 -0.1400  0.5312
 8703SOL    HW137742   3.750   0.722   5.095  0.5247  1.0238 -0.4628
 8703SOL    HW237743   3.658   0.839   5.053 -0.4405  1.1042  2.2462
 8704SOL     OW37744   0.421   3.122   7.913 -0.2439  0.1067  0.5588
 8704SOL    HW137745   0.488   3.074   7.962  0.5136  1.4531  0.8371
 8704SOL    HW237746   0.345   3.124   7.971  1.0688 -1.1943  2.3530
 8705SOL     OW37747   4.439   0.653   1.432  0.2585  0.4109  0.4530
 8705SOL    HW137748   4.448   0.561   1.457 -2.2864  0.0345 -0.0425
 8705SOL    HW237749   4.523   0.670   1.390 -1.0137  0.8904 -1.8975
 8706SOL     OW37750   3.391   2.662   8.840 -0.5234 -0.2011  0.3079
 8706SOL    HW137751   3.367   2.652   8.748 -0.7112  1.9036  0.1332
 8706SOL    HW237752   3.434   2.577   8.850 -0.7712 -0.3563  0.0599
 8707SOL     OW37753   4.348   1.575  14.917  0.2756 -0.2892 -0.8860
 8707SOL    HW137754   4.348   1.635  14.992 -1.8562 -1.6141  0.1812
 8707SOL    HW237755   4.442   1.565  14.907  0.5425  0.3831  0.9873
 8708SOL     OW37756   0.205   2.326   7.647  0.0033  0.1628 -0.0292
 8708SOL    HW137757   0.217   2.415   7.681  3.6145  0.6122 -2.5540
 8708SOL    HW237758   0.110   2.332   7.634  0.4582 -1.3414 -3.9902
 8709SOL     OW37759   2.484   0.267  16.015 -0.1994 -0.6068  0.4834
 8709SOL    HW137760   2.423   0.290  15.946  1.0830 -0.8735 -0.7465
 8709SOL    HW237761   2.556   0.327  15.998 -0.4502 -1.7501 -4.4866
 8710SOL     OW37762   2.541   1.513   5.769  0.0267  0.8317 -0.2459
 8710SOL    HW137763   2.503   1.564   5.841 -0.7257  1.0210 -0.7840
 8710SOL    HW237764   2.479   1.440   5.771  0.4797  0.4252 -0.9164
 8711SOL     OW37765   1.257   0.043   8.500  0.3520  0.0207  0.0374
 8711SOL    HW137766   1.210   4.711   8.453  0.7965 -0.8770  0.9294
 8711SOL    HW237767   1.188   0.109   8.497  0.9687  0.5993 -1.6930
 8712SOL     OW37768   3.099   0.282   9.353 -0.1841  0.3683  0.4140
 8712SOL    HW137769   3.074   0.196   9.319 -1.1822  2.0647 -3.1826
 8712SOL    HW237770   3.024   0.322   9.397 -1.4186  0.8236 -2.1193
 8713SOL     OW37771   1.618   4.596  13.660 -0.0938 -0.0771 -0.1565
 8713SOL    HW137772   1.690   4.537  13.682 -0.3921 -0.0316  0.9137
 8713SOL    HW237773   1.606   4.631  13.748 -1.1542 -2.1535  0.5170
 8714SOL     OW37774   1.844   3.962  15.799 -0.6347  0.0289  0.1935
 8714SOL    HW137775   1.923   4.008  15.769  0.4295 -2.6567 -1.1236
 8714SOL    HW237776   1.805   3.930  15.717 -1.0582  0.4316  0.2364
 8715SOL     OW37777   2.671   3.931  16.075  0.0278  0.1283  0.1289
 8715SOL    HW137778   2.703   4.001  16.018  1.1454 -1.1789 -0.8546
 8715SOL    HW237779   2.641   3.981  16.150  1.0444  1.1530 -0.1326
 8716SOL     OW37780   1.085   2.970   2.876 -0.3755 -0.8863  0.0564
 8716SOL    HW137781   1.023   2.918   2.824  0.5066 -2.4409  0.5583
 8716SOL    HW237782   1.067   2.942   2.965  0.2523  0.4498  0.5980
 8717SOL     OW37783   0.312   3.791  11.902 -0.3547  0.2657  0.1393
 8717SOL    HW137784   0.356   3.734  11.966 -0.4973  0.8769  0.7900
 8717SOL    HW237785   0.380   3.832  11.849 -2.9633  2.4337 -1.4895
 8718SOL     OW37786   2.782   2.161   3.869  0.4148  0.0484 -0.5389
 8718SOL    HW137787   2.847   2.197   3.930  0.5409 -0.6749 -0.2402
 8718SOL    HW237788   2.792   2.211   3.788  1.7153 -1.1320 -1.1032
 8719SOL     OW37789   1.330   0.011   6.064 -0.0179 -0.0650  0.6884
 8719SOL    HW137790   1.391   0.019   6.137  2.7305  0.4259 -1.6735
 8719SOL    HW237791   1.248   0.024   6.111  0.4998  1.9885  1.0558
 8720SOL     OW37792   0.374   0.657   2.817  0.0987 -0.2477  0.1851
 8720SOL    HW137793   0.381   0.686   2.726 -0.8691 -1.8647 -0.4039
 8720SOL    HW237794   0.377   0.562   2.805  0.6217  0.0731 -2.2528
 8721SOL     OW37795   4.073   1.215  17.219  0.4818  0.0430  0.5720
 8721SOL    HW137796   4.049   1.298  17.178 -0.5064 -1.1320 -1.2164
 8721SOL    HW237797   4.164   1.235  17.241  0.7472 -0.5076 -0.0194
 8722SOL     OW37798   1.242   0.046   8.994  1.0823  0.3542  0.0479
 8722SOL    HW137799   1.199   4.714   9.043  2.5186  0.5200  1.5382
 8722SOL    HW237800   1.248   0.127   9.045 -1.0466 -0.5318  1.6766
 8723SOL     OW37801   4.068   2.576  15.052  0.6632  0.6065 -0.2169
 8723SOL    HW137802   4.103   2.665  15.055 -0.2389  1.0107 -2.3150
 8723SOL    HW237803   3.985   2.587  15.099  0.9996 -0.1585  0.5681
 8724SOL     OW37804   2.790   3.477   2.267 -0.2125 -0.3271  0.2969
 8724SOL    HW137805   2.723   3.456   2.332 -0.6830 -3.9740 -1.3861
 8724SOL    HW237806   2.857   3.413   2.288  0.6449  0.8048  1.0515
 8725SOL     OW37807   1.070   0.013   3.394 -0.0158 -1.0676  0.1471
 8725SOL    HW137808   0.985   4.729   3.432 -0.2773  1.5325  1.0315
 8725SOL    HW237809   1.133   4.723   3.461  0.8776  1.2196  0.2623
 8726SOL     OW37810   0.496   2.528  15.035 -0.2241 -0.1396 -0.3499
 8726SOL    HW137811   0.568   2.509  14.976  0.7304  2.5323 -0.0309
 8726SOL    HW237812   0.509   2.462  15.104  2.2209  1.2985  0.5588
 8727SOL     OW37813   2.007   4.490   7.737  0.0231 -0.2623  0.5462
 8727SOL    HW137814   2.024   4.584   7.737 -0.2515 -0.2117 -1.9332
 8727SOL    HW237815   2.008   4.472   7.642 -2.5894  0.2906  0.4133
 8728SOL     OW37816   2.160   0.969   6.585  0.0437 -0.1106 -0.0949
 8728SOL    HW137817   2.126   1.057   6.603  1.9622 -0.3096  4.4044
 8728SOL    HW237818   2.232   0.973   6.521  1.4496 -2.0423  1.3838
 8729SOL     OW37819   1.934   4.407   5.082 -0.4472  0.1769  0.8156
 8729SOL    HW137820   1.909   4.393   5.173  2.1649 -1.2855  1.2961
 8729SOL    HW237821   1.855   4.441   5.040 -0.8177 -0.0356  1.3455
 8730SOL     OW37822   4.490   4.199   5.628  0.5632 -0.1864  0.2695
 8730SOL    HW137823   4.400   4.181   5.656  0.5176 -2.0394 -1.0545
 8730SOL    HW237824   4.517   4.117   5.586  3.4852  1.4770 -1.0652
 8731SOL     OW37825   2.683   0.038   3.675 -0.1619 -0.6368 -0.5433
 8731SOL    HW137826   2.675   4.688   3.637  0.3998 -1.0805  0.3498
 8731SOL    HW237827   2.594   0.072   3.666  0.6355  1.1955 -1.5772
 8732SOL     OW37828   4.490   0.120  14.341 -0.2718  0.1194  0.0306
 8732SOL    HW137829   4.437   0.041  14.333 -0.4883  0.1772  0.9455
 8732SOL    HW237830   4.422   0.187  14.339 -1.0082 -0.6131  0.6386
 8733SOL     OW37831   1.260   4.262   8.789  0.1678  0.1295  0.0809
 8733SOL    HW137832   1.310   4.252   8.708  0.7623 -2.0861  0.7033
 8733SOL    HW237833   1.283   4.353   8.805 -0.4797  0.3932 -0.5048
 8734SOL     OW37834   2.822   0.553   7.607  0.1476 -0.2410  1.2087
 8734SOL    HW137835   2.915   0.576   7.603  0.2677 -1.3933 -2.8255
 8734SOL    HW237836   2.828   0.460   7.630 -0.5318 -1.0574 -1.9679
 8735SOL     OW37837   0.052   2.479  11.246  0.0758  0.0322 -0.6876
 8735SOL    HW137838   0.014   2.543  11.307  1.3540 -1.2640  1.4702
 8735SOL    HW237839   0.123   2.446  11.301 -1.4442  0.2002  1.3876
 8736SOL     OW37840   0.359   4.165   6.564 -0.1271 -0.7692  0.5760
 8736SOL    HW137841   0.441   4.122   6.540 -0.3311 -0.9000  0.1178
 8736SOL    HW237842   0.325   4.177   6.475  0.0339  0.0301  0.6203
 8737SOL     OW37843   2.764   1.772   4.212  0.4307  0.5496  0.3715
 8737SOL    HW137844   2.727   1.828   4.143  0.7367 -0.3042 -0.4844
 8737SOL    HW237845   2.812   1.703   4.167  0.4259 -0.6955  2.3033
 8738SOL     OW37846   0.693   3.395   1.288  0.1363 -0.3526 -0.5071
 8738SOL    HW137847   0.658   3.315   1.327  1.8670 -0.1518  1.4027
 8738SOL    HW237848   0.614   3.426   1.242  1.8849  2.1673 -1.8336
 8739SOL     OW37849   3.409   1.223   4.012 -0.4128  0.2795  0.1470
 8739SOL    HW137850   3.430   1.244   4.103 -0.1003 -1.5353  0.5084
 8739SOL    HW237851   3.334   1.280   3.994  1.3521  2.9935  1.3995
 8740SOL     OW37852   4.675   0.474   5.089  0.1270 -0.3059 -0.0763
 8740SOL    HW137853   4.599   0.512   5.134 -0.1430  0.5043 -1.1952
 8740SOL    HW237854   4.630   0.439   5.012 -1.4072  4.4521 -1.3764
 8741SOL     OW37855   2.348   1.928   5.453  0.2150 -0.0662 -0.4092
 8741SOL    HW137856   2.388   1.864   5.394  0.1635  1.3342 -1.9605
 8741SOL    HW237857   2.388   2.008   5.420  2.5153 -0.4261  1.5366
 8742SOL     OW37858   2.866   0.681  12.791  0.0857  0.1067 -0.0171
 8742SOL    HW137859   2.868   0.616  12.721 -1.5494 -0.6990  0.6904
 8742SOL    HW237860   2.825   0.637  12.865  1.4300  1.5623  1.6000
 8743SOL     OW37861   3.939   2.012   5.554 -0.1912  0.0629 -0.2843
 8743SOL    HW137862   3.877   1.992   5.484  0.6588 -2.1260 -0.4087
 8743SOL    HW237863   4.021   1.977   5.521 -0.2692  0.3249 -0.7629
 8744SOL     OW37864   1.014   2.863   9.549 -0.2425  0.2902 -0.5050
 8744SOL    HW137865   1.025   2.825   9.636 -0.8748 -1.9083 -1.3611
 8744SOL    HW237866   0.988   2.949   9.581 -1.8155 -0.6546  0.7191
 8745SOL     OW37867   3.834   4.225  15.690  0.6716 -0.6821  0.0003
 8745SOL    HW137868   3.835   4.272  15.606  1.3566 -0.1877  0.2861
 8745SOL    HW237869   3.905   4.267  15.739  1.2455 -0.2490 -1.2084
 8746SOL     OW37870   1.930   2.680   6.244 -0.1179  0.5392 -0.4905
 8746SOL    HW137871   1.848   2.697   6.291 -0.4444  1.1981 -1.2834
 8746SOL    HW237872   1.936   2.585   6.250  0.9255  0.5469 -1.4923
 8747SOL     OW37873   2.984   0.281   5.553  0.3979  0.4279  0.2278
 8747SOL    HW137874   3.047   0.239   5.612  1.0194 -0.8481 -1.3247
 8747SOL    HW237875   2.896   0.256   5.581  0.0280  2.7910  1.1385
 8748SOL     OW37876   1.969   3.953  10.271  0.1683  0.3265 -0.3179
 8748SOL    HW137877   1.940   3.868  10.304 -1.8387  1.4506  0.8223
 8748SOL    HW237878   2.063   3.957  10.287  0.0677 -2.8080  1.2314
 8749SOL     OW37879   0.156   1.331   8.353  0.1674  0.2405  0.3445
 8749SOL    HW137880   0.080   1.348   8.297 -0.7986  0.1027  1.6215
 8749SOL    HW237881   0.211   1.405   8.325  0.8763  0.6499  2.8749
 8750SOL     OW37882   4.711   2.691   7.440  0.4592  0.0116 -0.6751
 8750SOL    HW137883   0.028   2.706   7.363 -1.4272  2.1230 -1.6351
 8750SOL    HW237884   4.625   2.679   7.399  0.3961 -0.0503 -0.5230
 8751SOL     OW37885   3.227   1.978   1.664  0.1379 -0.3384  0.0713
 8751SOL    HW137886   3.148   1.925   1.670  0.6797 -1.2031 -0.4905
 8751SOL    HW237887   3.180   2.058   1.642  1.2011  0.6603  1.3916
 8752SOL     OW37888   2.126   2.729   3.177  0.1638 -0.2746  0.3541
 8752SOL    HW137889   2.149   2.697   3.264  0.1519  1.1602  0.8788
 8752SOL    HW237890   2.038   2.690   3.177  0.5917 -1.2253 -2.8418
 8753SOL     OW37891   1.154   4.417   5.055 -0.3850  0.6052  0.3468
 8753SOL    HW137892   1.153   4.367   5.136 -0.6982  0.5243  0.2916
 8753SOL    HW237893   1.070   4.462   5.069 -0.2153  1.0117  0.0790
 8754SOL     OW37894   1.263   0.778  16.978  0.4483 -0.0884 -0.4240
 8754SOL    HW137895   1.320   0.771  16.901  1.8311 -2.3495  0.8065
 8754SOL    HW237896   1.193   0.830  16.937  0.5803 -0.0648 -0.6196
 8755SOL     OW37897   3.418   1.123  11.821 -0.0774 -0.2090 -0.2701
 8755SOL    HW137898   3.499   1.172  11.819  1.1914 -2.2960  0.0406
 8755SOL    HW237899   3.452   1.042  11.859  0.4907 -0.3366 -1.0531
 8756SOL     OW37900   0.714   1.108   4.769 -0.6036 -0.2212  0.2858
 8756SOL    HW137901   0.789   1.081   4.821 -0.2382  1.1211  0.4659
 8756SOL    HW237902   0.638   1.070   4.813  0.2561 -0.2293  1.7552
 8757SOL     OW37903   0.233   3.537  17.119  0.1260  0.1239 -0.2744
 8757SOL    HW137904   0.152   3.570  17.157  0.5533  1.2949 -0.3863
 8757SOL    HW237905   0.199   3.493  17.041 -0.0294  0.8212 -0.5987
 8758SOL     OW37906   3.978   0.634  11.382 -0.9541 -0.0701  0.2488
 8758SOL    HW137907   3.889   0.615  11.355 -1.0684  2.9344 -1.4288
 8758SOL    HW237908   4.020   0.549  11.366 -0.4869 -0.0375  1.2586
 8759SOL     OW37909   3.886   0.293  11.450 -0.3798 -0.4800 -0.7476
 8759SOL    HW137910   3.970   0.287  11.405  0.1554 -1.5163  0.3836
 8759SOL    HW237911   3.909   0.332  11.534 -2.3063 -0.4745 -0.2295
 8760SOL     OW37912   3.708   1.144   5.965  0.4273  0.1003 -0.5175
 8760SOL    HW137913   3.644   1.119   5.899 -0.7298  2.6376 -0.3667
 8760SOL    HW237914   3.764   1.066   5.966 -1.0184 -0.9117  0.6271
 8761SOL     OW37915   2.019   0.893  10.828  0.2921  0.1242 -1.1603
 8761SOL    HW137916   2.114   0.896  10.838  0.3728 -1.4318 -1.5267
 8761SOL    HW237917   1.997   0.980  10.861  0.8883 -0.0393 -0.3297
 8762SOL     OW37918   3.347   3.210   9.026  0.1905 -0.2402  0.0874
 8762SOL    HW137919   3.340   3.251   9.112  0.6742  0.4927 -0.2151
 8762SOL    HW237920   3.426   3.254   8.992  2.2500 -2.5359  1.8862
 8763SOL     OW37921   3.688   2.066   9.228 -0.1404 -0.1269 -0.1935
 8763SOL    HW137922   3.756   2.121   9.269  0.2889 -0.9418  0.1885
 8763SOL    HW237923   3.738   2.023   9.159  0.4502  3.2434 -1.8518
 8764SOL     OW37924   4.492   2.030   2.753 -0.3940  0.1091 -0.0878
 8764SOL    HW137925   4.526   2.028   2.663 -3.3901 -0.5671 -1.1851
 8764SOL    HW237926   4.569   2.061   2.801 -1.5624  1.5996  0.8099
 8765SOL     OW37927   3.421   0.100   2.555 -0.7126  0.1941  0.1858
 8765SOL    HW137928   3.481   0.026   2.545 -1.6431 -0.5824  0.3135
 8765SOL    HW237929   3.347   0.041   2.545 -0.5429  0.2372 -1.2670
 8766SOL     OW37930   4.282   1.677   6.819  0.4533 -0.1383  0.0864
 8766SOL    HW137931   4.239   1.639   6.742 -0.0827  1.1251 -0.2347
 8766SOL    HW237932   4.376   1.667   6.809  0.3469 -0.0737 -1.0082
 8767SOL     OW37933   2.744   0.267   8.885  0.7161  1.0425  1.1991
 8767SOL    HW137934   2.710   0.269   8.975 -1.3721 -1.2590  0.4765
 8767SOL    HW237935   2.777   0.356   8.876 -1.7834  1.8579  0.0116
 8768SOL     OW37936   3.137   3.790   5.627 -0.2559  0.0770 -0.4755
 8768SOL    HW137937   3.084   3.851   5.575 -3.1511 -0.3428  1.9891
 8768SOL    HW237938   3.141   3.817   5.719 -2.0073 -1.2823 -0.0065
 8769SOL     OW37939   2.990   3.148   3.561 -0.1138 -0.3252 -0.4698
 8769SOL    HW137940   2.957   3.134   3.650  1.3773 -1.6073 -0.1093
 8769SOL    HW237941   3.066   3.203   3.572 -0.5731 -0.0581  1.3728
 8770SOL     OW37942   3.228   3.124  13.413  0.7558 -0.1766  0.3846
 8770SOL    HW137943   3.286   3.076  13.354 -1.7844 -1.3022 -1.1939
 8770SOL    HW237944   3.197   3.183  13.344  1.3432 -1.7613 -1.2340
 8771SOL     OW37945   4.365   2.901   1.056  0.4449  0.1666  0.2734
 8771SOL    HW137946   4.434   2.948   1.102  0.0932  1.5118 -0.5770
 8771SOL    HW237947   4.411   2.856   0.985  1.3411 -0.8666  1.4926
 8772SOL     OW37948   3.105   1.109  15.844  0.2573  0.3906 -0.6090
 8772SOL    HW137949   3.058   1.065  15.773 -2.0687 -0.5786  1.5291
 8772SOL    HW237950   3.147   1.031  15.881 -1.7218 -0.7281 -0.7546
 8773SOL     OW37951   4.080   1.481   6.735  0.2991 -0.1722 -0.9315
 8773SOL    HW137952   4.023   1.404   6.735 -0.9369  0.7499  0.6656
 8773SOL    HW237953   4.166   1.447   6.713 -0.1361 -1.5615 -0.4649
 8774SOL     OW37954   1.304   0.363  15.748 -0.0226  0.5022  0.3571
 8774SOL    HW137955   1.300   0.353  15.843  1.2448 -0.0803  0.3537
 8774SOL    HW237956   1.308   0.455  15.722  0.6386  0.9607  2.0233
 8775SOL     OW37957   4.485   0.424   7.546  0.5042  0.5982  0.0721
 8775SOL    HW137958   4.539   0.468   7.480  1.5388  2.8574  2.4448
 8775SOL    HW237959   4.412   0.486   7.553 -0.2427 -0.1056 -1.4521
 8776SOL     OW37960   3.248   1.404   9.961  0.6478 -0.3090 -0.0494
 8776SOL    HW137961   3.315   1.451   9.912  0.9910 -2.0518 -1.2274
 8776SOL    HW237962   3.256   1.447  10.047 -3.7553  0.0502  0.1640
 8777SOL     OW37963   1.296   4.709   3.193 -0.0444 -0.0080 -0.6916
 8777SOL    HW137964   1.259   4.621   3.192 -1.8302  0.7068  1.4144
 8777SOL    HW237965   1.255   0.003   3.274  1.6590 -2.4472  1.1140
 8778SOL     OW37966   0.652   3.641  16.971  0.2577  0.3311 -0.1983
 8778SOL    HW137967   0.636   3.581  17.044 -1.5483 -0.1213 -0.9597
 8778SOL    HW237968   0.564   3.677  16.958 -0.6135 -0.2509  4.1482
 8779SOL     OW37969   0.342   1.716   9.846  0.0522  0.1174 -0.2115
 8779SOL    HW137970   0.355   1.644   9.785 -0.9822 -0.6118  0.4129
 8779SOL    HW237971   0.433   1.734   9.868 -0.0326  1.9803 -1.4408
 8780SOL     OW37972   1.168   0.842   7.090 -0.5875 -0.6814 -0.2364
 8780SOL    HW137973   1.199   0.841   7.180 -1.2193 -2.0715 -0.0421
 8780SOL    HW237974   1.075   0.845   7.112 -0.2811 -0.4571  1.0556
 8781SOL     OW37975   0.009   2.009   5.693  0.3904  0.8128 -0.9384
 8781SOL    HW137976   0.076   1.971   5.749 -0.2700  0.5914 -0.2934
 8781SOL    HW237977   4.711   2.087   5.736 -1.5224 -1.3447  1.3913
 8782SOL     OW37978   1.867   2.198  17.103 -0.0422  0.2151 -0.3564
 8782SOL    HW137979   1.875   2.209  17.009 -1.4319 -0.3055 -0.5443
 8782SOL    HW237980   1.772   2.187  17.110  0.1654 -0.3054  1.7405
 8783SOL     OW37981   0.837   0.218   9.474 -0.2846 -0.1828  0.4564
 8783SOL    HW137982   0.796   0.134   9.450  1.7803 -0.8183 -0.8321
 8783SOL    HW237983   0.765   0.278   9.456 -0.2697 -0.4043 -0.3525
 8784SOL     OW37984   4.725   3.802  16.164 -0.2662  0.3570 -0.3383
 8784SOL    HW137985   0.080   3.810  16.144 -0.6179  0.1624 -1.9837
 8784SOL    HW237986   4.715   3.878  16.222  0.7684  0.6094 -0.5072
 8785SOL     OW37987   1.325   2.253   7.870  0.2739  0.5914 -0.1828
 8785SOL    HW137988   1.314   2.181   7.932  1.2643  2.0351  1.6536
 8785SOL    HW237989   1.266   2.232   7.797  0.2902 -0.2164  0.0359
 8786SOL     OW37990   3.912   1.584   8.018  0.0237  0.7677 -0.2122
 8786SOL    HW137991   3.877   1.602   8.105  0.0799 -1.1362  0.2042
 8786SOL    HW237992   3.844   1.629   7.967  0.4904  0.2463 -1.3002
 8787SOL     OW37993   2.814   1.115  11.147 -0.8808 -0.6220 -0.4136
 8787SOL    HW137994   2.870   1.191  11.130 -1.2176 -0.0247  1.2265
 8787SOL    HW237995   2.867   1.050  11.100 -3.0409 -1.5866 -1.5368
 8788SOL     OW37996   3.435   0.487   7.191  0.7604  0.1725  0.4933
 8788SOL    HW137997   3.475   0.405   7.162 -0.2744 -0.6209  1.3031
 8788SOL    HW237998   3.365   0.497   7.126  1.0410  0.3662  0.2224
 8789SOL     OW37999   3.617   3.310   4.902 -0.5595  0.6267  0.4380
 8789SOL    HW138000   3.701   3.271   4.926 -0.2238  1.0196 -0.0738
 8789SOL    HW238001   3.638   3.398   4.870  1.3303  1.1145  3.0372
 8790SOL     OW38002   0.530   3.307   6.968  0.1053 -0.1476 -0.2309
 8790SOL    HW138003   0.550   3.251   7.043  2.6761  0.3178 -0.5777
 8790SOL    HW238004   0.595   3.275   6.906  1.1343  0.0102  0.7727
 8791SOL     OW38005   1.807   2.589   8.490 -0.3091  0.1332  0.3463
 8791SOL    HW138006   1.814   2.517   8.427  2.7200  0.9714 -0.2859
 8791SOL    HW238007   1.799   2.540   8.571 -1.2285 -0.1002  0.1148
 8792SOL     OW38008   0.610   2.585   0.139  0.2663 -0.1165 -0.2546
 8792SOL    HW138009   0.652   2.501   0.119  1.6168  0.3146  0.7884
 8792SOL    HW238010   0.520   2.560   0.163  0.3238 -0.7220 -0.6824
 8793SOL     OW38011   0.253   0.567   2.390  0.0381 -0.2858 -0.2977
 8793SOL    HW138012   0.193   0.512   2.441 -0.5728  0.2761 -0.4086
 8793SOL    HW238013   0.247   0.652   2.434 -0.2329 -0.2014 -0.4984
 8794SOL     OW38014   2.857   3.961  11.952  0.0274  0.1407 -0.4418
 8794SOL    HW138015   2.831   4.031  11.892 -0.6698  1.4247  1.3419
 8794SOL    HW238016   2.877   3.891  11.890 -2.9720 -0.9334 -0.2164
 8795SOL     OW38017   1.831   4.543  15.828 -0.5477 -0.6900 -0.4823
 8795SOL    HW138018   1.749   4.510  15.865  1.1601 -2.6653  1.5534
 8795SOL    HW238019   1.869   4.456  15.814 -1.7622 -1.1469 -0.9023
 8796SOL     OW38020   2.086   3.884   7.983  0.1394  0.0326  0.0534
 8796SOL    HW138021   2.026   3.891   8.057  1.3682  0.5819  1.0057
 8796SOL    HW238022   2.029   3.850   7.914  0.2792  2.0252 -1.0416
 8797SOL     OW38023   1.910   1.537   9.005 -0.0569  0.4401 -0.2869
 8797SOL    HW138024   1.944   1.558   8.918  2.6116  0.2982  0.7323
 8797SOL    HW238025   1.890   1.629   9.023  1.4026  1.2229 -2.6630
 8798SOL     OW38026   3.088   1.671   8.119 -0.1574 -0.2616  0.3214
 8798SOL    HW138027   3.148   1.703   8.187  0.3868 -0.8134  0.1018
 8798SOL    HW238028   3.089   1.749   8.063  1.1834 -1.1366 -0.8548
 8799SOL     OW38029   3.518   1.471  13.803  0.0025  0.3697  0.4363
 8799SOL    HW138030   3.470   1.393  13.830 -0.6231  0.7887  0.5414
 8799SOL    HW238031   3.454   1.527  13.757  1.4641  0.5585 -1.3621
 8800SOL     OW38032   0.000   3.725   5.311 -0.4669  0.2792  0.7542
 8800SOL    HW138033   4.663   3.721   5.371 -1.4824  2.9308 -0.3470
 8800SOL    HW238034   4.720   3.802   5.257 -1.7906  0.5025  1.5086
 8801SOL     OW38035   2.068   4.122  14.105 -0.1145 -0.0195 -0.2897
 8801SOL    HW138036   2.080   4.111  14.199  1.4623  1.4378 -0.3313
 8801SOL    HW238037   2.074   4.034  14.067  0.1165  0.1907 -0.7447
 8802SOL     OW38038   2.835   4.103   7.197 -0.1428 -0.2170  0.0060
 8802SOL    HW138039   2.770   4.163   7.160  0.3404  0.2461 -0.0934
 8802SOL    HW238040   2.905   4.106   7.133 -0.0090 -2.6848  0.0461
 8803SOL     OW38041   2.789   3.494   3.996  0.2503  0.3367 -0.1242
 8803SOL    HW138042   2.831   3.574   4.029 -1.2741  0.6752  1.0322
 8803SOL    HW238043   2.845   3.428   4.038  0.3040 -1.0646 -2.4318
 8804SOL     OW38044   0.724   1.451  16.786 -0.1279  0.5958 -0.0851
 8804SOL    HW138045   0.697   1.378  16.841  0.5923 -0.2141 -0.8073
 8804SOL    HW238046   0.675   1.429  16.707 -3.2706  0.8081  1.8225
 8805SOL     OW38047   3.490   2.428   8.457 -0.1939  0.3174  0.8416
 8805SOL    HW138048   3.528   2.350   8.498  2.8723  1.2165 -0.2904
 8805SOL    HW238049   3.458   2.386   8.378 -0.9781  1.3558  0.6095
 8806SOL     OW38050   1.029   3.880   9.108  0.0341 -0.2931  0.1343
 8806SOL    HW138051   1.057   3.950   9.051 -1.1529 -0.2075 -0.3485
 8806SOL    HW238052   0.950   3.918   9.146 -0.5226 -0.7590 -0.5509
 8807SOL     OW38053   4.657   1.407   2.629 -0.4476 -0.1469  0.0255
 8807SOL    HW138054   0.014   1.412   2.633 -0.4074  0.3255 -2.0111
 8807SOL    HW238055   4.627   1.490   2.592  0.0121  0.4408  0.9598
 8808SOL     OW38056   3.199   1.767   6.856  0.2366 -0.2318 -0.1795
 8808SOL    HW138057   3.126   1.712   6.883  0.8978 -1.1014 -0.1489
 8808SOL    HW238058   3.211   1.740   6.765  0.9060  1.7649 -0.6908
 8809SOL     OW38059   3.877   0.446   4.213 -0.1323 -0.4935 -0.1902
 8809SOL    HW138060   3.838   0.493   4.139 -2.5685  2.5609  3.0128
 8809SOL    HW238061   3.970   0.468   4.205 -0.0152 -1.6161 -1.8619
 8810SOL     OW38062   0.820   0.413   6.855 -0.2748  0.3547  0.1314
 8810SOL    HW138063   0.912   0.410   6.828 -0.8065 -0.5703 -1.5475
 8810SOL    HW238064   0.816   0.343   6.920 -0.1713  0.9132  0.7384
 8811SOL     OW38065   1.700   3.910   3.568 -0.5592 -0.4461 -0.3089
 8811SOL    HW138066   1.737   3.829   3.601  0.5991  0.7186  1.2200
 8811SOL    HW238067   1.651   3.870   3.496 -1.3207 -0.6072  0.3052
 8812SOL     OW38068   4.263   0.504   3.771  0.4673  0.0849 -0.1887
 8812SOL    HW138069   4.309   0.586   3.790 -0.7208  0.8667 -0.6956
 8812SOL    HW238070   4.185   0.530   3.724  0.3167 -0.8029 -0.4325
 8813SOL     OW38071   3.356   2.342   5.372 -0.2887 -0.4136 -0.3789
 8813SOL    HW138072   3.451   2.332   5.368 -0.3594 -2.4034  3.0584
 8813SOL    HW238073   3.341   2.274   5.438 -1.3300 -2.0294 -2.3045
 8814SOL     OW38074   0.060   3.158   4.305 -0.7175 -0.1767  0.4446
 8814SOL    HW138075   0.053   3.070   4.342 -2.8777 -1.2931 -2.6828
 8814SOL    HW238076   0.112   3.147   4.226  0.4199  1.5161  0.9533
 8815SOL     OW38077   4.424   3.122   8.674 -0.0917 -0.7787 -0.1489
 8815SOL    HW138078   4.393   3.189   8.614 -1.1530 -1.7661 -0.7191
 8815SOL    HW238079   4.426   3.164   8.760  2.1208  0.0896 -0.6419
 8816SOL     OW38080   0.618   3.559   2.543 -0.1035  0.3614 -0.2570
 8816SOL    HW138081   0.623   3.500   2.618 -1.4590  0.0018 -0.4328
 8816SOL    HW238082   0.694   3.616   2.551  0.1378 -0.0578  0.3861
 8817SOL     OW38083   0.368   4.080   8.399  0.1708  0.2152  0.0070
 8817SOL    HW138084   0.346   4.061   8.308  0.1417  1.1135 -0.1744
 8817SOL    HW238085   0.454   4.122   8.394 -0.5079  1.8119  1.7805
 8818SOL     OW38086   0.739   1.621  11.505 -0.5337  0.3718  0.6279
 8818SOL    HW138087   0.751   1.542  11.557  1.3869 -0.2046 -0.6769
 8818SOL    HW238088   0.763   1.692  11.564  0.4517 -0.6659  1.4812
 8819SOL     OW38089   1.228   2.741  16.427 -0.2628  0.1001  0.2536
 8819SOL    HW138090   1.214   2.681  16.500  0.3683  0.4636  0.6817
 8819SOL    HW238091   1.254   2.826  16.462 -4.8771  0.5268  2.6563
 8820SOL     OW38092   2.639   4.314   5.113  0.3288  0.3364 -0.2588
 8820SOL    HW138093   2.642   4.219   5.101 -0.1503  0.2254  0.5124
 8820SOL    HW238094   2.570   4.343   5.053 -0.0299 -2.9323 -1.4043
 8821SOL     OW38095   1.972   1.772  13.986  0.2025 -0.1371  0.4543
 8821SOL    HW138096   1.937   1.809  14.067 -1.8031 -0.5109 -0.2418
 8821SOL    HW238097   1.927   1.688  13.990  2.3497 -1.2225  2.0922
 8822SOL     OW38098   1.535   0.512   6.055  0.1370 -0.4538 -0.0035
 8822SOL    HW138099   1.544   0.607   6.061 -1.3622 -0.3455  0.4005
 8822SOL    HW238100   1.492   0.492   6.138  0.0441 -2.3794 -0.5168
 8823SOL     OW38101   1.622   3.443   4.050  0.3029  0.4203 -0.5229
 8823SOL    HW138102   1.609   3.428   4.143  0.7163  1.1213 -0.3501
 8823SOL    HW238103   1.711   3.480   4.051 -0.0062  1.2030 -1.3326
 8824SOL     OW38104   4.348   3.234   6.387  0.1962  0.3060  0.4401
 8824SOL    HW138105   4.289   3.160   6.375 -1.3533  1.6205 -0.0501
 8824SOL    HW238106   4.418   3.209   6.327 -1.4948  0.1492 -1.4797
 8825SOL     OW38107   0.254   2.358   0.816 -0.2549  0.5250  0.3258
 8825SOL    HW138108   0.333   2.311   0.839  2.2055  2.8236 -3.4214
 8825SOL    HW238109   0.183   2.301   0.845  1.4935 -1.3655  0.8781
 8826SOL     OW38110   3.031   4.470   8.700  0.3814  0.1779  0.2756
 8826SOL    HW138111   3.077   4.402   8.651 -2.5960 -1.5489 -0.1262
 8826SOL    HW238112   3.111   4.523   8.704 -0.7036  1.8737 -0.3922
 8827SOL     OW38113   0.039   0.666   6.997 -0.0373 -0.3539 -0.5950
 8827SOL    HW138114   0.041   0.616   7.079 -0.2609  1.4785  0.5265
 8827SOL    HW238115   0.100   0.738   7.010  0.3690 -0.8257  0.1291
 8828SOL     OW38116   2.444   0.452   6.641  0.2134 -0.0832  0.0218
 8828SOL    HW138117   2.377   0.387   6.661 -0.0549  0.0803 -0.3323
 8828SOL    HW238118   2.528   0.414   6.667 -0.4249 -1.2013  0.4489
 8829SOL     OW38119   3.226   1.065   5.411 -0.1715  0.1525  0.0818
 8829SOL    HW138120   3.232   0.972   5.388  0.0531 -0.1152  1.1844
 8829SOL    HW238121   3.226   1.108   5.326  1.6822  1.4041  0.7246
 8830SOL     OW38122   0.643   1.768   7.443 -0.4938  0.6416 -0.2533
 8830SOL    HW138123   0.559   1.723   7.437  0.2495 -0.7563 -0.2575
 8830SOL    HW238124   0.698   1.702   7.486 -0.1889 -0.4395 -2.2701
 8831SOL     OW38125   2.980   4.590   9.583 -0.8068  0.0830 -0.2046
 8831SOL    HW138126   2.897   4.638   9.575 -1.8362 -1.4757  0.9423
 8831SOL    HW238127   3.048   4.655   9.566 -0.6727  0.6567  2.4989
 8832SOL     OW38128   4.160   2.441   9.144 -0.1684  0.1720  0.0595
 8832SOL    HW138129   4.139   2.349   9.131 -2.1568  0.5740  0.4697
 8832SOL    HW238130   4.099   2.492   9.091 -1.2811 -0.3805  0.8181
 8833SOL     OW38131   2.486   0.339   8.152  0.5931  0.4453  0.2219
 8833SOL    HW138132   2.530   0.417   8.185 -0.0570  0.9046  0.0131
 8833SOL    HW238133   2.541   0.305   8.081 -0.3186  2.9289 -1.6784
 8834SOL     OW38134   3.467   3.351   5.819  0.7397 -0.1821 -0.1342
 8834SOL    HW138135   3.483   3.328   5.727 -0.4080  3.1625 -1.1765
 8834SOL    HW238136   3.406   3.281   5.843 -0.6655  1.7112  1.7621
 8835SOL     OW38137   2.024   3.742   0.101 -0.1119 -0.2651  0.0632
 8835SOL    HW138138   2.022   3.707   0.190 -1.7096  1.9604  0.8984
 8835SOL    HW238139   2.119   3.758   0.099 -0.5646  2.5881  1.3909
 8836SOL     OW38140   2.285   1.985   4.546  0.1318 -0.1724  0.3601
 8836SOL    HW138141   2.239   1.903   4.565 -0.1875 -0.2688 -0.8007
 8836SOL    HW238142   2.352   1.952   4.486 -0.4340 -1.0418  0.2015
 8837SOL     OW38143   4.335   2.313   4.025  0.4177  0.0363  0.0884
 8837SOL    HW138144   4.350   2.231   4.072 -2.5555  0.1698  1.3066
 8837SOL    HW238145   4.321   2.375   4.097  0.9250 -1.5013  1.5332
 8838SOL     OW38146   2.668   4.512   3.024 -0.2763  0.3926 -0.1860
 8838SOL    HW138147   2.734   4.477   3.083 -1.0196 -0.2642  0.2539
 8838SOL    HW238148   2.727   4.545   2.957  1.5215 -0.6906  0.8617
 8839SOL     OW38149   2.235   3.398   2.578  0.9982 -0.5033 -0.1525
 8839SOL    HW138150   2.320   3.375   2.614  1.2194  1.2422  0.4337
 8839SOL    HW238151   2.178   3.364   2.647 -0.6154  2.8629  0.1650
 8840SOL     OW38152   0.977   2.380   4.738  0.4682 -0.4225  0.5225
 8840SOL    HW138153   0.961   2.286   4.725  2.5341 -0.6474 -0.5026
 8840SOL    HW238154   0.906   2.410   4.682 -0.3582 -0.4544  1.5606
 8841SOL     OW38155   2.812   1.228   8.929  0.0486 -0.0362  0.0378
 8841SOL    HW138156   2.858   1.311   8.940  1.0662 -0.7215  0.9219
 8841SOL    HW238157   2.728   1.266   8.953  0.4843  1.7045 -1.1750
 8842SOL     OW38158   0.956   0.442   1.558  0.2931 -0.4114  0.3582
 8842SOL    HW138159   0.919   0.509   1.615 -0.2053 -0.2747 -0.1307
 8842SOL    HW238160   0.899   0.366   1.571 -1.1241  0.4504 -0.9256
 8843SOL     OW38161   4.148   3.656   8.083  1.0436 -0.4171 -0.2025
 8843SOL    HW138162   4.242   3.643   8.068  0.9996 -0.5609 -0.3496
 8843SOL    HW238163   4.155   3.747   8.054  0.5021 -0.1277  0.5818
 8844SOL     OW38164   3.870   3.766  10.603  0.5249  0.2452  0.0914
 8844SOL    HW138165   3.945   3.756  10.544 -0.2353 -1.2061 -0.6337
 8844SOL    HW238166   3.851   3.680  10.640  3.6104  0.1184  1.3841
 8845SOL     OW38167   2.843   3.092   3.344  0.0062 -0.9937  0.1866
 8845SOL    HW138168   2.927   3.071   3.304  0.0601  0.0841 -0.2755
 8845SOL    HW238169   2.870   3.132   3.426  0.6326  3.7999 -2.4056
 8846SOL     OW38170   0.291   0.636   8.802  0.2372 -0.1517  0.2017
 8846SOL    HW138171   0.378   0.669   8.782  0.0390  0.3099  0.1081
 8846SOL    HW238172   0.244   0.703   8.852 -0.7300 -0.9226  0.3453
 8847SOL     OW38173   0.613   1.941   9.124 -0.1020 -0.6247  0.3606
 8847SOL    HW138174   0.640   1.850   9.133  0.1266 -0.6547 -0.6924
 8847SOL    HW238175   0.684   1.991   9.165 -1.6666  1.6807  0.2522
 8848SOL     OW38176   2.812   1.128   7.987  0.2116 -0.5310  0.1553
 8848SOL    HW138177   2.891   1.112   7.935  0.7351  1.9214  0.1546
 8848SOL    HW238178   2.749   1.142   7.917  1.7892  2.1868 -0.7310
 8849SOL     OW38179   0.046   0.180   3.020  0.0157  0.2004 -0.6156
 8849SOL    HW138180   4.704   0.171   2.966 -0.8874 -1.8330  1.0728
 8849SOL    HW238181   0.092   0.100   2.998  1.4639  0.5028  1.3465
 8850SOL     OW38182   0.298   4.336   1.561 -0.2141  0.4553  0.2310
 8850SOL    HW138183   0.236   4.276   1.521  0.3092  0.4371 -0.5458
 8850SOL    HW238184   0.359   4.362   1.492 -1.8781 -0.0892 -1.4242
 8851SOL     OW38185   0.284   3.435   6.557 -0.6014  0.4245 -0.2736
 8851SOL    HW138186   0.330   3.435   6.641 -1.9676 -0.2557  0.4792
 8851SOL    HW238187   0.223   3.508   6.565 -0.3384  0.7719 -1.4454
 8852SOL     OW38188   4.365   4.404  12.783 -0.1462  0.2371 -0.4549
 8852SOL    HW138189   4.323   4.426  12.700 -0.2969 -0.6822 -0.6209
 8852SOL    HW238190   4.430   4.475  12.787 -1.3178  1.2524  0.3640
 8853SOL     OW38191   1.916   1.123   6.290  0.3153  0.5431 -0.2817
 8853SOL    HW138192   1.878   1.057   6.348  2.8150 -0.2612  0.4432
 8853SOL    HW238193   1.989   1.156   6.344  0.9229 -1.3639  0.0547
 8854SOL     OW38194   4.110   4.224   2.071  0.3544  0.2821 -0.0193
 8854SOL    HW138195   4.158   4.178   2.140  0.5511  0.0134 -0.3391
 8854SOL    HW238196   4.123   4.310   2.111  1.1744  1.9500 -3.9148
 8855SOL     OW38197   3.917   2.295  11.076  0.0607 -0.4366 -0.3309
 8855SOL    HW138198   3.960   2.315  10.993  2.1020 -2.1557  0.2952
 8855SOL    HW238199   3.908   2.382  11.114 -4.6210 -0.9336 -0.3002
 8856SOL     OW38200   1.587   2.124  17.099 -0.1679 -0.1741  0.4141
 8856SOL    HW138201   1.513   2.172  17.062  0.7394  0.1588 -0.9746
 8856SOL    HW238202   1.597   2.051  17.038  0.8008  1.7256 -1.7041
 8857SOL     OW38203   0.205   4.676   3.217 -0.3246  0.1820  0.1244
 8857SOL    HW138204   0.186   0.031   3.235  2.4252  0.9695 -0.9580
 8857SOL    HW238205   0.299   4.695   3.208 -0.7035  1.4347 -1.1175
 8858SOL     OW38206   4.022   0.198   5.002  0.3551 -0.4098 -0.1047
 8858SOL    HW138207   4.111   0.169   4.983 -0.1152 -1.0729 -1.3109
 8858SOL    HW238208   3.975   0.128   4.956 -0.3443  0.8806 -1.3642
 8859SOL     OW38209   1.737   0.585   8.374 -0.0861 -0.2012 -1.1917
 8859SOL    HW138210   1.757   0.672   8.340 -0.4126 -0.1302 -1.2034
 8859SOL    HW238211   1.642   0.599   8.383 -0.0852  0.6809 -2.5064
 8860SOL     OW38212   2.375   0.479   9.413 -0.1914 -0.0969  0.2313
 8860SOL    HW138213   2.360   0.522   9.498 -0.2561  1.9090 -0.8073
 8860SOL    HW238214   2.331   0.540   9.355  1.5197 -1.2412 -2.2490
 8861SOL     OW38215   1.349   4.540   7.323 -0.0363  0.1879 -0.0996
 8861SOL    HW138216   1.273   4.490   7.354  0.6182  0.0756  1.3233
 8861SOL    HW238217   1.364   4.595   7.400  0.5829  1.0015 -0.8070
 8862SOL     OW38218   3.942   1.586   8.306  0.8563 -0.1037 -0.5801
 8862SOL    HW138219   3.860   1.628   8.280  0.8610 -0.2435 -0.8257
 8862SOL    HW238220   3.999   1.662   8.290  1.9406 -0.7766  0.0951
 8863SOL     OW38221   0.297   2.215   8.757 -0.0852 -0.3146  0.0907
 8863SOL    HW138222   0.348   2.164   8.821  1.1331  1.0840  0.2192
 8863SOL    HW238223   0.352   2.201   8.679  1.3117 -1.7380  1.3037
 8864SOL     OW38224   3.324   3.240   5.323 -0.5171 -0.2312 -0.4292
 8864SOL    HW138225   3.243   3.246   5.374  0.3296  0.5110  0.8072
 8864SOL    HW238226   3.295   3.171   5.263  0.1383 -1.5538  0.7724
 8865SOL     OW38227   0.897   1.138   9.669  0.2283 -0.0747 -0.8404
 8865SOL    HW138228   0.974   1.172   9.717 -0.9315  0.5531  0.5908
 8865SOL    HW238229   0.929   1.050   9.652  2.6717  0.6423 -0.0690
 8866SOL     OW38230   0.484   4.007   3.112 -0.5804  0.1711 -0.1021
 8866SOL    HW138231   0.485   3.996   3.207 -2.8940 -0.5590 -0.1596
 8866SOL    HW238232   0.419   3.938   3.093 -1.9224  1.7929 -1.3752
 8867SOL     OW38233   4.455   3.655  14.879 -0.3649  0.3204 -0.1322
 8867SOL    HW138234   4.519   3.584  14.885 -0.5743  0.0312 -1.1320
 8867SOL    HW238235   4.412   3.649  14.964  1.9350  0.2703  0.9999
 8868SOL     OW38236   3.283   2.234   8.982 -0.5536  0.4886  0.0946
 8868SOL    HW138237   3.248   2.192   9.061 -1.0299 -0.3104 -0.5456
 8868SOL    HW238238   3.204   2.278   8.952 -0.0296  1.5093  0.1988
 8869SOL     OW38239   0.370   2.700   7.508  0.2363 -0.3380 -0.2169
 8869SOL    HW138240   0.323   2.783   7.503  1.7223  0.4655 -0.8290
 8869SOL    HW238241   0.388   2.683   7.415 -1.1365 -0.6870 -0.4191
 8870SOL     OW38242   4.629   3.634   6.070 -0.8549 -0.3046  0.8545
 8870SOL    HW138243   4.674   3.608   5.989 -0.7534 -0.6126  1.0116
 8870SOL    HW238244   4.636   3.558   6.127 -1.5828 -0.7432  0.3573
 8871SOL     OW38245   1.341   2.060   5.153  0.2148  0.0684  0.1371
 8871SOL    HW138246   1.329   2.150   5.182 -1.7308  0.0387 -0.6055
 8871SOL    HW238247   1.302   2.066   5.066 -0.9793  1.4099  0.7795
 8872SOL     OW38248   2.982   1.583   3.327 -0.1358  0.2280  0.6262
 8872SOL    HW138249   2.888   1.584   3.343 -0.1447  1.1990  0.5053
 8872SOL    HW238250   3.006   1.492   3.342 -0.3670  0.4631  2.3515
 8873SOL     OW38251   2.780   0.762   6.560  0.0986  0.0940 -0.5984
 8873SOL    HW138252   2.766   0.826   6.491 -0.3133  1.6528  0.9367
 8873SOL    HW238253   2.743   0.682   6.523  1.7739  0.1600 -2.4570
 8874SOL     OW38254   3.202   1.111   5.083  0.0669  0.4561 -0.0249
 8874SOL    HW138255   3.158   1.189   5.117  1.2656  1.2727 -0.3831
 8874SOL    HW238256   3.125   1.058   5.061 -0.3757  0.9844  0.2258
 8875SOL     OW38257   4.262   4.448   4.776 -0.4873  0.4074  0.3113
 8875SOL    HW138258   4.304   4.519   4.729  0.0105 -1.3044 -1.8150
 8875SOL    HW238259   4.239   4.504   4.850  3.1323  1.6557  0.4726
 8876SOL     OW38260   3.060   1.167   9.189  0.3168  0.2525 -0.1639
 8876SOL    HW138261   2.977   1.145   9.230 -0.3144  0.4047 -1.3756
 8876SOL    HW238262   3.046   1.252   9.148 -2.4321 -0.4584 -0.6731
 8877SOL     OW38263   2.472   0.743   8.586 -0.5263  0.2018 -0.4596
 8877SOL    HW138264   2.509   0.811   8.642  0.0112  0.2914 -0.9208
 8877SOL    HW238265   2.445   0.675   8.649  1.9487 -1.7691 -1.5027
 8878SOL     OW38266   0.040   2.176   6.386  0.3319 -0.2305  0.0907
 8878SOL    HW138267   0.030   2.081   6.386  0.3887 -0.2444 -1.8986
 8878SOL    HW238268   4.684   2.198   6.389  0.5624  0.5312  1.6645
 8879SOL     OW38269   4.504   4.732   3.079 -0.4908 -0.3667 -0.8738
 8879SOL    HW138270   4.522   4.732   2.985 -2.4638  1.8546 -1.2584
 8879SOL    HW238271   4.508   4.637   3.088 -1.4511 -0.4200 -0.9681
 8880SOL     OW38272   3.546   2.327  17.560 -0.2600 -0.3451  0.2284
 8880SOL    HW138273   3.472   2.343  17.502 -0.5882  1.8458  1.2515
 8880SOL    HW238274   3.572   2.237  17.537 -2.2988 -0.6075 -1.0988
 8881SOL     OW38275   2.266   1.789   4.130  0.1144 -0.1145  0.5216
 8881SOL    HW138276   2.177   1.817   4.106  0.0833 -0.9155 -0.3448
 8881SOL    HW238277   2.244   1.702   4.165  1.8111 -0.2616  1.2098
 8882SOL     OW38278   1.268   4.185   1.956 -0.0631 -0.2156 -0.1346
 8882SOL    HW138279   1.269   4.163   1.862  1.5453 -2.8644  0.4958
 8882SOL    HW238280   1.184   4.229   1.961 -1.4169 -2.4892 -2.8295
 8883SOL     OW38281   3.721   1.898   1.559  0.1129  0.1386  0.1131
 8883SOL    HW138282   3.799   1.897   1.503  0.5257 -1.6316  0.6985
 8883SOL    HW238283   3.721   1.986   1.596  1.2251  0.3515 -0.3805
 8884SOL     OW38284   3.820   4.543   2.431 -0.1576 -0.0101  0.0618
 8884SOL    HW138285   3.745   4.501   2.389  1.0297 -1.4629 -0.5980
 8884SOL    HW238286   3.781   4.576   2.511 -2.0457 -2.4761  0.1659
 8885SOL     OW38287   4.656   0.190  10.686 -0.4394 -0.1431  0.5528
 8885SOL    HW138288   4.710   0.157  10.758 -0.5194 -1.5930 -0.0469
 8885SOL    HW238289   4.714   0.180  10.611 -1.6382 -1.4136 -0.1995
 8886SOL     OW38290   0.474   2.890  17.719 -0.0737 -0.1405  0.0183
 8886SOL    HW138291   0.474   2.798  17.745 -0.5465 -1.0990 -3.4627
 8886SOL    HW238292   0.391   2.921   0.009  0.2646  0.4592  0.2593
 8887SOL     OW38293   1.469   0.611   4.387 -0.0200  0.4079  0.1856
 8887SOL    HW138294   1.536   0.680   4.392 -0.1067  0.5326 -0.3605
 8887SOL    HW238295   1.407   0.635   4.456 -2.0512  0.3693 -1.6271
 8888SOL     OW38296   0.351   2.930   8.216  0.1188 -0.4200  0.1861
 8888SOL    HW138297   0.432   2.979   8.203  0.3192 -0.1852  2.4264
 8888SOL    HW238298   0.292   2.982   8.161 -0.2009  0.3359  1.2496
 8889SOL     OW38299   3.642   1.342   3.147 -0.0731  0.0298  0.1611
 8889SOL    HW138300   3.556   1.331   3.188 -0.3392  1.2452 -0.0530
 8889SOL    HW238301   3.698   1.268   3.170  1.0067  1.0799  0.9266
 8890SOL     OW38302   1.534   3.996   5.444 -0.0606 -0.6330 -0.2293
 8890SOL    HW138303   1.591   4.072   5.459  0.0559 -0.3502 -2.1087
 8890SOL    HW238304   1.520   4.008   5.350  0.8185  1.6438 -0.0679
 8891SOL     OW38305   0.681   2.076   8.346 -0.0702  0.1550  0.3024
 8891SOL    HW138306   0.711   1.990   8.373  1.7766  1.2988  1.8352
 8891SOL    HW238307   0.765   2.121   8.344  0.3707 -0.6553  0.9297
 8892SOL     OW38308   1.381   0.226   3.484 -0.3109 -0.3756 -0.2202
 8892SOL    HW138309   1.290   0.239   3.510 -0.1774 -2.6438  1.4302
 8892SOL    HW238310   1.424   0.272   3.556 -0.9177 -0.8943  0.4772
 8893SOL     OW38311   3.071   2.867   7.723  0.4686  0.2030  0.0996
 8893SOL    HW138312   3.082   2.799   7.657 -2.1158  0.0212 -0.1572
 8893SOL    HW238313   3.147   2.925   7.717  0.7716 -0.0042  1.8545
 8894SOL     OW38314   2.331   4.579  13.109 -0.6991  0.1627  0.2085
 8894SOL    HW138315   2.388   4.515  13.152  2.9377  1.6530 -2.3834
 8894SOL    HW238316   2.396   4.647  13.092 -0.2242 -0.5314 -0.7530
 8895SOL     OW38317   3.198   3.047   8.017 -0.2599 -0.4620  0.2820
 8895SOL    HW138318   3.113   3.088   8.037  1.3180  3.1105 -0.3576
 8895SOL    HW238319   3.173   2.964   8.057  0.0783 -0.8591 -0.3359
 8896SOL     OW38320   0.374   4.113   0.945  0.0420 -0.1409  0.4368
 8896SOL    HW138321   0.448   4.055   0.931 -0.9328 -1.7498  1.9958
 8896SOL    HW238322   0.418   4.196   0.926 -0.7510  0.4022  0.9847
 8897SOL     OW38323   0.710   1.231  15.444 -0.3787  0.0843  0.4461
 8897SOL    HW138324   0.653   1.182  15.385 -1.3521  0.2215  1.2732
 8897SOL    HW238325   0.786   1.247  15.388 -0.9967  1.5675  0.0293
 8898SOL     OW38326   3.459   0.374   8.744  0.2270  0.7106 -0.0190
 8898SOL    HW138327   3.384   0.421   8.709  0.1283 -1.7021 -3.0873
 8898SOL    HW238328   3.519   0.447   8.732  2.7232 -1.2931  0.2200
 8899SOL     OW38329   1.539   4.679   9.310  0.4708  0.0447 -0.0365
 8899SOL    HW138330   1.543   4.584   9.311  2.7603  0.1269 -0.1489
 8899SOL    HW238331   1.487   4.710   9.383 -0.8938 -3.0826  0.3051
 8900SOL     OW38332   2.471   0.663  14.764  0.4901 -0.7259  0.0847
 8900SOL    HW138333   2.415   0.586  14.752 -0.7085  0.3258 -1.0261
 8900SOL    HW238334   2.481   0.688  14.672 -1.1457 -0.2420  0.0342
 8901SOL     OW38335   4.371   4.252   2.682  0.1901 -0.2763 -0.0903
 8901SOL    HW138336   4.277   4.241   2.665  0.0989  2.4077 -1.1479
 8901SOL    HW238337   4.413   4.212   2.606  2.4222  2.2581 -0.1743
 8902SOL     OW38338   1.007   2.609   7.071 -0.0817  0.2727 -0.2446
 8902SOL    HW138339   1.051   2.666   7.134 -1.2256  3.4098 -2.3051
 8902SOL    HW238340   1.007   2.672   6.999 -0.2504  0.1417 -0.3574
 8903SOL     OW38341   3.339   0.122   4.081 -0.2210 -0.1178  0.1719
 8903SOL    HW138342   3.396   0.046   4.091  0.2967  0.4058  1.2030
 8903SOL    HW238343   3.394   0.199   4.098 -0.2200 -0.1007  0.0874
 8904SOL     OW38344   4.642   1.550   0.386  1.0379 -0.1213 -0.2253
 8904SOL    HW138345   4.673   1.627   0.434 -0.8312  0.4537  0.0859
 8904SOL    HW238346   4.716   1.491   0.375  0.4978 -0.5531 -1.5448
 8905SOL     OW38347   1.252   2.887   5.572  0.3844  0.0420  0.3017
 8905SOL    HW138348   1.304   2.960   5.605 -0.3839 -0.1255  1.8815
 8905SOL    HW238349   1.172   2.925   5.536  1.0021 -0.5522 -1.7381
 8906SOL     OW38350   1.974   1.287   6.080 -0.3110  0.0082  0.2630
 8906SOL    HW138351   1.933   1.259   5.998  0.7101 -3.1089  0.8023
 8906SOL    HW238352   1.931   1.230   6.143 -1.5495  0.0048 -0.5848
 8907SOL     OW38353   3.894   0.475   3.814  0.4201  0.5868 -0.4992
 8907SOL    HW138354   3.954   0.548   3.803  1.0559  0.2124  0.4611
 8907SOL    HW238355   3.861   0.460   3.726  3.3209  0.3688 -1.5526
 8908SOL     OW38356   2.644   0.075   8.706  0.0718  0.0886  0.2770
 8908SOL    HW138357   2.725   0.026   8.693 -0.9811 -1.0314 -2.0261
 8908SOL    HW238358   2.675   0.150   8.756 -0.5766 -1.0158  2.3285
 8909SOL     OW38359   1.435   0.373   0.034 -0.4431 -0.6052 -0.5386
 8909SOL    HW138360   1.483   0.444  17.739 -2.0559  0.5987 -0.3453
 8909SOL    HW238361   1.434   0.423   0.116 -0.5440 -0.2768 -0.7438
 8910SOL     OW38362   4.003   3.955   2.848  0.2374 -0.1171 -0.1246
 8910SOL    HW138363   3.936   3.916   2.792  0.0204  0.2657 -0.1314
 8910SOL    HW238364   4.083   3.917   2.811  0.7398  0.0566  0.7933
 8911SOL     OW38365   1.107   1.448   3.854 -0.4811 -0.3558  0.4485
 8911SOL    HW138366   1.017   1.470   3.829 -0.8448 -1.6642  0.5672
 8911SOL    HW238367   1.120   1.519   3.916  0.6982  0.6734 -0.9783
 8912SOL     OW38368   4.718   4.476   0.497  0.3253  0.0206 -0.5798
 8912SOL    HW138369   0.025   4.556   0.471 -2.1755  1.5597 -0.1175
 8912SOL    HW238370   4.626   4.501   0.506  0.4917  0.2048  0.6309
 8913SOL     OW38371   0.384   2.908  10.583  0.2769  0.3463 -0.5553
 8913SOL    HW138372   0.288   2.908  10.580  0.2704 -0.4707 -0.1544
 8913SOL    HW238373   0.394   2.946  10.671 -0.1370 -1.2656  0.1767
 8914SOL     OW38374   3.270   3.024   4.837  0.3532 -0.2547 -0.1341
 8914SOL    HW138375   3.225   3.102   4.871 -0.1011  0.4807 -2.4411
 8914SOL    HW238376   3.343   3.075   4.801  1.6878 -1.5249  0.7936
 8915SOL     OW38377   1.992   0.275   5.119 -0.4731  0.2016  0.1203
 8915SOL    HW138378   1.923   0.267   5.185  0.3981 -0.3880  0.9602
 8915SOL    HW238379   2.037   0.354   5.147 -0.4427  1.1561 -2.6937
 8916SOL     OW38380   0.141   1.483   9.427  0.4558 -0.1445  0.0955
 8916SOL    HW138381   0.168   1.407   9.376  0.2414  0.7188 -1.3053
 8916SOL    HW238382   0.214   1.482   9.489  1.5729  1.8389 -1.1716
 8917SOL     OW38383   4.506   0.952  13.704  0.4649  0.3009  0.3161
 8917SOL    HW138384   4.486   0.861  13.681  0.9684  0.7714 -1.9728
 8917SOL    HW238385   4.598   0.961  13.679  0.3674 -2.1463 -0.8540
 8918SOL     OW38386   0.644   3.346   8.781 -0.2945  0.6483 -0.3700
 8918SOL    HW138387   0.616   3.377   8.867 -1.6696  1.4840 -1.1148
 8918SOL    HW238388   0.738   3.356   8.795 -0.7728  0.7171  2.7004
 8919SOL     OW38389   4.520   1.806  14.666 -0.6650  0.1190 -0.0523
 8919SOL    HW138390   4.549   1.892  14.635  0.9016 -0.5948 -0.5588
 8919SOL    HW238391   4.454   1.793  14.598  0.1220 -1.7802 -0.4431
 8920SOL     OW38392   4.141   1.393   7.538 -0.2920 -0.1742  0.1704
 8920SOL    HW138393   4.088   1.403   7.459  2.4467  0.3374 -1.6207
 8920SOL    HW238394   4.209   1.352   7.484 -3.1629 -1.4513 -2.4997
 8921SOL     OW38395   2.345   2.172   9.601 -0.3055 -0.0187 -0.4999
 8921SOL    HW138396   2.255   2.157   9.631  0.8451 -2.0045  1.8992
 8921SOL    HW238397   2.366   2.265   9.600  0.5557 -0.2257 -1.7188
 8922SOL     OW38398   4.674   0.168  14.162  0.1259  0.8959  0.1113
 8922SOL    HW138399   4.616   0.203  14.094 -3.6140 -0.2839  2.6788
 8922SOL    HW238400   4.614   0.151  14.234 -1.7527  1.7499 -1.2473
 8923SOL     OW38401   1.895   2.055  12.820 -0.3903  0.4262 -0.3147
 8923SOL    HW138402   1.953   2.025  12.891 -0.1030  2.3188  0.2387
 8923SOL    HW238403   1.821   2.001  12.845  0.3825 -0.1785  0.6628
 8924SOL     OW38404   0.981   0.133   3.742  0.4592  0.5872 -0.2549
 8924SOL    HW138405   1.041   0.182   3.686 -0.0970  0.0983 -1.2844
 8924SOL    HW238406   0.937   0.075   3.679  0.8823  1.6740 -1.5387
 8925SOL     OW38407   1.314   3.562   8.268 -0.4418 -0.2090  0.3348
 8925SOL    HW138408   1.300   3.642   8.319 -0.1399 -0.3312  0.6050
 8925SOL    HW238409   1.395   3.546   8.315  0.2455  2.3235  0.0332
 8926SOL     OW38410   2.406   3.227   2.103  0.1359  0.2568  0.2778
 8926SOL    HW138411   2.471   3.212   2.171 -1.3893 -2.3741  1.1433
 8926SOL    HW238412   2.327   3.194   2.145  0.3480 -1.3231 -0.5604
 8927SOL     OW38413   1.334   3.727   0.453  0.4229 -0.4489 -0.0885
 8927SOL    HW138414   1.310   3.645   0.409 -1.0450 -1.1463  2.0765
 8927SOL    HW238415   1.377   3.772   0.380 -1.2829 -0.7614 -1.2748
 8928SOL     OW38416   2.122   3.200   4.827  0.0727 -0.6825 -0.1702
 8928SOL    HW138417   2.138   3.294   4.823 -2.5985 -0.2021  0.2823
 8928SOL    HW238418   2.164   3.182   4.911 -0.1823 -1.4346 -0.2008
 8929SOL     OW38419   4.086   2.836  16.266 -0.6834  1.2972  0.0297
 8929SOL    HW138420   4.086   2.903  16.334  0.5919  0.1442  1.1515
 8929SOL    HW238421   4.053   2.882  16.188 -0.6150  2.0445  0.4452
 8930SOL     OW38422   0.358   3.585  16.736 -0.6277 -0.1897 -0.3604
 8930SOL    HW138423   0.363   3.654  16.670 -0.2249 -1.1150 -1.2812
 8930SOL    HW238424   0.359   3.639  16.816 -0.7802  1.5985 -1.5652
 8931SOL     OW38425   4.531   2.529   5.043  0.2649  0.8172  0.1765
 8931SOL    HW138426   4.555   2.616   5.076  1.1141 -0.4022  2.7510
 8931SOL    HW238427   4.471   2.507   5.113  1.6247 -4.2648 -0.2516
 8932SOL     OW38428   3.489   4.267   1.804 -0.0474 -0.2170  0.0551
 8932SOL    HW138429   3.559   4.321   1.839  0.3065 -2.9676  3.5302
 8932SOL    HW238430   3.542   4.195   1.769  0.3091  0.2081 -0.2857
 8933SOL     OW38431   0.233   2.818   7.256  0.6147  0.1039  0.5131
 8933SOL    HW138432   0.213   2.863   7.338  1.7345 -0.4568  1.0986
 8933SOL    HW238433   0.266   2.885   7.196 -1.9849 -0.7741 -1.9529
 8934SOL     OW38434   1.573   4.202   7.442  0.5574  0.3445  0.0868
 8934SOL    HW138435   1.558   4.188   7.535 -0.8413  0.0232 -0.1768
 8934SOL    HW238436   1.563   4.113   7.410 -3.5979  1.2811 -1.2876
 8935SOL     OW38437   4.225   0.886  16.734 -0.3293 -0.0749  0.0879
 8935SOL    HW138438   4.277   0.854  16.808  0.2329  0.3973 -0.1074
 8935SOL    HW238439   4.158   0.818  16.735  0.7021 -1.0982 -0.4624
 8936SOL     OW38440   4.137   3.562   1.239 -0.2962  0.2608 -0.4889
 8936SOL    HW138441   4.066   3.586   1.298  0.7139  0.6610  0.5617
 8936SOL    HW238442   4.080   3.556   1.162 -0.5069  0.8712 -0.3788
 8937SOL     OW38443   2.566   1.415  10.582 -0.0383 -0.1498 -0.0066
 8937SOL    HW138444   2.554   1.470  10.659 -1.1870 -3.4497  2.1151
 8937SOL    HW238445   2.519   1.340  10.615 -1.3253  1.3398  1.5049
 8938SOL     OW38446   3.066   4.418   8.265  0.5012  0.6293 -0.5745
 8938SOL    HW138447   3.001   4.392   8.201 -1.4337 -0.7225  1.9305
 8938SOL    HW238448   3.044   4.510   8.275 -0.1075  0.5620 -1.3509
 8939SOL     OW38449   3.501   0.204   8.947 -0.3429  0.2566 -0.4320
 8939SOL    HW138450   3.419   0.161   8.969 -1.0761  2.0422  0.3124
 8939SOL    HW238451   3.484   0.266   8.876 -0.2237 -0.7538 -1.3236
 8940SOL     OW38452   2.931   1.841   4.772  0.0975 -0.2348 -0.3891
 8940SOL    HW138453   2.923   1.932   4.801  2.7330 -0.5151  1.1789
 8940SOL    HW238454   2.863   1.810   4.832 -1.7626  1.7264 -1.4523
 8941SOL     OW38455   1.556   1.963   5.574  0.7200 -0.0979 -0.4084
 8941SOL    HW138456   1.558   2.057   5.559 -1.2640  0.1274  0.8247
 8941SOL    HW238457   1.632   1.935   5.522  0.3722 -2.8087  0.5558
 8942SOL     OW38458   4.107   1.019   7.462  0.3931  0.7001  0.1987
 8942SOL    HW138459   4.032   0.973   7.423 -0.4747  0.9676  1.5800
 8942SOL    HW238460   4.176   0.978   7.409 -0.0482 -0.1833  0.3062
 8943SOL     OW38461   3.750   2.293   7.683 -0.3223 -0.4611 -0.8861
 8943SOL    HW138462   3.825   2.264   7.737 -0.4165  1.9899  0.5592
 8943SOL    HW238463   3.743   2.381   7.721  0.3790 -1.0674  0.6700
 8944SOL     OW38464   3.538   3.663   2.526 -0.1147 -0.5575 -0.1919
 8944SOL    HW138465   3.555   3.743   2.576 -1.5432 -0.1429 -0.3703
 8944SOL    HW238466   3.452   3.679   2.487 -1.1923 -0.5042  2.2446
 8945SOL     OW38467   2.714   0.114   8.013 -0.2834  0.4900 -0.3357
 8945SOL    HW138468   2.725   0.207   7.994  1.5289  0.1116 -1.1032
 8945SOL    HW238469   2.696   0.125   8.107 -0.7988  1.9818 -0.6155
 8946SOL     OW38470   4.613   1.021  17.611  0.1413 -0.3814 -0.1978
 8946SOL    HW138471   4.538   1.040  17.667  0.3543  0.9642 -0.3619
 8946SOL    HW238472   4.661   1.104  17.607  0.2227 -0.3203  2.2753
 8947SOL     OW38473   2.663   3.907   9.430  0.0997  0.0468 -0.0974
 8947SOL    HW138474   2.570   3.915   9.451  0.1073  0.0249 -0.0549
 8947SOL    HW238475   2.659   3.922   9.336 -0.8475  4.0505  0.5753
 8948SOL     OW38476   0.659   0.109   7.410 -0.1611 -0.1067  0.2334
 8948SOL    HW138477   0.643   0.020   7.441 -1.3442  1.0629  2.9648
 8948SOL    HW238478   0.700   0.097   7.324  0.7747  2.2534  0.3239
 8949SOL     OW38479   4.565   2.960   9.463 -0.5422 -0.2849  0.1511
 8949SOL    HW138480   4.493   2.900   9.486 -2.4774  2.1187  0.3640
 8949SOL    HW238481   4.640   2.911   9.497 -1.1640 -0.5411  1.1601
 8950SOL     OW38482   0.635   1.028   5.916  0.1293  0.0876  0.5003
 8950SOL    HW138483   0.559   1.001   5.966  0.2706  0.6528  1.0157
 8950SOL    HW238484   0.696   1.047   5.987 -2.4812  1.4121  2.3889
 8951SOL     OW38485   1.249   0.350   6.277 -0.4171  0.3071  0.3770
 8951SOL    HW138486   1.203   0.415   6.224 -0.9935 -1.8548 -1.7800
 8951SOL    HW238487   1.178   0.289   6.298 -1.6154  2.3699  2.3088
 8952SOL     OW38488   0.491   3.989   5.332 -0.1592  0.0739 -0.7058
 8952SOL    HW138489   0.528   4.065   5.287 -1.7921  0.2996 -1.6732
 8952SOL    HW238490   0.575   3.950   5.360  0.1953  0.3844 -1.3335
 8953SOL     OW38491   1.942   3.514   6.232  0.2494  0.4218  0.3007
 8953SOL    HW138492   1.887   3.446   6.269 -0.3739  0.9495  0.3448
 8953SOL    HW238493   1.972   3.575   6.299  1.6924 -1.2407  1.1522
 8954SOL     OW38494   1.240   0.959   4.152  0.2350  0.5051 -0.1602
 8954SOL    HW138495   1.156   0.955   4.107 -0.9306  2.0184  1.9134
 8954SOL    HW238496   1.299   0.977   4.078  2.4676 -0.4601  1.3900
 8955SOL     OW38497   4.191   1.454  12.773 -0.0492 -0.5775 -0.7125
 8955SOL    HW138498   4.185   1.467  12.867  2.3968  0.0194 -0.6251
 8955SOL    HW238499   4.189   1.360  12.758  0.3210 -0.9253  1.5449
 8956SOL     OW38500   0.435   1.640   4.928 -0.0393 -0.0752 -0.1993
 8956SOL    HW138501   0.433   1.544   4.929  0.9619 -0.0841  3.2895
 8956SOL    HW238502   0.430   1.657   5.022  1.8012 -0.2662 -0.0642
 8957SOL     OW38503   3.086   2.343  17.515  0.2761  0.1744 -0.4921
 8957SOL    HW138504   3.162   2.287  17.529 -0.1731 -0.0768  0.8953
 8957SOL    HW238505   3.075   2.384  17.600  0.3440 -1.6690  0.4019
 8958SOL     OW38506   1.479   1.639  10.970 -0.6233  0.2336 -0.1979
 8958SOL    HW138507   1.391   1.676  10.975 -0.3819  1.0557 -1.8987
 8958SOL    HW238508   1.517   1.684  11.045 -0.8204 -0.1132  0.1099
 8959SOL     OW38509   1.964   4.507  14.514 -0.2378 -0.2602 -0.2377
 8959SOL    HW138510   2.029   4.448  14.478  0.6301  0.3108  0.4031
 8959SOL    HW238511   1.984   4.489  14.606  1.5268  0.7454 -0.4207
 8960SOL     OW38512   2.427   3.338   4.442  0.1610  0.3010  0.1354
 8960SOL    HW138513   2.451   3.279   4.371  2.8529  0.7741  0.6468
 8960SOL    HW238514   2.473   3.296   4.515  0.7596 -0.5152 -0.7100
 8961SOL     OW38515   0.014   3.965   3.596  0.2676  0.3462  0.0728
 8961SOL    HW138516   4.731   4.012   3.676 -1.2077  1.0643 -0.7233
 8961SOL    HW238517   4.714   4.025   3.531 -0.7455 -0.3964 -0.0357
 8962SOL     OW38518   2.640   3.424  10.385  0.4611  0.0199  0.1636
 8962SOL    HW138519   2.649   3.408  10.291  3.1381  2.9719 -0.0877
 8962SOL    HW238520   2.573   3.360  10.411  0.1559  0.6870  1.0226
 8963SOL     OW38521   0.090   3.756  15.029 -0.2579  0.3592  0.1333
 8963SOL    HW138522   0.039   3.836  15.043 -0.2335 -0.2857  4.0104
 8963SOL    HW238523   0.035   3.688  15.068  1.1024  0.0157  1.4946
 8964SOL     OW38524   4.429   2.333   6.251  0.3179  0.4520  0.7205
 8964SOL    HW138525   4.461   2.365   6.335  1.3800  1.9191 -0.2538
 8964SOL    HW238526   4.406   2.240   6.251  1.6996  0.1125 -0.7901
 8965SOL     OW38527   0.375   4.609  13.398 -0.2684  0.3787 -0.3537
 8965SOL    HW138528   0.428   4.687  13.383  2.6211 -0.9698  2.8818
 8965SOL    HW238529   0.345   4.620  13.488  2.9144  0.7333  0.6808
 8966SOL     OW38530   1.730   0.385   3.989 -0.2413 -0.4553  0.5040
 8966SOL    HW138531   1.719   0.480   3.998  1.5474 -0.0857 -1.2563
 8966SOL    HW238532   1.664   0.357   4.052  0.1186 -0.1027  1.0336
 8967SOL     OW38533   4.727   4.285  15.356 -0.2038 -0.5111 -0.1182
 8967SOL    HW138534   0.065   4.265  15.302  0.3076  0.3051  0.2971
 8967SOL    HW238535   4.663   4.340  15.311 -0.8035 -0.5277  0.7076
 8968SOL     OW38536   2.782   1.032   3.968 -0.3452  0.1689  0.1284
 8968SOL    HW138537   2.844   1.092   3.926 -3.1925  3.3252  0.4840
 8968SOL    HW238538   2.788   1.068   4.057  1.1884 -0.1413  0.1605
 8969SOL     OW38539   0.493   2.310  10.087  0.2470 -0.1328 -0.5057
 8969SOL    HW138540   0.451   2.225  10.097 -0.4206  0.2365 -0.1328
 8969SOL    HW238541   0.486   2.346  10.176  0.6889  0.1533 -0.5849
 8970SOL     OW38542   3.789   3.183   2.448 -0.6818 -0.2029 -0.6985
 8970SOL    HW138543   3.854   3.117   2.426 -0.5502  0.1966 -1.5105
 8970SOL    HW238544   3.728   3.148   2.512 -0.3250  3.1347  1.5020
 8971SOL     OW38545   4.520   2.309   2.638 -0.8130  0.1281  0.2242
 8971SOL    HW138546   4.443   2.335   2.588 -1.8198  1.3129  2.3962
 8971SOL    HW238547   4.493   2.238   2.696 -2.0968  0.2891 -0.1939
 8972SOL     OW38548   0.235   2.573  11.806  0.2145 -0.0018 -0.5467
 8972SOL    HW138549   0.182   2.642  11.767  1.0215  0.6110 -0.5614
 8972SOL    HW238550   0.204   2.493  11.762  0.4148 -1.4930  2.0230
 8973SOL     OW38551   0.768   3.923   3.313  0.2088  0.1264  0.0182
 8973SOL    HW138552   0.676   3.895   3.321 -0.0097 -0.1486 -3.5444
 8973SOL    HW238553   0.766   3.960   3.225 -0.4930 -1.1752 -0.5079
 8974SOL     OW38554   1.844   4.460   8.441 -0.2288 -0.1321  0.6316
 8974SOL    HW138555   1.845   4.541   8.390  0.7908 -0.1480  0.6234
 8974SOL    HW238556   1.817   4.482   8.530 -2.3033 -1.1444  0.2591
 8975SOL     OW38557   0.173   2.832   2.138 -0.2538  0.3486  0.4227
 8975SOL    HW138558   0.126   2.749   2.134  0.8412 -0.0684 -4.1126
 8975SOL    HW238559   0.258   2.808   2.101 -0.5108  2.4240 -1.5035
 8976SOL     OW38560   2.503   2.890   4.743 -0.3348  0.1284 -0.7204
 8976SOL    HW138561   2.443   2.834   4.694  1.7554 -1.2046 -1.7438
 8976SOL    HW238562   2.445   2.934   4.806  0.1384 -2.3522  1.4274
 8977SOL     OW38563   3.884   1.838  12.941 -0.4642 -0.4099  0.1822
 8977SOL    HW138564   3.907   1.746  12.925 -0.5991  0.4142 -4.6880
 8977SOL    HW238565   3.790   1.823  12.925 -0.1006 -0.7460 -1.6511
 8978SOL     OW38566   4.207   0.182   4.339  0.1890  0.6855  0.6081
 8978SOL    HW138567   4.274   0.152   4.276  1.4520  1.8340  1.4070
 8978SOL    HW238568   4.167   0.101   4.371  1.5004  0.7266  2.3789
 8979SOL     OW38569   1.268   4.320   0.796 -0.2432  0.2229  0.0219
 8979SOL    HW138570   1.244   4.352   0.709 -1.7364 -1.2760 -0.1221
 8979SOL    HW238571   1.351   4.279   0.771  0.2380  0.1568  1.7292
 8980SOL     OW38572   1.921   4.710   5.234  0.0094  0.4001  0.1448
 8980SOL    HW138573   1.875   4.684   5.155 -0.2034  1.4082 -0.0607
 8980SOL    HW238574   1.881   0.056   5.258  0.2456  0.3162  0.8220
 8981SOL     OW38575   4.350   2.656  14.152 -0.1332  0.2881 -0.2881
 8981SOL    HW138576   4.290   2.719  14.192  0.1879  0.5796 -0.2679
 8981SOL    HW238577   4.419   2.653  14.217 -1.2729  0.6742  0.9389
 8982SOL     OW38578   0.973   0.735   4.694 -0.5958 -0.5264  0.0346
 8982SOL    HW138579   0.980   0.816   4.745 -3.1066  0.6741 -1.5489
 8982SOL    HW238580   0.970   0.674   4.768 -0.7531  0.1132  0.5571
 8983SOL     OW38581   0.960   3.126   3.838  0.0643  0.1847 -0.1587
 8983SOL    HW138582   0.948   3.110   3.745 -1.6662  2.8341 -0.3871
 8983SOL    HW238583   0.896   3.060   3.867 -0.2546  0.6034  0.0933
 8984SOL     OW38584   1.818   1.886  11.956  0.1808 -0.4477  0.3632
 8984SOL    HW138585   1.872   1.822  12.002  1.0763  0.5749  0.7450
 8984SOL    HW238586   1.782   1.939  12.027 -4.3984  0.8290 -2.9355
 8985SOL     OW38587   2.042   3.664  15.988  0.2459 -0.1399 -0.0955
 8985SOL    HW138588   2.051   3.574  15.958 -3.0960 -1.0713  1.7642
 8985SOL    HW238589   2.115   3.670  16.050 -0.7497 -0.6521  1.1173
 8986SOL     OW38590   4.237   1.649   4.640  0.1263  0.4724 -0.0127
 8986SOL    HW138591   4.145   1.649   4.666  0.1041  0.2352 -0.0964
 8986SOL    HW238592   4.255   1.555   4.636 -1.5179  0.1511  0.5460
 8987SOL     OW38593   1.379   4.315   6.783  0.1506  0.2370 -0.6257
 8987SOL    HW138594   1.400   4.363   6.863  2.4785 -0.6925 -0.6727
 8987SOL    HW238595   1.285   4.331   6.776  0.0990 -0.8585 -2.3344
 8988SOL     OW38596   4.128   0.208  16.542 -0.1617  0.1332 -0.1944
 8988SOL    HW138597   4.139   0.304  16.542 -0.3847  0.1577 -1.4142
 8988SOL    HW238598   4.042   0.193  16.504 -0.8185  1.1378  0.8808
 8989SOL     OW38599   4.213   1.869   1.491  0.0078  0.3806 -0.1318
 8989SOL    HW138600   4.181   1.839   1.576 -0.2233  0.6744 -0.1175
 8989SOL    HW238601   4.245   1.784   1.459 -0.0231  0.3402 -0.0552
 8990SOL     OW38602   3.282   0.385  15.562  0.3278 -0.9181 -0.0678
 8990SOL    HW138603   3.353   0.359  15.621  0.2136  1.8682  1.2973
 8990SOL    HW238604   3.207   0.384  15.622  0.5253 -1.4368  0.1755
 8991SOL     OW38605   0.129   3.462   5.618 -0.1901  0.3038  0.3118
 8991SOL    HW138606   0.172   3.400   5.559 -0.5037 -0.6660  1.1019
 8991SOL    HW238607   0.173   3.545   5.600  0.3864 -0.6633 -2.6774
 8992SOL     OW38608   1.428   3.113   8.123  0.4941 -0.1613 -0.4214
 8992SOL    HW138609   1.396   3.056   8.053 -1.3573  0.8506 -0.3925
 8992SOL    HW238610   1.345   3.120   8.169 -0.8598 -2.2672 -2.5707
 8993SOL     OW38611   0.843   3.399   0.011  0.6482 -0.3531 -0.2224
 8993SOL    HW138612   0.867   3.474  17.705 -0.5240  2.6705  3.3883
 8993SOL    HW238613   0.828   3.338  17.687 -1.8188  1.4360 -1.1965
 8994SOL     OW38614   1.890   1.829   8.960 -0.3254 -0.1922  0.7226
 8994SOL    HW138615   1.896   1.914   9.004 -0.4650 -0.1008  0.5650
 8994SOL    HW238616   1.876   1.837   8.866  0.5167 -2.5497  0.4063
 8995SOL     OW38617   4.180   1.714  17.163 -0.0819 -0.3869  0.1744
 8995SOL    HW138618   4.272   1.720  17.187  0.6094 -2.6574 -1.9507
 8995SOL    HW238619   4.182   1.782  17.095  0.9930  0.8874  1.4678
 8996SOL     OW38620   2.438   2.195   2.523 -0.1982  0.2844 -0.0257
 8996SOL    HW138621   2.464   2.103   2.524 -3.1066 -0.5184  0.6088
 8996SOL    HW238622   2.441   2.213   2.429 -0.4764  3.6106  0.6015
 8997SOL     OW38623   4.587   3.706  14.577  0.5991 -0.0111  0.0437
 8997SOL    HW138624   4.499   3.673  14.558  0.6886 -0.9368  1.2705
 8997SOL    HW238625   4.636   3.635  14.618 -0.0690  0.2451  1.2788
 8998SOL     OW38626   1.982   2.380  11.815 -0.5884  0.2451  0.5387
 8998SOL    HW138627   1.930   2.447  11.860  1.2049  1.4398  0.8712
 8998SOL    HW238628   1.938   2.301  11.844  0.5577 -0.4382  0.4296
 8999SOL     OW38629   0.159   4.596   4.119 -0.1649 -0.7833  0.1820
 8999SOL    HW138630   0.135   4.603   4.212  0.2142  0.7627  0.1700
 8999SOL    HW238631   0.253   4.615   4.120 -0.8496  2.6684  0.7277
 9000SOL     OW38632   1.781   0.610   9.958 -0.3397 -0.6219  0.1752
 9000SOL    HW138633   1.831   0.691   9.970  0.3730 -0.7846 -1.6712
 9000SOL    HW238634   1.705   0.626  10.013  0.0605 -0.2206  0.6106
 9001SOL     OW38635   4.158   1.844   2.605 -0.3332 -0.2978 -0.5553
 9001SOL    HW138636   4.108   1.902   2.548  2.9399 -0.5304 -3.6510
 9001SOL    HW238637   4.174   1.895   2.685 -0.9836  0.1121 -0.6857
 9002SOL     OW38638   2.968   4.522   3.772  0.4312  0.3613  0.0085
 9002SOL    HW138639   3.014   4.586   3.827 -1.7545  0.9905  1.1231
 9002SOL    HW238640   2.875   4.533   3.793  0.0651  0.8322 -1.8227
 9003SOL     OW38641   0.554   1.706   0.957 -0.0683 -0.0340 -0.0312
 9003SOL    HW138642   0.479   1.676   1.008 -0.6750  2.1751  0.3494
 9003SOL    HW238643   0.566   1.794   0.990  1.0016 -0.8682  1.8035
 9004SOL     OW38644   0.124   0.236  15.092 -0.4102 -0.4562  0.0751
 9004SOL    HW138645   0.166   0.285  15.162 -1.1549  0.2958 -0.0134
 9004SOL    HW238646   0.050   0.293  15.073 -0.9084 -0.4729  1.9939
 9005SOL     OW38647   4.731   1.793   2.634  0.4093 -0.0084 -0.1035
 9005SOL    HW138648   0.023   1.856   2.568  0.4840  0.2929  0.2195
 9005SOL    HW238649   4.687   1.727   2.580 -0.2410 -0.3306  0.8172
 9006SOL     OW38650   0.376   2.850   3.478 -0.3772  0.0701  0.6098
 9006SOL    HW138651   0.411   2.762   3.463  1.0153  0.6897  0.1801
 9006SOL    HW238652   0.380   2.893   3.393 -0.3766 -0.0043  0.5724
 9007SOL     OW38653   4.148   4.199   4.990 -0.0166 -0.1298 -0.5830
 9007SOL    HW138654   4.213   4.242   4.935  0.3476  0.5690  0.3884
 9007SOL    HW238655   4.115   4.274   5.041  0.1077 -0.8132  0.5069
 9008SOL     OW38656   3.099   3.958   1.718 -0.7061 -0.2277 -0.5103
 9008SOL    HW138657   3.192   3.976   1.708 -0.3844 -0.1033  2.5837
 9008SOL    HW238658   3.075   3.923   1.633  1.3546  2.2436 -2.0852
 9009SOL     OW38659   3.461   4.305   7.486 -0.0300  0.0690  0.4771
 9009SOL    HW138660   3.458   4.380   7.545  2.9196  0.6170 -0.0681
 9009SOL    HW238661   3.368   4.296   7.468  0.4313 -1.8229 -0.9173
 9010SOL     OW38662   2.899   0.035  10.310 -0.0126 -0.5191  0.2459
 9010SOL    HW138663   2.908   0.129  10.300  0.2187 -0.6450 -0.6872
 9010SOL    HW238664   2.859   0.018  10.225 -0.6166  1.7865  0.0716
 9011SOL     OW38665   4.100   4.492   6.906 -0.2666 -0.0660 -0.0991
 9011SOL    HW138666   4.151   4.572   6.920  1.3535 -0.7306 -2.1297
 9011SOL    HW238667   4.017   4.511   6.949 -0.7202  1.3421 -1.5546
 9012SOL     OW38668   1.592   4.437   3.577 -0.4096  0.0167 -0.1329
 9012SOL    HW138669   1.657   4.430   3.648 -0.2580 -4.0054 -0.6899
 9012SOL    HW238670   1.589   4.530   3.556  1.9902  0.1009 -0.0734
 9013SOL     OW38671   4.561   1.276   1.408 -0.3406  0.0154 -0.0157
 9013SOL    HW138672   4.606   1.273   1.324  0.8621 -0.0852  0.6283
 9013SOL    HW238673   4.588   1.355   1.454 -0.9914  0.3527 -0.2206
 9014SOL     OW38674   3.404   4.591   2.316  0.3651  0.5547  1.0396
 9014SOL    HW138675   3.464   4.524   2.349  0.3499 -0.1795 -0.4392
 9014SOL    HW238676   3.405   4.575   2.222  2.1808  2.7012  0.6655
 9015SOL     OW38677   0.111   2.351   8.865 -0.2293  0.0997 -0.5621
 9015SOL    HW138678   0.139   2.442   8.855 -1.1132  0.3978 -0.3746
 9015SOL    HW238679   0.183   2.306   8.821  0.2806  0.4384 -0.0711
 9016SOL     OW38680   2.236   1.690  14.189  0.3122 -0.1786  0.2901
 9016SOL    HW138681   2.225   1.774  14.145 -0.4837 -0.5016 -0.1288
 9016SOL    HW238682   2.330   1.672  14.191  0.5775  1.2919  0.9940
 9017SOL     OW38683   3.841   0.182  13.083  0.4535  0.4974 -0.0530
 9017SOL    HW138684   3.813   0.248  13.020  0.6199  0.3429 -0.2905
 9017SOL    HW238685   3.882   0.234  13.152  1.0116 -0.6200  0.4508
 9018SOL     OW38686   3.848   2.868   8.140  0.1727  0.2193 -0.3308
 9018SOL    HW138687   3.919   2.856   8.203  0.2664  0.9743 -0.2989
 9018SOL    HW238688   3.815   2.956   8.158  1.3449  0.5392  0.2334
 9019SOL     OW38689   0.966   2.810   4.592  0.4663  0.3009 -0.4565
 9019SOL    HW138690   1.012   2.894   4.587  0.8565  0.1038 -0.2181
 9019SOL    HW238691   0.997   2.773   4.674  0.9295  0.0206 -0.7592
 9020SOL     OW38692   3.722   0.027  13.872 -0.1908  0.3597  0.1553
 9020SOL    HW138693   3.798   0.014  13.815  1.3727  0.4632  2.1939
 9020SOL    HW238694   3.735   0.115  13.906  1.9975  1.1337 -2.6407
 9021SOL     OW38695   3.089   2.170   7.175  0.2600 -0.2783 -0.4900
 9021SOL    HW138696   3.141   2.122   7.239  0.5534  2.0741  1.0287
 9021SOL    HW238697   3.154   2.212   7.119  0.1891  1.4147  0.6894
 9022SOL     OW38698   3.421   1.352   9.321  0.2089 -0.7005  0.1199
 9022SOL    HW138699   3.432   1.404   9.400 -3.0779 -0.1625  0.2127
 9022SOL    HW238700   3.369   1.275   9.344 -1.3141  0.0543 -0.7606
 9023SOL     OW38701   2.694   3.490   7.029  0.4170 -0.5926 -0.5603
 9023SOL    HW138702   2.613   3.527   7.064  1.3445  1.5988 -0.7160
 9023SOL    HW238703   2.665   3.474   6.939 -0.8779  0.1329 -0.2769
 9024SOL     OW38704   2.902   3.944   5.979 -0.0056 -0.4745 -0.1741
 9024SOL    HW138705   2.860   3.884   5.917  1.4685 -1.2926 -0.3769
 9024SOL    HW238706   2.860   4.025   5.950  3.0753  0.6295 -1.6149
 9025SOL     OW38707   3.833   2.701   1.324  0.0794 -0.3557  0.4488
 9025SOL    HW138708   3.800   2.757   1.395 -3.2738 -2.2373  0.3498
 9025SOL    HW238709   3.755   2.647   1.316  0.7586 -1.5682  1.9662
 9026SOL     OW38710   3.367   0.915   0.292 -0.2138 -0.3917 -0.1951
 9026SOL    HW138711   3.459   0.925   0.268 -0.8321  1.7232 -1.6390
 9026SOL    HW238712   3.336   0.877   0.209  1.3240 -2.4788  0.1965
 9027SOL     OW38713   2.747   0.424   3.667  0.0262  0.0770  0.0822
 9027SOL    HW138714   2.740   0.473   3.749  0.0038 -1.0353  0.7438
 9027SOL    HW238715   2.655   0.399   3.658  0.5910 -1.0305 -2.5300
 9028SOL     OW38716   3.886   0.745   7.023 -0.2314 -0.2148  0.0500
 9028SOL    HW138717   3.797   0.722   6.995  0.2022 -0.6906 -0.9326
 9028SOL    HW238718   3.903   0.832   6.988  3.5937 -0.7896  0.5537
 9029SOL     OW38719   2.159   3.293   9.122  0.3525 -0.1210 -0.0323
 9029SOL    HW138720   2.227   3.229   9.141 -0.6459 -1.1461  0.1291
 9029SOL    HW238721   2.133   3.312   9.212 -1.2371  1.4614 -0.8229
 9030SOL     OW38722   0.622   1.263   7.903  0.3695 -0.1740  0.1188
 9030SOL    HW138723   0.685   1.251   7.974 -0.7390 -2.3482  0.7600
 9030SOL    HW238724   0.597   1.355   7.908  1.2024 -0.1352  3.4612
 9031SOL     OW38725   2.141   1.280   4.762 -0.3110 -0.3619 -0.1305
 9031SOL    HW138726   2.123   1.335   4.837 -0.5841  0.1475 -0.5693
 9031SOL    HW238727   2.057   1.235   4.754 -0.0241 -1.0770  0.9164
 9032SOL     OW38728   4.561   3.827   8.458  0.0312 -0.1550  0.0555
 9032SOL    HW138729   4.547   3.922   8.462  2.6954  0.2653 -0.1284
 9032SOL    HW238730   4.643   3.816   8.409 -0.0143 -1.7124  0.3316
 9033SOL     OW38731   1.366   2.968  16.207 -0.1741  0.4877  0.1653
 9033SOL    HW138732   1.322   2.923  16.135 -1.5274 -2.3095  2.7443
 9033SOL    HW238733   1.448   2.992  16.164 -0.0974  0.2371  0.1693
 9034SOL     OW38734   0.910   1.149  10.110  0.2643  0.6255  1.2488
 9034SOL    HW138735   0.906   1.228  10.164 -1.0067  1.0903  0.4804
 9034SOL    HW238736   0.826   1.161  10.065  1.4409 -0.2420 -1.2223
 9035SOL     OW38737   4.573   1.423   5.189 -0.8934 -0.4915  0.4260
 9035SOL    HW138738   4.609   1.459   5.270  1.3317 -0.5867 -0.4956
 9035SOL    HW238739   4.646   1.431   5.127 -0.4237 -2.1253  0.7619
 9036SOL     OW38740   4.060   3.742  10.429 -0.2365 -0.1268  0.0162
 9036SOL    HW138741   4.122   3.669  10.429  0.1681  0.2257 -2.1107
 9036SOL    HW238742   4.110   3.807  10.379 -0.5320  0.9009  1.0551
 9037SOL     OW38743   1.705   4.585   3.293 -0.3068  0.4882  0.4849
 9037SOL    HW138744   1.641   4.515   3.280  0.8709 -0.1562 -1.7981
 9037SOL    HW238745   1.648   4.657   3.320 -2.2941 -1.5461  1.7274
 9038SOL     OW38746   2.818   0.052   9.287  0.0723  0.5500  0.2797
 9038SOL    HW138747   2.785   0.031   9.374 -0.3145  1.4557  0.3429
 9038SOL    HW238748   2.908   0.018   9.295  0.8684  3.0494  1.7903
 9039SOL     OW38749   3.702   3.453  11.690  0.0253  0.2879  0.1957
 9039SOL    HW138750   3.734   3.510  11.760  0.8563  1.2600 -0.9848
 9039SOL    HW238751   3.776   3.396  11.669 -0.0928 -0.3217  1.3966
 9040SOL     OW38752   4.650   3.183   1.370  0.1537 -0.0970  0.1161
 9040SOL    HW138753   4.614   3.238   1.440 -0.9635 -1.9982  1.0334
 9040SOL    HW238754   4.564   3.154   1.340  0.2901  0.2077 -0.5570
 9041SOL     OW38755   3.964   0.541   7.923  0.6020  0.5040 -0.3216
 9041SOL    HW138756   3.889   0.496   7.883  0.3328 -1.1104  1.9851
 9041SOL    HW238757   3.929   0.627   7.947 -2.9122 -0.5705 -1.6309
 9042SOL     OW38758   0.283   1.535   5.862  0.4621  0.1347 -0.5222
 9042SOL    HW138759   0.316   1.485   5.787  0.7539 -1.0299  0.3801
 9042SOL    HW238760   0.350   1.539   5.930 -0.1770  0.1810  0.1035
 9043SOL     OW38761   0.622   2.224   7.341  0.1235  0.5202  0.2956
 9043SOL    HW138762   0.537   2.238   7.383 -0.2514 -1.2874  0.1403
 9043SOL    HW238763   0.614   2.143   7.292  0.4458  0.1104  0.9095
 9044SOL     OW38764   3.396   1.162   4.897  0.0443 -0.8771  0.0109
 9044SOL    HW138765   3.322   1.189   4.843  1.3961  1.2064 -0.7506
 9044SOL    HW238766   3.349   1.142   4.978  0.3044  0.1796  0.4201
 9045SOL     OW38767   3.806   3.644  12.692  0.5802 -0.7081  0.4718
 9045SOL    HW138768   3.815   3.735  12.663  1.4063 -0.7919  0.4790
 9045SOL    HW238769   3.804   3.644  12.788 -0.7983 -1.9359  0.4404
 9046SOL     OW38770   0.247   2.634   2.794  0.4729  0.4848 -0.2937
 9046SOL    HW138771   0.301   2.700   2.838  0.3098  0.2476  0.2657
 9046SOL    HW238772   0.164   2.644   2.841  1.2847 -0.8104  1.4396
 9047SOL     OW38773   2.240   1.233   9.572  0.0724 -0.6691  0.0014
 9047SOL    HW138774   2.214   1.218   9.663 -2.3174 -0.1570 -0.6014
 9047SOL    HW238775   2.191   1.315   9.563 -1.0167 -1.1629  1.4162
 9048SOL     OW38776   0.489   3.683  12.092  0.5976  0.4210  0.6546
 9048SOL    HW138777   0.555   3.633  12.045  0.2938  0.6328  0.0099
 9048SOL    HW238778   0.477   3.631  12.172 -0.9702  1.8353  1.3488
 9049SOL     OW38779   0.786   4.716  13.432  0.1772  0.1314 -0.1043
 9049SOL    HW138780   0.832   4.645  13.386  0.6851 -1.6996  3.2363
 9049SOL    HW238781   0.823   4.715  13.520 -0.7333 -1.4080  0.2677
 9050SOL     OW38782   2.835   3.264  17.199 -0.1431 -0.0012 -0.4891
 9050SOL    HW138783   2.882   3.292  17.121 -0.1383 -2.9561 -1.5555
 9050SOL    HW238784   2.825   3.173  17.168 -1.2045 -0.0589  0.0212
 9051SOL     OW38785   3.551   2.542   6.751 -0.1304  0.0904 -0.7526
 9051SOL    HW138786   3.513   2.629   6.742  1.4312  0.9462  0.7929
 9051SOL    HW238787   3.642   2.573   6.757 -0.9568  2.6863 -1.3804
 9052SOL     OW38788   3.086   1.353   5.203 -0.3209  0.0261 -0.6304
 9052SOL    HW138789   3.159   1.380   5.258  0.6391  0.5398 -2.1651
 9052SOL    HW238790   3.079   1.415   5.131 -2.5105 -1.4119 -1.6631
 9053SOL     OW38791   3.624   4.664   8.729  0.0979 -0.1701  0.2224
 9053SOL    HW138792   3.645   4.736   8.788 -1.2256 -0.6134  1.2462
 9053SOL    HW238793   3.583   4.709   8.655 -1.1628  0.9563  1.6135
 9054SOL     OW38794   1.297   0.530  12.556  0.2296  0.3566 -0.0824
 9054SOL    HW138795   1.265   0.475  12.627  0.9628  2.5851  1.9603
 9054SOL    HW238796   1.390   0.507  12.553 -0.2252 -1.4034 -1.1106
 9055SOL     OW38797   0.852   0.709  12.993  0.7243  0.8996 -0.0308
 9055SOL    HW138798   0.900   0.626  12.994 -1.5689 -0.5404 -4.5087
 9055SOL    HW238799   0.836   0.727  12.900 -2.0817  1.1733  0.5123
 9056SOL     OW38800   4.028   2.881  10.488 -0.1424  0.4211  0.0315
 9056SOL    HW138801   3.957   2.932  10.527 -1.1227 -1.9269  1.3361
 9056SOL    HW238802   3.982   2.813  10.440 -0.4109  1.0294 -0.5732
 9057SOL     OW38803   0.731   1.456   5.775 -0.0799 -0.2067  0.6334
 9057SOL    HW138804   0.789   1.433   5.846 -0.6861 -0.2604  1.1130
 9057SOL    HW238805   0.700   1.365   5.769  2.1599 -0.8486 -1.0512
 9058SOL     OW38806   3.417   4.217   3.210  0.2352  0.2757  0.2281
 9058SOL    HW138807   3.495   4.161   3.206  0.4564  0.5517  0.6376
 9058SOL    HW238808   3.418   4.240   3.303 -2.1384  2.7433 -0.3424
 9059SOL     OW38809   3.288   3.164  12.467  0.9112  0.3952  0.4950
 9059SOL    HW138810   3.288   3.171  12.371 -1.4354 -1.7587  0.3132
 9059SOL    HW238811   3.362   3.220  12.487 -0.3719  1.1686  3.0421
 9060SOL     OW38812   2.081   3.680   6.838 -0.1858 -0.4974 -0.1183
 9060SOL    HW138813   2.166   3.717   6.859 -1.4679  2.0528  0.5064
 9060SOL    HW238814   2.099   3.659   6.747  2.7665 -1.3215  0.6752
 9061SOL     OW38815   1.215   0.793   6.442  0.7805 -0.2503  0.4298
 9061SOL    HW138816   1.239   0.725   6.504 -1.1118 -1.9087 -0.6527
 9061SOL    HW238817   1.147   0.838   6.493  1.7760  1.1610  0.5166
 9062SOL     OW38818   0.239   3.209   4.092  0.1894  0.3814 -0.3172
 9062SOL    HW138819   0.215   3.297   4.123 -0.9659 -0.6939  1.7891
 9062SOL    HW238820   0.335   3.211   4.086  0.5472  1.3434  5.2562
 9063SOL     OW38821   0.837   3.274   8.020 -0.0298 -0.0016  0.7290
 9063SOL    HW138822   0.857   3.286   8.113  1.2880  0.8469  0.3463
 9063SOL    HW238823   0.753   3.318   8.011  0.3065  0.4246 -0.2653
 9064SOL     OW38824   1.516   3.764   5.118 -0.2850 -0.1740 -0.0085
 9064SOL    HW138825   1.545   3.706   5.188  2.4456 -0.9713 -1.8006
 9064SOL    HW238826   1.494   3.845   5.165 -0.5637 -1.0367  1.3295
 9065SOL     OW38827   0.065   4.394   8.390 -0.2260 -0.1074 -0.1602
 9065SOL    HW138828   0.116   4.383   8.310  1.8845 -0.3848  1.2080
 9065SOL    HW238829   4.720   4.433   8.363 -1.1898 -2.1001 -0.1055
 9066SOL     OW38830   2.371   3.623  11.772  0.2869 -0.3195  0.1796
 9066SOL    HW138831   2.283   3.588  11.756 -0.2501  1.1165  0.0380
 9066SOL    HW238832   2.348   3.715  11.783  0.8461  0.1117 -2.2363
 9067SOL     OW38833   2.539   2.555   6.288 -0.2027  0.4445 -0.0228
 9067SOL    HW138834   2.472   2.579   6.352 -0.3991  0.3700 -0.2013
 9067SOL    HW238835   2.571   2.639   6.254 -1.0369  0.5114 -0.6427
 9068SOL     OW38836   1.331   4.703   2.925 -0.5616  0.1348 -0.2491
 9068SOL    HW138837   1.299   0.054   2.912 -1.0213  0.0786  0.5382
 9068SOL    HW238838   1.316   4.696   3.019 -0.1132 -1.7411 -0.3153
 9069SOL     OW38839   4.629   3.530   2.638 -0.4254 -0.3706  0.0242
 9069SOL    HW138840   4.712   3.535   2.591 -1.4438  0.2751 -1.7372
 9069SOL    HW238841   4.653   3.521   2.730  0.7794  2.2037 -0.0331
 9070SOL     OW38842   2.302   4.603   5.817 -0.4365  0.1644  0.0638
 9070SOL    HW138843   2.257   4.682   5.846 -1.8116 -0.5962  0.0161
 9070SOL    HW238844   2.390   4.606   5.854  0.1730 -0.1924 -1.3311
 9071SOL     OW38845   2.905   3.503   2.591  0.1907  0.0630 -0.2079
 9071SOL    HW138846   2.898   3.444   2.667 -0.3837  0.3379 -0.0504
 9071SOL    HW238847   2.925   3.437   2.524  2.5608 -1.0867  1.6198
 9072SOL     OW38848   0.837   2.638   6.149 -0.1824 -0.1926 -0.1332
 9072SOL    HW138849   0.889   2.623   6.070 -0.8380  4.6962 -1.4572
 9072SOL    HW238850   0.747   2.644   6.118 -0.6733  0.5011  1.4225
 9073SOL     OW38851   2.497   4.185   3.765 -0.1855 -0.1998 -0.2892
 9073SOL    HW138852   2.485   4.279   3.751  1.5681 -0.5224 -3.7612
 9073SOL    HW238853   2.452   4.156   3.686  0.0282  1.6300 -1.0853
 9074SOL     OW38854   2.673   1.966  15.090 -0.5066  0.2790  0.1693
 9074SOL    HW138855   2.759   1.969  15.132  0.3256  0.9528 -1.5595
 9074SOL    HW238856   2.619   1.926  15.158 -3.2057  2.9214 -0.4133
 9075SOL     OW38857   2.227   3.995   0.470  0.1915 -0.6569 -0.2239
 9075SOL    HW138858   2.141   3.981   0.509 -0.4826  1.0804 -1.1047
 9075SOL    HW238859   2.215   4.080   0.427  1.4367  0.2979  1.2964
 9076SOL     OW38860   1.571   3.162   0.891 -0.0240 -0.8511  0.3796
 9076SOL    HW138861   1.509   3.091   0.872  0.8661 -2.0982  2.1174
 9076SOL    HW238862   1.530   3.242   0.861  0.9526 -1.0458 -1.4502
 9077SOL     OW38863   1.197   3.785  12.961 -0.6505  0.7286 -0.0361
 9077SOL    HW138864   1.111   3.808  12.995 -0.2057  3.8680 -1.0317
 9077SOL    HW238865   1.261   3.815  13.025 -1.2053  2.6110 -0.3690
 9078SOL     OW38866   2.859   0.821   0.165 -0.0598  0.6195 -0.2492
 9078SOL    HW138867   2.766   0.822   0.142  0.1422  1.0659 -1.0698
 9078SOL    HW238868   2.856   0.778   0.250 -0.5368 -0.0012 -0.5786
 9079SOL     OW38869   2.347   3.698  16.554  0.2744  0.4732 -0.5597
 9079SOL    HW138870   2.397   3.647  16.490 -2.6469 -1.3129 -1.4605
 9079SOL    HW238871   2.385   3.681  16.640 -1.6736  0.7684  0.3747
 9080SOL     OW38872   1.900   1.310   4.043 -0.2665  0.2114  0.3973
 9080SOL    HW138873   1.955   1.377   4.002  1.2618 -1.0867  0.3128
 9080SOL    HW238874   1.891   1.242   3.976  0.5578 -0.1808  0.6851
 9081SOL     OW38875   3.132   3.672   7.505 -0.3673 -0.7660 -0.4647
 9081SOL    HW138876   3.066   3.608   7.479  0.4996 -2.4567  1.5156
 9081SOL    HW238877   3.078   3.751   7.498 -1.8036 -1.7344 -0.2919
 9082SOL     OW38878   3.685   3.683  11.530 -0.0469  0.1272  0.1206
 9082SOL    HW138879   3.626   3.749  11.567  0.3926  0.2196  0.6730
 9082SOL    HW238880   3.658   3.596  11.562  0.1240 -0.1661 -0.5366
 9083SOL     OW38881   0.542   3.450   2.298 -0.5452  0.0135  0.4620
 9083SOL    HW138882   0.471   3.387   2.308  1.1768 -2.1410 -0.7087
 9083SOL    HW238883   0.541   3.480   2.389  2.1312  0.6530  0.2853
 9084SOL     OW38884   3.160   4.097  14.501  0.4300 -0.1659 -0.1309
 9084SOL    HW138885   3.140   4.058  14.585 -1.2637  1.0738  0.0431
 9084SOL    HW238886   3.256   4.102  14.503  0.4764 -2.3636  1.8645
 9085SOL     OW38887   2.908   0.135   4.543 -0.0340 -0.3526 -0.0061
 9085SOL    HW138888   2.874   0.135   4.454 -0.0293  0.1828 -0.0045
 9085SOL    HW238889   2.826   0.135   4.593 -0.1414  0.0820 -0.1823
 9086SOL     OW38890   1.722   0.461   5.436  0.5670  0.6384 -0.4087
 9086SOL    HW138891   1.817   0.472   5.439  0.5149  1.0789 -0.4899
 9086SOL    HW238892   1.708   0.454   5.531  1.9996 -1.7314 -0.3679
 9087SOL     OW38893   0.182   4.266  15.136  0.2026 -0.3954 -1.0832
 9087SOL    HW138894   0.257   4.261  15.077 -0.4705  1.0033 -2.0546
 9087SOL    HW238895   0.198   4.351  15.178 -2.0591 -1.7403  2.5143
 9088SOL     OW38896   2.811   1.426   5.487 -0.1810 -0.0995  0.0112
 9088SOL    HW138897   2.855   1.427   5.572 -0.4302  0.4468  0.1381
 9088SOL    HW238898   2.833   1.340   5.452  0.1162 -0.6800  1.6496
 9089SOL     OW38899   1.146   2.859  14.923  0.1446 -0.0466  0.2740
 9089SOL    HW138900   1.059   2.826  14.900 -0.0998 -0.0425  1.2008
 9089SOL    HW238901   1.122   2.951  14.920  0.1246 -0.1282 -2.1562
 9090SOL     OW38902   4.273   1.224   3.598 -0.1228 -0.4941  0.2745
 9090SOL    HW138903   4.311   1.288   3.658 -3.1910  1.8596 -0.2917
 9090SOL    HW238904   4.297   1.137   3.632 -0.0397 -0.3690  0.5395
 9091SOL     OW38905   1.014   0.154  12.958  0.1699  0.2750  0.0602
 9091SOL    HW138906   0.981   0.078  12.910 -1.5234  1.3965 -0.5549
 9091SOL    HW238907   1.035   0.123  13.046 -0.9174 -2.5683 -0.6601
 9092SOL     OW38908   2.435   1.695   4.739 -0.1079  0.5330  0.0664
 9092SOL    HW138909   2.408   1.643   4.815 -1.7321  0.1872 -0.7323
 9092SOL    HW238910   2.355   1.729   4.699 -0.3833  1.7716  1.6431
 9093SOL     OW38911   1.461   0.367  15.290  0.2670  0.3713  0.2313
 9093SOL    HW138912   1.477   0.378  15.383  0.0914  2.2359  0.0465
 9093SOL    HW238913   1.401   0.292  15.291 -0.4215  0.9180  0.1092
 9094SOL     OW38914   1.586   1.548   9.350 -0.1669 -0.0334  0.0036
 9094SOL    HW138915   1.513   1.603   9.378  0.6689  1.3160 -0.4822
 9094SOL    HW238916   1.537   1.508   9.279  1.2155 -1.0608 -0.3890
 9095SOL     OW38917   2.764   1.748   4.980 -0.1292  0.1028 -0.4131
 9095SOL    HW138918   2.783   1.661   5.017 -0.7999  0.6371  1.2117
 9095SOL    HW238919   2.766   1.801   5.061 -0.1526  0.2618 -0.5167
 9096SOL     OW38920   3.031   0.614   6.260  0.0533 -0.6298 -0.2425
 9096SOL    HW138921   2.960   0.549   6.257 -0.8639  0.3745 -0.2116
 9096SOL    HW238922   2.992   0.689   6.214  1.0942 -1.3605 -2.3467
 9097SOL     OW38923   4.395   4.534   7.245  0.5004 -0.9294 -0.1085
 9097SOL    HW138924   4.409   4.539   7.150 -3.9614  2.6174 -0.5375
 9097SOL    HW238925   4.358   4.446   7.246 -2.4449  0.2792 -2.1337
 9098SOL     OW38926   3.621   2.151   8.284 -0.3653 -0.3111  0.1234
 9098SOL    HW138927   3.550   2.212   8.266  0.6092  0.7617 -0.0899
 9098SOL    HW238928   3.605   2.150   8.378 -1.0453 -0.9254  0.0025
 9099SOL     OW38929   2.108   0.628   2.516 -0.3449  0.0310  0.2609
 9099SOL    HW138930   2.182   0.667   2.469 -1.5317  0.6905 -1.0421
 9099SOL    HW238931   2.062   0.705   2.550  0.6972  0.8190 -0.1273
 9100SOL     OW38932   3.092   0.200  14.085 -1.0280 -0.3628 -0.0305
 9100SOL    HW138933   3.140   0.123  14.114 -0.2057  0.2371  0.1924
 9100SOL    HW238934   3.128   0.269  14.140 -0.4775  3.0046 -4.6474
 9101SOL     OW38935   2.296   2.475  13.860  0.0498 -0.3256  0.3217
 9101SOL    HW138936   2.345   2.537  13.805 -1.0747 -0.6952 -1.0916
 9101SOL    HW238937   2.216   2.525  13.880 -0.8086 -1.3860 -0.5004
 9102SOL     OW38938   1.248   1.289   1.991  0.1730 -0.2862 -0.5476
 9102SOL    HW138939   1.262   1.198   2.016 -2.7787 -0.0802  1.8700
 9102SOL    HW238940   1.341   1.310   1.979  0.3433  0.4692  2.0830
 9103SOL     OW38941   3.024   4.704   6.476 -0.9601  0.0347 -0.2754
 9103SOL    HW138942   3.063   4.715   6.563  0.0590  0.5096 -0.8044
 9103SOL    HW238943   3.067   4.621   6.453 -0.6735 -0.0791  0.6602
 9104SOL     OW38944   0.815   2.422   4.506  0.3012  0.3054  0.2736
 9104SOL    HW138945   0.895   2.383   4.470 -0.0083 -0.4484  0.3904
 9104SOL    HW238946   0.747   2.422   4.439 -1.2024  2.3889  1.8013
 9105SOL     OW38947   4.167   0.972   4.273 -0.1757 -0.9524 -0.0481
 9105SOL    HW138948   4.179   0.888   4.318 -0.8964  0.0857  2.1188
 9105SOL    HW238949   4.119   0.952   4.193  1.4376 -1.1832 -0.9344
 9106SOL     OW38950   3.754   3.446   1.675  0.0260  0.2288 -0.0654
 9106SOL    HW138951   3.714   3.416   1.756 -0.1625  0.0765 -0.2123
 9106SOL    HW238952   3.748   3.539   1.693 -0.7970  0.2845 -0.6391
 9107SOL     OW38953   4.635   0.443  13.411  0.1878 -0.2046  0.3236
 9107SOL    HW138954   4.607   0.469  13.323  0.9593 -1.4045 -0.2772
 9107SOL    HW238955   4.716   0.393  13.396  2.4342  3.9016 -1.2092
 9108SOL     OW38956   2.317   1.954   3.114 -0.3997 -0.2424  0.0286
 9108SOL    HW138957   2.336   1.892   3.184 -1.4986 -1.7755 -1.0325
 9108SOL    HW238958   2.224   1.938   3.100 -0.1941 -1.6278  0.2969
 9109SOL     OW38959   2.778   1.527   2.545 -0.6247  0.3310  0.6184
 9109SOL    HW138960   2.719   1.464   2.586  0.3054 -0.4961  0.6766
 9109SOL    HW238961   2.850   1.472   2.515  0.8412  1.3433  2.2734
 9110SOL     OW38962   0.828   4.198   9.858 -0.2178 -0.4079 -0.7105
 9110SOL    HW138963   0.810   4.123   9.913  1.0619 -1.1627 -1.3153
 9110SOL    HW238964   0.902   4.171   9.804  1.5226  0.1917  1.3397
 9111SOL     OW38965   1.552   3.597  13.157 -0.2445  0.3434  0.3553
 9111SOL    HW138966   1.515   3.683  13.137 -2.6187 -0.3398  1.8283
 9111SOL    HW238967   1.605   3.626  13.231  0.0192  0.5950  0.0693
 9112SOL     OW38968   0.549   3.293  12.533  0.1605 -0.1055  0.3244
 9112SOL    HW138969   0.595   3.299  12.617  0.8072 -1.7717  0.0995
 9112SOL    HW238970   0.606   3.342  12.474 -2.4595  3.6975  0.9752
 9113SOL     OW38971   0.360   2.318   2.119  0.3210 -0.3863  0.0181
 9113SOL    HW138972   0.409   2.267   2.054 -2.8790 -1.7835 -1.3263
 9113SOL    HW238973   0.273   2.327   2.080  0.5351  3.1461  0.4064
 9114SOL     OW38974   4.454   3.526   6.491  0.6761 -0.5161  0.2483
 9114SOL    HW138975   4.415   3.439   6.489 -1.3718  0.4091  0.4788
 9114SOL    HW238976   4.405   3.569   6.421  0.6503 -0.1727  0.4772
 9115SOL     OW38977   4.716   4.686   5.634 -0.0911  0.4079 -0.0076
 9115SOL    HW138978   4.686   4.721   5.550 -0.2632 -1.5189 -0.7536
 9115SOL    HW238979   4.683   4.597   5.626 -0.8740  0.5510  1.6238
 9116SOL     OW38980   1.697   3.500  12.895 -0.3103 -0.2609 -0.8201
 9116SOL    HW138981   1.668   3.545  12.975  2.2549  1.8830 -1.0882
 9116SOL    HW238982   1.733   3.572  12.843  0.2271 -0.5869 -0.8958
 9117SOL     OW38983   3.294   3.965   4.610  0.2450  0.2794  0.7340
 9117SOL    HW138984   3.207   4.001   4.597  1.0605  1.5286 -1.2844
 9117SOL    HW238985   3.294   3.923   4.696 -0.5656 -0.7018  0.2510
 9118SOL     OW38986   3.914   2.017   9.059 -0.1755  0.6033  0.3781
 9118SOL    HW138987   3.929   1.930   9.024  1.1047  0.1765  1.9866
 9118SOL    HW238988   3.998   2.056   9.035 -1.0655  1.2933 -1.6209
 9119SOL     OW38989   1.025   1.247   3.520 -0.1783  0.2411  0.0498
 9119SOL    HW138990   0.941   1.202   3.511  0.1665 -1.1373  3.6156
 9119SOL    HW238991   0.993   1.337   3.512 -2.1441 -0.6763 -2.1874
 9120SOL     OW38992   3.124   4.589   0.305  0.2689  0.0670 -0.7098
 9120SOL    HW138993   3.109   4.635   0.387  1.0949 -0.2810 -0.3651
 9120SOL    HW238994   3.132   4.660   0.242 -2.7968  2.1287  1.1879
 9121SOL     OW38995   1.965   2.210   5.517  0.0194  0.1516  0.2175
 9121SOL    HW138996   1.996   2.301   5.517  0.1371  0.1112  1.9602
 9121SOL    HW238997   2.028   2.180   5.451 -0.8822  0.2626 -0.6875
 9122SOL     OW38998   3.329   0.747   8.830  0.1774  0.4536  0.9239
 9122SOL    HW138999   3.355   0.691   8.903  0.8287 -0.2434  0.1568
 9122SOL    HW239000   3.294   0.826   8.870 -0.4983  0.3858  0.4785
 9123SOL     OW39001   4.180   3.824  13.667  0.0558  0.1057  0.5034
 9123SOL    HW139002   4.184   3.916  13.693  0.2191  0.5065 -0.9719
 9123SOL    HW239003   4.118   3.795  13.735  2.1520 -0.9660  1.9665
 9124SOL     OW39004   1.874   0.011   4.109 -0.5530  0.5201 -0.1021
 9124SOL    HW139005   1.826   0.011   4.027 -0.6305  1.3365 -0.0549
 9124SOL    HW239006   1.840   0.088   4.154  0.1141  1.3239 -0.9809
 9125SOL     OW39007   4.500   2.048   0.009  0.0059  0.2488  0.5154
 9125SOL    HW139008   4.551   2.058  17.677  0.2901 -0.5432  0.5994
 9125SOL    HW239009   4.476   2.140   0.019 -2.7543 -0.6279  1.8399
 9126SOL     OW39010   2.659   1.416  11.911  0.1260  0.5575 -0.0052
 9126SOL    HW139011   2.682   1.337  11.862  1.7713 -0.1583  1.9046
 9126SOL    HW239012   2.732   1.415  11.973  0.7024 -1.3960 -0.7162
 9127SOL     OW39013   4.228   4.629   8.167 -0.4817  0.0107  0.5643
 9127SOL    HW139014   4.264   4.686   8.235 -1.5400 -0.4454  1.5196
 9127SOL    HW239015   4.314   4.599   8.137 -1.2042  1.6595 -3.1208
 9128SOL     OW39016   0.284   0.836   3.011  0.7501 -0.4244 -0.2710
 9128SOL    HW139017   0.294   0.783   3.090 -0.1285  0.6305  0.5489
 9128SOL    HW239018   0.300   0.766   2.948  3.0951  1.3899 -1.6853
 9129SOL     OW39019   0.886   1.556  16.357 -0.5383 -0.1762  0.3202
 9129SOL    HW139020   0.943   1.624  16.393  0.3253 -0.2890 -0.8154
 9129SOL    HW239021   0.893   1.492  16.427 -2.2109  0.4251  1.0163
 9130SOL     OW39022   0.271   0.211  13.497 -0.2776  0.3229 -0.0343
 9130SOL    HW139023   0.273   0.134  13.553 -0.8839 -0.2759 -0.8408
 9130SOL    HW239024   0.365   0.228  13.508 -0.5555  0.5248  2.0671
 9131SOL     OW39025   2.052   0.699   5.036 -0.0043  0.3751 -0.2245
 9131SOL    HW139026   1.984   0.748   5.082 -1.3212 -1.5594 -0.1232
 9131SOL    HW239027   2.015   0.696   4.948 -0.4348 -2.2272  0.0603
 9132SOL     OW39028   3.359   3.859   5.264  0.1925  0.6852  0.0635
 9132SOL    HW139029   3.291   3.856   5.197  1.1189  1.2354 -0.9087
 9132SOL    HW239030   3.330   3.784   5.316  2.4237  0.8112  1.5243
 9133SOL     OW39031   2.801   0.017   1.629  0.3565  0.6261 -0.5669
 9133SOL    HW139032   2.830   0.056   1.547 -0.7512 -0.3381 -1.4261
 9133SOL    HW239033   2.742   0.083   1.664 -1.8919 -2.3305  1.2280
 9134SOL     OW39034   0.469   3.649   5.785 -0.0359  0.2716 -1.0131
 9134SOL    HW139035   0.418   3.693   5.854  0.3445  0.5872 -0.9354
 9134SOL    HW239036   0.453   3.556   5.803  1.8291  0.5780  2.1536
 9135SOL     OW39037   3.257   4.197   4.008  0.4471  0.2754  0.0748
 9135SOL    HW139038   3.301   4.267   4.057  0.5717 -0.8537  1.5687
 9135SOL    HW239039   3.334   4.159   3.965 -1.4071 -0.4719 -2.5875
 9136SOL     OW39040   0.349   3.153   8.979  0.5965 -0.3256 -0.2187
 9136SOL    HW139041   0.261   3.141   9.015  0.8227 -1.2568  0.0215
 9136SOL    HW239042   0.332   3.162   8.885 -0.6633 -1.7033 -0.1166
 9137SOL     OW39043   4.047   4.423   8.228 -0.2370 -0.0958  0.2733
 9137SOL    HW139044   4.099   4.501   8.207 -2.6751  0.7623 -2.6202
 9137SOL    HW239045   4.031   4.450   8.318 -1.0647 -0.9607  0.3848
 9138SOL     OW39046   4.469   3.576  16.785  0.8252  0.5775  0.3768
 9138SOL    HW139047   4.564   3.585  16.785  0.9478 -0.6859  3.7527
 9138SOL    HW239048   4.451   3.567  16.691  1.1125  0.2743  0.3523
 9139SOL     OW39049   1.993   3.079   5.970  0.1604 -0.2800  0.1171
 9139SOL    HW139050   2.017   3.061   6.060 -0.3589 -1.6176 -0.0010
 9139SOL    HW239051   1.899   3.058   5.973  0.5164 -1.9290 -0.3251
 9140SOL     OW39052   1.446   2.682  15.295 -0.7159 -0.0068  0.6109
 9140SOL    HW139053   1.373   2.620  15.291 -0.2587 -0.6405  2.3323
 9140SOL    HW239054   1.403   2.767  15.293 -2.7191 -1.0566 -1.1013
 9141SOL     OW39055   3.553   0.022   5.744  0.3869  0.5341  0.1474
 9141SOL    HW139056   3.511   0.007   5.659 -1.2816 -2.7472  1.5470
 9141SOL    HW239057   3.614   4.686   5.749  1.9164  1.7588 -0.4468
 9142SOL     OW39058   2.410   3.531   5.881 -0.4703 -0.7825  0.2698
 9142SOL    HW139059   2.434   3.506   5.970 -0.9300  0.6425  0.7997
 9142SOL    HW239060   2.321   3.495   5.882  0.2656 -2.6156 -1.5689
 9143SOL     OW39061   4.428   4.186   4.915 -0.4382 -0.0296 -0.2143
 9143SOL    HW139062   4.436   4.207   4.822  1.4198 -0.9752 -0.2693
 9143SOL    HW239063   4.489   4.252   4.950  0.8044  1.1097 -4.4478
 9144SOL     OW39064   0.047   2.093   6.891  0.0330  0.2148  0.0445
 9144SOL    HW139065   0.139   2.078   6.915  0.4816 -0.5006 -2.1632
 9144SOL    HW239066   0.004   2.016   6.929 -0.0116  0.3745  0.3212
 9145SOL     OW39067   2.652   3.996  15.286  0.1186  0.5880 -0.5529
 9145SOL    HW139068   2.624   4.040  15.206 -1.4776 -0.6343 -0.6652
 9145SOL    HW239069   2.572   4.005  15.337  1.7429  0.0286  2.0807
 9146SOL     OW39070   3.879   4.585   5.451  0.3539 -0.3796 -0.0584
 9146SOL    HW139071   3.786   4.566   5.438  0.1439  0.2793  0.4685
 9146SOL    HW239072   3.890   4.666   5.401 -3.0052  2.2879  3.5521
 9147SOL     OW39073   1.669   3.011   3.991  0.2125  0.1207 -0.4073
 9147SOL    HW139074   1.600   3.055   3.942  0.1392 -0.1993 -0.5902
 9147SOL    HW239075   1.620   3.002   4.073  1.7028  0.2022  0.4925
 9148SOL     OW39076   2.272   2.343   0.139 -0.6114 -0.7218 -0.0050
 9148SOL    HW139077   2.280   2.250   0.122 -1.3667 -1.2806  2.7267
 9148SOL    HW239078   2.216   2.336   0.216  0.4323 -1.7174  0.6617
 9149SOL     OW39079   3.959   1.778   6.378 -0.1342 -0.5037 -0.3611
 9149SOL    HW139080   4.039   1.735   6.408 -1.1183 -0.5865  2.0786
 9149SOL    HW239081   3.954   1.864   6.419 -1.2142 -0.5153 -0.4675
 9150SOL     OW39082   1.853   4.727   9.834  0.2149  0.1354 -0.0861
 9150SOL    HW139083   1.764   0.024   9.822  0.0366 -0.0718  0.6123
 9150SOL    HW239084   1.849   4.689   9.922  1.1937  1.7659  0.6740
 9151SOL     OW39085   4.222   4.420   1.468  0.3889  0.5508  0.8323
 9151SOL    HW139086   4.264   4.477   1.404  0.1271  0.4604  0.5773
 9151SOL    HW239087   4.132   4.420   1.434  0.9819 -0.9986 -0.7889
 9152SOL     OW39088   2.961   4.073   8.170  0.4216  0.3344 -0.1362
 9152SOL    HW139089   2.931   4.106   8.254  2.7445  0.2290  0.7333
 9152SOL    HW239090   2.876   4.070   8.125 -0.0411 -0.2624  0.7909
 9153SOL     OW39091   4.461   4.243  16.283 -0.3049  0.0565 -0.1791
 9153SOL    HW139092   4.517   4.217  16.210  0.2901 -0.1136  0.3339
 9153SOL    HW239093   4.382   4.191  16.266 -1.4177  2.0406 -0.9783
 9154SOL     OW39094   0.952   3.215   9.088  0.1065  0.0076  0.4535
 9154SOL    HW139095   0.937   3.274   9.162 -1.4157  0.8077 -0.4988
 9154SOL    HW239096   0.923   3.132   9.126  1.7339 -1.4633 -1.5480
 9155SOL     OW39097   1.187   2.198   8.556 -0.2193  0.1089  0.1655
 9155SOL    HW139098   1.190   2.201   8.651  1.0462 -0.1017  0.1359
 9155SOL    HW239099   1.260   2.137   8.544  0.9576  1.6142 -0.4020
 9156SOL     OW39100   2.719   1.382   7.658 -0.3834 -0.0190  0.0725
 9156SOL    HW139101   2.697   1.316   7.724  0.6460 -0.6418 -0.2091
 9156SOL    HW239102   2.626   1.386   7.637 -0.6137  1.2006  1.3145
 9157SOL     OW39103   0.166   1.351  11.127  0.6753 -0.4806  0.1037
 9157SOL    HW139104   0.102   1.395  11.183  2.2732  2.2896 -0.2378
 9157SOL    HW239105   0.247   1.403  11.131  1.0511 -1.1963  1.8874
 9158SOL     OW39106   4.000   4.653   0.340 -0.3581  0.2419 -0.0832
 9158SOL    HW139107   3.959   4.578   0.383  1.1560 -0.4371  0.1656
 9158SOL    HW239108   4.088   4.617   0.330 -0.3011  1.0532 -2.5182
 9159SOL     OW39109   0.084   1.650   1.984  0.3767  0.2386 -0.0583
 9159SOL    HW139110   0.115   1.645   1.894 -0.1267 -0.0179 -0.2226
 9159SOL    HW239111   0.090   1.559   2.012  0.8642 -0.5610 -2.7809
 9160SOL     OW39112   2.059   4.537   0.972  0.4419 -0.2427 -0.0078
 9160SOL    HW139113   2.009   4.543   0.891  0.2846  0.2529  0.1265
 9160SOL    HW239114   2.042   4.447   1.002  0.7341 -0.2021  0.2887
 9161SOL     OW39115   0.218   0.936   7.941 -0.4807  0.0902 -0.2908
 9161SOL    HW139116   0.273   1.002   7.984 -0.3647 -1.0268  1.2872
 9161SOL    HW239117   0.131   0.961   7.974  0.4223  1.1580  1.3225
 9162SOL     OW39118   4.617   3.803  14.323  0.2351  0.4952 -0.0811
 9162SOL    HW139119   4.708   3.775  14.328 -0.6307 -2.4076 -0.8038
 9162SOL    HW239120   4.584   3.752  14.397 -0.2634  0.2257 -0.4947
 9163SOL     OW39121   0.951   0.047   0.020  0.0374 -0.4291  0.4029
 9163SOL    HW139122   0.984   4.735  17.693  0.2385  3.4113 -2.0172
 9163SOL    HW239123   1.032   0.085   0.053  0.3676 -1.1649  0.4585
 9164SOL     OW39124   3.137   4.718  17.020  0.1793  0.4707  0.2069
 9164SOL    HW139125   3.207   0.034  17.059  0.2503 -0.7825  1.7748
 9164SOL    HW239126   3.188   4.639  17.001 -0.5546  0.8585 -3.4645
 9165SOL     OW39127   1.967   1.497  12.809  0.4262  0.0260  0.3936
 9165SOL    HW139128   1.991   1.485  12.718 -1.8300 -0.0599 -0.2015
 9165SOL    HW239129   2.043   1.548  12.836  0.1574  0.2080  0.8069
 9166SOL     OW39130   3.325   1.199  10.499  0.1164 -0.2211  0.0455
 9166SOL    HW139131   3.406   1.161  10.534  0.0957 -1.1991 -0.9704
 9166SOL    HW239132   3.309   1.135  10.430 -0.8189  1.2380 -1.0760
 9167SOL     OW39133   1.036   4.141   2.933 -0.2939  0.3168  0.4564
 9167SOL    HW139134   1.132   4.137   2.929 -0.2923  0.6656  0.1878
 9167SOL    HW239135   0.998   4.175   2.852 -0.4170 -2.1523 -0.5364
 9168SOL     OW39136   0.034   0.533  16.534  0.4029 -0.3647  0.4112
 9168SOL    HW139137   0.053   0.487  16.452  1.8376  1.0770 -0.0657
 9168SOL    HW239138   0.120   0.535  16.576  0.9846 -2.7786 -0.6979
 9169SOL     OW39139   3.579   2.169   8.565 -0.0191 -0.1485 -0.3208
 9169SOL    HW139140   3.661   2.173   8.615 -0.6508  1.1437  0.6106
 9169SOL    HW239141   3.530   2.095   8.600  1.6556  0.2815  2.9566
 9170SOL     OW39142   1.695   1.529   7.792 -0.1011 -0.3822  0.2136
 9170SOL    HW139143   1.777   1.578   7.781 -0.0984 -0.1178  1.4377
 9170SOL    HW239144   1.689   1.532   7.887 -1.6701  0.5995  0.0823
 9171SOL     OW39145   4.332   1.987   9.068 -0.2320  0.2909 -0.1760
 9171SOL    HW139146   4.420   1.953   9.084 -0.2908 -0.0157 -0.4911
 9171SOL    HW239147   4.294   1.904   9.037 -2.0291  0.7308  0.8332
 9172SOL     OW39148   3.543   2.318   2.273 -0.1986  0.1649  0.1280
 9172SOL    HW139149   3.607   2.249   2.289 -0.0323  0.0895 -0.8827
 9172SOL    HW239150   3.519   2.284   2.187 -0.6599  0.4008  0.1595
 9173SOL     OW39151   2.118   2.760  11.315  0.2313  0.3257 -0.0497
 9173SOL    HW139152   2.163   2.708  11.382 -0.0022 -0.7695 -0.7446
 9173SOL    HW239153   2.188   2.765  11.250 -0.3649  3.7236 -0.4260
 9174SOL     OW39154   3.136   0.113   6.726 -0.2424 -0.2701 -0.1848
 9174SOL    HW139155   3.046   0.143   6.740  0.1165  0.3730  0.7752
 9174SOL    HW239156   3.150   0.043   6.790 -0.8188  0.1191  0.3686
 9175SOL     OW39157   2.714   1.743   6.115 -0.2932 -0.3631 -0.0299
 9175SOL    HW139158   2.802   1.750   6.153 -0.3215  0.8540 -0.1923
 9175SOL    HW239159   2.729   1.743   6.021  2.0518 -2.5256  0.3344
 9176SOL     OW39160   1.801   1.033   7.270 -0.8334  0.3621  0.2635
 9176SOL    HW139161   1.828   1.105   7.327 -0.1059  0.6483 -0.4559
 9176SOL    HW239162   1.741   1.076   7.210 -0.4152  1.3891  0.5883
 9177SOL     OW39163   3.515   3.323   9.478  0.1520  0.1556  0.7689
 9177SOL    HW139164   3.461   3.390   9.520  1.2757  1.3839  0.2770
 9177SOL    HW239165   3.523   3.256   9.545 -0.6825 -0.1659  0.5421
 9178SOL     OW39166   2.460   1.919   6.953 -0.0333 -0.0004 -0.4581
 9178SOL    HW139167   2.492   2.000   6.914  2.0015 -1.9406 -2.8787
 9178SOL    HW239168   2.502   1.860   6.890 -2.8465 -2.0335 -0.4494
 9179SOL     OW39169   0.565   3.786   7.057  0.2925 -0.2546 -0.2393
 9179SOL    HW139170   0.546   3.761   7.147 -1.9401 -1.8517 -1.1585
 9179SOL    HW239171   0.627   3.716   7.036  0.4739  0.6156 -2.6166
 9180SOL     OW39172   4.053   2.308   4.928  0.6101 -0.2271  0.0565
 9180SOL    HW139173   4.034   2.387   4.979  1.1551  0.1383 -0.3057
 9180SOL    HW239174   3.989   2.243   4.957 -0.4963 -0.4114 -2.7637
 9181SOL     OW39175   4.093   2.227  14.378  0.1336  0.1373 -0.2925
 9181SOL    HW139176   4.169   2.171  14.392  0.4483  0.5211 -0.4781
 9181SOL    HW239177   4.053   2.197  14.296 -2.1490 -0.4748  1.0231
 9182SOL     OW39178   3.468   1.482   2.273 -0.3069 -0.2621 -0.5073
 9182SOL    HW139179   3.430   1.453   2.356  1.1440  0.9374  0.5720
 9182SOL    HW239180   3.498   1.397   2.240  1.0868  0.0516 -0.0479
 9183SOL     OW39181   4.383   0.175  10.818  0.4802  0.6724 -0.6025
 9183SOL    HW139182   4.299   0.185  10.773  0.8459  0.1632 -1.3886
 9183SOL    HW239183   4.448   0.202  10.753  0.0140 -0.8384 -1.6852
 9184SOL     OW39184   3.678   0.660   3.365  0.5883  0.1919 -0.4077
 9184SOL    HW139185   3.715   0.748   3.372 -0.3933  0.6483 -0.9293
 9184SOL    HW239186   3.584   0.670   3.381  0.5753  0.4720 -0.6556
 9185SOL     OW39187   1.085   4.388   6.800  0.1871  0.2775 -0.1142
 9185SOL    HW139188   1.041   4.331   6.737  1.7749 -0.7791 -0.2834
 9185SOL    HW239189   1.036   4.366   6.879  0.6221 -1.9962 -0.4531
 9186SOL     OW39190   3.194   0.751   7.529 -0.0396 -0.1063  0.0196
 9186SOL    HW139191   3.265   0.816   7.534 -0.0005 -0.1729  0.3228
 9186SOL    HW239192   3.132   0.800   7.583  1.1030  0.1321  1.1263
 9187SOL     OW39193   4.371   4.153   8.829  0.0183  0.5167 -0.0468
 9187SOL    HW139194   4.381   4.065   8.794 -0.0920  0.4367  0.1212
 9187SOL    HW239195   4.315   4.189   8.760 -2.3324 -2.8339  0.0946
 9188SOL     OW39196   4.526   4.196  13.919  0.0767  0.2250  0.1925
 9188SOL    HW139197   4.590   4.162  13.981  1.8613  0.3673 -1.5690
 9188SOL    HW239198   4.557   4.151  13.841  1.9642 -0.6843  1.4571
 9189SOL     OW39199   1.091   3.113   9.972 -0.1872 -0.4302  0.0161
 9189SOL    HW139200   1.118   3.140  10.060 -3.0978 -1.6007  1.2691
 9189SOL    HW239201   1.091   3.020   9.995 -0.4335 -0.7123 -1.1346
 9190SOL     OW39202   3.381   3.743   0.752 -0.1360  0.1534  0.0408
 9190SOL    HW139203   3.356   3.667   0.804  1.1965 -0.7043 -0.5799
 9190SOL    HW239204   3.301   3.769   0.706 -2.0602 -2.2758  2.0519
 9191SOL     OW39205   4.530   1.758   3.763 -0.2074 -0.0895  0.0117
 9191SOL    HW139206   4.517   1.805   3.680  1.1400  1.1492  0.5041
 9191SOL    HW239207   4.553   1.671   3.730 -0.6084  0.8619 -2.8227
 9192SOL     OW39208   0.349   0.854  17.235 -0.5568 -0.3472  0.2380
 9192SOL    HW139209   0.395   0.780  17.274 -0.6967 -1.0839 -1.0082
 9192SOL    HW239210   0.413   0.882  17.171  0.2242  0.1637  1.2436
 9193SOL     OW39211   4.252   1.621   6.168  0.6097  0.2059  0.1906
 9193SOL    HW139212   4.217   1.600   6.082 -1.2695 -0.0014  1.0191
 9193SOL    HW239213   4.314   1.690   6.145  1.7046  0.0035  2.4935
 9194SOL     OW39214   3.686   3.220   7.237 -0.3687  0.3838  0.1573
 9194SOL    HW139215   3.607   3.169   7.249  1.6029 -2.2524  1.9395
 9194SOL    HW239216   3.679   3.220   7.142  0.9789  0.6045  0.0573
 9195SOL     OW39217   0.172   0.755   6.423  0.6520 -0.3890  0.0125
 9195SOL    HW139218   0.092   0.791   6.460 -0.4665 -0.3072 -2.4897
 9195SOL    HW239219   0.234   0.782   6.491  2.7192  1.6181 -2.6560
 9196SOL     OW39220   4.373   3.838   3.228 -0.3279 -0.4302  0.3195
 9196SOL    HW139221   4.296   3.872   3.182 -0.2239 -0.6221  0.0060
 9196SOL    HW239222   4.423   3.805   3.154 -0.5270  0.1703 -0.0853
 9197SOL     OW39223   4.529   3.910  14.888 -0.2573  0.1277  0.1142
 9197SOL    HW139224   4.458   3.930  14.948 -0.1862 -0.6033  0.4431
 9197SOL    HW239225   4.499   3.822  14.864 -0.6468  0.5356 -0.8941
 9198SOL     OW39226   4.579   0.133   2.548  0.2360 -0.6804  0.2067
 9198SOL    HW139227   4.537   0.217   2.525 -1.9554 -1.4816  1.3382
 9198SOL    HW239228   4.534   0.062   2.503 -1.5212  1.0731 -0.8189
 9199SOL     OW39229   4.057   1.118   6.872  0.6392 -0.2262 -0.0162
 9199SOL    HW139230   4.049   1.193   6.931  0.3059 -0.8007  0.6629
 9199SOL    HW239231   4.057   1.154   6.784 -0.2651  0.8070  0.4111
 9200SOL     OW39232   3.617   3.683   3.695 -0.1404 -0.0276 -0.0316
 9200SOL    HW139233   3.674   3.747   3.652 -1.7060  1.0075 -0.5559
 9200SOL    HW239234   3.672   3.607   3.675  1.4504  1.0017  0.4039
 9201SOL     OW39235   0.888   3.620   4.009 -0.4027 -0.2158 -0.0936
 9201SOL    HW139236   0.940   3.540   3.997 -3.6659 -2.4268  0.3276
 9201SOL    HW239237   0.870   3.612   4.103 -0.5712  0.7278 -0.0524
 9202SOL     OW39238   3.310   4.560   9.195  0.2567  0.0822 -0.2493
 9202SOL    HW139239   3.365   4.568   9.117  1.1136  0.6615  0.4143
 9202SOL    HW239240   3.340   4.474   9.226  0.5460 -0.2090 -1.3451
 9203SOL     OW39241   3.993   1.838   8.175  0.4362  0.2941 -0.4103
 9203SOL    HW139242   3.956   1.862   8.090  0.8852  0.0212 -0.6820
 9203SOL    HW239243   4.022   1.924   8.206  1.3279 -0.1162 -0.1151
 9204SOL     OW39244   0.598   1.283  10.679  0.5227 -0.3834  0.1794
 9204SOL    HW139245   0.607   1.258  10.771 -0.3707  0.5851  0.5363
 9204SOL    HW239246   0.509   1.319  10.687  1.2920  1.7182 -0.6191
 9205SOL     OW39247   0.787   4.243  14.383  0.3352 -0.3027  0.0370
 9205SOL    HW139248   0.881   4.231  14.376  0.4684  0.2761  0.7995
 9205SOL    HW239249   0.746   4.164  14.347  0.5380 -0.2243 -0.3569
 9206SOL     OW39250   2.218   1.778   6.361  0.4255 -0.1041 -0.0521
 9206SOL    HW139251   2.279   1.840   6.321 -0.8249  0.2480 -1.4252
 9206SOL    HW239252   2.218   1.805   6.453  1.9788 -0.1830 -0.0316
 9207SOL     OW39253   3.375   0.644   5.678 -0.0038 -0.0774  0.3228
 9207SOL    HW139254   3.392   0.565   5.731 -1.6137 -1.0744 -0.6432
 9207SOL    HW239255   3.283   0.623   5.661 -0.2182  0.6840  0.5614
 9208SOL     OW39256   0.709   2.359   0.015 -0.3837 -0.0223  0.3578
 9208SOL    HW139257   0.797   2.364  17.726 -0.3503  0.9340  0.5482
 9208SOL    HW239258   0.722   2.271   0.049  0.1996 -0.3255 -0.6564
 9209SOL     OW39259   3.531   3.281   5.542 -0.2525  0.1817  0.9937
 9209SOL    HW139260   3.456   3.262   5.486  0.5076  0.8289 -0.2371
 9209SOL    HW239261   3.581   3.336   5.482  2.8203 -2.1125  1.4987
 9210SOL     OW39262   0.479   1.768   8.416 -0.2078 -0.1172 -0.2012
 9210SOL    HW139263   0.501   1.815   8.336 -0.3103  1.4293  0.6784
 9210SOL    HW239264   0.474   1.834   8.486  0.6470  1.1592 -1.3398
 9211SOL     OW39265   0.067   0.979   2.587 -0.2511  0.1895 -0.1349
 9211SOL    HW139266   0.001   0.927   2.632 -0.6262  2.6229  2.1248
 9211SOL    HW239267   0.022   1.013   2.510 -0.8209  2.1138  1.0465
 9212SOL     OW39268   1.490   3.768  12.376  0.2261  0.2649  0.1934
 9212SOL    HW139269   1.574   3.799  12.410 -0.5116  2.0497  0.3490
 9212SOL    HW239270   1.444   3.736  12.454 -1.1075  0.2986 -0.5796
 9213SOL     OW39271   0.674   3.646   5.590 -0.7405  0.1483  0.0372
 9213SOL    HW139272   0.592   3.639   5.640 -1.0423 -3.1668 -0.9188
 9213SOL    HW239273   0.729   3.647   5.669  1.6694  1.3233 -1.6866
 9214SOL     OW39274   1.646   1.024  13.123 -0.2306 -0.7198 -0.3630
 9214SOL    HW139275   1.663   1.111  13.159 -0.3277 -0.7999 -0.1209
 9214SOL    HW239276   1.719   1.003  13.065  0.4074 -2.7272  1.1637
 9215SOL     OW39277   4.336   3.533   6.991  0.0128  0.3965 -0.1075
 9215SOL    HW139278   4.378   3.570   6.914 -0.7804 -1.9396 -1.6394
 9215SOL    HW239279   4.312   3.619   7.025  1.7886  0.8693 -0.0292
 9216SOL     OW39280   1.123   1.758  15.703  0.0170  0.3835  0.0456
 9216SOL    HW139281   1.052   1.773  15.765  0.3116  1.3245  0.1630
 9216SOL    HW239282   1.198   1.737  15.760 -0.7967 -1.0572  0.5766
 9217SOL     OW39283   1.560   2.114  14.514  0.0459 -0.3257 -0.2261
 9217SOL    HW139284   1.525   2.137  14.427  0.0269 -0.6901 -0.3170
 9217SOL    HW239285   1.523   2.182  14.569  0.4555  1.0521 -1.6606
 9218SOL     OW39286   4.591   2.772   4.511 -0.1749  1.2686  0.3481
 9218SOL    HW139287   4.555   2.765   4.599  0.2269 -4.0166  0.1095
 9218SOL    HW239288   4.537   2.703   4.472  1.3893  0.8492 -1.0507
 9219SOL     OW39289   2.511   0.834  10.708  0.0894  0.4738 -0.5177
 9219SOL    HW139290   2.539   0.921  10.734 -0.7387 -0.1145  2.2809
 9219SOL    HW239291   2.487   0.848  10.616 -1.1757  1.5760 -0.0022
 9220SOL     OW39292   2.420   4.724   8.969 -0.1178  0.4906  0.4870
 9220SOL    HW139293   2.492   4.700   9.028  0.5096  0.5955 -0.2271
 9220SOL    HW239294   2.429   0.081   8.986  0.1412  0.5760 -0.1024
 9221SOL     OW39295   2.451   0.875   2.848  0.2486 -0.4329  0.3566
 9221SOL    HW139296   2.426   0.877   2.940 -0.7074  3.5438 -0.0180
 9221SOL    HW239297   2.386   0.818   2.806 -1.1763  0.9173  0.7486
 9222SOL     OW39298   0.813   1.299   8.122  0.9155 -0.5126  0.2210
 9222SOL    HW139299   0.866   1.220   8.117 -0.2238 -1.2781  0.3178
 9222SOL    HW239300   0.878   1.365   8.097  0.1495  0.2803  0.3125
 9223SOL     OW39301   4.380   2.692   8.069 -0.2786  0.0400  0.3174
 9223SOL    HW139302   4.309   2.630   8.084  1.5086 -1.5390  2.0697
 9223SOL    HW239303   4.414   2.670   8.155  2.5183  2.4939 -0.1420
 9224SOL     OW39304   4.319   4.405  16.755 -0.6296 -0.0712 -0.3079
 9224SOL    HW139305   4.380   4.371  16.689 -1.0299 -0.4296 -0.4903
 9224SOL    HW239306   4.280   4.481  16.712  0.3087  0.5123 -0.1317
 9225SOL     OW39307   3.640   4.502   4.818  0.4053 -0.0679  0.2053
 9225SOL    HW139308   3.546   4.508   4.830  0.3671  0.5515 -0.3643
 9225SOL    HW239309   3.654   4.481   4.726 -0.4700  0.1140  0.0338
 9226SOL     OW39310   3.617   0.238   2.066 -0.5619  0.3964 -0.0505
 9226SOL    HW139311   3.628   0.142   2.066 -0.6322  0.3856  0.5210
 9226SOL    HW239312   3.634   0.263   1.975 -0.3196  1.0444  0.1783
 9227SOL     OW39313   3.968   4.254  12.536  0.7414 -0.3632  0.1541
 9227SOL    HW139314   4.034   4.297  12.482 -1.5355  3.0818  0.1351
 9227SOL    HW239315   4.001   4.277  12.622  1.0356  0.1820 -0.1062
 9228SOL     OW39316   0.103   2.918  10.560  0.2315  1.0514  0.9275
 9228SOL    HW139317   0.094   2.899  10.467  0.2910 -1.5981  1.4520
 9228SOL    HW239318   0.070   2.838  10.602  0.2287 -0.2560 -1.5834
 9229SOL     OW39319   1.264   3.916  14.685 -0.0918  0.6857  0.2108
 9229SOL    HW139320   1.176   3.944  14.660  0.2598  1.0736 -0.5720
 9229SOL    HW239321   1.244   3.849  14.750 -0.3784 -0.4603 -1.0395
 9230SOL     OW39322   3.560   0.695  16.149  0.0057  0.2907 -0.2974
 9230SOL    HW139323   3.566   0.765  16.084  2.1524 -1.6180 -2.1728
 9230SOL    HW239324   3.468   0.689  16.174  0.6456 -1.3816  1.6688
 9231SOL     OW39325   4.235   4.283   8.603  0.4380 -0.4641 -1.0240
 9231SOL    HW139326   4.150   4.328   8.606  1.8590  2.0419  1.5475
 9231SOL    HW239327   4.271   4.338   8.533  0.0843  0.9499 -0.1091
 9232SOL     OW39328   4.424   1.860   7.765  0.0521 -0.0097  0.5231
 9232SOL    HW139329   4.452   1.861   7.674 -1.8459  0.1115 -0.0753
 9232SOL    HW239330   4.488   1.915   7.810 -1.0497 -0.1644  2.3032
 9233SOL     OW39331   3.403   2.036   8.033 -0.2829 -0.2974  0.1493
 9233SOL    HW139332   3.402   2.045   8.128 -0.8516  0.0165  0.1119
 9233SOL    HW239333   3.384   2.126   8.008 -1.2485 -0.8961 -1.2873
 9234SOL     OW39334   4.039   1.756   4.050 -0.4855 -0.1647 -0.8974
 9234SOL    HW139335   3.993   1.741   4.133  2.1896  1.2418  0.8712
 9234SOL    HW239336   4.123   1.787   4.086 -1.4177 -1.0128  1.9970
 9235SOL     OW39337   2.747   3.528   3.525 -0.8798 -0.6496  0.1010
 9235SOL    HW139338   2.803   3.452   3.512 -2.6121 -1.4657 -2.4262
 9235SOL    HW239339   2.800   3.575   3.590 -0.2737 -0.4618 -0.5236
 9236SOL     OW39340   2.804   3.193   4.800  0.0518 -0.0976  0.2637
 9236SOL    HW139341   2.849   3.269   4.762 -0.8088  0.6412  0.7214
 9236SOL    HW239342   2.716   3.201   4.763 -0.7710 -0.4523  2.1734
 9237SOL     OW39343   4.219   2.772  10.693 -0.4378  0.6081 -0.7583
 9237SOL    HW139344   4.307   2.809  10.701  0.1227 -1.0608  0.7398
 9237SOL    HW239345   4.188   2.810  10.611 -0.4814  0.4228 -0.8275
 9238SOL     OW39346   1.342   3.292   5.425 -0.0702 -0.2549  0.3876
 9238SOL    HW139347   1.300   3.302   5.340  0.2247 -0.2014  0.2493
 9238SOL    HW239348   1.360   3.380   5.459  0.7597 -0.3102  0.0984
 9239SOL     OW39349   3.211   0.626   3.174  0.8492 -0.4541 -0.0543
 9239SOL    HW139350   3.116   0.613   3.168  0.8074 -0.5632  0.7841
 9239SOL    HW239351   3.228   0.536   3.146  3.2693 -0.4530  1.4109
 9240SOL     OW39352   0.206   0.468  15.344 -0.1414  0.7950  0.0594
 9240SOL    HW139353   0.122   0.441  15.383  0.3216  0.6703  0.9836
 9240SOL    HW239354   0.181   0.520  15.268 -1.2464 -0.0974 -0.1896
 9241SOL     OW39355   1.628   0.188  12.476  0.2995  0.2232  0.1590
 9241SOL    HW139356   1.630   0.189  12.380 -0.2438  0.4013  0.1490
 9241SOL    HW239357   1.702   0.136  12.506 -0.1451 -0.7429 -0.4329
 9242SOL     OW39358   2.643   3.333   8.039 -0.5786  0.0935  0.1630
 9242SOL    HW139359   2.618   3.390   7.966  0.6867 -0.8856 -1.0363
 9242SOL    HW239360   2.586   3.258   8.024 -0.1683  0.0102 -0.9950
 9243SOL     OW39361   0.851   3.348   9.877 -0.2578 -0.2364  0.1759
 9243SOL    HW139362   0.811   3.427   9.913  2.4370  1.5703 -0.7748
 9243SOL    HW239363   0.828   3.288   9.948  1.4547 -2.4347 -1.1019
 9244SOL     OW39364   3.591   1.342   4.200 -0.2193  0.0655 -0.4698
 9244SOL    HW139365   3.620   1.397   4.127 -0.5207  1.6902  0.6256
 9244SOL    HW239366   3.546   1.411   4.248 -2.0853 -2.6500  1.6377
 9245SOL     OW39367   2.537   1.250   1.442 -0.5103 -0.2407  0.2103
 9245SOL    HW139368   2.573   1.287   1.522 -0.8147  0.7235 -0.1013
 9245SOL    HW239369   2.616   1.247   1.388 -1.1897 -1.4849 -0.7217
 9246SOL     OW39370   2.027   4.695   9.613 -0.5653  0.4332  0.1609
 9246SOL    HW139371   2.053   0.042   9.577  2.3465 -0.4067  0.2364
 9246SOL    HW239372   1.962   4.718   9.679  0.7334  1.0279  1.2389
 9247SOL     OW39373   2.845   2.144   7.909  0.1579  0.0148 -0.4062
 9247SOL    HW139374   2.812   2.215   7.965  0.3608 -0.9983  1.0086
 9247SOL    HW239375   2.877   2.194   7.834 -1.8555  2.5716  0.3941
 9248SOL     OW39376   2.117   2.784  15.528 -0.5946 -0.1989 -0.6123
 9248SOL    HW139377   2.096   2.732  15.450 -0.4287 -1.9478  0.5122
 9248SOL    HW239378   2.200   2.744  15.555  0.3728  1.0847 -1.6584
 9249SOL     OW39379   3.411   3.782   3.416  0.6521 -0.4600 -0.6517
 9249SOL    HW139380   3.498   3.823   3.416 -0.5206  2.0195 -0.4227
 9249SOL    HW239381   3.405   3.756   3.324  1.8432  2.6297 -1.5991
 9250SOL     OW39382   1.838   0.784   5.197 -0.1239  0.1524 -0.3503
 9250SOL    HW139383   1.752   0.754   5.228  0.3819 -2.8956 -1.8726
 9250SOL    HW239384   1.901   0.773   5.268  1.2679  2.5867 -1.2143
 9251SOL     OW39385   3.831   1.048   6.471  0.7369  0.1553  0.0612
 9251SOL    HW139386   3.823   0.976   6.533  0.0905  0.0724 -0.1207
 9251SOL    HW239387   3.832   0.996   6.391 -1.9144 -0.5672  0.4768
 9252SOL     OW39388   1.187   0.233   0.872  0.1345 -0.3848  0.1678
 9252SOL    HW139389   1.188   0.176   0.795  0.0290 -0.5365  0.2798
 9252SOL    HW239390   1.157   0.175   0.942 -0.5948 -2.5676 -1.9517
 9253SOL     OW39391   3.086   0.760   4.625  0.2804  0.2266 -0.2187
 9253SOL    HW139392   3.098   0.752   4.720  0.2779  1.2490 -0.1287
 9253SOL    HW239393   3.016   0.703   4.594  0.9136 -1.2044  0.9637
 9254SOL     OW39394   1.056   2.784   2.102 -0.3639  0.2829  0.0851
 9254SOL    HW139395   0.977   2.802   2.155  0.4085  0.4644  1.1769
 9254SOL    HW239396   1.012   2.721   2.044 -0.2929  1.3195 -1.0837
 9255SOL     OW39397   4.426   1.506  16.534 -0.2143 -0.1816  0.0674
 9255SOL    HW139398   4.363   1.484  16.603 -0.5261 -2.8837 -1.1024
 9255SOL    HW239399   4.382   1.571  16.478  1.3398 -0.8220 -1.8882
 9256SOL     OW39400   0.819   3.350   5.543  0.3766 -0.5493 -0.0018
 9256SOL    HW139401   0.744   3.295   5.519 -0.3738  0.5255 -0.1294
 9256SOL    HW239402   0.830   3.375   5.451 -0.9007 -1.2441 -0.3425
 9257SOL     OW39403   3.120   3.280   7.752 -0.2610  0.5052  0.1346
 9257SOL    HW139404   3.155   3.296   7.664  0.9541  0.1527  0.5629
 9257SOL    HW239405   3.186   3.216   7.780 -0.3009 -0.8931 -2.9083
 9258SOL     OW39406   1.696   0.653   3.512 -0.1779 -0.1717  0.1967
 9258SOL    HW139407   1.728   0.652   3.603  1.9718  1.8968 -0.5375
 9258SOL    HW239408   1.695   0.746   3.488 -0.0979 -0.6202 -1.5353
 9259SOL     OW39409   1.722   2.312   6.924  0.2054  0.2717  0.7666
 9259SOL    HW139410   1.810   2.284   6.947  1.0724  0.4960 -2.2357
 9259SOL    HW239411   1.692   2.233   6.879  2.2893 -0.3726  0.5394
 9260SOL     OW39412   0.598   0.722  16.053 -0.1615  0.3257  0.7970
 9260SOL    HW139413   0.568   0.656  15.991 -0.3813 -0.4115  1.6922
 9260SOL    HW239414   0.562   0.801  16.012 -1.2503 -0.6034 -0.0445
 9261SOL     OW39415   0.465   1.937   8.215  0.2217 -0.7461 -0.1976
 9261SOL    HW139416   0.527   2.008   8.235  0.9093 -0.9076 -1.7256
 9261SOL    HW239417   0.395   1.988   8.175 -1.5108 -1.4342  1.9823
 9262SOL     OW39418   4.675   4.573   8.852 -0.1772  0.1967 -0.0629
 9262SOL    HW139419   4.662   4.547   8.761  0.1566 -0.5034  0.0869
 9262SOL    HW239420   4.695   4.665   8.839 -1.1112  0.3277 -0.5113
 9263SOL     OW39421   3.903   0.273  13.345 -0.0261  0.1130 -0.0165
 9263SOL    HW139422   3.905   0.352  13.399 -1.3582  0.0670  0.0946
 9263SOL    HW239423   3.822   0.229  13.369 -0.7390  2.3016  1.5855
 9264SOL     OW39424   4.449   2.808   6.292  0.0406  0.0951 -0.2974
 9264SOL    HW139425   4.406   2.888   6.263 -0.5229 -1.3010 -3.2323
 9264SOL    HW239426   4.388   2.768   6.354 -0.2555  0.3505 -0.4272
 9265SOL     OW39427   2.432   1.390   9.782 -0.3917 -0.0221 -0.1496
 9265SOL    HW139428   2.460   1.445   9.855  1.3901  0.1050 -0.9373
 9265SOL    HW239429   2.380   1.456   9.736  0.6828  0.1645 -1.1021
 9266SOL     OW39430   2.097   1.125   9.357 -0.2124 -0.0203  0.1359
 9266SOL    HW139431   2.139   1.165   9.433  0.2296 -3.5532  1.7557
 9266SOL    HW239432   2.046   1.199   9.323 -1.3458 -1.1964 -0.7071
 9267SOL     OW39433   0.570   2.104   4.175 -0.2199  0.2195  0.4135
 9267SOL    HW139434   0.541   2.015   4.154 -0.6666  1.4164 -4.1487
 9267SOL    HW239435   0.525   2.121   4.258  1.4406  0.0458  1.3524
 9268SOL     OW39436   0.121   4.411   6.174 -0.8334  0.1595 -0.2373
 9268SOL    HW139437   0.146   4.484   6.118 -2.3623  0.3365 -0.6975
 9268SOL    HW239438   0.027   4.404   6.155 -0.7999 -2.0425  0.3498
 9269SOL     OW39439   1.304   3.233  11.119  0.1440  0.1058 -0.4968
 9269SOL    HW139440   1.251   3.161  11.085 -0.9276 -0.4314  2.2630
 9269SOL    HW239441   1.326   3.287  11.043 -0.2956  0.0589 -0.6564
 9270SOL     OW39442   0.198   0.952  13.563 -0.0004  0.3699  0.2907
 9270SOL    HW139443   0.124   0.921  13.512  0.0117 -0.4267  0.7518
 9270SOL    HW239444   0.171   1.035  13.603  0.0887 -0.6962  2.6134
 9271SOL     OW39445   2.689   4.259   4.700 -1.1184 -0.2341  0.2288
 9271SOL    HW139446   2.744   4.225   4.770 -2.1070 -0.4170  0.9201
 9271SOL    HW239447   2.634   4.325   4.742 -1.3564 -0.0659 -0.3520
 9272SOL     OW39448   4.504   0.577   8.075  0.1453 -0.1688  0.0694
 9272SOL    HW139449   4.564   0.649   8.053 -0.7165  0.3439 -0.6023
 9272SOL    HW239450   4.489   0.588   8.169 -0.7467 -0.2070 -0.0736
 9273SOL     OW39451   3.640   0.868   6.178  0.5676 -0.4198 -0.3140
 9273SOL    HW139452   3.608   0.804   6.115 -1.0412  0.8154 -0.7601
 9273SOL    HW239453   3.621   0.836   6.265 -1.4133  1.4497 -0.0599
 9274SOL     OW39454   2.200   1.259   6.857  0.5867 -0.7978 -0.1675
 9274SOL    HW139455   2.212   1.174   6.898 -2.0309 -1.1862 -0.2420
 9274SOL    HW239456   2.288   1.290   6.833  0.6640  0.6924  2.0025
 9275SOL     OW39457   2.230   0.047   7.949 -0.2488  0.2663 -0.2968
 9275SOL    HW139458   2.247   0.131   7.993 -0.1762 -0.9637  2.0090
 9275SOL    HW239459   2.313   4.737   7.957 -1.1291 -1.0196  1.2415
 9276SOL     OW39460   2.602   4.736   2.227 -0.3135 -0.8152  0.4213
 9276SOL    HW139461   2.609   4.657   2.174 -1.8266 -0.6246 -0.0411
 9276SOL    HW239462   2.580   4.700   2.313  1.0891 -1.5669  0.4772
 9277SOL     OW39463   0.321   4.419   5.895 -0.5569 -0.1384  0.3702
 9277SOL    HW139464   0.241   4.471   5.903 -0.4530 -0.0771  1.0253
 9277SOL    HW239465   0.370   4.456   5.968  0.7067  0.6006 -0.8731
 9278SOL     OW39466   0.311   3.012   9.663 -0.3451 -0.5699  0.9671
 9278SOL    HW139467   0.397   2.999   9.624 -0.4892  3.1041 -0.4674
 9278SOL    HW239468   0.308   2.936   9.721 -2.1652 -1.6183 -0.5001
 9279SOL     OW39469   1.813   0.938   6.542  0.1206 -0.1150  0.6878
 9279SOL    HW139470   1.869   0.999   6.590 -0.3361 -1.0818  2.4591
 9279SOL    HW239471   1.799   0.874   6.611  0.3057  0.3193  1.1307
 9280SOL     OW39472   3.832   0.303   8.656  0.0147  0.0026 -0.3201
 9280SOL    HW139473   3.817   0.349   8.739 -2.7199 -2.7461  0.7145
 9280SOL    HW239474   3.896   0.358   8.611 -2.1619  0.7433 -2.5322
 9281SOL     OW39475   2.832   1.105   3.101  0.6729  0.4707 -0.4306
 9281SOL    HW139476   2.921   1.070   3.102  0.6714  0.4441 -1.1612
 9281SOL    HW239477   2.846   1.199   3.088  1.2035  0.2827 -1.2207
 9282SOL     OW39478   3.794   4.200  11.534 -0.4019  0.3338  0.0018
 9282SOL    HW139479   3.760   4.150  11.461 -0.1959 -0.6750  0.5911
 9282SOL    HW239480   3.871   4.243  11.495  1.2078 -2.4945  0.0468
 9283SOL     OW39481   4.016   4.474   4.662  0.7696  0.3542 -0.2151
 9283SOL    HW139482   4.053   4.465   4.575  1.5227  1.8940 -0.0440
 9283SOL    HW239483   4.096   4.461   4.713 -1.0370  0.7565  2.7492
 9284SOL     OW39484   1.733   2.257   3.758  0.1982 -0.2864 -0.1962
 9284SOL    HW139485   1.679   2.287   3.685  1.7161  0.5428 -0.9772
 9284SOL    HW239486   1.815   2.230   3.716  1.6440  1.7850  1.3012
 9285SOL     OW39487   0.143   4.072   7.853  0.4249 -0.2671  0.5024
 9285SOL    HW139488   0.111   3.994   7.806 -0.3454 -0.2292  0.9778
 9285SOL    HW239489   0.233   4.049   7.875  0.6653 -0.3454 -0.5567
 9286SOL     OW39490   3.439   2.746   4.806 -0.1094 -0.2894  0.0010
 9286SOL    HW139491   3.455   2.655   4.781 -1.4890 -0.5803  0.1925
 9286SOL    HW239492   3.374   2.765   4.739  1.0732 -0.1463 -1.1128
 9287SOL     OW39493   2.131   1.391  15.114 -0.3096 -0.1595 -0.0930
 9287SOL    HW139494   2.219   1.427  15.125 -0.2133  0.0881 -1.6686
 9287SOL    HW239495   2.081   1.462  15.154 -0.3527  0.2519 -0.8770
 9288SOL     OW39496   2.659   0.892   5.570 -0.1243  0.3246  0.4647
 9288SOL    HW139497   2.660   0.845   5.487  1.3265 -0.2914  0.8205
 9288SOL    HW239498   2.566   0.895   5.592 -0.5581  0.0114 -1.3554
 9289SOL     OW39499   2.861   0.156  10.944 -0.8694  0.4896  0.2721
 9289SOL    HW139500   2.938   0.188  10.897 -0.7996 -2.1017 -1.3535
 9289SOL    HW239501   2.870   0.061  10.937 -3.1854  0.2422  0.8174
 9290SOL     OW39502   0.745   4.505   3.627 -0.1947  0.2079 -0.0442
 9290SOL    HW139503   0.785   4.420   3.647 -0.6515 -0.0816 -0.3783
 9290SOL    HW239504   0.653   4.489   3.644 -0.5680  2.2873 -0.1285
 9291SOL     OW39505   2.949   1.788   7.118 -0.2130  0.1893 -0.1489
 9291SOL    HW139506   2.908   1.772   7.203  1.5170 -0.3062  0.5952
 9291SOL    HW239507   3.038   1.756   7.131 -0.1005  0.4722 -0.2270
 9292SOL     OW39508   1.460   4.234   0.216 -0.1001  0.5842 -0.0192
 9292SOL    HW139509   1.475   4.320   0.254  2.8118  0.2544 -0.3639
 9292SOL    HW239510   1.396   4.191   0.272 -1.9237 -1.3150 -3.5632
 9293SOL     OW39511   3.297   1.707  13.185  0.2264 -0.2475  0.0788
 9293SOL    HW139512   3.244   1.773  13.229 -1.8296 -0.6269 -1.8156
 9293SOL    HW239513   3.382   1.750  13.189  0.0411  0.1301 -0.0913
 9294SOL     OW39514   0.513   1.452   8.176 -0.3244  0.3162 -0.4838
 9294SOL    HW139515   0.501   1.547   8.172 -1.2786  0.2682  1.1118
 9294SOL    HW239516   0.437   1.426   8.124  1.0638 -2.4140 -1.1112
 9295SOL     OW39517   1.853   3.124   5.628 -0.1318 -0.3263 -0.1827
 9295SOL    HW139518   1.904   3.097   5.552 -1.1424  0.9821 -1.3243
 9295SOL    HW239519   1.863   3.216   5.604 -0.2026  0.0449  1.2174
 9296SOL     OW39520   0.431   1.994   9.341 -0.4022  0.7623  0.7664
 9296SOL    HW139521   0.488   1.984   9.265 -0.9837  0.5303  0.3689
 9296SOL    HW239522   0.378   2.068   9.313 -1.5462 -0.3347  0.0535
 9297SOL     OW39523   2.018   1.630   2.410  0.4191 -0.1457 -0.2765
 9297SOL    HW139524   1.978   1.555   2.366  0.9319  0.5336 -1.9287
 9297SOL    HW239525   2.086   1.661   2.350  0.7725  2.6819  1.6096
 9298SOL     OW39526   1.358   0.479   8.408  0.2011 -0.1345 -0.0824
 9298SOL    HW139527   1.420   0.551   8.393 -1.3525  1.0227 -0.9143
 9298SOL    HW239528   1.285   0.538   8.427 -0.8111 -1.2837 -0.4001
 9299SOL     OW39529   0.237   0.962   8.705  0.7299  0.3875 -0.8128
 9299SOL    HW139530   0.196   1.032   8.656  0.5102 -0.2338 -1.5071
 9299SOL    HW239531   0.213   0.995   8.792  0.6913  0.1753 -0.7434
 9300SOL     OW39532   3.611   2.637   3.717 -0.1355  0.1735  0.5122
 9300SOL    HW139533   3.673   2.697   3.759  0.3229  0.2068 -0.2028
 9300SOL    HW239534   3.665   2.571   3.674 -0.0523 -0.8896  2.2772
 9301SOL     OW39535   1.744   4.336   0.750 -0.3052  0.2573  0.0463
 9301SOL    HW139536   1.784   4.263   0.799  0.0739  0.5523  0.1796
 9301SOL    HW239537   1.718   4.398   0.818  0.0804  0.6480 -0.1638
 9302SOL     OW39538   1.381   4.704   7.622 -0.1822  0.1390 -0.5170
 9302SOL    HW139539   1.292   4.735   7.642 -1.1884 -3.5580  0.6445
 9302SOL    HW239540   1.361   4.612   7.607  1.1315 -0.2090 -0.1183
 9303SOL     OW39541   0.884   1.681   6.181 -0.4011 -0.4242  0.6099
 9303SOL    HW139542   0.893   1.774   6.203 -1.6067 -0.2298  0.2701
 9303SOL    HW239543   0.917   1.629   6.255  3.6565  1.1722 -0.0840
 9304SOL     OW39544   0.513   1.879   5.600 -0.5433  0.1666  0.9555
 9304SOL    HW139545   0.559   1.820   5.660  0.5267 -1.3669 -1.3791
 9304SOL    HW239546   0.453   1.816   5.559  1.6085 -1.8120  0.8383
 9305SOL     OW39547   3.638   2.944   2.865 -0.1958  0.2359 -0.2436
 9305SOL    HW139548   3.724   2.938   2.824 -0.0451  3.2442 -0.3190
 9305SOL    HW239549   3.580   2.891   2.810  1.5065  1.4149 -3.1588
 9306SOL     OW39550   3.627   1.091   8.459 -0.4020 -0.6928 -0.2640
 9306SOL    HW139551   3.722   1.095   8.451 -0.2772  1.7283  2.4791
 9306SOL    HW239552   3.612   1.167   8.515 -0.0210 -0.6460 -0.2236
 9307SOL     OW39553   1.302   4.200   0.464 -0.0570 -0.3070 -0.2301
 9307SOL    HW139554   1.236   4.251   0.512  0.5695  2.4372 -2.2973
 9307SOL    HW239555   1.371   4.193   0.530  1.2707 -1.4373 -1.7688
 9308SOL     OW39556   1.530   1.217   9.288 -0.4213 -0.1970  0.1523
 9308SOL    HW139557   1.459   1.154   9.294 -0.0656 -0.6848 -0.6823
 9308SOL    HW239558   1.495   1.279   9.223  0.2510 -1.4768 -1.4329
 9309SOL     OW39559   1.142   4.063   5.148  0.3585 -0.7900  0.8652
 9309SOL    HW139560   1.150   4.101   5.235 -1.2874 -0.0642  0.6871
 9309SOL    HW239561   1.064   4.011   5.168 -0.0255 -0.4361  0.2809
 9310SOL     OW39562   1.322   1.522  11.224  0.0560 -0.2848 -0.2152
 9310SOL    HW139563   1.371   1.454  11.177  0.7720 -1.1423  1.7581
 9310SOL    HW239564   1.386   1.594  11.216  0.3836 -0.5183  0.3499
 9311SOL     OW39565   3.739   1.210  14.041 -0.2295 -0.7935  0.4472
 9311SOL    HW139566   3.720   1.131  13.990 -1.5790 -0.6896  0.7976
 9311SOL    HW239567   3.721   1.171  14.127 -2.8786  1.1880  0.7690
 9312SOL     OW39568   2.273   1.453   3.950  0.3832 -0.0794 -0.2946
 9312SOL    HW139569   2.234   1.460   4.037 -0.5019 -3.5931 -0.4046
 9312SOL    HW239570   2.192   1.460   3.900  0.6555 -0.8036 -0.8367
 9313SOL     OW39571   2.969   2.998   9.043  0.1309 -0.0883  0.1658
 9313SOL    HW139572   3.061   3.008   9.018  0.0461 -2.2005 -1.0071
 9313SOL    HW239573   2.925   3.059   8.983 -1.0560 -2.0791 -0.9810
 9314SOL     OW39574   2.486   4.374   4.854 -0.1604  0.5010  0.7659
 9314SOL    HW139575   2.419   4.325   4.806 -0.1706  1.2909 -0.0281
 9314SOL    HW239576   2.436   4.408   4.929 -1.9370 -2.0998  0.7763
 9315SOL     OW39577   0.351   4.193  13.325  0.4645  0.2646 -0.3609
 9315SOL    HW139578   0.434   4.241  13.321  1.1353 -0.7853  1.1759
 9315SOL    HW239579   0.352   4.138  13.247 -1.3383  1.2706 -1.0985
 9316SOL     OW39580   1.960   2.245   5.946 -0.3341  0.0451 -0.2695
 9316SOL    HW139581   1.939   2.183   5.876  1.1029 -0.6207 -0.1107
 9316SOL    HW239582   2.054   2.234   5.953 -0.0601  1.1330 -2.2285
 9317SOL     OW39583   0.094   3.269  15.929  0.0618  0.3945 -0.1525
 9317SOL    HW139584   0.088   3.363  15.917  0.2267 -0.1218 -4.1229
 9317SOL    HW239585   0.119   3.239  15.842  0.4987  1.7231 -0.4900
 9318SOL     OW39586   2.649   0.239   2.773 -0.6281 -0.0429  0.4126
 9318SOL    HW139587   2.609   0.168   2.823  0.2634  1.0143  2.5948
 9318SOL    HW239588   2.736   0.204   2.755 -1.0498 -0.8170 -0.1204
 9319SOL     OW39589   2.536   4.021  16.377 -0.3576  0.5921 -0.4447
 9319SOL    HW139590   2.466   3.958  16.360  1.1521 -1.3410  0.5009
 9319SOL    HW239591   2.484   4.083  16.429 -2.5163 -0.0563 -1.8321
 9320SOL     OW39592   1.081   1.500  17.347  0.2701 -0.0504 -0.3176
 9320SOL    HW139593   1.175   1.481  17.345  1.0198  3.6587 -0.4474
 9320SOL    HW239594   1.056   1.531  17.261 -1.1420  0.2576  0.2038
 9321SOL     OW39595   3.387   0.156   5.918 -0.4557  0.4598 -0.0737
 9321SOL    HW139596   3.446   0.111   5.857  1.0022  1.4523  0.5973
 9321SOL    HW239597   3.415   0.127   6.004 -1.6482  1.3156  0.6155
 9322SOL     OW39598   0.437   3.839   6.314  0.0758 -0.6584  0.1680
 9322SOL    HW139599   0.528   3.867   6.318  0.1809 -1.0233  0.3686
 9322SOL    HW239600   0.424   3.838   6.409  0.7336 -0.4357  0.2589
 9323SOL     OW39601   0.039   2.972  16.578  0.4413 -0.4077 -0.4923
 9323SOL    HW139602   0.129   3.004  16.587  1.0571 -3.0344  2.6582
 9323SOL    HW239603   0.018   3.013  16.494 -2.0167 -0.9072 -0.1285
 9324SOL     OW39604   4.132   0.602   2.222  0.0321  0.7144 -0.5332
 9324SOL    HW139605   4.125   0.694   2.246 -1.0910  0.9544 -1.7897
 9324SOL    HW239606   4.125   0.615   2.127  0.2254  1.4879 -0.4354
 9325SOL     OW39607   1.444   0.347  11.307 -0.2596  0.4932 -0.1758
 9325SOL    HW139608   1.353   0.317  11.301  0.3832 -1.2064 -1.3186
 9325SOL    HW239609   1.476   0.357  11.217 -0.2034 -2.5882 -0.4968
 9326SOL     OW39610   1.735   3.988  12.722  0.0746 -0.1038  0.2122
 9326SOL    HW139611   1.769   4.036  12.798  1.0776  1.2461 -1.1023
 9326SOL    HW239612   1.715   4.060  12.662 -0.8998 -1.6344 -1.2884
 9327SOL     OW39613   3.779   2.357   4.185  0.2649 -0.3125  0.5419
 9327SOL    HW139614   3.813   2.445   4.170 -1.4776 -0.1916 -2.6112
 9327SOL    HW239615   3.856   2.303   4.166  0.5581  0.1858  0.2965
 9328SOL     OW39616   4.038   0.923  10.825 -0.0377 -0.3076 -0.0241
 9328SOL    HW139617   4.120   0.875  10.812 -0.3554 -0.4337 -1.5828
 9328SOL    HW239618   4.056   0.969  10.907 -0.7721  0.6431 -0.3888
 9329SOL     OW39619   1.435   0.651   2.150 -0.1479 -0.0646  0.3817
 9329SOL    HW139620   1.530   0.646   2.164  0.0928 -1.5994 -1.7665
 9329SOL    HW239621   1.438   0.616   2.061  0.0185  2.9017 -0.7950
 9330SOL     OW39622   3.710   3.490   7.279  0.4144  0.1384  0.3839
 9330SOL    HW139623   3.674   3.401   7.276  2.1581 -0.5944  1.4730
 9330SOL    HW239624   3.685   3.515   7.368 -0.8951 -1.4105  0.4533
 9331SOL     OW39625   1.854   4.174   3.375 -0.0384  0.3736  0.0034
 9331SOL    HW139626   1.916   4.138   3.311  0.1591 -1.5713  1.2982
 9331SOL    HW239627   1.779   4.171   3.316 -0.8170  2.0582  0.9127
 9332SOL     OW39628   1.863   4.094  11.923  0.0490 -0.3032  0.4519
 9332SOL    HW139629   1.953   4.113  11.896  0.0514  0.2714  0.8433
 9332SOL    HW239630   1.857   4.169  11.982 -2.9036 -0.7319  0.7048
 9333SOL     OW39631   4.303   1.403   2.126  0.9492  0.0276  0.2182
 9333SOL    HW139632   4.208   1.413   2.119  1.0879  0.2198 -1.3628
 9333SOL    HW239633   4.317   1.410   2.032 -0.5454 -0.3790 -0.0353
 9334SOL     OW39634   2.293   1.801   7.916 -0.0002  0.1963  0.4638
 9334SOL    HW139635   2.362   1.776   7.855 -0.7459 -0.0648 -0.2739
 9334SOL    HW239636   2.270   1.890   7.890 -1.5639  0.3185  2.1958
 9335SOL     OW39637   3.080   2.620   5.258 -0.3659 -0.0625  0.1967
 9335SOL    HW139638   2.985   2.619   5.251 -0.3568 -0.0908  0.0756
 9335SOL    HW239639   3.097   2.618   5.164  0.8195  1.1980  0.3797
 9336SOL     OW39640   4.573   2.513   8.164 -0.7723  0.2493  0.6105
 9336SOL    HW139641   4.610   2.599   8.184  2.3928 -0.6467 -1.4736
 9336SOL    HW239642   4.632   2.453   8.210 -3.4729 -1.8491  1.3924
 9337SOL     OW39643   3.487   0.249   0.829 -0.1168 -0.0224 -0.3112
 9337SOL    HW139644   3.557   0.272   0.768 -0.8654 -0.0614 -1.1815
 9337SOL    HW239645   3.451   0.334   0.856 -0.6843 -0.4747  0.3703
 9338SOL     OW39646   2.802   4.396   7.709  0.2358 -0.1503  0.6213
 9338SOL    HW139647   2.776   4.487   7.722  0.5849 -0.0030  0.3036
 9338SOL    HW239648   2.718   4.351   7.720  0.6707 -0.9618  0.6305
 9339SOL     OW39649   0.255   3.002  15.339 -0.3811  0.0051 -0.1974
 9339SOL    HW139650   0.258   2.913  15.303  1.0531  0.4359 -1.1434
 9339SOL    HW239651   0.221   2.989  15.428  3.3495 -0.5034  1.1624
 9340SOL     OW39652   2.702   1.706   0.027 -0.2621  0.2491 -0.1840
 9340SOL    HW139653   2.652   1.777  17.736 -1.9621 -0.1625  1.2722
 9340SOL    HW239654   2.643   1.698   0.101  0.0673  3.0326  0.3640
 9341SOL     OW39655   1.669   4.379   8.848 -0.4559 -0.4098 -0.0223
 9341SOL    HW139656   1.633   4.462   8.879  0.0356 -0.6796  1.2719
 9341SOL    HW239657   1.760   4.400   8.871 -0.3297 -0.1958 -0.7075
 9342SOL     OW39658   1.652   3.708  12.170  0.4872 -0.0626  0.3166
 9342SOL    HW139659   1.651   3.800  12.144  0.4125  0.2010  1.2223
 9342SOL    HW239660   1.577   3.710  12.229  0.2319 -1.8884  0.0619
 9343SOL     OW39661   3.997   4.016  11.593 -0.0290  0.3678  0.2230
 9343SOL    HW139662   3.966   3.943  11.647 -0.7180 -0.7219 -1.6432
 9343SOL    HW239663   3.925   4.078  11.591 -0.2934  0.0526 -0.0925
 9344SOL     OW39664   2.679   2.810  10.529  0.7072 -0.5045  0.1251
 9344SOL    HW139665   2.688   2.904  10.519 -0.3780 -0.4589 -0.5072
 9344SOL    HW239666   2.634   2.797  10.612  2.7380 -1.7963  1.0279
 9345SOL     OW39667   3.125   1.679  14.758 -0.1732  0.2653 -0.2617
 9345SOL    HW139668   3.193   1.724  14.807  0.8414  0.1904 -1.5817
 9345SOL    HW239669   3.176   1.611  14.713  0.1603 -0.0020  0.5209
 9346SOL     OW39670   3.742   1.848   2.343 -0.7382  0.7391 -0.3268
 9346SOL    HW139671   3.686   1.826   2.417 -0.5284 -1.1449 -0.7372
 9346SOL    HW239672   3.727   1.764   2.299  0.6562  1.5012 -2.2500
 9347SOL     OW39673   4.342   3.024  11.491 -0.2349 -0.4773 -0.5264
 9347SOL    HW139674   4.338   3.025  11.586 -0.4726  0.9927 -0.5461
 9347SOL    HW239675   4.251   3.014  11.464 -0.5170 -4.9009  2.1933
 9348SOL     OW39676   3.906   2.293   7.916  0.1768 -0.2009  0.2071
 9348SOL    HW139677   4.001   2.299   7.928  0.1378  1.1201 -0.0936
 9348SOL    HW239678   3.880   2.385   7.909  0.3692 -0.1741 -0.2143
 9349SOL     OW39679   2.508   3.746  14.359  0.0132  0.3865  0.1119
 9349SOL    HW139680   2.475   3.729  14.447 -1.0777 -0.0960 -0.3959
 9349SOL    HW239681   2.455   3.688  14.304  1.5782 -1.4599  0.5214
 9350SOL     OW39682   2.220   0.986   5.876 -0.5239  0.8304  0.2555
 9350SOL    HW139683   2.154   0.974   5.943  1.0620  1.0889  1.8531
 9350SOL    HW239684   2.170   1.039   5.814 -0.6348  1.0664  0.5536
 9351SOL     OW39685   0.644   4.569   7.388 -0.1970  0.2244  0.0204
 9351SOL    HW139686   0.693   4.496   7.428  3.3029  2.2127 -0.6896
 9351SOL    HW239687   0.611   4.535   7.305  0.0645  0.3392 -0.1295
 9352SOL     OW39688   4.650   2.344   0.347 -0.1487 -0.0507  0.5179
 9352SOL    HW139689   4.635   2.249   0.353 -0.1759 -0.1551 -1.3011
 9352SOL    HW239690   4.648   2.364   0.254  0.6006  0.8556  0.7045
 9353SOL     OW39691   0.302   2.126   0.638  0.4071  0.0697  0.4614
 9353SOL    HW139692   0.209   2.151   0.640  0.5840  0.6442  1.5973
 9353SOL    HW239693   0.317   2.171   0.556 -3.3586  2.9582  1.3488
 9354SOL     OW39694   2.537   3.272  16.375 -0.3644 -0.6832 -0.0088
 9354SOL    HW139695   2.485   3.263  16.295 -0.0779  0.8357 -0.3560
 9354SOL    HW239696   2.628   3.280  16.349 -0.4099 -1.0043 -0.2588
 9355SOL     OW39697   4.704   1.821   2.313  0.2748 -0.5526  0.0789
 9355SOL    HW139698   0.059   1.818   2.287  0.7835  1.0317  1.7514
 9355SOL    HW239699   4.662   1.812   2.227 -0.8363  1.4781  0.4107
 9356SOL     OW39700   4.505   1.523   1.883  0.0630 -0.1646 -0.2782
 9356SOL    HW139701   4.516   1.528   1.978 -0.3086  2.6072 -0.3924
 9356SOL    HW239702   4.595   1.519   1.848  1.1921 -0.6247  2.6872
 9357SOL     OW39703   3.876   3.540   1.052  0.2647  0.6462 -0.0489
 9357SOL    HW139704   3.793   3.516   1.094 -0.0331 -0.7370 -1.3966
 9357SOL    HW239705   3.830   3.537   0.968 -0.2248 -0.1087  0.2474
 9358SOL     OW39706   3.748   2.934   6.792  0.1605  0.3128  0.2578
 9358SOL    HW139707   3.802   2.872   6.840  1.5399  1.6625  0.4545
 9358SOL    HW239708   3.691   2.871   6.747  0.0895  1.4965 -1.3325
 9359SOL     OW39709   4.330   0.248   3.670 -0.8725  0.0619 -0.4167
 9359SOL    HW139710   4.354   0.319   3.730 -1.0877 -0.3371  0.1450
 9359SOL    HW239711   4.317   0.301   3.591  1.2826  1.6562  0.3028
 9360SOL     OW39712   0.531   0.835   9.217 -0.3021 -0.6495  0.2090
 9360SOL    HW139713   0.474   0.850   9.141  1.2012  0.0323 -0.7825
 9360SOL    HW239714   0.471   0.826   9.291 -0.1717 -1.7995  0.1823
 9361SOL     OW39715   3.693   3.608  12.434 -0.4814 -0.4262  0.3446
 9361SOL    HW139716   3.678   3.513  12.430  0.3925 -0.6989  3.3677
 9361SOL    HW239717   3.723   3.621  12.524 -1.5858 -4.4432  1.2757
 9362SOL     OW39718   1.601   1.895   4.791 -0.2199  0.0363  0.4323
 9362SOL    HW139719   1.519   1.898   4.841  0.7090  1.0064  1.8501
 9362SOL    HW239720   1.572   1.864   4.705 -1.4737 -3.3774  2.0715
 9363SOL     OW39721   0.016   3.018   4.944 -0.0458  0.0936  0.7644
 9363SOL    HW139722   0.076   3.076   4.991 -1.2505  1.4275  0.6559
 9363SOL    HW239723   4.736   3.062   4.861 -1.6505  0.4931  1.3185
 9364SOL     OW39724   4.335   4.407   5.909  0.2532  0.3291  0.6617
 9364SOL    HW139725   4.293   4.431   5.992  2.0668  0.1241  1.6218
 9364SOL    HW239726   4.322   4.312   5.908  2.3854  0.0677 -2.0409
 9365SOL     OW39727   2.705   4.374   2.710 -0.0084  0.3588 -0.3021
 9365SOL    HW139728   2.757   4.438   2.759 -0.3827 -0.9971  1.8825
 9365SOL    HW239729   2.760   4.362   2.633  1.1058 -1.2854  0.7594
 9366SOL     OW39730   1.055   3.473   5.660  0.1599 -0.4865  0.0270
 9366SOL    HW139731   1.125   3.504   5.603  1.5837 -1.2846  1.3273
 9366SOL    HW239732   0.993   3.438   5.596 -0.9363 -0.4352  1.0524
 9367SOL     OW39733   2.120   2.603   8.704 -0.1161 -0.0915  0.3429
 9367SOL    HW139734   2.056   2.596   8.775 -0.1220 -0.0618  0.3406
 9367SOL    HW239735   2.183   2.531   8.710  1.6575  1.4388  0.4259
 9368SOL     OW39736   2.419   0.976   5.205  0.0833 -0.3996 -0.6178
 9368SOL    HW139737   2.510   0.992   5.181 -0.5106 -0.5782 -3.0007
 9368SOL    HW239738   2.368   0.974   5.124  1.2144 -0.8111 -1.3224
 9369SOL     OW39739   3.479   3.613   7.181 -0.4562 -0.3392 -0.0786
 9369SOL    HW139740   3.457   3.701   7.212  2.0922 -0.7578  2.9398
 9369SOL    HW239741   3.549   3.589   7.242 -1.1203 -1.4530  0.2341
 9370SOL     OW39742   3.880   2.250   5.713  0.1050 -0.0662  0.5044
 9370SOL    HW139743   3.880   2.169   5.661 -1.7537  1.1912 -1.4825
 9370SOL    HW239744   3.969   2.252   5.747  0.6198 -4.7248 -0.6125
 9371SOL     OW39745   1.254   3.465   0.033 -0.2414 -0.5854 -0.3647
 9371SOL    HW139746   1.271   3.373   0.055  2.8123  0.1900  0.5769
 9371SOL    HW239747   1.231   3.454  17.690  2.3742  0.0600 -1.1082
 9372SOL     OW39748   3.411   3.631   8.401 -0.1110 -0.3596  0.1560
 9372SOL    HW139749   3.353   3.571   8.353  0.3484 -1.6815  1.2678
 9372SOL    HW239750   3.352   3.705   8.412  3.1655  2.1169  0.9800
 9373SOL     OW39751   3.676   4.242   6.636 -0.5075  0.4514 -0.1128
 9373SOL    HW139752   3.624   4.165   6.613 -0.0822  0.0874  0.1566
 9373SOL    HW239753   3.758   4.195   6.621 -1.0197 -0.5648  0.2257
 9374SOL     OW39754   0.092   2.404   4.966  0.2049  0.4669 -0.4527
 9374SOL    HW139755   0.150   2.476   4.941  0.2737  0.8712  0.8816
 9374SOL    HW239756   0.016   2.438   4.918  0.3044  1.4501  0.0723
 9375SOL     OW39757   1.811   1.131   9.731 -0.0876 -0.3451  0.8942
 9375SOL    HW139758   1.785   1.215   9.693  1.5530  0.4659  1.5490
 9375SOL    HW239759   1.815   1.139   9.826  0.6294  0.4057  0.8120
 9376SOL     OW39760   3.905   2.114   6.029  0.6555 -1.5883  0.1203
 9376SOL    HW139761   3.894   2.076   5.942 -0.9465 -0.7090 -0.0490
 9376SOL    HW239762   3.963   2.046   6.065  1.6769 -0.3471  0.8242
 9377SOL     OW39763   1.133   2.319   9.257  0.4391 -0.3084  0.3921
 9377SOL    HW139764   1.178   2.368   9.326  0.1589  1.2669 -0.5596
 9377SOL    HW239765   1.201   2.261   9.222 -0.2133  0.0809 -1.4929
 9378SOL     OW39766   2.198   4.703   9.327 -0.3018 -0.1866 -0.3048
 9378SOL    HW139767   2.274   4.733   9.375 -0.7271 -1.0672  0.9165
 9378SOL    HW239768   2.129   0.028   9.349 -0.0371  0.5003 -1.4249
 9379SOL     OW39769   0.485   0.979   2.781 -0.2442 -0.2019  0.6357
 9379SOL    HW139770   0.429   1.034   2.726 -1.0700 -1.3633  0.3145
 9379SOL    HW239771   0.426   0.942   2.846 -0.7501 -0.7605 -0.1373
 9380SOL     OW39772   1.863   1.238   2.874  0.2193 -0.2264 -0.5449
 9380SOL    HW139773   1.923   1.309   2.895  1.1861 -1.0890 -0.3814
 9380SOL    HW239774   1.804   1.284   2.814  0.0066 -1.8155 -1.5547
 9381SOL     OW39775   3.442   3.973   7.276 -0.1561 -0.2954 -0.2778
 9381SOL    HW139776   3.408   3.923   7.351 -0.2219  1.6779  1.0244
 9381SOL    HW239777   3.531   3.939   7.265  0.5498  1.5282 -0.1230
 9382SOL     OW39778   4.130   1.888   6.689  0.3772 -0.6686 -0.0228
 9382SOL    HW139779   4.070   1.842   6.747 -0.5294  1.6753  0.8995
 9382SOL    HW239780   4.210   1.848   6.723  1.4060 -1.0682 -2.8773
 9383SOL     OW39781   2.464   1.762   3.282 -0.2776  0.0227 -0.5832
 9383SOL    HW139782   2.455   1.666   3.285 -1.1749  0.1299  0.6465
 9383SOL    HW239783   2.473   1.791   3.373  1.6150 -0.0646 -0.7418
 9384SOL     OW39784   1.576   2.674  16.001 -0.1461  0.1070  0.0774
 9384SOL    HW139785   1.500   2.622  16.026 -1.3955  0.6923 -2.6166
 9384SOL    HW239786   1.536   2.740  15.944  0.4914 -0.5578 -1.1306
 9385SOL     OW39787   3.473   2.204   3.757  0.0380 -0.1728 -0.2102
 9385SOL    HW139788   3.461   2.265   3.685  0.6970  0.9397  0.6149
 9385SOL    HW239789   3.501   2.263   3.828 -3.0599  1.0089  0.0421
 9386SOL     OW39790   0.131   2.566  10.370  0.2148 -0.4644 -0.3384
 9386SOL    HW139791   0.132   2.591  10.463  2.8699  1.3759 -0.8894
 9386SOL    HW239792   0.065   2.496  10.371 -2.7433  2.3421  2.0620
 9387SOL     OW39793   0.988   1.508   8.729 -0.4826 -0.1395 -0.1882
 9387SOL    HW139794   1.016   1.418   8.748  2.5093  0.4180 -1.8812
 9387SOL    HW239795   0.925   1.489   8.659  0.8130 -0.7155 -1.2057
 9388SOL     OW39796   0.786   0.025   7.168  0.0746  0.1628 -0.3639
 9388SOL    HW139797   0.852   4.719   7.222 -0.9518  0.4676  1.1493
 9388SOL    HW239798   0.809   4.731   7.081 -0.7511 -1.1940 -0.0847
 9389SOL     OW39799   3.400   0.145   1.078 -0.1157  0.2516  0.1959
 9389SOL    HW139800   3.421   0.158   0.985  1.3567  2.1102  0.7805
 9389SOL    HW239801   3.392   0.238   1.098  0.1120  0.2915  0.1065
 9390SOL     OW39802   0.976   4.076  17.094 -0.5132  0.0930  0.4862
 9390SOL    HW139803   1.057   4.026  17.102 -1.5875 -1.6585  0.5156
 9390SOL    HW239804   1.007   4.151  17.044  1.6937 -1.3850 -0.3340
 9391SOL     OW39805   1.280   2.782   4.644 -0.2955 -0.4064 -0.0597
 9391SOL    HW139806   1.216   2.735   4.698 -0.0326 -0.4837  0.1842
 9391SOL    HW239807   1.360   2.778   4.696 -1.2040  1.4302  1.4798
 9392SOL     OW39808   1.206   1.776   9.104 -0.4347 -0.3518  0.0340
 9392SOL    HW139809   1.168   1.696   9.140  1.1640 -0.2005  2.0618
 9392SOL    HW239810   1.296   1.759   9.077 -0.5041  0.2493 -0.6030
 9393SOL     OW39811   2.209   4.124   9.432  0.6629 -0.3630  0.4078
 9393SOL    HW139812   2.200   4.095   9.341  0.4218 -1.9430  0.9465
 9393SOL    HW239813   2.168   4.211   9.426 -0.4415 -0.9974 -1.4300
 9394SOL     OW39814   1.015   3.470   5.937 -0.2485  0.9111  0.1741
 9394SOL    HW139815   0.973   3.555   5.951 -2.0334  0.0158  0.2861
 9394SOL    HW239816   1.019   3.471   5.841  0.3652  0.3012  0.1981
 9395SOL     OW39817   0.134   3.111   8.730  0.2672  0.3862  0.1558
 9395SOL    HW139818   0.223   3.078   8.741 -0.7839 -3.0899 -1.6086
 9395SOL    HW239819   0.097   3.033   8.688 -1.5437  0.3342  1.8346
 9396SOL     OW39820   4.495   1.566   8.501 -0.4653  0.0688  0.3708
 9396SOL    HW139821   4.568   1.507   8.519 -0.9666 -0.1209  1.8191
 9396SOL    HW239822   4.469   1.531   8.415 -2.1077 -1.6458  1.5612
 9397SOL     OW39823   3.286   0.242  12.944  0.1702  0.0635 -0.2558
 9397SOL    HW139824   3.278   0.159  12.992 -0.4182 -0.3616 -1.0911
 9397SOL    HW239825   3.219   0.281  13.000  0.2241 -0.0831 -0.0895
 9398SOL     OW39826   4.454   0.831   2.412 -0.5782  0.7397  0.4630
 9398SOL    HW139827   4.373   0.881   2.399 -0.9138 -0.4191 -1.9019
 9398SOL    HW239828   4.521   0.900   2.409 -0.9812  0.9656 -3.1993
 9399SOL     OW39829   2.001   3.089   7.522 -0.4911  0.1342  0.3671
 9399SOL    HW139830   2.023   2.999   7.498  1.3576  0.4450  0.8731
 9399SOL    HW239831   1.985   3.116   7.432 -1.9507  2.7985  1.4143
 9400SOL     OW39832   4.224   0.757   4.412  0.1567  0.5494  0.3203
 9400SOL    HW139833   4.303   0.722   4.371  0.2790 -1.0761  1.9836
 9400SOL    HW239834   4.263   0.808   4.483  0.7572 -2.2886  2.0072
 9401SOL     OW39835   1.714   3.298   5.204  0.0178 -0.1442 -0.0098
 9401SOL    HW139836   1.655   3.244   5.257 -0.1327 -1.6092 -1.6324
 9401SOL    HW239837   1.738   3.226   5.144  1.9388  1.0321 -0.6253
 9402SOL     OW39838   2.275   0.739   9.315  0.2013  0.3241 -0.2930
 9402SOL    HW139839   2.309   0.819   9.275  0.3674  0.2815 -0.2329
 9402SOL    HW239840   2.180   0.753   9.308 -0.1541 -2.4116 -1.0143
 9403SOL     OW39841   0.798   1.072   6.128  0.7599  0.1828  0.2497
 9403SOL    HW139842   0.879   1.100   6.171  1.0705 -0.8873  0.3692
 9403SOL    HW239843   0.730   1.107   6.185  0.5419  0.5800 -0.2476
 9404SOL     OW39844   1.871   3.944   7.486  0.2397 -0.6525 -0.1570
 9404SOL    HW139845   1.964   3.920   7.482  0.6943  0.9720  0.7444
 9404SOL    HW239846   1.839   3.948   7.576 -0.6490  2.0899 -0.5947
 9405SOL     OW39847   3.616   0.376   2.297 -0.3988  0.1144  0.1865
 9405SOL    HW139848   3.613   0.319   2.220 -0.4321 -0.6038  0.7134
 9405SOL    HW239849   3.640   0.462   2.262  0.0616 -0.0587  0.0771
 9406SOL     OW39850   4.691   1.414  15.010 -0.4265 -0.0062  0.1784
 9406SOL    HW139851   4.689   1.319  15.010 -0.0913 -0.0155 -1.1498
 9406SOL    HW239852   4.669   1.436  14.919 -2.4344 -2.1333  0.1561
 9407SOL     OW39853   4.507   2.512   6.982 -0.1999  0.1725  0.6351
 9407SOL    HW139854   4.599   2.527   6.963  0.0416 -2.1842 -0.1068
 9407SOL    HW239855   4.470   2.600   6.991 -0.4032  0.2298 -0.7898
 9408SOL     OW39856   2.167   0.333   7.337 -0.5560  0.2730 -0.4123
 9408SOL    HW139857   2.227   0.331   7.262  0.7525 -3.1408  0.6871
 9408SOL    HW239858   2.184   0.247   7.376 -1.4254 -0.0335 -0.7123
 9409SOL     OW39859   1.329   3.567   4.742  0.2305  0.0502  0.1735
 9409SOL    HW139860   1.266   3.574   4.671 -0.8202 -1.0058  0.9925
 9409SOL    HW239861   1.409   3.557   4.691  0.8242  3.6231  0.4280
 9410SOL     OW39862   0.128   0.994   5.427  0.0152  0.1696 -0.0735
 9410SOL    HW139863   0.192   0.987   5.356 -1.6770  0.2953 -1.6222
 9410SOL    HW239864   0.178   1.048   5.488  0.7186 -0.1949 -0.3261
 9411SOL     OW39865   2.691   0.353  15.747 -0.0178 -0.2130  0.0530
 9411SOL    HW139866   2.717   0.435  15.705  0.5937  0.1506  1.1109
 9411SOL    HW239867   2.608   0.335  15.704 -0.1568 -0.6013  0.4814
 9412SOL     OW39868   4.638   2.905  11.713  0.0785  0.3417  0.4445
 9412SOL    HW139869   4.674   2.817  11.704  1.1032  0.8657 -0.4608
 9412SOL    HW239870   4.698   2.950  11.773  0.2270  1.2489 -0.3951
 9413SOL     OW39871   0.575   4.515  12.479  0.7364 -0.3095  0.0555
 9413SOL    HW139872   0.663   4.513  12.441  1.4438 -1.5299  1.7182
 9413SOL    HW239873   0.565   4.604  12.512  0.5286  0.0365 -0.9571
 9414SOL     OW39874   0.906   4.345   7.290  0.1669 -0.2464 -0.0691
 9414SOL    HW139875   0.981   4.341   7.349  0.9008  0.4966 -0.9536
 9414SOL    HW239876   0.836   4.338   7.354 -0.0610 -2.6893 -0.5668
 9415SOL     OW39877   3.472   4.688  17.233  0.1172  0.0244 -0.8505
 9415SOL    HW139878   3.403   4.622  17.245  1.5288 -1.1679  0.8049
 9415SOL    HW239879   3.432   0.013  17.173 -0.9642 -1.6817 -1.8894
 9416SOL     OW39880   2.779   2.752   1.620 -0.0489  0.3232  0.0031
 9416SOL    HW139881   2.733   2.676   1.586 -1.4286  0.5296  1.4059
 9416SOL    HW239882   2.781   2.715   1.709  2.1057  0.6530  0.0963
 9417SOL     OW39883   4.733   4.342   4.117 -0.3349 -0.3501  0.3843
 9417SOL    HW139884   0.003   4.435   4.098  1.2395 -0.5025  0.2038
 9417SOL    HW239885   4.657   4.325   4.062 -1.6790  4.2772  0.8367
 9418SOL     OW39886   1.569   3.276  12.774  0.3025  0.4067 -0.2044
 9418SOL    HW139887   1.606   3.356  12.812  0.2417 -0.1321  0.9775
 9418SOL    HW239888   1.481   3.288  12.808  0.4351  2.4905 -0.6096
 9419SOL     OW39889   3.485   0.174   8.321  0.2062 -0.2691 -0.1072
 9419SOL    HW139890   3.453   0.107   8.261  0.1430  0.8056 -1.2715
 9419SOL    HW239891   3.477   0.131   8.406 -0.9655  1.6306  0.7524
 9420SOL     OW39892   1.759   0.254   3.528 -0.7107  0.1626 -0.1396
 9420SOL    HW139893   1.831   0.283   3.585 -0.9296 -0.8427  0.6669
 9420SOL    HW239894   1.684   0.266   3.586  1.4348  2.6525  2.1304
 9421SOL     OW39895   0.361   2.609   4.287  0.2808  0.3517 -0.7014
 9421SOL    HW139896   0.353   2.544   4.217  2.2292  0.1875 -0.7717
 9421SOL    HW239897   0.372   2.682   4.227 -0.8614  0.6774 -0.5142
 9422SOL     OW39898   1.578   2.836   8.827 -0.3442 -0.7373  0.1011
 9422SOL    HW139899   1.655   2.795   8.789  0.5065  2.5798 -1.7242
 9422SOL    HW239900   1.566   2.920   8.783 -0.0054 -0.2706  0.9033
 9423SOL     OW39901   4.429   4.445   0.085 -0.0707 -0.6814 -0.0878
 9423SOL    HW139902   4.471   4.382   0.026 -1.1107 -2.8331  1.4692
 9423SOL    HW239903   4.484   4.520   0.065  0.7979 -1.5929 -1.1304
 9424SOL     OW39904   3.457   0.841   8.483  0.6203  0.1150  0.1195
 9424SOL    HW139905   3.395   0.914   8.473 -1.3802 -1.6701 -0.6362
 9424SOL    HW239906   3.533   0.896   8.500  0.8457 -0.3324  0.5429
 9425SOL     OW39907   2.907   2.215  10.322  0.8381  0.0223 -0.5598
 9425SOL    HW139908   2.945   2.238  10.407 -0.5971 -0.3204  0.1778
 9425SOL    HW239909   2.961   2.145  10.285 -1.3321 -2.4966  0.9373
 9426SOL     OW39910   1.026   3.352  12.085  0.0479 -0.3689  0.1960
 9426SOL    HW139911   1.108   3.303  12.092 -0.8850 -1.7437  1.6630
 9426SOL    HW239912   1.005   3.318  11.998 -0.7551 -2.4349  1.2092
 9427SOL     OW39913   4.065   3.226   3.642  0.4627  0.9579  0.3428
 9427SOL    HW139914   4.154   3.208   3.611 -1.0569 -2.8482 -1.9293
 9427SOL    HW239915   4.058   3.321   3.637  1.8595  1.0225 -0.2798
 9428SOL     OW39916   2.366   4.506   0.374 -0.0853  0.6030  0.4392
 9428SOL    HW139917   2.363   4.520   0.468 -1.2805  0.5732  0.4092
 9428SOL    HW239918   2.456   4.487   0.349 -0.8391 -0.3986 -1.5492
 9429SOL     OW39919   2.717   4.234   6.298  0.1144 -0.5983 -0.1683
 9429SOL    HW139920   2.637   4.226   6.349  0.9792 -0.4171  1.2200
 9429SOL    HW239921   2.687   4.269   6.214 -0.4177 -0.8376 -0.0794
 9430SOL     OW39922   4.333   1.878   5.947  0.1900 -0.1529  0.4555
 9430SOL    HW139923   4.413   1.827   5.943 -1.0299 -1.8195 -2.1129
 9430SOL    HW239924   4.283   1.857   5.869  1.9058 -1.6530 -0.2288
 9431SOL     OW39925   4.387   4.118   0.971 -0.2399  0.1684  0.3673
 9431SOL    HW139926   4.448   4.168   0.917  0.0461  0.2451  0.7634
 9431SOL    HW239927   4.365   4.044   0.913  0.8334  1.7677 -2.0770
 9432SOL     OW39928   1.514   2.958  16.937 -0.0623  0.4763  0.6980
 9432SOL    HW139929   1.536   3.017  17.009  1.5941 -0.4459  0.9718
 9432SOL    HW239930   1.424   2.982  16.916  0.8206  2.2125 -1.0294
 9433SOL     OW39931   1.580   2.065   3.910  0.0847  0.2624  0.0975
 9433SOL    HW139932   1.647   2.113   3.862  0.1522  0.3861  0.3155
 9433SOL    HW239933   1.500   2.090   3.865  0.3690  0.7144 -0.1440
 9434SOL     OW39934   2.693   4.199  11.654  0.4200 -0.2270  0.0871
 9434SOL    HW139935   2.625   4.266  11.652  0.6343 -0.1013 -3.7073
 9434SOL    HW239936   2.763   4.231  11.597 -1.7882  1.3084 -1.7992
 9435SOL     OW39937   1.268   4.508   5.582  0.4783  0.3608 -0.1674
 9435SOL    HW139938   1.217   4.458   5.646 -1.6762 -0.3638 -2.4798
 9435SOL    HW239939   1.355   4.502   5.623  0.2820 -1.2154  0.0222
 9436SOL     OW39940   0.560   0.727   8.713 -0.3348 -0.4514  0.2970
 9436SOL    HW139941   0.644   0.696   8.680 -0.8823 -2.6016  0.9505
 9436SOL    HW239942   0.581   0.820   8.724  1.2776 -0.9803  1.6079
 9437SOL     OW39943   2.033   2.233   0.228  0.6479  0.2675 -0.5924
 9437SOL    HW139944   2.048   2.180   0.306  3.5416  0.7039 -0.8352
 9437SOL    HW239945   1.939   2.251   0.226  0.3306 -1.2250  0.8657
 9438SOL     OW39946   1.133   0.468   9.420 -0.3238  0.6805 -0.1052
 9438SOL    HW139947   1.083   0.459   9.501 -2.4974  1.5427 -1.3557
 9438SOL    HW239948   1.150   0.375   9.400 -0.3705  0.4838  0.7451
 9439SOL     OW39949   0.439   2.944   6.039  0.4534  0.0592  0.0160
 9439SOL    HW139950   0.379   3.015   6.017  1.1802  0.7982  0.3854
 9439SOL    HW239951   0.482   2.980   6.117  1.2407  2.5800 -1.5712
 9440SOL     OW39952   2.920   1.090  15.583 -0.4997  0.4593 -0.4297
 9440SOL    HW139953   2.951   1.136  15.505 -2.0767 -0.0540 -1.3560
 9440SOL    HW239954   2.933   0.999  15.557 -1.0992 -0.2113  1.6145
 9441SOL     OW39955   3.348   0.269   6.688  0.1424  0.2628  0.2901
 9441SOL    HW139956   3.333   0.304   6.600 -0.1289 -2.3961 -0.7029
 9441SOL    HW239957   3.276   0.210   6.709  0.3049 -1.1437 -3.0668
 9442SOL     OW39958   3.679   2.151   7.435  0.3053 -0.1159 -0.0398
 9442SOL    HW139959   3.750   2.179   7.493  0.5301 -0.0950 -0.3230
 9442SOL    HW239960   3.729   2.120   7.359 -3.2034 -0.6249 -2.1240
 9443SOL     OW39961   1.566   4.480  12.052 -0.2047  0.4266 -0.1655
 9443SOL    HW139962   1.529   4.568  12.053  0.7873  0.8283  1.0291
 9443SOL    HW239963   1.560   4.460  12.145  1.6276  0.0962 -0.1068
 9444SOL     OW39964   2.199   0.909   0.407  0.2413 -0.7093  0.2608
 9444SOL    HW139965   2.107   0.898   0.380 -0.3223  1.3549  1.3514
 9444SOL    HW239966   2.228   0.824   0.440  0.4422 -0.5990  0.3662
 9445SOL     OW39967   0.506   3.879  16.082 -0.2571  0.6920  0.0700
 9445SOL    HW139968   0.584   3.828  16.102  1.0425  0.9745 -4.1784
 9445SOL    HW239969   0.541   3.963  16.051  1.4633  1.1111  3.1197
 9446SOL     OW39970   3.446   2.775  17.662 -0.3920 -0.1573 -0.1390
 9446SOL    HW139971   3.354   2.758  17.678 -0.5413  1.5435  0.8109
 9446SOL    HW239972   3.484   2.771   0.002 -0.3623 -1.9732 -0.2242
 9447SOL     OW39973   3.156   0.656   2.342  0.0834  0.5534  0.2754
 9447SOL    HW139974   3.158   0.560   2.338  1.2620  0.5752  0.1614
 9447SOL    HW239975   3.100   0.665   2.265 -0.6215 -0.0612  0.7257
 9448SOL     OW39976   1.651   2.267   2.455 -0.0790 -0.4980 -0.5041
 9448SOL    HW139977   1.729   2.248   2.508  1.3593  0.4046 -2.2730
 9448SOL    HW239978   1.684   2.264   2.365  0.4691 -1.6617 -0.2723
 9449SOL     OW39979   2.101   0.426  15.229 -0.0518  0.1363  0.0489
 9449SOL    HW139980   2.114   0.449  15.321 -1.3483  0.8501  0.0585
 9449SOL    HW239981   2.065   0.338  15.243 -1.3686  0.6224 -0.2888
 9450SOL     OW39982   2.250   2.915  17.648  0.9020  0.4898  0.0468
 9450SOL    HW139983   2.257   2.920  17.743  0.0238 -2.4980  0.2601
 9450SOL    HW239984   2.340   2.896  17.621  1.5939  0.4929  2.3654
 9451SOL     OW39985   2.580   3.779  15.065 -0.0032  1.1485  1.0834
 9451SOL    HW139986   2.664   3.787  15.109  0.4302  0.3040  0.4231
 9451SOL    HW239987   2.569   3.870  15.038 -0.5244 -0.6467 -4.7668
 9452SOL     OW39988   0.756   2.943  15.237  0.3657  0.1334  0.6590
 9452SOL    HW139989   0.687   2.885  15.268 -1.9600  1.8638 -1.2484
 9452SOL    HW239990   0.780   2.895  15.158 -1.1919  4.1965 -2.2797
 9453SOL     OW39991   2.500   4.448   6.781  0.4500 -0.3410 -0.4847
 9453SOL    HW139992   2.509   4.370   6.725  2.7003  0.6596 -1.5016
 9453SOL    HW239993   2.407   4.454   6.803  0.4135 -0.4608 -0.6047
 9454SOL     OW39994   4.731   1.148   9.518  0.7455  0.1803  0.3163
 9454SOL    HW139995   4.654   1.095   9.537  1.3222 -1.4894 -1.9154
 9454SOL    HW239996   0.018   1.193   9.599 -0.4023  1.7768 -0.2115
 9455SOL     OW39997   3.553   3.279  12.474 -0.8505 -0.0866 -0.3652
 9455SOL    HW139998   3.518   3.335  12.543 -1.0564 -1.3125  0.5275
 9455SOL    HW239999   3.587   3.203  12.520  1.1313  0.1784 -1.3733
 9456SOL     OW40000   3.373   0.531  15.165 -0.2891  0.1368 -0.8454
 9456SOL    HW140001   3.387   0.436  15.166 -0.0228  0.1906  1.2707
 9456SOL    HW240002   3.316   0.555  15.092  0.4911 -1.9391 -2.1419
 9457SOL     OW40003   2.262   2.235   1.194 -0.4137  0.4573  0.0166
 9457SOL    HW140004   2.222   2.321   1.210 -1.5339 -0.5745  2.5979
 9457SOL    HW240005   2.219   2.213   1.111 -2.0837  0.8778  0.7621
 9458SOL     OW40006   2.763   2.571   3.728 -0.1244 -0.5400  0.2682
 9458SOL    HW140007   2.842   2.613   3.695  1.1363 -2.2547  1.1336
 9458SOL    HW240008   2.774   2.488   3.682  1.1544 -0.0716 -0.2704
 9459SOL     OW40009   0.942   0.517   6.579 -0.0065  0.1795  0.4492
 9459SOL    HW140010   1.032   0.529   6.548 -0.4057 -1.1848 -1.2343
 9459SOL    HW240011   0.917   0.435   6.535  0.9373  0.6070 -0.9093
 9460SOL     OW40012   0.113   4.073   5.930  0.0497 -0.1223  0.6427
 9460SOL    HW140013   0.062   4.153   5.919  0.1623 -0.2786 -0.9583
 9460SOL    HW240014   0.138   4.065   5.838  0.0244 -0.3032  0.6518
 9461SOL     OW40015   1.579   1.426  10.640  0.4703  0.5036 -0.0373
 9461SOL    HW140016   1.557   1.366  10.568  0.9684  1.2648 -0.8141
 9461SOL    HW240017   1.549   1.374  10.715  1.6285  1.1573  0.8692
 9462SOL     OW40018   2.252   1.967   2.154  0.0762  0.1913  0.0767
 9462SOL    HW140019   2.179   1.948   2.095 -0.1883  3.0726 -0.4924
 9462SOL    HW240020   2.238   1.906   2.227  2.3341  2.2376  2.1967
 9463SOL     OW40021   2.135   2.462   9.648 -0.0527 -0.3100  0.3283
 9463SOL    HW140022   2.137   2.547   9.604  0.1200  1.1185  3.0938
 9463SOL    HW240023   2.225   2.433   9.633  0.2158  0.9868 -0.5139
 9464SOL     OW40024   0.302   4.733   7.241  0.0431 -0.5307 -0.0583
 9464SOL    HW140025   0.224   4.714   7.293 -0.1840 -1.4121 -0.7178
 9464SOL    HW240026   0.260   0.022   7.159  1.2841  2.5678  0.3263
 9465SOL     OW40027   1.720   3.664   9.004 -0.1182  0.2768  0.2131
 9465SOL    HW140028   1.669   3.741   9.028 -0.6022  0.3655 -1.1074
 9465SOL    HW240029   1.653   3.615   8.956 -0.6546  0.6720  0.5624
 9466SOL     OW40030   0.557   0.621   7.612 -0.0784 -0.7718 -0.5779
 9466SOL    HW140031   0.580   0.709   7.641 -1.7942 -0.1594 -1.1003
 9466SOL    HW240032   0.596   0.610   7.526 -1.4486  0.8947 -1.4026
 9467SOL     OW40033   2.344   2.489   0.738  0.1284 -0.0293  0.0640
 9467SOL    HW140034   2.273   2.437   0.700  1.0311 -0.0639 -1.5879
 9467SOL    HW240035   2.300   2.509   0.821 -0.8180  0.7434 -0.6148
 9468SOL     OW40036   4.311   2.602   2.023  0.1718 -0.5104 -0.1234
 9468SOL    HW140037   4.400   2.579   1.993  0.4009  2.0725 -1.4120
 9468SOL    HW240038   4.281   2.635   1.939  1.9923  2.0678  0.2446
 9469SOL     OW40039   4.565   4.577  15.673 -0.0762  0.4891 -0.1653
 9469SOL    HW140040   4.579   4.583  15.579  2.7345 -0.6075  0.1823
 9469SOL    HW240041   4.648   4.610  15.707 -0.5045  0.1307  1.2374
 9470SOL     OW40042   4.170   3.926  11.960  1.3281  0.2356 -0.2215
 9470SOL    HW140043   4.214   3.918  11.875  0.7864  0.6518 -0.5410
 9470SOL    HW240044   4.093   3.977  11.936  0.8108 -0.2287  0.4513
 9471SOL     OW40045   3.758   0.089   8.386  0.2433 -0.5578 -0.4393
 9471SOL    HW140046   3.687   0.150   8.368  0.3700 -0.8210 -1.7814
 9471SOL    HW240047   3.792   0.129   8.467 -2.6221  1.0718 -0.0401
 9472SOL     OW40048   2.363   0.618   5.859 -0.4447  0.5780 -0.0731
 9472SOL    HW140049   2.305   0.690   5.833 -0.2656  0.0486 -1.9648
 9472SOL    HW240050   2.294   0.552   5.869  0.6681 -0.7772 -1.3718
 9473SOL     OW40051   2.035   2.676   5.520  0.0059  0.4046  0.1665
 9473SOL    HW140052   1.961   2.620   5.546  0.0389 -0.5147 -1.6755
 9473SOL    HW240053   2.016   2.670   5.426  0.1814  1.0812  0.0933
 9474SOL     OW40054   1.312   1.249   9.073  0.1626  0.2082  0.0214
 9474SOL    HW140055   1.291   1.157   9.057 -2.6798  1.0374 -1.1570
 9474SOL    HW240056   1.289   1.286   8.988  0.5311  0.4454  0.0239
 9475SOL     OW40057   1.288   2.136   7.361  0.2195 -0.0769 -0.6524
 9475SOL    HW140058   1.258   2.092   7.440 -0.0528  3.7710  1.3737
 9475SOL    HW240059   1.204   2.178   7.342 -0.8967 -0.5736  3.3002
 9476SOL     OW40060   1.721   0.867   2.744  0.4250 -0.1137  0.3067
 9476SOL    HW140061   1.694   0.950   2.785 -1.4896  0.6410 -2.4650
 9476SOL    HW240062   1.786   0.846   2.811  1.7563 -0.5004 -1.1031
 9477SOL     OW40063   4.296   3.786  10.270 -0.4102  0.7048 -0.2934
 9477SOL    HW140064   4.321   3.783  10.362  2.3877  0.4555 -1.0719
 9477SOL    HW240065   4.381   3.770  10.230 -1.1851 -0.4188 -1.5112
 9478SOL     OW40066   2.541   3.723   7.715 -0.6386  0.4269 -0.5876
 9478SOL    HW140067   2.505   3.721   7.804 -2.4701 -0.1564 -1.3451
 9478SOL    HW240068   2.465   3.676   7.681 -0.7852  0.6294 -0.5369
 9479SOL     OW40069   0.608   2.993   5.102  0.0275 -0.0492 -0.4084
 9479SOL    HW140070   0.613   3.075   5.054 -0.3538  0.3080  0.1554
 9479SOL    HW240071   0.678   3.005   5.166  0.6035  0.0105 -1.0648
 9480SOL     OW40072   2.821   4.511   4.910  0.0851  0.0460  0.3739
 9480SOL    HW140073   2.873   4.496   4.831 -0.6367 -1.9462  0.2791
 9480SOL    HW240074   2.738   4.544   4.875 -0.2006 -2.8172 -1.6123
 9481SOL     OW40075   2.546   4.311   2.311  0.2443 -0.0075 -0.0429
 9481SOL    HW140076   2.524   4.245   2.245  0.9832 -0.5120  0.2271
 9481SOL    HW240077   2.638   4.289   2.320  0.5069  1.9038  1.8907
 9482SOL     OW40078   3.094   4.082   5.063  1.0371  0.4098  0.4112
 9482SOL    HW140079   3.085   4.038   5.148 -1.1207 -0.3285 -0.2154
 9482SOL    HW240080   3.075   4.172   5.089 -1.4388 -0.9539  3.3695
 9483SOL     OW40081   3.958   3.155   7.998 -0.2992  0.6960  0.9367
 9483SOL    HW140082   4.000   3.069   7.992 -1.4967  0.2553 -1.3413
 9483SOL    HW240083   3.937   3.172   7.906  1.7318 -1.9655 -0.0398
 9484SOL     OW40084   1.829   2.726   0.947  0.0627  0.4023 -0.1878
 9484SOL    HW140085   1.910   2.777   0.950  1.2016 -1.4216 -0.1284
 9484SOL    HW240086   1.775   2.794   0.907 -0.2433  1.3758  1.8447
 9485SOL     OW40087   0.563   4.653   3.237 -0.4100  0.5935  0.4344
 9485SOL    HW140088   0.644   4.687   3.198  2.1139 -1.0537  4.2852
 9485SOL    HW240089   0.564   4.561   3.210  0.9184  0.6144  0.3915
 9486SOL     OW40090   1.662   2.521   5.254 -0.1750 -0.6303 -0.2582
 9486SOL    HW140091   1.647   2.570   5.174 -2.0138  2.8084  2.1684
 9486SOL    HW240092   1.640   2.430   5.237  0.5441 -0.9791  0.6903
 9487SOL     OW40093   4.036   3.042   4.737 -0.2535 -0.3098 -0.2624
 9487SOL    HW140094   3.991   2.995   4.667  0.8844  1.5453 -2.2249
 9487SOL    HW240095   4.076   3.123   4.706  1.3911 -1.0936 -0.1996
 9488SOL     OW40096   0.555   0.910   0.160 -0.0900 -0.1953  0.0605
 9488SOL    HW140097   0.641   0.872   0.145 -0.0104  0.6017 -1.5786
 9488SOL    HW240098   0.530   0.876   0.246  0.4237 -1.5919 -0.3505
 9489SOL     OW40099   3.603   3.535   6.537 -0.7030 -0.0792  0.0836
 9489SOL    HW140100   3.521   3.537   6.487 -1.0671 -1.1008  0.6507
 9489SOL    HW240101   3.664   3.498   6.472  0.2503 -0.7693  1.3724
 9490SOL     OW40102   2.080   0.475   9.524 -0.2061 -0.1958 -0.7495
 9490SOL    HW140103   2.080   0.564   9.558 -0.1385 -0.5454  0.1544
 9490SOL    HW240104   1.989   0.461   9.549 -0.6948  2.1803 -1.1517
 9491SOL     OW40105   4.530   3.423  10.020  0.3543 -0.0897 -0.0128
 9491SOL    HW140106   4.558   3.347  10.071 -0.1060  0.2227  0.7117
 9491SOL    HW240107   4.546   3.500  10.074 -1.1013  1.9165 -2.4372
 9492SOL     OW40108   3.009   3.707   7.829  0.1527 -1.2154 -0.5993
 9492SOL    HW140109   3.002   3.766   7.754 -1.0580 -1.4791 -0.6940
 9492SOL    HW240110   2.936   3.746   7.877  1.9588  0.0984  1.0742
 9493SOL     OW40111   2.078   2.171   1.611  0.3114  0.3801 -0.2694
 9493SOL    HW140112   2.154   2.228   1.599  0.4520  0.8333  2.8098
 9493SOL    HW240113   2.107   2.096   1.664  0.9719 -0.5332 -1.9053
 9494SOL     OW40114   4.199   3.435   5.284 -0.0220 -0.5634 -0.1154
 9494SOL    HW140115   4.176   3.500   5.218 -1.0014 -1.6605 -0.8433
 9494SOL    HW240116   4.148   3.356   5.267 -0.9350 -0.5233  2.3979
 9495SOL     OW40117   3.128   2.658  11.652 -0.3556  0.3452  0.2829
 9495SOL    HW140118   3.045   2.704  11.653 -0.6418 -0.1617  0.0178
 9495SOL    HW240119   3.189   2.731  11.643 -0.7993  0.7402  0.5492
 9496SOL     OW40120   3.605   1.328   7.365  0.0535 -0.4143 -0.2936
 9496SOL    HW140121   3.577   1.259   7.426 -0.3305  0.6870  0.7733
 9496SOL    HW240122   3.576   1.401   7.419  1.2237 -0.7144  0.7504
 9497SOL     OW40123   3.481   4.219   0.354 -0.0388  0.2034 -0.0561
 9497SOL    HW140124   3.411   4.266   0.399  0.0205  0.5107 -0.2834
 9497SOL    HW240125   3.445   4.131   0.348  1.4591 -0.4865  1.1166
 9498SOL     OW40126   0.375   1.343   2.956  0.0319  0.0380  0.1403
 9498SOL    HW140127   0.312   1.347   3.028 -0.3195  0.9089 -0.2094
 9498SOL    HW240128   0.372   1.250   2.933  3.0125 -0.0133 -0.0617
 9499SOL     OW40129   2.410   3.084  10.147  0.2914 -0.3845  0.1494
 9499SOL    HW140130   2.443   3.128  10.068  0.5712  0.9474  1.0107
 9499SOL    HW240131   2.349   3.023  10.105 -1.6001  0.3081  1.8884
 9500SOL     OW40132   1.903   1.878  17.058  0.2805 -0.0650 -0.4354
 9500SOL    HW140133   1.865   1.913  16.977  1.3012 -1.7688 -1.6388
 9500SOL    HW240134   1.941   1.803  17.013  0.5786 -0.4806  0.5125
 9501SOL     OW40135   0.734   3.672   9.302 -0.5337 -0.0851  0.8913
 9501SOL    HW140136   0.722   3.767   9.300  0.5359  0.0384  0.2179
 9501SOL    HW240137   0.763   3.653   9.213  2.5587  0.2034  1.8379
 9502SOL     OW40138   3.168   3.003   2.126  0.1942  0.1305  0.1675
 9502SOL    HW140139   3.216   2.933   2.172  4.0975  2.9664  0.4583
 9502SOL    HW240140   3.217   3.082   2.149 -0.2070  0.1434  0.9867
 9503SOL     OW40141   0.166   0.460   4.564  0.6937 -0.4401 -0.3734
 9503SOL    HW140142   0.260   0.471   4.570  0.5306  0.9809 -0.3440
 9503SOL    HW240143   0.165   0.464   4.468 -1.6588  0.2971 -0.3272
 9504SOL     OW40144   0.517   1.157  13.350  0.0353 -0.0081 -0.3616
 9504SOL    HW140145   0.513   1.062  13.361  0.6546 -0.0349 -0.3832
 9504SOL    HW240146   0.495   1.171  13.258  1.6512 -1.6782 -0.9951
 9505SOL     OW40147   3.039   0.785  17.703  0.3862 -0.0602 -0.7966
 9505SOL    HW140148   2.994   0.846  17.644  0.5766  0.8546  0.0102
 9505SOL    HW240149   2.969   0.777   0.019 -0.2341 -1.0496 -1.5972
 9506SOL     OW40150   3.059   2.502   2.671 -0.2696  0.6030  0.3016
 9506SOL    HW140151   2.975   2.475   2.635 -0.7248  0.3429  1.5729
 9506SOL    HW240152   3.052   2.461   2.757  2.9030 -0.2113  0.1838
 9507SOL     OW40153   3.994   2.148   7.323  0.6599 -0.1242 -0.5249
 9507SOL    HW140154   4.014   2.155   7.230 -1.6787 -1.3163 -1.1258
 9507SOL    HW240155   4.059   2.078   7.327  0.2405 -0.4226  1.2572
 9508SOL     OW40156   3.768   3.454   5.733  0.5462  0.3242 -0.4985
 9508SOL    HW140157   3.704   3.458   5.663  0.9651  0.3432 -0.8770
 9508SOL    HW240158   3.757   3.361   5.751  2.6875 -0.2904 -2.3964
 9509SOL     OW40159   2.206   3.228   5.108 -0.5071  0.0327  0.6997
 9509SOL    HW140160   2.249   3.266   5.185 -1.3177  1.0794  0.6379
 9509SOL    HW240161   2.124   3.277   5.104 -0.3496  0.3496  1.2820
 9510SOL     OW40162   0.851   2.686  13.559 -0.4660 -0.1045 -0.2919
 9510SOL    HW140163   0.915   2.620  13.532  1.2929  3.0751 -3.8662
 9510SOL    HW240164   0.767   2.641  13.569 -0.8115 -0.0459 -2.9893
 9511SOL     OW40165   4.582   0.793   7.253 -0.7574 -0.7720  0.0924
 9511SOL    HW140166   4.523   0.721   7.229 -0.5166 -0.6135 -0.9728
 9511SOL    HW240167   4.610   0.827   7.168 -1.7044 -0.9248 -0.2762
 9512SOL     OW40168   3.429   1.601  11.363  0.1521  0.8291 -0.7712
 9512SOL    HW140169   3.484   1.525  11.348  1.0780  1.4053 -0.2476
 9512SOL    HW240170   3.495   1.670  11.368  1.3502 -0.3618 -0.3500
 9513SOL     OW40171   0.197   2.615  13.022  0.0516 -0.1757 -0.1085
 9513SOL    HW140172   0.235   2.683  13.078 -1.8363  0.2716  0.6399
 9513SOL    HW240173   0.142   2.674  12.969  0.1407  1.0006  1.1035
 9514SOL     OW40174   0.589   1.025   5.140  0.3316 -0.4809 -0.3910
 9514SOL    HW140175   0.562   0.962   5.073  1.6813  0.8943 -2.2184
 9514SOL    HW240176   0.684   1.020   5.150  0.2500  0.3011  0.8186
 9515SOL     OW40177   3.331   0.800   6.528 -0.0274 -0.0645 -0.3103
 9515SOL    HW140178   3.349   0.890   6.557 -2.8144  1.2379 -2.6264
 9515SOL    HW240179   3.240   0.794   6.559  1.0764  0.5512  3.1183
 9516SOL     OW40180   1.084   1.789   8.420 -0.2403  0.9161 -0.2291
 9516SOL    HW140181   1.086   1.803   8.515  2.2178 -0.5922 -0.0516
 9516SOL    HW240182   1.134   1.708   8.412  0.0776  0.8269  2.4547
 9517SOL     OW40183   2.809   3.748  15.768  0.0473  0.4921  0.2317
 9517SOL    HW140184   2.859   3.741  15.687 -0.8759 -1.3456 -0.1831
 9517SOL    HW240185   2.764   3.831  15.753 -0.3657  0.1743 -0.2763
 9518SOL     OW40186   0.417   0.935   6.091  0.0139  0.1096 -0.3302
 9518SOL    HW140187   0.434   0.841   6.103 -0.1350 -0.1113 -1.8698
 9518SOL    HW240188   0.397   0.961   6.181  0.7943 -1.2337  0.2339
 9519SOL     OW40189   3.997   4.084   6.993  0.3027  0.0906 -0.2055
 9519SOL    HW140190   3.929   4.108   7.056 -0.6822 -2.2168 -0.3848
 9519SOL    HW240191   3.985   3.990   7.000 -2.0034  0.5073  1.2530
 9520SOL     OW40192   3.651   4.706   7.742 -0.4796  0.5865 -0.2255
 9520SOL    HW140193   3.579   0.018   7.702 -1.1511 -0.4689 -0.3304
 9520SOL    HW240194   3.662   4.628   7.687  1.2858  0.4306  0.3496
 9521SOL     OW40195   0.697   3.547   6.961 -0.2980  0.3705  0.4975
 9521SOL    HW140196   0.778   3.497   6.949 -0.3801 -0.1419  2.0529
 9521SOL    HW240197   0.633   3.476   6.971 -0.6539  0.6604  0.2978
 9522SOL     OW40198   3.235   4.712   3.115  0.3106 -0.2589 -0.4889
 9522SOL    HW140199   3.313   4.698   3.169 -0.3029 -3.2105 -0.3720
 9522SOL    HW240200   3.163   4.684   3.173 -0.7204  1.0676 -1.1110
 9523SOL     OW40201   4.074   4.726  13.968  0.3900  0.1002 -0.9632
 9523SOL    HW140202   3.998   4.684  14.008  1.5509 -0.3895  0.7237
 9523SOL    HW240203   4.036   4.722  13.880 -2.1020 -0.4057  0.1226
 9524SOL     OW40204   3.716   2.505   5.963 -0.0510 -0.2610 -0.2091
 9524SOL    HW140205   3.758   2.446   6.025 -1.3495 -1.1323 -0.1814
 9524SOL    HW240206   3.679   2.570   6.023  0.6271  1.4547 -1.6235
 9525SOL     OW40207   2.966   3.235   5.945  0.1681  0.4111 -0.2497
 9525SOL    HW140208   2.966   3.227   5.849 -0.1581  2.0997 -0.3881
 9525SOL    HW240209   2.939   3.326   5.953  0.0935  0.3893 -0.2494
 9526SOL     OW40210   2.072   0.334   4.472  0.2718 -0.5249  0.0634
 9526SOL    HW140211   2.036   0.294   4.393  0.8582  1.4364 -1.1698
 9526SOL    HW240212   2.165   0.330   4.448  0.4704  1.8010  0.4626
 9527SOL     OW40213   2.218   3.249   6.294 -0.1546  0.2804  1.3091
 9527SOL    HW140214   2.213   3.333   6.248 -1.9291 -1.3427 -1.5118
 9527SOL    HW240215   2.313   3.243   6.289 -0.2494 -1.2305  1.5415
 9528SOL     OW40216   1.700   3.111  16.410 -0.3892  0.2775  0.6737
 9528SOL    HW140217   1.757   3.035  16.416 -0.7803 -0.0749 -0.0692
 9528SOL    HW240218   1.669   3.138  16.496 -1.0306  2.1434 -0.1418
 9529SOL     OW40219   2.089   1.174   9.806 -0.4356  0.2500  0.3018
 9529SOL    HW140220   2.005   1.137   9.777 -0.9377  2.5083 -1.1705
 9529SOL    HW240221   2.062   1.260   9.840 -0.1221  0.2385  0.5717
 9530SOL     OW40222   0.541   0.782   0.423  0.0632  0.1069 -0.2253
 9530SOL    HW140223   0.575   0.695   0.441  0.2859 -0.1854 -1.9862
 9530SOL    HW240224   0.612   0.844   0.435  0.5809 -0.5588  0.0915
 9531SOL     OW40225   0.156   0.324   7.570  0.1310 -0.3028 -0.0247
 9531SOL    HW140226   0.227   0.260   7.565  0.8206  0.3638  1.1602
 9531SOL    HW240227   0.214   0.398   7.587  1.7627 -1.5514 -0.1792
 9532SOL     OW40228   4.518   4.146   4.309 -0.2451 -0.0064 -0.7368
 9532SOL    HW140229   4.574   4.070   4.322  0.5942  0.7511  0.1246
 9532SOL    HW240230   4.431   4.106   4.310 -0.3869  0.3151  0.0295
 9533SOL     OW40231   0.363   4.206  11.019 -0.2065 -0.3931  0.3843
 9533SOL    HW140232   0.351   4.138  11.085 -0.1932 -0.0624  0.7275
 9533SOL    HW240233   0.452   4.189  10.989  0.2361  1.9752  0.3348
 9534SOL     OW40234   0.319   0.289  13.107  0.1044 -0.1525  0.2930
 9534SOL    HW140235   0.264   0.216  13.136 -1.1257  0.1024 -1.4453
 9534SOL    HW240236   0.403   0.244  13.107  0.2702  0.1645 -2.2679
 9535SOL     OW40237   2.465   0.390   8.775  0.4916 -0.3187 -0.2123
 9535SOL    HW140238   2.460   0.384   8.679 -1.6603  0.8078 -0.1933
 9535SOL    HW240239   2.556   0.366   8.787  0.9571  0.7366 -1.5746
 9536SOL     OW40240   2.571   4.576   1.059 -0.3038  0.1221  0.3975
 9536SOL    HW140241   2.648   4.631   1.067  0.5067 -1.1283  1.1150
 9536SOL    HW240242   2.582   4.517   1.134  2.5808 -0.3245 -0.4013
 9537SOL     OW40243   2.671   3.897   4.385  0.0606 -0.3307  0.6155
 9537SOL    HW140244   2.622   3.964   4.338 -0.6552 -1.2032  0.1059
 9537SOL    HW240245   2.763   3.920   4.374 -0.0856 -0.3775 -0.6876
 9538SOL     OW40246   4.088   1.874   5.757  0.2750  0.6308 -0.3595
 9538SOL    HW140247   4.033   1.939   5.714 -1.3423 -0.6755 -0.2397
 9538SOL    HW240248   4.158   1.862   5.693  0.4756 -2.7457  0.5344
 9539SOL     OW40249   1.813   4.470   6.934 -0.4152  0.7619  0.5580
 9539SOL    HW140250   1.776   4.490   6.849  0.8588  0.2774 -0.1168
 9539SOL    HW240251   1.756   4.521   6.992 -3.9870 -2.7891  0.1875
 9540SOL     OW40252   3.718   1.678   1.715  0.8152  0.0954 -0.1567
 9540SOL    HW140253   3.679   1.740   1.777 -0.2222  0.7773 -1.4791
 9540SOL    HW240254   3.738   1.733   1.639 -1.1498  1.1285  0.0668
 9541SOL     OW40255   3.650   3.655   2.238  0.3821  0.6399  0.2232
 9541SOL    HW140256   3.603   3.724   2.283  1.5367  0.8739  1.0682
 9541SOL    HW240257   3.644   3.588   2.306  0.1396 -0.0671 -0.4938
 9542SOL     OW40258   3.607   2.807  17.255  0.0265 -0.3033  0.1321
 9542SOL    HW140259   3.525   2.819  17.209 -0.1770  0.9802  0.8207
 9542SOL    HW240260   3.667   2.839  17.188 -1.3324  0.4912 -0.6837
 9543SOL     OW40261   1.138   0.709   2.164 -0.2886 -0.0830 -0.2798
 9543SOL    HW140262   1.230   0.699   2.141 -0.2702 -1.6592  0.4914
 9543SOL    HW240263   1.137   0.685   2.257 -0.1949  2.8843  0.4810
 9544SOL     OW40264   0.179   4.354   3.657  0.3305  0.2016  0.6276
 9544SOL    HW140265   0.229   4.360   3.576 -1.2086  2.4971 -0.1591
 9544SOL    HW240266   0.094   4.321   3.629  0.4458  1.3012 -0.9700
 9545SOL     OW40267   4.067   4.586  14.707  0.0091  0.2902  0.2944
 9545SOL    HW140268   3.980   4.625  14.693 -0.5307 -0.4438  1.5516
 9545SOL    HW240269   4.070   4.539  14.624 -0.6860  1.1869 -0.2399
 9546SOL     OW40270   3.255   1.554   4.821  0.3218 -0.3961  0.2454
 9546SOL    HW140271   3.248   1.484   4.755 -2.1834 -1.0540  1.2129
 9546SOL    HW240272   3.347   1.548   4.846  0.6810 -0.9217 -1.1994
 9547SOL     OW40273   0.502   4.589   9.124 -0.4236  0.0680 -0.2220
 9547SOL    HW140274   0.489   4.579   9.030  2.7991  0.9296 -0.7487
 9547SOL    HW240275   0.428   4.533   9.148 -1.0304 -0.7338 -3.9623
 9548SOL     OW40276   2.362   3.908   7.908  0.3092 -0.0561 -0.2266
 9548SOL    HW140277   2.271   3.935   7.921  1.3892  2.6270  1.7695
 9548SOL    HW240278   2.363   3.824   7.955 -0.6791 -0.2289 -0.5226
 9549SOL     OW40279   1.706   3.322   6.245 -0.3217  0.6037  0.6427
 9549SOL    HW140280   1.706   3.366   6.161 -2.3256 -2.3613 -0.8936
 9549SOL    HW240281   1.693   3.233   6.212 -0.4936  0.2279  1.7092
 9550SOL     OW40282   1.267   2.094   0.446  0.4697  0.0781  0.6796
 9550SOL    HW140283   1.359   2.096   0.471  0.5658  0.5457  0.2832
 9550SOL    HW240284   1.254   2.020   0.387 -1.0175  0.2139  0.8355
 9551SOL     OW40285   3.417   3.872   9.707 -0.1290 -0.3257 -0.0627
 9551SOL    HW140286   3.473   3.928   9.761 -1.8052  0.1860  1.1705
 9551SOL    HW240287   3.361   3.834   9.775 -0.6990  0.2771 -0.1907
 9552SOL     OW40288   0.726   0.069   2.503 -0.1098  0.0246  0.6297
 9552SOL    HW140289   0.732   4.712   2.519  1.9573 -0.1763 -1.4010
 9552SOL    HW240290   0.814   0.099   2.523  0.5830 -0.5349 -1.5870
 9553SOL     OW40291   4.032   4.430   7.800  0.1406  0.6166 -0.1152
 9553SOL    HW140292   4.070   4.412   7.714  0.6921 -0.1146  0.2699
 9553SOL    HW240293   3.955   4.374   7.805  0.2014  0.7337  2.4669
 9554SOL     OW40294   3.868   4.234   3.685  0.2212 -0.9172  0.2665
 9554SOL    HW140295   3.892   4.193   3.768  2.6357  2.3755  1.2228
 9554SOL    HW240296   3.948   4.282   3.661 -0.2440 -0.1243  0.2871
 9555SOL     OW40297   0.938   4.041   4.624 -0.1409  0.3526  0.0873
 9555SOL    HW140298   0.882   4.091   4.565 -0.1746  0.2337  0.0168
 9555SOL    HW240299   0.967   4.110   4.683 -0.7306  0.4737  0.2273
 9556SOL     OW40300   2.735   4.340  13.822 -0.0390  0.0866  0.4814
 9556SOL    HW140301   2.707   4.315  13.911  2.4891 -0.8839  0.9868
 9556SOL    HW240302   2.735   4.436  13.832  0.3889 -0.0320  1.6213
 9557SOL     OW40303   1.893   3.732   4.448 -0.5228  0.2155  0.7385
 9557SOL    HW140304   1.876   3.815   4.493 -2.3634  0.1161  0.2374
 9557SOL    HW240305   1.956   3.746   4.378 -0.8323  0.8312  0.5851
 9558SOL     OW40306   3.259   3.274   6.815 -0.5492 -0.1998  0.4333
 9558SOL    HW140307   3.278   3.318   6.898  0.7954  1.8417 -0.9641
 9558SOL    HW240308   3.201   3.342   6.781 -2.1483 -1.5095  0.5450
 9559SOL     OW40309   1.194   0.967   5.915  0.5016  0.3210 -0.1074
 9559SOL    HW140310   1.202   0.874   5.890  0.6054  0.4026 -0.3797
 9559SOL    HW240311   1.224   0.959   6.006 -0.0662  0.7511  0.1117
 9560SOL     OW40312   1.024   4.073   3.198 -0.2307 -0.3442 -0.2898
 9560SOL    HW140313   1.019   4.104   3.108  1.5180 -1.0139 -0.6246
 9560SOL    HW240314   0.934   4.087   3.225 -0.3647 -1.2713 -0.2390
 9561SOL     OW40315   4.051   3.141   2.589  0.2579  0.8658 -0.5880
 9561SOL    HW140316   4.111   3.082   2.544 -1.2621 -0.6405 -0.6417
 9561SOL    HW240317   4.064   3.230   2.557  2.7919  0.1148 -1.6393
 9562SOL     OW40318   1.770   2.377   6.460  0.6951 -0.0890 -0.2260
 9562SOL    HW140319   1.814   2.447   6.412 -0.2141  0.4247 -0.3072
 9562SOL    HW240320   1.840   2.316   6.483 -0.9988 -1.6333  0.8501
 9563SOL     OW40321   4.085   2.256   6.265 -0.0983  0.2305  0.1794
 9563SOL    HW140322   4.117   2.191   6.202 -2.5621 -0.7744 -0.0385
 9563SOL    HW240323   4.145   2.327   6.243  2.7279 -2.5996 -1.3424
 9564SOL     OW40324   3.703   1.543   2.970  0.1919  0.0160 -0.1965
 9564SOL    HW140325   3.779   1.584   3.012  0.0075 -1.0250  1.1384
 9564SOL    HW240326   3.672   1.476   3.030 -1.8617 -1.0555 -2.4646
 9565SOL     OW40327   1.518   3.266   9.262  0.0939 -0.1909 -0.6549
 9565SOL    HW140328   1.518   3.336   9.198  0.9330  0.2915 -0.1298
 9565SOL    HW240329   1.426   3.242   9.278  0.5691 -0.9004  1.0622
 9566SOL     OW40330   0.679   0.678   3.673  0.3406  0.1413  0.2092
 9566SOL    HW140331   0.727   0.608   3.719  0.7508  0.7567  0.7169
 9566SOL    HW240332   0.734   0.748   3.707  0.4709  0.8428 -1.4715
 9567SOL     OW40333   0.578   1.064  14.822  0.0641 -0.8563  0.1705
 9567SOL    HW140334   0.667   1.071  14.787 -0.6904  0.2976 -1.5639
 9567SOL    HW240335   0.531   1.026  14.747  0.3537 -0.7057 -0.0911
 9568SOL     OW40336   3.152   2.188   8.586 -0.0612  0.1449  0.1809
 9568SOL    HW140337   3.222   2.123   8.598  0.5477  0.7137 -0.3406
 9568SOL    HW240338   3.089   2.166   8.656 -0.4137 -0.8928 -0.4552
 9569SOL     OW40339   3.741   2.086  10.984  0.2864  0.3119  0.2529
 9569SOL    HW140340   3.816   2.140  11.007 -0.7861  0.7622  2.7394
 9569SOL    HW240341   3.767   2.074  10.893  0.5104 -1.4466  0.5498
 9570SOL     OW40342   2.359   4.423   3.621  0.0132  0.1653 -0.4643
 9570SOL    HW140343   2.304   4.357   3.579  0.0508  0.8313 -1.5529
 9570SOL    HW240344   2.370   4.493   3.557 -0.5624 -0.9003 -1.7213
 9571SOL     OW40345   2.833   0.295   5.898  0.2294  0.3300  0.0324
 9571SOL    HW140346   2.842   0.359   5.827  1.0416 -1.3627 -1.4031
 9571SOL    HW240347   2.770   0.335   5.958  1.1852 -0.4583  1.5565
   4.73756   4.73756  17.74846
